default_name
   151
   1.3290000   0.0000000   0.0000000   0.4481754  -0.4627852  -0.1734327
   1.1499815   0.9730196   0.2031886   1.8682617  -0.5596758   0.6450267
   2.0930000   0.0000000  -1.2420000   2.3090924   1.0246230  -1.5445739
   3.4170000  -0.7430000  -1.0510000   3.1818437  -1.7305365  -0.6540461
   3.8766770  -0.8470660  -2.0338364   4.3820000  -0.0370000  -0.1130000
   4.2437900   1.0388235  -0.2207152   4.1479741  -0.3322513   0.9098199
   5.8260000  -0.3960000  -0.4260000   5.8544247  -0.9848676  -1.3428020
   6.3972703   0.5216358  -0.5663360   6.4420000  -1.1710000   0.6470000
   6.5175654  -2.1706825   0.5244272   6.9060000  -0.6330000   1.7700000
   6.8230000   0.6750000   1.9650000   6.4058043   1.2625244   1.2572834
   7.1773149   1.0784408   2.8204508   7.4540000  -1.4050000   2.7000000
   7.5171306  -2.4020173   2.5514367   7.8054046  -0.9919665   3.5520662
   1.2940000  -0.6440000  -2.3710000   1.5870000  -1.7530000  -2.8180000
   0.2610000   0.0680000  -2.8450000  -0.1460000   1.3980000  -2.3610000
   0.7270083   2.0489699  -2.3141492  -0.5819367   1.3035465  -1.3664465
  -1.1490000   1.8500000  -3.3860000  -0.6459100   2.4400517  -4.1520538
  -1.9137434   2.4584939  -2.9032950  -1.7400000   0.6080000  -3.9570000
  -2.0405886   0.7996348  -4.9870590  -2.5933726   0.2292442  -3.3945066
  -0.6010000  -0.4140000  -3.9290000  -0.9356813  -1.4191900  -3.6727195
   0.1190000  -0.4460000  -5.2720000   1.2080000   0.1040000  -5.4330000
  -0.5010000  -1.1060000  -6.2620000  -1.8020000  -1.7870000  -6.1410000
  -2.5204375  -1.1147641  -5.6719086  -1.6873350  -2.6807352  -5.5276581
  -2.1590000  -2.1110000  -7.5650000  -2.7761595  -1.3123356  -7.9765196
  -2.7117104  -3.0499185  -7.5973204  -0.8650000  -2.2300000  -8.2950000
  -1.0175948  -1.9430640  -9.3354237  -0.4279262  -3.2276961  -8.2541513
   0.0630000  -1.2250000  -7.6090000   1.0875398  -1.5851761  -7.5157816
   0.0580000   0.1030000  -8.3590000   0.9270000   0.3610000  -9.1900000
  -0.9290000   0.9430000  -8.0600000  -1.6280826   0.6994301  -7.3729363
  -1.0280000   2.2340000  -8.7140000  -1.0605659   2.0729306  -9.7915413
  -1.9516420   2.7141664  -8.3908512   0.1410000   3.1420000  -8.3860000
   0.4280000   4.0860000  -9.1210000   0.8160000   2.8570000  -7.2770000
   0.5236124   2.0890421  -6.6897611   1.9580000   3.6570000  -6.8510000
   1.8885968   4.6583358  -7.2759811   1.9850000   3.7740000  -5.3260000
   1.3790834   2.9870455  -4.8769266   3.0088511   3.6970307  -4.9600702
   1.4430000   5.0780000  -4.8150000   2.2990000   6.1060000  -4.4530000
   3.3752503   5.9585342  -4.5426605   1.8030000   7.3070000  -3.9830000
   2.4869612   8.1079552  -3.7023428   0.4390000   7.4920000  -3.8690000
   0.0444341   8.4372880  -3.4963765  -0.4250000   6.4770000  -4.2280000
  -1.5019644   6.6216893  -4.1424842   0.0760000   5.2770000  -4.6960000
  -0.6057313   4.4740451  -4.9763674   3.2650000   3.0470000  -7.3490000
   4.2390000   3.7570000  -7.5980000   3.2780000   1.7250000  -7.4900000
   2.4620643   1.1818439  -7.2464231   4.4660000   1.0180000  -7.9530000
   5.2828723   1.1625911  -7.2459553   4.1800000  -0.4810000  -8.0700000
   3.1009504  -0.6336594  -8.0488732   4.5786934  -0.8398946  -9.0188616
   4.7790000  -1.1980000  -7.0050000   4.5857741  -2.1334935  -7.1004749
   4.9330000   1.5640000  -9.2990000   4.1800000   2.2030000 -10.0340000
   6.2080000   1.3080000  -9.6300000   7.1630000   0.5520000  -8.8030000
   6.6989381  -0.3772539  -8.4724942   7.4401069   1.1483670  -7.9337145
   8.3220000   0.3200000  -9.7320000   8.2057550  -0.6450771 -10.2251656
   9.2516949   0.3270506  -9.1630369   8.2910000   1.4400000 -10.7140000
   8.7084609   1.0933981 -11.6593532   8.8289929   2.3286525 -10.3839091
   6.8050000   1.7640000 -10.8890000   6.6089663   2.8315882 -10.9886213
   6.2390000   1.0290000 -12.0990000   6.3300000   1.5110000 -13.2290000
   5.6550000  -0.1400000 -11.8560000   5.6315622  -0.5080290 -10.9157316
   5.0750000  -0.9420000 -12.9270000   5.7300135  -0.9266136 -13.7981026
   4.9020000  -2.3920000 -12.4710000   4.9167741  -2.4478034 -11.3825300
   3.9601116  -2.7958843 -12.8422461   5.9860000  -3.3080000 -12.9630000
   6.0750000  -3.6400000 -14.3050000   5.3470203  -3.2282746 -15.0040190
   7.0710000  -4.4820000 -14.7610000   7.1309334  -4.7335209 -15.8198890
   7.9910000  -5.0050000 -13.8740000   8.7767691  -5.6713707 -14.2298328
   7.9140000  -4.6820000 -12.5330000   8.6397246  -5.0909750 -11.8300325
   6.9150000  -3.8390000 -12.0830000   6.8517337  -3.5850531 -11.0248846
   3.7290000  -0.3710000 -13.3660000   3.2820000  -0.6010000 -14.4900000
   3.0890000   0.3740000 -12.4700000   3.4831717   0.5113742 -11.5502955
   1.7940000   0.9760000 -12.7640000   1.7060043   1.1619464 -13.8344111
   0.6630000   0.0390000 -12.3360000   1.0971264  -0.7194652 -11.6845677
  -0.0564077   0.6328713 -11.7722008  -0.0410000  -0.6370000 -13.5010000
  -1.1005694  -0.7241396 -13.2605415   0.0799574  -0.0130603 -14.3865341
   0.5320000  -2.0190000 -13.7730000   1.5548465  -2.0590076 -13.3984557
  -0.0735268  -2.7624639 -13.2546389   0.5430000  -2.3360000 -15.1990000
   0.1021852  -1.6837930 -15.8317777   1.1010000  -3.4300000 -15.7040000
   1.6900000  -4.3080000 -14.9040000   1.7133969  -4.1426560 -13.9079006
   2.1125845  -5.1381481 -15.2943539   1.0690000  -3.6490000 -17.0120000
   0.6191374  -2.9813245 -17.6218632   1.4946448  -4.4824021 -17.3919555
   1.6480000   2.3210000 -12.0580000   0.6550000   3.0250000 -12.2420000
   2.5203701   2.7202182 -11.2898628
