%VERSION  VERSION_STAMP = V0001.000  DATE = 06/08/26  06:46:57                  
%FLAG TITLE                                                                     
%FORMAT(20a4)                                                                   
default_name                                                                    
%FLAG POINTERS                                                                  
%FORMAT(10I8)                                                                   
     151      11      75      80     172     108     353     293       0       0
     842       9      80     108     293      32      70      50      19       0
       0       0       0       0       0       0       0       0      26       0
       0
%FLAG ATOM_NAME                                                                 
%FORMAT(20a4)                                                                   
N   H1  H2  H3  CA  HA  CB  HB2 HB3 CG  HG2 HG3 CD  HD2 HD3 NE  HE  CZ  NH1 HH11
HH12NH2 HH21HH22C   O   N   CD  HD2 HD3 CG  HG2 HG3 CB  HB2 HB3 CA  HA  C   O   
N   CD  HD2 HD3 CG  HG2 HG3 CB  HB2 HB3 CA  HA  C   O   N   H   CA  HA2 HA3 C   
O   N   H   CA  HA  CB  HB2 HB3 CG  CD1 HD1 CE1 HE1 CZ  HZ  CE2 HE2 CD2 HD2 C   
O   N   H   CA  HA  CB  HB2 HB3 OG  HG  C   O   N   CD  HD2 HD3 CG  HG2 HG3 CB  
HB2 HB3 CA  HA  C   O   N   H   CA  HA  CB  HB2 HB3 CG  CD1 HD1 CE1 HE1 CZ  HZ  
CE2 HE2 CD2 HD2 C   O   N   H   CA  HA  CB  HB2 HB3 CG  HG2 HG3 CD  HD2 HD3 NE  
HE  CZ  NH1 HH11HH12NH2 HH21HH22C   O   OXT 
%FLAG CHARGE                                                                    
%FORMAT(5E16.8)                                                                 
  2.37801015E+00  3.79570509E+00  3.79570509E+00  3.79570509E+00 -4.06357290E-01
  2.26320966E+00  2.15023140E-01  4.11823980E-01  4.11823980E-01  4.30046280E-01
  5.63069070E-01  5.63069070E-01  1.70378505E+00  9.60315210E-01  9.60315210E-01
 -1.02955995E+01  6.54545016E+00  1.50898866E+01 -1.58406454E+01  8.18910162E+00
  8.18910162E+00 -1.58406454E+01  8.18910162E+00  8.18910162E+00  1.31455672E+01
 -1.09570690E+01 -4.64304204E+00  3.49868160E-01  7.12491930E-01  7.12491930E-01
  3.44401470E-01  3.88134990E-01  3.88134990E-01 -1.27556100E-01  4.61024190E-01
  4.61024190E-01 -4.84713180E-01  1.16804943E+00  1.07438681E+01 -1.04741780E+01
 -4.64304204E+00  3.49868160E-01  7.12491930E-01  7.12491930E-01  3.44401470E-01
  3.88134990E-01  3.88134990E-01 -1.27556100E-01  4.61024190E-01  4.61024190E-01
 -4.84713180E-01  1.16804943E+00  1.07438681E+01 -1.04741780E+01 -7.57501011E+00
  4.95464337E+00 -4.59201960E-01  1.27191654E+00  1.27191654E+00  1.08841798E+01
 -1.03484442E+01 -7.57501011E+00  4.95464337E+00 -4.37335200E-02  1.78214094E+00
 -6.25024890E-01  5.37557850E-01  5.37557850E-01  2.15023140E-01 -2.28872088E+00
  2.42356590E+00 -3.10507992E+00  2.60578890E+00 -1.95343056E+00  2.36343231E+00
 -3.10507992E+00  2.60578890E+00 -2.28872088E+00  2.42356590E+00  1.08841798E+01
 -1.03484442E+01 -7.57501011E+00  4.95464337E+00 -4.53735270E-01  1.53613989E+00
  3.85766091E+00  6.41424960E-01  6.41424960E-01 -1.19283176E+01  7.79003325E+00
  1.08841798E+01 -1.03484442E+01 -4.64304204E+00  3.49868160E-01  7.12491930E-01
  7.12491930E-01  3.44401470E-01  3.88134990E-01  3.88134990E-01 -1.27556100E-01
  4.61024190E-01  4.61024190E-01 -4.84713180E-01  1.16804943E+00  1.07438681E+01
 -1.04741780E+01 -7.57501011E+00  4.95464337E+00 -4.37335200E-02  1.78214094E+00
 -6.25024890E-01  5.37557850E-01  5.37557850E-01  2.15023140E-01 -2.28872088E+00
  2.42356590E+00 -3.10507992E+00  2.60578890E+00 -1.95343056E+00  2.36343231E+00
 -3.10507992E+00  2.60578890E+00 -2.28872088E+00  2.42356590E+00  1.08841798E+01
 -1.03484442E+01 -6.34318263E+00  5.03664372E+00 -5.59060164E+00  2.63676681E+00
 -6.81514020E-01  6.76047330E-01  6.76047330E-01  1.35573912E+00  3.37112550E-01
  3.37112550E-01  2.02996422E+00  8.52803640E-01  8.52803640E-01 -1.01388877E+01
  6.33953817E+00  1.52484206E+01 -1.59208235E+01  8.18727939E+00  8.18727939E+00
 -1.59208235E+01  8.18727939E+00  8.18727939E+00  1.55928221E+01 -1.50625532E+01
 -1.50625532E+01
%FLAG ATOMIC_NUMBER                                                             
%FORMAT(10I8)                                                                   
       7       1       1       1       6       1       6       1       1       6
       1       1       6       1       1       7       1       6       7       1
       1       7       1       1       6       8       7       6       1       1
       6       1       1       6       1       1       6       1       6       8
       7       6       1       1       6       1       1       6       1       1
       6       1       6       8       7       1       6       1       1       6
       8       7       1       6       1       6       1       1       6       6
       1       6       1       6       1       6       1       6       1       6
       8       7       1       6       1       6       1       1       8       1
       6       8       7       6       1       1       6       1       1       6
       1       1       6       1       6       8       7       1       6       1
       6       1       1       6       6       1       6       1       6       1
       6       1       6       1       6       8       7       1       6       1
       6       1       1       6       1       1       6       1       1       7
       1       6       7       1       1       7       1       1       6       8
       8
%FLAG MASS                                                                      
%FORMAT(5E16.8)                                                                 
  1.40100000E+01  1.00800000E+00  1.00800000E+00  1.00800000E+00  1.20100000E+01
  1.00800000E+00  1.20100000E+01  1.00800000E+00  1.00800000E+00  1.20100000E+01
  1.00800000E+00  1.00800000E+00  1.20100000E+01  1.00800000E+00  1.00800000E+00
  1.40100000E+01  1.00800000E+00  1.20100000E+01  1.40100000E+01  1.00800000E+00
  1.00800000E+00  1.40100000E+01  1.00800000E+00  1.00800000E+00  1.20100000E+01
  1.60000000E+01  1.40100000E+01  1.20100000E+01  1.00800000E+00  1.00800000E+00
  1.20100000E+01  1.00800000E+00  1.00800000E+00  1.20100000E+01  1.00800000E+00
  1.00800000E+00  1.20100000E+01  1.00800000E+00  1.20100000E+01  1.60000000E+01
  1.40100000E+01  1.20100000E+01  1.00800000E+00  1.00800000E+00  1.20100000E+01
  1.00800000E+00  1.00800000E+00  1.20100000E+01  1.00800000E+00  1.00800000E+00
  1.20100000E+01  1.00800000E+00  1.20100000E+01  1.60000000E+01  1.40100000E+01
  1.00800000E+00  1.20100000E+01  1.00800000E+00  1.00800000E+00  1.20100000E+01
  1.60000000E+01  1.40100000E+01  1.00800000E+00  1.20100000E+01  1.00800000E+00
  1.20100000E+01  1.00800000E+00  1.00800000E+00  1.20100000E+01  1.20100000E+01
  1.00800000E+00  1.20100000E+01  1.00800000E+00  1.20100000E+01  1.00800000E+00
  1.20100000E+01  1.00800000E+00  1.20100000E+01  1.00800000E+00  1.20100000E+01
  1.60000000E+01  1.40100000E+01  1.00800000E+00  1.20100000E+01  1.00800000E+00
  1.20100000E+01  1.00800000E+00  1.00800000E+00  1.60000000E+01  1.00800000E+00
  1.20100000E+01  1.60000000E+01  1.40100000E+01  1.20100000E+01  1.00800000E+00
  1.00800000E+00  1.20100000E+01  1.00800000E+00  1.00800000E+00  1.20100000E+01
  1.00800000E+00  1.00800000E+00  1.20100000E+01  1.00800000E+00  1.20100000E+01
  1.60000000E+01  1.40100000E+01  1.00800000E+00  1.20100000E+01  1.00800000E+00
  1.20100000E+01  1.00800000E+00  1.00800000E+00  1.20100000E+01  1.20100000E+01
  1.00800000E+00  1.20100000E+01  1.00800000E+00  1.20100000E+01  1.00800000E+00
  1.20100000E+01  1.00800000E+00  1.20100000E+01  1.00800000E+00  1.20100000E+01
  1.60000000E+01  1.40100000E+01  1.00800000E+00  1.20100000E+01  1.00800000E+00
  1.20100000E+01  1.00800000E+00  1.00800000E+00  1.20100000E+01  1.00800000E+00
  1.00800000E+00  1.20100000E+01  1.00800000E+00  1.00800000E+00  1.40100000E+01
  1.00800000E+00  1.20100000E+01  1.40100000E+01  1.00800000E+00  1.00800000E+00
  1.40100000E+01  1.00800000E+00  1.00800000E+00  1.20100000E+01  1.60000000E+01
  1.60000000E+01
%FLAG ATOM_TYPE_INDEX                                                           
%FORMAT(10I8)                                                                   
       1       2       2       2       3       4       3       5       5       3
       5       5       3       6       6       1       2       7       1       2
       2       1       2       2       7       8       1       3       6       6
       3       5       5       3       5       5       3       6       7       8
       1       3       6       6       3       5       5       3       5       5
       3       6       7       8       1       2       3       6       6       7
       8       1       2       3       6       3       5       5       7       7
       9       7       9       7       9       7       9       7       9       7
       8       1       2       3       6       3       6       6      10      11
       7       8       1       3       6       6       3       5       5       3
       5       5       3       6       7       8       1       2       3       6
       3       5       5       7       7       9       7       9       7       9
       7       9       7       9       7       8       1       2       3       6
       3       5       5       3       5       5       3       6       6       1
       2       7       1       2       2       1       2       2       7       8
       8
%FLAG NUMBER_EXCLUDED_ATOMS                                                     
%FORMAT(10I8)                                                                   
      12       6       5       4      13       7      12       6       5       9
       5       4       7       4       3       8       3       6       5       2
       1       2       1       1      10       3      14      11       6       5
       8       5       4       7       4       3       6       3      10       3
      14      11       6       5       8       5       4       7       4       3
       6       3       7       3       7       4       7       4       3       7
       3      10       4      12       7      12       5       4      10       8
       4       6       3       5       3       3       2       1       1       7
       3      10       4      11       7       7       4       3       2       1
      10       3      14      11       6       5       8       5       4       7
       4       3       6       3       7       3      10       4      12       7
      12       5       4      10       8       4       6       3       5       3
       3       2       1       1       7       3      10       4      11       7
      12       6       5       9       5       4       7       4       3       8
       3       6       5       2       1       2       1       1       2       1
       1
%FLAG NONBONDED_PARM_INDEX                                                      
%FORMAT(10I8)                                                                   
       1       2       4       7      11      16      22      29      37      46
      56       2       3       5       8      12      17      23      30      38
      47      57       4       5       6       9      13      18      24      31
      39      48      58       7       8       9      10      14      19      25
      32      40      49      59      11      12      13      14      15      20
      26      33      41      50      60      16      17      18      19      20
      21      27      34      42      51      61      22      23      24      25
      26      27      28      35      43      52      62      29      30      31
      32      33      34      35      36      44      53      63      37      38
      39      40      41      42      43      44      45      54      64      46
      47      48      49      50      51      52      53      54      55      65
      56      57      58      59      60      61      62      63      64      65
      66
%FLAG RESIDUE_LABEL                                                             
%FORMAT(20a4)                                                                   
ARG PRO PRO GLY PHE SER PRO PHE ARG 
%FLAG RESIDUE_POINTER                                                           
%FORMAT(10I8)                                                                   
       1      27      41      55      62      82      93     107     127
%FLAG BOND_FORCE_CONSTANT                                                       
%FORMAT(5E16.8)                                                                 
  5.70000000E+02  4.90000000E+02  4.34000000E+02  4.81000000E+02  3.40000000E+02
  3.37000000E+02  3.40000000E+02  3.10000000E+02  3.40000000E+02  3.10000000E+02
  3.17000000E+02  4.34000000E+02  3.67000000E+02  3.40000000E+02  3.17000000E+02
  3.40000000E+02  3.10000000E+02  3.10000000E+02  3.40000000E+02  3.37000000E+02
  3.37000000E+02  4.34000000E+02  3.67000000E+02  4.69000000E+02  3.17000000E+02
  5.53000000E+02  3.40000000E+02  3.20000000E+02  3.10000000E+02  6.56000000E+02
  3.40000000E+02  3.37000000E+02
%FLAG BOND_EQUIL_VALUE                                                          
%FORMAT(5E16.8)                                                                 
  1.22900000E+00  1.33500000E+00  1.01000000E+00  1.34000000E+00  1.09000000E+00
  1.46300000E+00  1.09000000E+00  1.52600000E+00  1.09000000E+00  1.52600000E+00
  1.52200000E+00  1.01000000E+00  1.47100000E+00  1.09000000E+00  1.52200000E+00
  1.09000000E+00  1.52600000E+00  1.52600000E+00  1.09000000E+00  1.44900000E+00
  1.44900000E+00  1.01000000E+00  1.08000000E+00  1.40000000E+00  1.51000000E+00
  9.60000000E-01  1.09000000E+00  1.41000000E+00  1.52600000E+00  1.25000000E+00
  1.09000000E+00  1.44900000E+00
%FLAG ANGLE_FORCE_CONSTANT                                                      
%FORMAT(5E16.8)                                                                 
  8.00000000E+01  5.00000000E+01  5.00000000E+01  3.50000000E+01  7.00000000E+01
  5.00000000E+01  5.00000000E+01  3.50000000E+01  5.00000000E+01  5.00000000E+01
  5.00000000E+01  3.50000000E+01  5.00000000E+01  8.00000000E+01  6.30000000E+01
  4.00000000E+01  5.00000000E+01  5.00000000E+01  5.00000000E+01  4.00000000E+01
  8.00000000E+01  7.00000000E+01  5.00000000E+01  3.50000000E+01  5.00000000E+01
  8.00000000E+01  8.00000000E+01  5.00000000E+01  8.00000000E+01  7.00000000E+01
  5.00000000E+01  3.50000000E+01  5.00000000E+01  6.30000000E+01  5.00000000E+01
  4.00000000E+01  5.00000000E+01  3.50000000E+01  5.00000000E+01  4.00000000E+01
  5.00000000E+01  8.00000000E+01  8.00000000E+01  5.00000000E+01  6.30000000E+01
  5.00000000E+01  3.50000000E+01  5.00000000E+01  5.00000000E+01  6.30000000E+01
  5.00000000E+01  7.00000000E+01  6.30000000E+01  5.00000000E+01  3.50000000E+01
  6.30000000E+01  5.50000000E+01  5.00000000E+01  5.00000000E+01  5.00000000E+01
  8.00000000E+01  5.00000000E+01  8.00000000E+01  5.00000000E+01  5.00000000E+01
  7.00000000E+01  5.00000000E+01  5.00000000E+01  8.00000000E+01  6.30000000E+01
%FLAG ANGLE_EQUIL_VALUE                                                         
%FORMAT(5E16.8)                                                                 
  2.14501057E+00  2.12755727E+00  2.12755727E+00  2.09439600E+00  2.09439600E+00
  2.09439600E+00  1.91113635E+00  1.91113635E+00  2.06647072E+00  2.15024656E+00
  1.91113635E+00  1.91113635E+00  1.91113635E+00  1.94080696E+00  1.93906163E+00
  1.91113635E+00  1.91113635E+00  1.91113635E+00  1.91113635E+00  1.91113635E+00
  2.10137732E+00  2.03505478E+00  1.91113635E+00  1.91113635E+00  1.91113635E+00
  1.94080696E+00  1.94080696E+00  1.91113635E+00  2.10137732E+00  2.03505478E+00
  1.91113635E+00  1.91113635E+00  1.91113635E+00  1.93906163E+00  1.91113635E+00
  1.91113635E+00  1.91113635E+00  1.91113635E+00  2.05948940E+00  1.91113635E+00
  1.91113635E+00  1.91462701E+00  1.91462701E+00  1.91113635E+00  1.92160833E+00
  2.09439600E+00  1.91113635E+00  2.06018753E+00  2.09439600E+00  2.09439600E+00
  1.91113635E+00  2.09439600E+00  1.98967620E+00  1.91113635E+00  1.91113635E+00
  1.93906163E+00  1.89368305E+00  1.91113635E+00  1.91113635E+00  1.91113635E+00
  1.91462701E+00  2.12755727E+00  2.19911580E+00  1.91113635E+00  1.91113635E+00
  2.04203610E+00  2.06018753E+00  1.91113635E+00  1.91462701E+00  1.92160833E+00
%FLAG DIHEDRAL_FORCE_CONSTANT                                                   
%FORMAT(5E16.8)                                                                 
  2.50000000E+00  0.00000000E+00  2.00000000E+00  2.00000000E+00  4.00000000E-01
  0.00000000E+00  0.00000000E+00  0.00000000E+00  2.40000000E+00  1.55555556E-01
  1.50000000E-01  1.60000000E-01  2.00000000E-01  2.00000000E-01  2.00000000E-01
  2.50000000E-01  1.80000000E-01  0.00000000E+00  0.00000000E+00  0.00000000E+00
  3.62500000E+00  5.50000000E-02  4.69000000E-01  1.92000000E-01  1.20000000E-02
  6.90000000E-02  4.80000000E-02  1.20000000E-02  2.90000000E-01  7.00000000E-03
  6.61000000E-01  2.18000000E-01  4.01000000E-01  1.29000000E-01  1.66666667E-01
  2.50000000E-01  2.11000000E-01  4.44000000E-01  2.67000000E-01  7.00000000E-03
  6.66000000E-01  2.46000000E-01  1.60000000E-01  1.80000000E+00  8.00000000E-01
  2.70000000E-01  4.20000000E-01  1.05000000E+01  1.00000000E+00  1.10000000E+00
%FLAG DIHEDRAL_PERIODICITY                                                      
%FORMAT(5E16.8)                                                                 
  2.00000000E+00  2.00000000E+00  1.00000000E+00  2.00000000E+00  3.00000000E+00
  4.00000000E+00  1.00000000E+00  3.00000000E+00  2.00000000E+00  3.00000000E+00
  3.00000000E+00  3.00000000E+00  1.00000000E+00  2.00000000E+00  1.00000000E+00
  2.00000000E+00  3.00000000E+00  3.00000000E+00  1.00000000E+00  2.00000000E+00
  2.00000000E+00  1.00000000E+00  2.00000000E+00  3.00000000E+00  4.00000000E+00
  2.00000000E+00  4.00000000E+00  1.00000000E+00  2.00000000E+00  4.00000000E+00
  1.00000000E+00  2.00000000E+00  3.00000000E+00  4.00000000E+00  3.00000000E+00
  1.00000000E+00  1.00000000E+00  2.00000000E+00  3.00000000E+00  4.00000000E+00
  1.00000000E+00  2.00000000E+00  4.00000000E+00  2.00000000E+00  3.00000000E+00
  2.00000000E+00  3.00000000E+00  2.00000000E+00  2.00000000E+00  2.00000000E+00
%FLAG DIHEDRAL_PHASE                                                            
%FORMAT(5E16.8)                                                                 
  3.14159400E+00  0.00000000E+00  0.00000000E+00  0.00000000E+00  0.00000000E+00
  0.00000000E+00  0.00000000E+00  0.00000000E+00  3.14159400E+00  0.00000000E+00
  0.00000000E+00  0.00000000E+00  0.00000000E+00  0.00000000E+00  3.14159400E+00
  3.14159400E+00  0.00000000E+00  3.14159400E+00  3.14159400E+00  3.14159400E+00
  3.14159400E+00  0.00000000E+00  3.14159400E+00  0.00000000E+00  3.14159400E+00
  3.14159400E+00  3.14159400E+00  3.14159400E+00  3.14159400E+00  3.14159400E+00
  3.14159400E+00  3.14159400E+00  0.00000000E+00  0.00000000E+00  0.00000000E+00
  0.00000000E+00  0.00000000E+00  0.00000000E+00  0.00000000E+00  0.00000000E+00
  0.00000000E+00  3.14159400E+00  0.00000000E+00  0.00000000E+00  0.00000000E+00
  0.00000000E+00  0.00000000E+00  3.14159400E+00  3.14159400E+00  3.14159400E+00
%FLAG SCEE_SCALE_FACTOR                                                         
%FORMAT(5E16.8)                                                                 
  1.20000000E+00  1.20000000E+00  1.20000000E+00  1.20000000E+00  1.20000000E+00
  1.20000000E+00  1.20000000E+00  1.20000000E+00  1.20000000E+00  1.20000000E+00
  1.20000000E+00  1.20000000E+00  1.20000000E+00  1.20000000E+00  1.20000000E+00
  1.20000000E+00  1.20000000E+00  1.20000000E+00  1.20000000E+00  1.20000000E+00
  1.20000000E+00  1.20000000E+00  1.20000000E+00  1.20000000E+00  1.20000000E+00
  1.20000000E+00  1.20000000E+00  1.20000000E+00  1.20000000E+00  1.20000000E+00
  1.20000000E+00  1.20000000E+00  1.20000000E+00  1.20000000E+00  1.20000000E+00
  1.20000000E+00  1.20000000E+00  1.20000000E+00  1.20000000E+00  1.20000000E+00
  1.20000000E+00  1.20000000E+00  1.20000000E+00  1.20000000E+00  1.20000000E+00
  1.20000000E+00  1.20000000E+00  0.00000000E+00  0.00000000E+00  0.00000000E+00
%FLAG SCNB_SCALE_FACTOR                                                         
%FORMAT(5E16.8)                                                                 
  2.00000000E+00  2.00000000E+00  2.00000000E+00  2.00000000E+00  2.00000000E+00
  2.00000000E+00  2.00000000E+00  2.00000000E+00  2.00000000E+00  2.00000000E+00
  2.00000000E+00  2.00000000E+00  2.00000000E+00  2.00000000E+00  2.00000000E+00
  2.00000000E+00  2.00000000E+00  2.00000000E+00  2.00000000E+00  2.00000000E+00
  2.00000000E+00  2.00000000E+00  2.00000000E+00  2.00000000E+00  2.00000000E+00
  2.00000000E+00  2.00000000E+00  2.00000000E+00  2.00000000E+00  2.00000000E+00
  2.00000000E+00  2.00000000E+00  2.00000000E+00  2.00000000E+00  2.00000000E+00
  2.00000000E+00  2.00000000E+00  2.00000000E+00  2.00000000E+00  2.00000000E+00
  2.00000000E+00  2.00000000E+00  2.00000000E+00  2.00000000E+00  2.00000000E+00
  2.00000000E+00  2.00000000E+00  0.00000000E+00  0.00000000E+00  0.00000000E+00
%FLAG SOLTY                                                                     
%FORMAT(5E16.8)                                                                 
  0.00000000E+00  0.00000000E+00  0.00000000E+00  0.00000000E+00  0.00000000E+00
  0.00000000E+00  0.00000000E+00  0.00000000E+00  0.00000000E+00  0.00000000E+00
  0.00000000E+00  0.00000000E+00  0.00000000E+00  0.00000000E+00  0.00000000E+00
  0.00000000E+00  0.00000000E+00  0.00000000E+00  0.00000000E+00
%FLAG LENNARD_JONES_ACOEF                                                       
%FORMAT(5E16.8)                                                                 
  9.44293233E+05  2.12601181E+03  1.39982777E-01  9.95480466E+05  2.56678134E+03
  1.04308023E+06  2.01791425E+04  9.14716912E+00  2.27401052E+04  2.01823541E+02
  8.96776989E+04  1.07193646E+02  9.71708117E+04  1.41077189E+03  7.51607703E+03
  6.20665997E+04  5.94667300E+01  6.78771368E+04  8.79040886E+02  4.98586848E+03
  3.25969625E+03  8.82619071E+05  2.27577561E+03  9.24822270E+05  2.01619733E+04
  8.61541883E+04  6.01816484E+04  8.19971662E+05  6.06829342E+05  1.02595236E+03
  6.47841731E+05  1.12780457E+04  5.44261042E+04  3.69471530E+04  5.74393458E+05
  3.79876399E+05  7.91627154E+04  8.90987508E+01  8.59947003E+04  1.21014911E+03
  6.55825601E+03  4.33325458E+03  7.62451550E+04  4.77908183E+04  5.71629601E+03
  7.44975864E+05  1.40467023E+03  7.91544157E+05  1.45985502E+04  6.82786631E+04
  4.66922514E+04  7.01803794E+05  4.71003287E+05  6.00750218E+04  5.81803229E+05
  0.00000000E+00  0.00000000E+00  0.00000000E+00  0.00000000E+00  0.00000000E+00
  0.00000000E+00  0.00000000E+00  0.00000000E+00  0.00000000E+00  0.00000000E+00
  0.00000000E+00
%FLAG LENNARD_JONES_BCOEF                                                       
%FORMAT(5E16.8)                                                                 
  8.01323529E+02  2.09604198E+01  9.37598976E-02  7.36907417E+02  2.06278363E+01
  6.75612247E+02  6.45756063E+01  7.57919667E-01  6.13981767E+01  3.56012899E+00
  1.36131731E+02  2.59456373E+00  1.26919150E+02  9.41257003E+00  2.17257828E+01
  1.13252061E+02  1.93248820E+00  1.06076943E+02  7.42992380E+00  1.76949863E+01
  1.43076527E+01  6.53361429E+02  1.82891803E+01  5.99015525E+02  5.44372326E+01
  1.12529845E+02  9.40505980E+01  5.31102864E+02  6.77220874E+02  1.53505284E+01
  6.26720080E+02  5.08951803E+01  1.11805549E+02  9.21192136E+01  5.55666448E+02
  5.64885984E+02  1.26451907E+02  2.33864085E+00  1.18043746E+02  8.61880722E+00
  2.00642027E+01  1.63092814E+01  1.04660679E+02  1.03580945E+02  1.85196588E+01
  7.50714425E+02  1.79702257E+01  6.93079947E+02  5.79323581E+01  1.25287818E+02
  1.03606917E+02  6.14502845E+02  6.29300710E+02  1.16187983E+02  6.99746810E+02
  0.00000000E+00  0.00000000E+00  0.00000000E+00  0.00000000E+00  0.00000000E+00
  0.00000000E+00  0.00000000E+00  0.00000000E+00  0.00000000E+00  0.00000000E+00
  0.00000000E+00
%FLAG BONDS_INC_HYDROGEN                                                        
%FORMAT(10I8)                                                                   
      63      66       3      63      69       3      54      57       3      54
      60       3      45      48       3      36      39       5      36      42
       5      27      30       7      27      33       7      18      21       7
      18      24       7      12      15       9       0       3      12       0
       6      12       0       9      12     108     111      14      99     102
      16      99     105      16      90      93      16      90      96      16
      81      84      19      81      87      19     150     153      14     141
     144      16     141     147      16     132     135      16     132     138
      16     123     126      19     123     129      19     168     171      14
     168     174      14     162     165      22     231     234      23     225
     228      23     219     222      23     213     216      23     207     210
      23     195     198      16     195     201      16     189     192      14
     183     186      22     264     267      26     255     258      27     255
     261      27     249     252      14     243     246      22     306     309
      14     297     300      16     297     303      16     288     291      16
     288     294      16     279     282      19     279     285      19     366
     369      23     360     363      23     354     357      23     348     351
      23     342     345      23     330     333      16     330     336      16
     324     327      14     318     321      22     435     438       3     435
     441       3     426     429       3     426     432       3     417     420
       3     408     411       5     408     414       5     399     402       7
     399     405       7     390     393       7     390     396       7     384
     387      31     378     381      22
%FLAG BONDS_WITHOUT_HYDROGEN                                                    
%FORMAT(10I8)                                                                   
      72      75       1      72      78       2      51      54       4      51
      63       4      45      51       4      36      45       6      27      36
       8      18      27       8      12      18      10      12      72      11
       0      12      13     114     117       1     114     120       2     108
     114      15      99     108      17      90      99      18      81      90
      18      78      81      20      78     108      21     156     159       1
     156     162       2     150     156      15     141     150      17     132
     141      18     123     132      18     120     123      20     120     150
      21     177     180       1     177     183       2     168     177      15
     162     168      21     237     240       1     237     243       2     225
     231      24     219     225      24     213     219      24     207     213
      24     204     207      24     204     231      24     195     204      25
     189     195      17     189     237      15     183     189      21     270
     273       1     270     276       2     255     264      28     249     255
      29     249     270      15     243     249      21     312     315       1
     312     318       2     306     312      15     297     306      17     288
     297      18     279     288      18     276     279      20     276     306
      21     372     375       1     372     378       2     360     366      24
     354     360      24     348     354      24     342     348      24     339
     342      24     339     366      24     330     339      25     324     330
      17     324     372      15     318     324      21     444     447      30
     444     450      30     423     426       4     423     435       4     417
     423       4     408     417       6     399     408       8     390     399
       8     384     390      10     384     444      11     378     384      32
%FLAG ANGLES_INC_HYDROGEN                                                       
%FORMAT(10I8)                                                                   
      66      63      69       4      57      54      60       4      51      54
      57       6      51      54      60       6      51      63      66       6
      51      63      69       6      48      45      51       6      42      36
      45       7      39      36      42       8      39      36      45       7
      36      45      48       9      33      27      36      11      30      27
      33      12      30      27      36      11      27      36      39      13
      27      36      42      13      24      18      27      11      21      18
      24      12      21      18      27      11      18      27      30      11
      18      27      33      11      15      12      18      17      15      12
      72      18      12      18      21      19      12      18      24      19
       9       0      12      23       6       0       9      24       6       0
      12      23       3       0       6      24       3       0       9      24
       3       0      12      23       0      12      15      25     111     108
     114      28     105      99     108      31     102      99     105      32
     102      99     108      31      99     108     111      33      96      90
      99      35      93      90      96      32      93      90      99      35
      90      99     102      35      90      99     105      35      87      81
      90      37      84      81      87      38      84      81      90      37
      81      90      93      35      81      90      96      35      78      81
      84      41      78      81      87      41      78     108     111      44
     156     162     165      46     153     150     156      28     147     141
     150      31     144     141     147      32     144     141     150      31
     141     150     153      33     138     132     141      35     135     132
     138      32     135     132     141      35     132     141     144      35
     132     141     147      35     129     123     132      37     126     123
     129      38     126     123     132      37     123     132     135      35
     123     132     138      35     120     123     126      41     120     123
     129      41     120     150     153      44     177     183     186      46
     174     168     177      28     171     168     174      47     171     168
     177      28     165     162     168      48     162     168     171      44
     162     168     174      44     237     243     246      46     228     225
     231      49     225     231     234      49     222     219     225      49
     219     225     228      49     216     213     219      49     213     219
     222      49     210     207     213      49     207     213     216      49
     204     207     210      49     204     231     234      49     201     195
     204      51     198     195     201      32     198     195     204      51
     192     189     195      33     192     189     237      28     189     195
     198      31     189     195     201      31     186     183     189      48
     183     189     192      44     261     255     264      54     258     255
     261      55     258     255     264      54     255     264     267      57
     252     249     255      58     252     249     270      28     249     255
     258      59     249     255     261      59     246     243     249      48
     243     249     252      44     312     318     321      46     309     306
     312      28     303     297     306      31     300     297     303      32
     300     297     306      31     297     306     309      33     294     288
     297      35     291     288     294      32     291     288     297      35
     288     297     300      35     288     297     303      35     285     279
     288      37     282     279     285      38     282     279     288      37
     279     288     291      35     279     288     294      35     276     279
     282      41     276     279     285      41     276     306     309      44
     372     378     381      46     363     360     366      49     360     366
     369      49     357     354     360      49     354     360     363      49
     351     348     354      49     348     354     357      49     345     342
     348      49     342     348     351      49     339     342     345      49
     339     366     369      49     336     330     339      51     333     330
     336      32     333     330     339      51     327     324     330      33
     327     324     372      28     324     330     333      31     324     330
     336      31     321     318     324      48     318     324     327      44
     438     435     441       4     429     426     432       4     423     426
     429       6     423     426     432       6     423     435     438       6
     423     435     441       6     420     417     423       6     414     408
     417       7     411     408     414       8     411     408     417       7
     408     417     420       9     405     399     408      11     402     399
     405      12     402     399     408      11     399     408     411      13
     399     408     414      13     396     390     399      11     393     390
     396      12     393     390     399      11     390     399     402      11
     390     399     405      11     387     384     390      64     387     384
     444      65     384     390     393      19     384     390     396      19
     381     378     384      67     378     384     387      68
%FLAG ANGLES_WITHOUT_HYDROGEN                                                   
%FORMAT(10I8)                                                                   
      75      72      78       1      72      78      81       2      72      78
     108       3      54      51      63       5      45      51      54       5
      45      51      63       5      36      45      51      10      27      36
      45      14      18      12      72      15      18      27      36      16
      12      18      27      20      12      72      75      21      12      72
      78      22       0      12      18      26       0      12      72      27
     117     114     120       1     114     120     123       2     114     120
     150       3     108     114     117      29     108     114     120      30
      99     108     114      34      90      99     108      36      81      78
     108      39      81      90      99      40      78      81      90      42
      78     108      99      43      78     108     114      45     159     156
     162       1     156     162     168       3     150     156     159      29
     150     156     162      30     141     150     156      34     132     141
     150      36     123     120     150      39     123     132     141      40
     120     123     132      42     120     150     141      43     120     150
     156      45     180     177     183       1     177     183     189       3
     168     177     180      29     168     177     183      30     162     168
     177      45     240     237     243       1     237     243     249       3
     219     225     231      50     213     219     225      50     207     204
     231      50     207     213     219      50     204     207     213      50
     204     231     225      50     195     189     237      34     195     204
     207      52     195     204     231      52     189     195     204      53
     189     237     240      29     189     237     243      30     183     189
     195      43     183     189     237      45     273     270     276       1
     270     276     279       2     270     276     306       3     255     249
     270      56     249     255     264      60     249     270     273      29
     249     270     276      30     243     249     255      61     243     249
     270      45     315     312     318       1     312     318     324       3
     306     312     315      29     306     312     318      30     297     306
     312      34     288     297     306      36     279     276     306      39
     279     288     297      40     276     279     288      42     276     306
     297      43     276     306     312      45     375     372     378       1
     372     378     384      62     354     360     366      50     348     354
     360      50     342     339     366      50     342     348     354      50
     339     342     348      50     339     366     360      50     330     324
     372      34     330     339     342      52     330     339     366      52
     324     330     339      53     324     372     375      29     324     372
     378      30     318     324     330      43     318     324     372      45
     447     444     450      63     426     423     435       5     417     423
     426       5     417     423     435       5     408     417     423      10
     399     408     417      14     390     384     444      15     390     399
     408      16     384     390     399      20     384     444     447      66
     384     444     450      66     378     384     390      69     378     384
     444      70
%FLAG DIHEDRALS_INC_HYDROGEN                                                    
%FORMAT(10I8)                                                                   
      72      78      81      84       2      72      78      81      87       2
      72      78     108     111       2      60      54      51      63       9
      60      54     -51      63       6      57      54      51      63       9
      57      54     -51      63       6      54      51      63      66       9
      54      51     -63      66       6      54      51      63      69       9
      54      51     -63      69       6      48      45      51      54       9
      48      45     -51      54       6      48      45      51      63       9
      48      45     -51      63       6      45      51      54      57       9
      45      51     -54      57       6      45      51      54      60       9
      45      51     -54      60       6      45      51      63      66       9
      45      51     -63      66       6      45      51      63      69       9
      45      51     -63      69       6      42      36      45      48       8
      42      36      45      51       8      39      36      45      48       8
      39      36      45      51       8      33      27      36      39      10
      33      27      36      42      10      33      27      36      45      10
      30      27      36      39      10      30      27      36      42      10
      30      27      36      45      10      27      36      45      48       8
      24      18      12      72      10      24      18      27      30      11
      24      18      27      33      11      24      18      27      36      12
      21      18      12      72      10      21      18      27      30      11
      21      18      27      33      11      21      18      27      36      12
      18      27      36      39      10      18      27      36      42      10
      15      12      18      21      10      15      12      18      24      10
      15      12      18      27      10      15      12      72      75       2
      15      12      72      78       2      12      18      27      30      12
      12      18      27      33      12       9       0      12      15      10
       9       0      12      18      10       9       0      12      72      10
       6       0      12      15      10       6       0      12      18      10
       6       0      12      72      10       3       0      12      15      10
       3       0      12      18      10       3       0      12      72      10
       0      12      18      21      10       0      12      18      24      10
     114     120     123     126       2     114     120     123     129       2
     114     120     150     153       2     111     108     114     117       7
     111     108    -114     117       2     111     108    -114     117      18
     111     108     114     120       2     105      99     108     111      10
     105      99     108     114      10     102      99     108     111      10
     102      99     108     114      10      96      90      99     102      11
      96      90      99     105      11      96      90      99     108      12
      93      90      99     102      11      93      90      99     105      11
      93      90      99     108      12      90      99     108     111      10
      87      81      78     108       2      87      81      90      93      10
      87      81      90      96      10      87      81      90      99      10
      84      81      78     108       2      84      81      90      93      10
      84      81      90      96      10      84      81      90      99      10
      81      78     108     111       2      81      90      99     102      12
      81      90      99     105      12      78      81      90      93      10
      78      81      90      96      10      78     108      99     102      10
      78     108      99     105      10     159     156     162     165       3
     159     156    -162     165       1     156     162     168     171       2
     156     162     168     174       2     153     150     156     159       7
     153     150    -156     159       2     153     150    -156     159      18
     153     150     156     162       2     150     156     162     165       1
     147     141     150     153      10     147     141     150     156      10
     144     141     150     153      10     144     141     150     156      10
     138     132     141     144      11     138     132     141     147      11
     138     132     141     150      12     135     132     141     144      11
     135     132     141     147      11     135     132     141     150      12
     132     141     150     153      10     129     123     120     150       2
     129     123     132     135      10     129     123     132     138      10
     129     123     132     141      10     126     123     120     150       2
     126     123     132     135      10     126     123     132     138      10
     126     123     132     141      10     123     120     150     153       2
     123     132     141     144      12     123     132     141     147      12
     120     123     132     135      10     120     123     132     138      10
     120     150     141     144      10     120     150     141     147      10
     180     177     183     186       3     180     177    -183     186       1
     177     183     189     192       2     174     168     177     180       7
     174     168    -177     180       2     174     168    -177     180      18
     174     168     177     183       2     171     168     177     180       7
     171     168    -177     180       2     171     168    -177     180      18
     171     168     177     183       2     168     177     183     186       1
     165     162     168     171       2     165     162     168     174       2
     165     162     168     177       2     240     237     243     246       3
     240     237    -243     246       1     237     243     249     252       2
     228     225     231     234      21     222     219     225     228      21
     222     219     225     231      21     219     225     231     234      21
     216     213     219     222      21     216     213     219     225      21
     213     219     225     228      21     210     207     204     231      21
     210     207     213     216      21     210     207     213     219      21
     207     204     231     234      21     207     213     219     222      21
     204     207     213     216      21     204     231     225     228      21
     201     195     189     237      10     201     195     204     207       2
     201     195     204     231       2     198     195     189     237      10
     198     195     204     207       2     198     195     204     231       2
     195     204     207     210      21     195     204     231     234      21
     192     189     195     198      10     192     189     195     201      10
     192     189     195     204      10     192     189     237     240       7
     192     189    -237     240       2     192     189    -237     240      18
     192     189     237     243       2     189     237     243     246       1
     186     183     189     192       2     186     183     189     195       2
     186     183     189     237       2     183     189     195     198      10
     183     189     195     201      10     270     276     279     282       2
     270     276     279     285       2     270     276     306     309       2
     261     255     249     270      10     261     255     264     267      35
     258     255     249     270      10     258     255     264     267      35
     252     249     255     258      10     252     249     255     261      10
     252     249     255     264      36     252     249    -255     264       8
     252     249     270     273       7     252     249    -270     273       2
     252     249    -270     273      18     252     249     270     276       2
     249     255     264     267      37     249     255    -264     267      38
     249     255    -264     267      39     249     255    -264     267      40
     246     243     249     252       2     246     243     249     255       2
     246     243     249     270       2     243     249     255     258      10
     243     249     255     261      10     315     312     318     321       3
     315     312    -318     321       1     312     318     324     327       2
     309     306     312     315       7     309     306    -312     315       2
     309     306    -312     315      18     309     306     312     318       2
     306     312     318     321       1     303     297     306     309      10
     303     297     306     312      10     300     297     306     309      10
     300     297     306     312      10     294     288     297     300      11
     294     288     297     303      11     294     288     297     306      12
     291     288     297     300      11     291     288     297     303      11
     291     288     297     306      12     288     297     306     309      10
     285     279     276     306       2     285     279     288     291      10
     285     279     288     294      10     285     279     288     297      10
     282     279     276     306       2     282     279     288     291      10
     282     279     288     294      10     282     279     288     297      10
     279     276     306     309       2     279     288     297     300      12
     279     288     297     303      12     276     279     288     291      10
     276     279     288     294      10     276     306     297     300      10
     276     306     297     303      10     375     372     378     381       3
     375     372    -378     381       1     372     378     384     387       2
     363     360     366     369      21     357     354     360     363      21
     357     354     360     366      21     354     360     366     369      21
     351     348     354     357      21     351     348     354     360      21
     348     354     360     363      21     345     342     339     366      21
     345     342     348     351      21     345     342     348     354      21
     342     339     366     369      21     342     348     354     357      21
     339     342     348     351      21     339     366     360     363      21
     336     330     324     372      10     336     330     339     342       2
     336     330     339     366       2     333     330     324     372      10
     333     330     339     342       2     333     330     339     366       2
     330     339     342     345      21     330     339     366     369      21
     327     324     330     333      10     327     324     330     336      10
     327     324     330     339      10     327     324     372     375       7
     327     324    -372     375       2     327     324    -372     375      18
     327     324     372     378       2     324     372     378     381       1
     321     318     324     327       2     321     318     324     330       2
     321     318     324     372       2     318     324     330     333      10
     318     324     330     336      10     432     426     423     435       9
     432     426    -423     435       6     429     426     423     435       9
     429     426    -423     435       6     426     423     435     438       9
     426     423    -435     438       6     426     423     435     441       9
     426     423    -435     441       6     420     417     423     426       9
     420     417    -423     426       6     420     417     423     435       9
     420     417    -423     435       6     417     423     426     429       9
     417     423    -426     429       6     417     423     426     432       9
     417     423    -426     432       6     417     423     435     438       9
     417     423    -435     438       6     417     423     435     441       9
     417     423    -435     441       6     414     408     417     420       8
     414     408     417     423       8     411     408     417     420       8
     411     408     417     423       8     405     399     408     411      10
     405     399     408     414      10     405     399     408     417      10
     402     399     408     411      10     402     399     408     414      10
     402     399     408     417      10     399     408     417     420       8
     396     390     384     444      10     396     390     399     402      11
     396     390     399     405      11     396     390     399     408      12
     393     390     384     444      10     393     390     399     402      11
     393     390     399     405      11     393     390     399     408      12
     390     399     408     411      10     390     399     408     414      10
     387     384     390     393      10     387     384     390     396      10
     387     384     390     399      10     387     384     444     447       2
     387     384     444     450       2     384     390     399     402      12
     384     390     399     405      12     381     378     384     387       2
     381     378     384     390       2     381     378     384     444       2
     378     384     390     393      10     378     384     390     396      10
      51      66     -63     -69      49      51      57     -54     -60      49
      36      51     -45     -48      49     156     168    -162    -165      50
     204     225    -231    -234      50     219     231    -225    -228      50
     213     225    -219    -222      50     207     219    -213    -216      50
     204     213    -207    -210      50     177     186    -183    -189      50
     237     246    -243    -249      50     339     360    -366    -369      50
     354     366    -360    -363      50     348     360    -354    -357      50
     342     354    -348    -351      50     339     348    -342    -345      50
     312     321    -318    -324      50     423     438    -435    -441      49
     423     429    -426    -432      49     408     423    -417    -420      49
     372     384    -378    -381      50
%FLAG DIHEDRALS_WITHOUT_HYDROGEN                                                
%FORMAT(10I8)                                                                   
      75      72      78      81       1      75      72      78     108       1
      72      78      81      90       3      72      78     -81      90       4
      72      78     -81      90       5      72      78     -81      90       6
      72      78     108      99       7      72      78    -108      99       2
      72      78    -108      99       8      72      78    -108      99       6
      72      78     108     114       7      72      78    -108     114       2
      72      78    -108     114       8      72      78    -108     114       6
      36      45      51      54       9      36      45     -51      54       6
      36      45      51      63       9      36      45     -51      63       6
      27      18      12      72      10      27      36      45      51       7
      27      36     -45      51       8      18      12      72      75       2
      18      12      72      78      13      18      12     -72      78      14
      18      12     -72      78       5      18      12     -72      78       6
      18      27      36      45      10      12      18      27      36      15
      12      18     -27      36      16      12      18     -27      36      17
      12      72      78      81       1      12      72      78     108       1
       0      12      18      27      10       0      12      72      75       2
       0      12      72      78       2     117     114     120     123       1
     117     114     120     150       1     114     120     123     132       3
     114     120    -123     132       4     114     120    -123     132       5
     114     120    -123     132       6     114     120     150     141       7
     114     120    -150     141       2     114     120    -150     141       8
     114     120    -150     141       6     114     120     150     156       7
     114     120    -150     156       2     114     120    -150     156       8
     114     120    -150     156       6     108     114     120     123       1
     108     114     120     150       1      99     108     114     117       2
      99     108     114     120       7      99     108    -114     120       2
      99     108    -114     120       8      99     108    -114     120       6
      90      81     -78     108       2      90      99     108     114      10
      81      78    -108      99       2      81      78     108     114       2
      81      90     -99     108      15      81      90     -99     108      16
      81      90     -99     108      17      78      81     -90      99      10
      78     108     -99      90      10      78     108     114     117       2
      78     108     114     120      19      78     108    -114     120      20
      78     108    -114     120      18      78     108    -114     120       6
     159     156     162     168       1     156     162     168     177       7
     156     162    -168     177       2     156     162    -168     177       8
     156     162    -168     177       6     150     156     162     168       1
     141     150     156     159       2     141     150     156     162       7
     141     150    -156     162       2     141     150    -156     162       8
     141     150    -156     162       6     132     123    -120     150       2
     132     141     150     156      10     123     120    -150     141       2
     123     120     150     156       2     123     132    -141     150      15
     123     132    -141     150      16     123     132    -141     150      17
     120     123    -132     141      10     120     150    -141     132      10
     120     150     156     159       2     120     150     156     162      19
     120     150    -156     162      20     120     150    -156     162      18
     120     150    -156     162       6     180     177     183     189       1
     177     183     189     195       7     177     183    -189     195       2
     177     183    -189     195       8     177     183    -189     195       6
     177     183     189     237       7     177     183    -189     237       2
     177     183    -189     237       8     177     183    -189     237       6
     168     177     183     189       1     162     168     177     180       2
     162     168     177     183      19     162     168    -177     183      20
     162     168    -177     183      18     162     168    -177     183       6
     240     237     243     249       1     237     243     249     255       7
     237     243    -249     255       2     237     243    -249     255       8
     237     243    -249     255       6     237     243     249     270       7
     237     243    -249     270       2     237     243    -249     270       8
     237     243    -249     270       6     213     207     204     231      21
     213     219    -225     231      21     207     204     231     225      21
     207     213    -219     225      21     204     195     189     237      22
     204     195    -189     237      23     204     195    -189     237      24
     204     195    -189     237      25     204     207     213     219      21
     204     231    -225     219      21     195     189     237     240       2
     195     189     237     243       7     195     189    -237     243       2
     195     189    -237     243       8     195     189    -237     243       6
     195     204     207     213      21     195     204     231     225      21
     189     195     204     207       7     189     195    -204     207      26
     189     195    -204     207       8     189     195    -204     207      27
     189     195     204     231       7     189     195    -204     231      26
     189     195    -204     231       8     189     195    -204     231      27
     189     237     243     249       1     183     189     195     204      28
     183     189    -195     204      29     183     189    -195     204      24
     183     189    -195     204      30     183     189     237     240       2
     183     189     237     243      19     183     189    -237     243      20
     183     189    -237     243      18     183     189    -237     243       6
     273     270     276     279       1     273     270     276     306       1
     270     276     279     288       3     270     276    -279     288       4
     270     276    -279     288       5     270     276    -279     288       6
     270     276     306     297       7     270     276    -306     297       2
     270     276    -306     297       8     270     276    -306     297       6
     270     276     306     312       7     270     276    -306     312       2
     270     276    -306     312       8     270     276    -306     312       6
     264     255     249     270      31     264     255    -249     270      32
     264     255    -249     270      33     264     255    -249     270      34
     255     249     270     273       2     255     249     270     276       7
     255     249    -270     276       2     255     249    -270     276       8
     255     249    -270     276       6     249     270     276     279       1
     249     270     276     306       1     243     249     255     264      41
     243     249    -255     264      42     243     249    -255     264      33
     243     249    -255     264      43     243     249     270     273       2
     243     249     270     276      19     243     249    -270     276      20
     243     249    -270     276      18     243     249    -270     276       6
     315     312     318     324       1     312     318     324     330       7
     312     318    -324     330       2     312     318    -324     330       8
     312     318    -324     330       6     312     318     324     372       7
     312     318    -324     372       2     312     318    -324     372       8
     312     318    -324     372       6     306     312     318     324       1
     297     306     312     315       2     297     306     312     318       7
     297     306    -312     318       2     297     306    -312     318       8
     297     306    -312     318       6     288     279    -276     306       2
     288     297     306     312      10     279     276    -306     297       2
     279     276     306     312       2     279     288    -297     306      15
     279     288    -297     306      16     279     288    -297     306      17
     276     279    -288     297      10     276     306    -297     288      10
     276     306     312     315       2     276     306     312     318      19
     276     306    -312     318      20     276     306    -312     318      18
     276     306    -312     318       6     375     372     378     384       1
     372     378     384     390       3     372     378    -384     390      44
     372     378    -384     390      45     372     378    -384     390       6
     372     378     384     444       7     372     378    -384     444      46
     372     378    -384     444      47     372     378    -384     444       6
     348     342     339     366      21     348     354    -360     366      21
     342     339     366     360      21     342     348    -354     360      21
     339     330     324     372      22     339     330    -324     372      23
     339     330    -324     372      24     339     330    -324     372      25
     339     342     348     354      21     339     366    -360     354      21
     330     324     372     375       2     330     324     372     378       7
     330     324    -372     378       2     330     324    -372     378       8
     330     324    -372     378       6     330     339     342     348      21
     330     339     366     360      21     324     330     339     342       7
     324     330    -339     342      26     324     330    -339     342       8
     324     330    -339     342      27     324     330     339     366       7
     324     330    -339     366      26     324     330    -339     366       8
     324     330    -339     366      27     324     372     378     384       1
     318     324     330     339      28     318     324    -330     339      29
     318     324    -330     339      24     318     324    -330     339      30
     318     324     372     375       2     318     324     372     378      19
     318     324    -372     378      20     318     324    -372     378      18
     318     324    -372     378       6     408     417     423     426       9
     408     417    -423     426       6     408     417     423     435       9
     408     417    -423     435       6     399     390     384     444      10
     399     408     417     423       7     399     408    -417     423       8
     390     384     444     447       2     390     384     444     450       2
     390     399     408     417      10     384     390     399     408      15
     384     390    -399     408      16     384     390    -399     408      17
     378     384     390     399      10     378     384     444     447       2
     378     384     444     450       2      12      78     -72     -75      48
      45      54     -51     -63      48     108     120    -114    -117      48
      72      81     -78    -108      49     150     162    -156    -159      48
     114     123    -120    -150      49     168     183    -177    -180      48
     189     243    -237    -240      48     207     231    -204    -195      50
     249     276    -270    -273      48     306     318    -312    -315      48
     270     279    -276    -306      49     324     378    -372    -375      48
     342     366    -339    -330      50     384     447    -444    -450      48
     417     426    -423    -435      48
%FLAG EXCLUDED_ATOMS_LIST                                                       
%FORMAT(10I8)                                                                   
       2       3       4       5       6       7       8       9      10      25
      26      27       3       4       5       6       7      25       4       5
       6       7      25       5       6       7      25       6       7       8
       9      10      11      12      13      25      26      27      28      37
       7       8       9      10      25      26      27       8       9      10
      11      12      13      14      15      16      25      26      27       9
      10      11      12      13      25      10      11      12      13      25
      11      12      13      14      15      16      17      18      25      12
      13      14      15      16      13      14      15      16      14      15
      16      17      18      19      22      15      16      17      18      16
      17      18      17      18      19      20      21      22      23      24
      18      19      22      19      20      21      22      23      24      20
      21      22      23      24      21      22      22      23      24      24
       0      26      27      28      29      30      31      34      37      38
      39      27      28      37      28      29      30      31      32      33
      34      35      36      37      38      39      40      41      29      30
      31      32      33      34      35      36      37      38      39      30
      31      32      33      34      37      31      32      33      34      37
      32      33      34      35      36      37      38      39      33      34
      35      36      37      34      35      36      37      35      36      37
      38      39      40      41      36      37      38      39      37      38
      39      38      39      40      41      42      51      39      40      41
      40      41      42      43      44      45      48      51      52      53
      41      42      51      42      43      44      45      46      47      48
      49      50      51      52      53      54      55      43      44      45
      46      47      48      49      50      51      52      53      44      45
      46      47      48      51      45      46      47      48      51      46
      47      48      49      50      51      52      53      47      48      49
      50      51      48      49      50      51      49      50      51      52
      53      54      55      50      51      52      53      51      52      53
      52      53      54      55      56      57      53      54      55      54
      55      56      57      58      59      60      55      56      57      56
      57      58      59      60      61      62      57      58      59      60
      58      59      60      61      62      63      64      59      60      61
      62      60      61      62      61      62      63      64      65      66
      80      62      63      64      63      64      65      66      67      68
      69      80      81      82      64      65      66      80      65      66
      67      68      69      70      78      80      81      82      83      84
      66      67      68      69      80      81      82      67      68      69
      70      71      72      76      78      79      80      81      82      68
      69      70      78      80      69      70      78      80      70      71
      72      73      74      76      77      78      79      80      71      72
      73      74      75      76      78      79      72      73      74      78
      73      74      75      76      77      78      74      75      76      75
      76      77      78      79      76      77      78      77      78      79
      78      79      79       0      81      82      83      84      85      86
      91      82      83      84      83      84      85      86      87      88
      89      91      92      93      84      85      86      91      85      86
      87      88      89      90      91      92      93      94     103      86
      87      88      89      91      92      93      87      88      89      90
      91      92      93      88      89      90      91      89      90      91
      90      91       0      92      93      94      95      96      97     100
     103     104     105      93      94     103      94      95      96      97
      98      99     100     101     102     103     104     105     106     107
      95      96      97      98      99     100     101     102     103     104
     105      96      97      98      99     100     103      97      98      99
     100     103      98      99     100     101     102     103     104     105
      99     100     101     102     103     100     101     102     103     101
     102     103     104     105     106     107     102     103     104     105
     103     104     105     104     105     106     107     108     109     105
     106     107     106     107     108     109     110     111     125     107
     108     109     108     109     110     111     112     113     114     125
     126     127     109     110     111     125     110     111     112     113
     114     115     123     125     126     127     128     129     111     112
     113     114     125     126     127     112     113     114     115     116
     117     121     123     124     125     126     127     113     114     115
     123     125     114     115     123     125     115     116     117     118
     119     121     122     123     124     125     116     117     118     119
     120     121     123     124     117     118     119     123     118     119
     120     121     122     123     119     120     121     120     121     122
     123     124     121     122     123     122     123     124     123     124
     124       0     126     127     128     129     130     131     149     127
     128     129     128     129     130     131     132     133     134     149
     150     151     129     130     131     149     130     131     132     133
     134     135     136     137     149     150     151     131     132     133
     134     149     150     151     132     133     134     135     136     137
     138     139     140     149     150     151     133     134     135     136
     137     149     134     135     136     137     149     135     136     137
     138     139     140     141     142     149     136     137     138     139
     140     137     138     139     140     138     139     140     141     142
     143     146     139     140     141     142     140     141     142     141
     142     143     144     145     146     147     148     142     143     146
     143     144     145     146     147     148     144     145     146     147
     148     145     146     146     147     148     148       0     150     151
     151       0
%FLAG HBOND_ACOEF                                                               
%FORMAT(5E16.8)                                                                 

%FLAG HBOND_BCOEF                                                               
%FORMAT(5E16.8)                                                                 

%FLAG HBCUT                                                                     
%FORMAT(5E16.8)                                                                 

%FLAG AMBER_ATOM_TYPE                                                           
%FORMAT(20a4)                                                                   
N3  H   H   H   CX  HP  C8  HC  HC  C8  HC  HC  C8  H1  H1  N2  H   CA  N2  H   
H   N2  H   H   C   O   N   CT  H1  H1  CT  HC  HC  CT  HC  HC  XC  H1  C   O   
N   CT  H1  H1  CT  HC  HC  CT  HC  HC  XC  H1  C   O   N   H   XC  H1  H1  C   
O   N   H   XC  H1  CT  HC  HC  CA  CA  HA  CA  HA  CA  HA  CA  HA  CA  HA  C   
O   N   H   XC  H1  2C  H1  H1  OH  HO  C   O   N   CT  H1  H1  CT  HC  HC  CT  
HC  HC  XC  H1  C   O   N   H   XC  H1  CT  HC  HC  CA  CA  HA  CA  HA  CA  HA  
CA  HA  CA  HA  C   O   N   H   CX  H1  C8  HC  HC  C8  HC  HC  C8  H1  H1  N2  
H   CA  N2  H   H   N2  H   H   C   O2  O2  
%FLAG TREE_CHAIN_CLASSIFICATION                                                 
%FORMAT(20a4)                                                                   
BLA BLA BLA BLA BLA BLA BLA BLA BLA BLA BLA BLA BLA BLA BLA BLA BLA BLA BLA BLA 
BLA BLA BLA BLA BLA BLA M   3   E   E   3   E   E   B   E   E   M   E   M   E   
M   3   E   E   3   E   E   B   E   E   M   E   M   E   M   E   M   E   E   M   
E   M   E   M   E   3   E   E   B   B   E   B   E   B   E   S   E   S   E   M   
E   M   E   M   E   3   E   E   S   E   M   E   M   3   E   E   3   E   E   B   
E   E   M   E   M   E   M   E   M   E   3   E   E   B   B   E   B   E   B   E   
S   E   S   E   M   E   BLA BLA BLA BLA BLA BLA BLA BLA BLA BLA BLA BLA BLA BLA 
BLA BLA BLA BLA BLA BLA BLA BLA BLA BLA BLA 
%FLAG JOIN_ARRAY                                                                
%FORMAT(10I8)                                                                   
       0       0       0       0       0       0       0       0       0       0
       0       0       0       0       0       0       0       0       0       0
       0       0       0       0       0       0       0       0       0       0
       0       0       0       0       0       0       0       0       0       0
       0       0       0       0       0       0       0       0       0       0
       0       0       0       0       0       0       0       0       0       0
       0       0       0       0       0       0       0       0       0       0
       0       0       0       0       0       0       0       0       0       0
       0       0       0       0       0       0       0       0       0       0
       0       0       0       0       0       0       0       0       0       0
       0       0       0       0       0       0       0       0       0       0
       0       0       0       0       0       0       0       0       0       0
       0       0       0       0       0       0       0       0       0       0
       0       0       0       0       0       0       0       0       0       0
       0       0       0       0       0       0       0       0       0       0
       0
%FLAG IROTAT                                                                    
%FORMAT(10I8)                                                                   
       0       0       0       0       0       0       0       0       0       0
       0       0       0       0       0       0       0       0       0       0
       0       0       0       0       0       0       0       0       0       0
       0       0       0       0       0       0       0       0       0       0
       0       0       0       0       0       0       0       0       0       0
       0       0       0       0       0       0       0       0       0       0
       0       0       0       0       0       0       0       0       0       0
       0       0       0       0       0       0       0       0       0       0
       0       0       0       0       0       0       0       0       0       0
       0       0       0       0       0       0       0       0       0       0
       0       0       0       0       0       0       0       0       0       0
       0       0       0       0       0       0       0       0       0       0
       0       0       0       0       0       0       0       0       0       0
       0       0       0       0       0       0       0       0       0       0
       0       0       0       0       0       0       0       0       0       0
       0
%FLAG RADIUS_SET                                                                
%FORMAT(1a80)                                                                   
modified Bondi radii (mbondi)                                                   
%FLAG RADII                                                                     
%FORMAT(5E16.8)                                                                 
  1.55000000E+00  1.30000000E+00  1.30000000E+00  1.30000000E+00  1.70000000E+00
  1.30000000E+00  1.70000000E+00  1.30000000E+00  1.30000000E+00  1.70000000E+00
  1.30000000E+00  1.30000000E+00  1.70000000E+00  1.30000000E+00  1.30000000E+00
  1.55000000E+00  1.30000000E+00  1.70000000E+00  1.55000000E+00  1.30000000E+00
  1.30000000E+00  1.55000000E+00  1.30000000E+00  1.30000000E+00  1.70000000E+00
  1.50000000E+00  1.55000000E+00  1.70000000E+00  1.30000000E+00  1.30000000E+00
  1.70000000E+00  1.30000000E+00  1.30000000E+00  1.70000000E+00  1.30000000E+00
  1.30000000E+00  1.70000000E+00  1.30000000E+00  1.70000000E+00  1.50000000E+00
  1.55000000E+00  1.70000000E+00  1.30000000E+00  1.30000000E+00  1.70000000E+00
  1.30000000E+00  1.30000000E+00  1.70000000E+00  1.30000000E+00  1.30000000E+00
  1.70000000E+00  1.30000000E+00  1.70000000E+00  1.50000000E+00  1.55000000E+00
  1.30000000E+00  1.70000000E+00  1.30000000E+00  1.30000000E+00  1.70000000E+00
  1.50000000E+00  1.55000000E+00  1.30000000E+00  1.70000000E+00  1.30000000E+00
  1.70000000E+00  1.30000000E+00  1.30000000E+00  1.70000000E+00  1.70000000E+00
  1.30000000E+00  1.70000000E+00  1.30000000E+00  1.70000000E+00  1.30000000E+00
  1.70000000E+00  1.30000000E+00  1.70000000E+00  1.30000000E+00  1.70000000E+00
  1.50000000E+00  1.55000000E+00  1.30000000E+00  1.70000000E+00  1.30000000E+00
  1.70000000E+00  1.30000000E+00  1.30000000E+00  1.50000000E+00  8.00000000E-01
  1.70000000E+00  1.50000000E+00  1.55000000E+00  1.70000000E+00  1.30000000E+00
  1.30000000E+00  1.70000000E+00  1.30000000E+00  1.30000000E+00  1.70000000E+00
  1.30000000E+00  1.30000000E+00  1.70000000E+00  1.30000000E+00  1.70000000E+00
  1.50000000E+00  1.55000000E+00  1.30000000E+00  1.70000000E+00  1.30000000E+00
  1.70000000E+00  1.30000000E+00  1.30000000E+00  1.70000000E+00  1.70000000E+00
  1.30000000E+00  1.70000000E+00  1.30000000E+00  1.70000000E+00  1.30000000E+00
  1.70000000E+00  1.30000000E+00  1.70000000E+00  1.30000000E+00  1.70000000E+00
  1.50000000E+00  1.55000000E+00  1.30000000E+00  1.70000000E+00  1.30000000E+00
  1.70000000E+00  1.30000000E+00  1.30000000E+00  1.70000000E+00  1.30000000E+00
  1.30000000E+00  1.70000000E+00  1.30000000E+00  1.30000000E+00  1.55000000E+00
  1.30000000E+00  1.70000000E+00  1.55000000E+00  1.30000000E+00  1.30000000E+00
  1.55000000E+00  1.30000000E+00  1.30000000E+00  1.70000000E+00  1.50000000E+00
  1.50000000E+00
%FLAG SCREEN                                                                    
%FORMAT(5E16.8)                                                                 
  7.90000000E-01  8.50000000E-01  8.50000000E-01  8.50000000E-01  7.20000000E-01
  8.50000000E-01  7.20000000E-01  8.50000000E-01  8.50000000E-01  7.20000000E-01
  8.50000000E-01  8.50000000E-01  7.20000000E-01  8.50000000E-01  8.50000000E-01
  7.90000000E-01  8.50000000E-01  7.20000000E-01  7.90000000E-01  8.50000000E-01
  8.50000000E-01  7.90000000E-01  8.50000000E-01  8.50000000E-01  7.20000000E-01
  8.50000000E-01  7.90000000E-01  7.20000000E-01  8.50000000E-01  8.50000000E-01
  7.20000000E-01  8.50000000E-01  8.50000000E-01  7.20000000E-01  8.50000000E-01
  8.50000000E-01  7.20000000E-01  8.50000000E-01  7.20000000E-01  8.50000000E-01
  7.90000000E-01  7.20000000E-01  8.50000000E-01  8.50000000E-01  7.20000000E-01
  8.50000000E-01  8.50000000E-01  7.20000000E-01  8.50000000E-01  8.50000000E-01
  7.20000000E-01  8.50000000E-01  7.20000000E-01  8.50000000E-01  7.90000000E-01
  8.50000000E-01  7.20000000E-01  8.50000000E-01  8.50000000E-01  7.20000000E-01
  8.50000000E-01  7.90000000E-01  8.50000000E-01  7.20000000E-01  8.50000000E-01
  7.20000000E-01  8.50000000E-01  8.50000000E-01  7.20000000E-01  7.20000000E-01
  8.50000000E-01  7.20000000E-01  8.50000000E-01  7.20000000E-01  8.50000000E-01
  7.20000000E-01  8.50000000E-01  7.20000000E-01  8.50000000E-01  7.20000000E-01
  8.50000000E-01  7.90000000E-01  8.50000000E-01  7.20000000E-01  8.50000000E-01
  7.20000000E-01  8.50000000E-01  8.50000000E-01  8.50000000E-01  8.50000000E-01
  7.20000000E-01  8.50000000E-01  7.90000000E-01  7.20000000E-01  8.50000000E-01
  8.50000000E-01  7.20000000E-01  8.50000000E-01  8.50000000E-01  7.20000000E-01
  8.50000000E-01  8.50000000E-01  7.20000000E-01  8.50000000E-01  7.20000000E-01
  8.50000000E-01  7.90000000E-01  8.50000000E-01  7.20000000E-01  8.50000000E-01
  7.20000000E-01  8.50000000E-01  8.50000000E-01  7.20000000E-01  7.20000000E-01
  8.50000000E-01  7.20000000E-01  8.50000000E-01  7.20000000E-01  8.50000000E-01
  7.20000000E-01  8.50000000E-01  7.20000000E-01  8.50000000E-01  7.20000000E-01
  8.50000000E-01  7.90000000E-01  8.50000000E-01  7.20000000E-01  8.50000000E-01
  7.20000000E-01  8.50000000E-01  8.50000000E-01  7.20000000E-01  8.50000000E-01
  8.50000000E-01  7.20000000E-01  8.50000000E-01  8.50000000E-01  7.90000000E-01
  8.50000000E-01  7.20000000E-01  7.90000000E-01  8.50000000E-01  8.50000000E-01
  7.90000000E-01  8.50000000E-01  8.50000000E-01  7.20000000E-01  8.50000000E-01
  8.50000000E-01
%FLAG IPOL                                                                      
%FORMAT(1I8)                                                                    
       0
%FLAG CMAP_COUNT                                                                
%FORMAT(2I8)                                                                    
       7       4                                                                
%FLAG CMAP_RESOLUTION                                                           
%FORMAT(20I4)                                                                   
  24  24  24  24
%FLAG CMAP_PARAMETER_01                                                         
%COMMENT  Gly CMAP                                                              
%FORMAT(8F9.5)                                                                  
  0.82366  1.09817  1.13106  1.38658  2.11377  3.63194  5.20835  4.52792
  4.24857  3.42100  2.57125  2.21561  4.26659  2.21561  2.57125  3.42110
  4.24858  4.52792  4.29107  3.63184  2.03731  1.32036  1.12797  1.09814
  1.01976  0.89767  0.89484  1.21525  1.97095  3.70570  4.38855  4.65256
  4.43948  3.89754  4.21954  2.92219  1.83300  1.61528  2.13407  3.13273
  4.03304  4.37836  4.21500  3.54162  2.14871  1.44646  1.20387  1.08264
  0.94294  0.79652  0.83328  1.24136  2.06053  3.43883  4.17385  4.53101
  4.43115  4.03641  3.71837  2.02965  1.28863  1.21833  1.89263  2.85593
  4.80291  4.23497  4.08718  3.49858  2.17811  1.53114  1.22608  1.06909
  1.06124  0.90425  0.95129  1.35925  1.80900  3.18916  3.85055  4.27470
  4.17515  3.68355  2.71193  1.96823  0.88051  1.02084  1.59189  2.52883
  3.47767  4.03244  3.86779  3.39508  2.23969  1.66969  1.33019  1.16679
  1.08157  1.02005  1.10493  1.29605  1.79270  2.88632  3.63402  4.05349
  3.97657  3.35415  2.24207  1.18576  0.74267  0.67495  1.31122  2.24278
  3.21905  3.69186  4.76949  4.00571  2.34764  1.77622  1.34849  1.12849
  1.09360  0.76295  0.64220  1.00733  1.73708  2.50787  3.41571  4.45847
  3.84910  3.11193  1.97839  1.18177  0.33803  0.43176  1.23577  2.17947
  2.92428  3.38497  3.39138  3.10177  3.35228  2.15282  1.45287  1.28536
  0.61764  0.23640  0.15650  0.65857  1.56522  2.44967  3.17669  3.78043
  4.22216  2.79953  1.66579  0.59084  0.15579  0.43594  1.52040  2.27449
  2.76979  3.16911  3.12455  2.92674  2.45824  1.88927  1.36443  0.95121
 -0.00243 -0.14438  0.06931  0.84132  1.89921  2.91978  3.46170  3.60722
  3.77366  2.18724  1.52870  0.20777  0.22187  1.10049  2.08960  2.88893
  3.46272  3.66327  3.40280  3.02172  2.23074  1.32476  0.62376  0.25154
 -0.24862  0.05886  0.73935  1.98217  3.25167  4.06285  4.21447  3.90130
  2.90300  1.70374  0.74057  0.52755  1.12943  2.10802  2.78056  3.65981
  4.30377  4.58476  4.35318  3.65296  2.33204  0.81283  0.00000 -0.29835
  0.44379  1.32981  2.39709  3.82578  5.02459  5.42450  4.99639  4.00610
  2.64886  1.63847  1.37610  1.71448  2.28503  2.64949  3.24747  4.17266
  5.17265  5.75041  5.58476  4.21912  2.20540  0.64843  0.02065 -0.08593
  2.15530  3.40478  4.51993  5.80241  6.12627  6.00746  5.12631  4.58197
  2.80154  2.55737  2.87599  2.95502  2.71629  2.60279  3.64721  4.53964
  5.90407  6.82108  6.15044  4.18011  2.15201  0.96807  0.81255  1.19704
  4.21011  5.19583  5.45356  5.26216  5.22957  4.91772  4.44698  3.93537
  3.74038  4.11322  3.92595  2.94210  2.11295  2.42266  3.12536  4.83315
  6.43292  6.19670  5.13463  3.65052  2.40663  2.07125  2.29840  3.03351
  5.33877  4.55338  3.87255  3.87071  3.62149  3.87069  4.31250  4.77933
  5.37137  5.20874  3.65026  2.18763  2.20027  2.18700  3.65026  5.21405
  5.24065  4.77943  4.31250  3.87553  3.63325  5.19982  3.88530  4.53465
  4.20747  3.02450  2.29840  2.07135  2.40664  3.65062  5.13204  6.19680
  6.43292  4.83351  3.12587  2.96667  2.11029  2.93241  3.92594  4.11322
  3.74082  3.93551  4.44698  4.92068  5.53058  5.24416  5.35209  5.19605
  2.15668  1.19704  0.81255  0.96806  2.15211  4.17062  6.15034  6.82108
  5.90407  4.54177  3.63728  2.60267  2.71853  2.95502  2.87589  2.55737
  2.80717  3.89294  5.12631  6.00746  6.12372  5.80230  5.01898  3.40679
  0.45450 -0.08700  0.02065  0.64843  2.20540  4.21912  5.58476  5.75041
  5.17265  4.16788  3.24747  2.64460  2.28503  1.72593  1.37610  1.63847
  2.64538  4.01006  5.00425  5.42091  5.02459  3.80593  2.39681  1.32981
 -0.24862 -0.29835  0.00000  0.81283  2.33214  3.64847  4.35318  4.59008
  4.30377  3.65991  2.78056  2.10802  1.84494  0.52754  0.74067  1.61716
  2.90300  3.89516  4.21447  4.06285  3.25166  1.98217  0.73946  0.07427
 -0.00243  0.25154  0.64043  1.82987  2.23143  3.02038  3.40280  3.66327
  3.46272  2.88893  2.08960  1.10049  0.22171  0.20862  1.52897  2.18595
  3.24376  3.60722  3.46170  2.91968  1.89590  0.84888  0.07066 -0.14460
  0.61764  0.94007  1.36444  1.88927  2.45691  2.92674  3.12469  3.16911
  2.76979  2.27377  1.52040  0.44049  0.15579  0.59084  1.66579  2.79477
  4.25589  3.78043  3.17669  2.45043  1.56512  0.65855  0.15650  0.23719
  1.09360  1.28549  1.45287  2.15281  2.67683  3.10177  3.39138  3.38497
  2.91731  2.17947  1.23582  0.43170  0.33793  1.00844  1.97383  3.11193
  3.84910  4.46392  3.41571  2.50787  1.73708  1.00733  0.64220  0.76295
  0.97094  1.11640  1.33640  1.77623  2.30465  3.21763  3.71128  3.69186
  3.21905  2.24277  1.31122  0.67238  0.74272  1.18578  2.24207  3.35415
  3.97657  4.05349  3.63266  2.88632  1.79270  1.23680  1.00391  1.05657
  0.98044  1.16708  1.33038  1.66969  2.23969  3.39508  3.86779  4.03243
  3.47590  2.52883  1.59193  1.02084  0.88051  1.46518  2.71203  3.68355
  4.17470  4.27471  3.85203  3.18916  1.80900  1.35925  0.95109  0.90998
  0.92229  1.06909  1.22608  1.53114  2.17810  3.49858  4.08708  4.23358
  3.81032  2.85593  1.89254  1.21833  1.28863  2.03059  3.37664  4.03661
  4.43079  4.53101  4.17385  3.43883  2.06053  1.24136  0.83440  0.79652
  1.01976  1.08264  1.20394  1.44647  2.14870  3.54162  4.22527  4.37836
  4.03304  3.13273  2.13407  1.61528  1.83300  2.92219  4.10899  3.89754
  4.43948  4.65256  4.38856  3.70570  1.97095  1.21515  0.89442  0.89767
%FLAG CMAP_PARAMETER_02                                                         
%COMMENT  Ser CMAP                                                              
%FORMAT(8F9.5)                                                                  
 -0.32244  0.12696  0.66374  0.96629  1.47743  2.13577  3.30837  3.38913
  3.78327  3.61677  3.03743  2.62209  0.59637 -0.08942  0.13693  0.81913
  1.40407  1.89566  2.02859  1.78767  1.26319  0.74679  0.25597 -0.18382
 -0.13614  0.30891  0.74169  0.92985  1.33443  1.88617  2.67249  3.43995
  3.76143  3.78887  3.80499  1.52221 -0.05733 -0.34066  0.60327  0.64650
  1.44598  1.97141  2.08911  1.92346  1.50730  0.89758  0.36609  0.05737
 -0.01724  0.39903  0.82667  0.84205  1.07816  2.13764  2.43674  3.94943
  3.73714  3.79141  2.80752  0.95346 -0.16367 -0.42480 -0.06777  0.60307
  1.41557  1.99278  2.96779  1.96920  1.47962  1.03439  0.59457  0.12911
  0.46570  0.86726  0.98316  0.80986  0.98666  1.59955  2.41079  3.20727
  3.64935  3.63148  2.47335  0.85355 -0.14015 -0.32933 -0.08702  0.58877
  2.07629  1.98251  2.22178  2.02966  1.70097  1.20508  1.47349  0.47846
  1.31080  1.11924  1.06802  0.79445  1.03970  1.54752  2.34915  3.11410
  3.63127  3.58483  2.32889  0.87111 -0.11750 -0.41868 -0.16684  0.49421
  2.10985  1.74118  2.06138  2.01525  1.87980  1.43507  1.13007  0.82450
  0.80496  0.90295  0.85087  0.99319  1.28602  1.86583  2.31268  3.07673
  3.54949  3.42634  2.27469  0.94293 -0.07736 -0.32744  0.01567  0.60673
  1.00637  1.38740  1.85030  1.97368  1.95315  1.57098  1.36231  1.02570
  0.39922  0.46005  0.46177  0.43301  0.71954  1.40788  2.25490  3.10239
  3.55114  3.21056  2.11338  0.69445 -0.15953 -0.09261  0.50073  1.67114
  0.92250  1.21419  1.70050  1.94455  1.85595  1.55262  1.25060  0.74424
 -0.23129 -0.09197  0.27814  0.67643  1.25014  1.90570  2.49602  3.01993
  3.19940  2.71272  1.54051  0.39072  0.01482  0.61847  0.91815  1.14827
  1.50034  1.76177  1.96988  2.17125  2.32001  1.21775  0.65957  0.14730
 -0.66990 -0.19351  0.67719  1.47699  2.24158  2.87320  3.16318  3.17799
  2.86156  2.18170  1.17024  0.55984  0.82382  1.43488  1.59833  1.88249
  2.36095  2.61848  2.84429  2.68820  1.82329  0.68508  0.00000 -0.45091
 -0.36042  0.53154  1.94931  2.88222  3.56378  3.99191  3.89021  3.39886
  2.71331  2.10656  1.52204  1.50441  2.04966  1.96642  2.02552  2.40332
  3.07583  3.67664  4.11261  3.53101  2.67238  0.28298 -0.32598 -0.51382
  0.91718  2.23760  3.80260  4.41293  5.03270  5.01729  5.47439  3.45062
  2.95906  2.91321  2.98469  3.02362  2.47035  2.12519  2.11120  2.86826
  3.99145  5.12576  5.22266  3.70222  1.77845  0.45849  0.27569  0.45325
  2.75309  4.47184  4.67696  4.04034  3.88523  3.78921  3.64612  3.71648
  3.90022  4.32138  4.50352  3.09871  1.74137  1.96840  1.78355  3.39177
  5.21554  4.88560  4.17121  2.98817  1.90680  1.52075  1.63712  2.00389
  4.60753  4.13830  2.86491  2.23553  2.05958  2.60649  3.56970  4.76758
  5.29735  5.79016  4.54175  1.71446  1.28551  0.84527  2.09892  3.74503
  3.54732  2.94743  2.95962  2.76375  2.67890  2.73319  2.99114  3.37867
  3.01439  2.13143  1.07143  0.45729  0.71555  2.13385  3.91810  5.52110
  6.56748  4.65355  2.64280  1.82443  0.74717  1.48455  2.39160  2.24606
  1.45375  1.66402  2.46312  3.12688  3.55083  3.74903  4.03382  4.06980
  1.41025  0.57234 -0.31717 -0.61653  0.19058  2.20175  4.66758  6.26728
  5.33169  3.78979  2.19330  1.25559  1.19010  1.56040  1.33543  0.54779
  0.36104  1.20239  2.44208  3.52615  4.00446  4.17687  3.36362  2.28874
  0.83061  0.14956 -0.70021 -0.87357  0.28920  2.53560  4.72936  5.41395
  4.64402  3.46010  3.64997  1.41550  1.19489  1.04096  0.26661 -0.18844
  0.25397  1.27114  2.61263  3.37274  5.13313  3.10481  2.26711  1.39643
  0.49077  0.03090 -0.64515 -0.62863  0.57862  2.47028  4.34946  4.82124
  4.31526  3.23540  2.04536  1.19075  0.74988  0.03037 -0.36666 -0.25387
  0.63710  1.60704  2.62468  2.95787  2.63631  2.00167  1.02876  0.62875
  0.23565  0.67659 -0.33393 -0.09124  1.29884  2.37817  4.06341  4.14999
  3.71357  2.60069  1.39225  0.54877 -0.28844 -0.69855 -0.58434  0.47661
  1.47589  2.11542  2.31036  2.10407  1.53656  0.39328 -0.33123 -0.33400
  0.17985  1.00958  0.11207  0.28548  1.01319  2.01067  2.97355  3.36566
  2.71920  1.56047  0.28912 -0.84959 -1.32100 -1.10544 -0.15754  1.26947
  2.37340  2.46432  2.39211  1.07671  0.17488 -0.51086 -1.01217 -0.10452
  0.30515  0.17309 -0.14915 -0.00616  0.67458  2.22801  2.60750  3.20919
  2.81838  1.55881 -0.03343 -0.71318 -1.51335 -1.22649 -0.20860  1.34364
  3.53415  2.33060  1.86899  1.00215  0.36348 -0.24308 -0.58029 -0.30251
  0.15951  0.25184 -0.30780 -0.18302  0.48664  1.46556  2.48085  3.32006
  3.24220  1.97570  0.94236 -0.88286 -1.20666 -0.82912  0.12156  1.65258
  2.27774  2.38524  2.07778  2.08029  1.03407  0.43659 -0.08794 -0.34633
 -0.44004 -0.51177 -0.32753  0.11116  0.36024  1.30522  2.30866  3.14113
  3.20032  2.30920  0.87351 -0.22440 -0.63304 -0.21989  0.93634  1.53794
  1.69315  2.04488  2.12367  1.79459  1.31441  0.71441  0.08448 -0.60425
 -0.88221 -0.47803 -0.10474 -0.03495  0.53834  1.40583  2.32724  3.13023
  3.07435  2.62581  1.48478  1.11548  0.96128  0.92198  0.96607  0.96610
  1.35956  1.78042  1.90533  1.78117  1.29582  0.50128 -0.10724 -0.65586
 -0.52312 -0.11946  0.26248  0.48854  1.12376  2.55949  2.72088  3.32115
  3.44457  3.19220  2.42686  1.69229  1.71759  0.41719  0.33630  0.79195
  1.41516  1.85998  1.95007  1.68860  1.13478  0.56335  0.02921 -0.40033
%FLAG CMAP_PARAMETER_03                                                         
%COMMENT  Leu CMAP                                                              
%FORMAT(8F9.5)                                                                  
 -0.86694 -0.26821  0.11903  0.36257  0.95573  1.67477  2.43156  2.60365
  2.27204  1.80613  1.46886  1.61233 -0.96663 -1.49770 -1.08239 -0.09973
  0.68400  0.98069  0.74771  0.20585 -0.44627 -0.94569 -1.07455 -1.03710
 -0.32646  0.18654  0.61372  0.67096  1.01304  1.68958  2.59064  2.69380
  2.62711  2.28315  1.55874 -0.12149 -1.21885 -1.44423 -0.97001 -0.05369
  0.80796  1.12834  0.84158  0.41540 -0.05618 -0.48333 -0.57243 -0.49018
 -0.00270  0.44349  0.67720  0.69907  0.96098  1.51827  2.31922  2.59766
  2.46815  2.10040  1.01494 -0.35138 -1.06078 -0.51379 -0.69064  0.13405
  0.94764  1.25044  1.05896  0.70807  1.27955  0.00478 -0.14861 -0.13199
  0.46773  1.06122  0.84151  0.87321  1.53577  2.26717  2.28379  2.61533
  2.48323  2.10062  0.99888 -0.16216 -0.70927 -0.70653 -0.29305  0.40855
  1.21244  1.57878  1.45953  1.15294  0.73992  0.44830  0.51887  0.42642
  1.08264  1.22032  1.01432  0.92883  1.19777  1.89909  2.63517  2.91989
  2.71483  2.15712  1.13870  0.10970 -0.35319 -0.45575 -0.07314  0.71696
  1.39933  1.70190  1.76612  1.54603  1.28907  0.96167  1.05593  0.99887
  1.28886  1.08719  1.25509  0.61945  1.07490  1.93759  3.19207  3.05501
  2.85024  2.25228  1.28855  0.30319 -0.32580 -0.33934  0.94330  1.01391
  1.36742  1.55398  1.68291  1.69903  1.58878  1.35670  1.38167  1.38984
  0.98482  0.77092  0.58293  0.75254  1.33157  2.19094  2.97361  3.31530
  2.98261  2.34181  1.68188  0.20860 -0.18920  0.15129  0.97347  1.18438
  1.41087  2.18263  1.74084  1.83977  2.49337  1.40782  1.29872  1.23230
  0.48495  0.51375  0.72118  1.16071  2.03516  2.76085  3.33781  3.33714
  3.21881  1.91348  0.71654 -0.06047  0.05722  0.95499  1.57463  1.97846
  2.20669  2.25753  2.16240  2.05082  1.46338  0.92763  0.63950  0.52464
  0.07954  0.44680  1.02424  2.02016  2.99245  3.73027  3.90871  3.36270
  2.34980  1.21384  0.31676  0.22259  0.86998  1.74017  2.65575  2.56314
  2.94846  3.04800  2.92362  2.53858  1.53008  0.44000  0.00000 -0.00769
  0.24993  1.09492  2.17567  3.43132  4.50566  5.05694  4.64546  3.50848
  2.15393  1.27464  0.97041  1.34987  2.11323  2.30548  2.56683  3.12183
  3.71616  4.15639  4.02019  3.11381  1.50702  0.51912 -0.20195 -0.08615
  1.52978  2.82371  4.12062  5.09490  6.15608  6.08176  5.03421  3.52597
  2.34959  2.18514  2.44731  2.85399  2.64346  2.42082  2.71715  3.68263
  4.79352  5.66725  5.08137  3.19151  1.34349  0.25042  0.36715  0.82954
  3.49877  5.10429  4.80281  4.54651  4.68704  4.66098  4.37663  3.68363
  3.39535  3.95518  3.96235  2.85930  2.21248  2.20453  2.53736  4.31396
  5.52110  4.69616  3.78755  2.61424  1.52261  1.35018  1.75048  2.53707
  5.65682  4.15269  3.35229  3.00261  3.08500  3.54523  4.16460  4.62833
  5.13779  5.01177  3.02054  1.47096  1.36914  1.36431  2.92161  6.08683
  3.79124  3.26901  3.87628  3.15138  2.56586  2.96443  3.52026  4.83005
  4.54702  3.10593  2.16146  1.79107  2.10872  3.47796  4.87594  5.92625
  6.01846  4.12483  2.27314  1.85210  1.40705  2.31574  3.63083  3.28348
  2.48395  2.41514  2.93210  3.56664  3.83230  4.13078  4.61915  5.21000
  2.54403  1.68952  0.97521  0.88413  2.02670  4.01998  5.83129  6.49399
  5.45501  4.03342  2.72981  3.04219  2.43764  2.97586  2.73313  1.73379
  1.55615  2.30112  3.86657  4.36600  4.57747  4.78312  4.62251  3.65331
  1.39094  0.80730  0.29380  0.53655  2.14327  4.35364  5.64162  5.52871
  4.81227  3.89474  3.02138  2.56961  2.36903  1.91970  1.04584  0.61644
  1.26738  2.48009  3.51320  4.14947  3.98350  3.59513  2.95805  2.05137
  0.59467  0.26702 -0.00118  0.34338  1.95569  3.71282  4.31538  4.26902
  3.93382  3.80334  2.45012  1.80769  1.23485  0.28708 -0.16539  0.11408
  1.10892  2.16939  3.27563  2.90643  2.66635  2.32593  1.63311  1.04332
 -0.00101 -0.07278 -0.15248  0.39936  1.35477  2.58696  2.88424  2.91922
  2.69118  2.08752  1.30318  0.53921 -0.47040 -1.05688 -0.84349  0.07495
  1.13508  1.90971  1.60384  1.52061  1.19284  0.82628  0.49692  0.18749
  0.52653 -0.01117  0.01170  0.35019  0.99208  1.68051  1.85145  1.71415
  1.38754  0.91039  0.24804 -0.73699 -1.51069 -1.53963 -0.72203  0.43100
  1.18026  1.23810  0.97321  0.69525  0.29409 -0.04217 -0.12688 -0.18077
  0.41738  0.42830  0.25395  0.41670  0.84705  1.54378  1.90242  1.75429
  1.39459  0.87970 -0.19758 -1.19662 -1.65765 -1.41581 -0.57110  0.57555
  1.30161  1.37911  1.15311  0.73096  0.18428  0.11942  0.12025  0.23185
  0.51056  0.47767  0.30339  0.39748  0.84570  1.55327  2.29045  2.38960
  1.92281  1.05703  0.33844 -0.94589 -1.40734 -1.22267 -0.28396  0.91594
  1.42889  1.47580  1.35177  1.37396  0.53214  0.53898  0.61490  0.64450
 -0.24761 -0.32226 -0.19849 -0.08985  1.01997  1.40580  2.20658  2.50290
  1.91878  0.83859 -0.21275 -0.98048 -1.44651 -1.19821  0.00869  1.25483
  1.43243  1.66446  1.63593  0.87150  0.53192  0.38847  0.31803  0.05867
 -0.50737 -1.45363 -0.79190  0.11592  0.23743  1.27007  2.22830  3.43018
  2.03991  0.82982 -0.28204 -0.30716 -1.28098 -0.47386  0.89069  1.08272
  1.18900  1.30124  1.20693  0.90441  0.47681 -0.17330 -0.62574 -1.08723
 -1.62255 -1.96136 -0.83933 -0.65406  0.11828  1.42624  2.54120  2.90447
  2.24826  1.86505 -0.18930 -0.85728 -0.87693 -1.06001 -1.16287  0.46816
  0.39155  1.80618  1.14253  0.79781  0.04909 -0.40498 -1.27362 -1.36635
%FLAG CMAP_PARAMETER_04                                                         
%COMMENT  PRO CMAP                                                              
%FORMAT(8F9.5)                                                                  
 -8.75751 -8.70567 -8.71923 -8.06498 -8.34855 -8.65942 -8.61255 -8.96343
 -8.72425 -8.73027 -8.00206 -8.69021 -8.28693 -8.65324 -8.82302 -8.18448
 -8.41685 -8.80151 -8.70094 -8.53053 -8.75377 -8.86638 -8.50509 -8.01082
 -8.77187 -8.73940 -8.66261 -8.90677 -9.06924 -8.63887 -7.81451 -7.16341
 -6.60542 -6.52662 -7.17952 -8.03381 -8.63601 -8.94480 -8.81277 -8.63859
 -7.86472 -6.93540 -7.11378 -7.02275 -7.31467 -7.34586 -7.17799 -7.85620
 -5.22647 -5.15037 -4.98780 -5.13754 -5.33451 -4.82744 -4.20622 -3.41249
 -2.98580 -3.06940 -3.72285 -4.71405 -5.39928 -5.45522 -5.23830 -4.83426
 -4.84841 -4.83945 -5.01358 -5.08121 -5.29478 -5.39394 -5.42201 -5.34520
 -2.63528 -2.61531 -2.23133 -2.09728 -2.35032 -1.81055 -1.14610 -0.43015
 -0.11029 -0.43642 -1.29900 -2.37678 -3.06813 -3.08683 -2.85132 -2.46945
 -2.09194 -2.00829 -2.13200 -2.22585 -2.45757 -2.72426 -2.91306 -2.79826
 -1.30630 -0.97037 -0.67553 -0.48439 -0.47298  0.09744  0.90710  1.67856
  1.78869  1.18509  0.10465 -0.95429 -1.77557 -2.02642 -1.80129 -1.30282
 -0.60900 -0.54189 -0.52494 -0.62734 -0.87227 -1.16429 -1.40325 -1.32862
 -0.28838 -0.29286 -0.05545  0.01374  0.18833  0.88685  1.88110  2.72301
  2.64392  1.80976  0.76838 -0.23772 -1.30866 -1.56111 -1.05594 -0.63462
 -0.27956 -0.12432  0.08300  0.08848  0.02441 -0.23536 -0.52571 -0.43355
 -0.10107 -0.10925  0.17861  0.46874  0.78386  1.52792  2.37292  3.19523
  2.94448  2.13146  1.04356 -0.13873 -0.96321 -0.82059 -0.33322 -0.30669
 -0.07750  0.24509  0.61203  0.77546  0.60883  0.16196  0.03025 -0.05960
  0.54240  0.73424  1.21584  1.97663  2.86196  3.36571  3.09521  2.89786
  2.65306  1.94911  0.87427  0.10091  0.29512  0.69644  0.77609  0.93694
  1.20253  1.21190  1.23792  1.16370  0.89360  0.32899  0.02924  0.15816
  0.93117  1.89831  2.92739  3.90919  4.66028  4.79265  4.30774  3.45574
  2.67462  1.77740  1.02956  0.85500  1.12685  1.40005  1.65428  2.00981
  2.49411  2.77553  2.72653  2.29924  1.30209  0.28787  0.00000  0.23904
  1.71372  3.17069  4.47459  5.34819  5.66978  5.61442  4.66872  3.50429
  2.46608  1.90184  1.95424  1.90806  1.75946  1.84931  2.08092  2.58532
  3.47075  4.05526  4.07457  2.94449  1.37584  0.18263  0.14274  0.72321
  2.93154  4.65664  5.81638  5.77271  5.70953  5.47038  4.31047  3.14909
  2.37257  2.54260  2.89806  2.29096  1.86624  1.70493  2.04297  2.91863
  4.12444  5.04419  4.44552  2.74661  1.09914  0.24758  0.62132  1.60919
  4.28791  5.74420  5.79671  5.16803  5.05413  4.48695  3.37932  2.59405
  2.54381  3.52801  3.10085  2.02404  1.30444  1.50932  1.70696  3.20804
  4.77364  5.01717  3.51828  1.80915  0.72960  0.85032  1.61355  2.81248
  5.10022  5.11605  4.30598  3.92413  3.37917  2.64150  2.42733  2.53172
  3.38712  3.74798  2.16043  0.80717  1.21776  0.25145  1.73628  3.39163
  4.52876  3.45959  2.15509  1.19505  1.15898  1.90043  2.79231  3.88367
  4.45196  3.70029  2.61706  1.82299  1.19526  1.47132  2.04669  2.98560
  3.87614  2.64572  0.79215  1.29417  0.57185  0.44864  1.83164  3.09417
  2.59096  1.51855  0.91401  1.05809  1.68925  2.43878  3.18205  4.00826
  2.72163  1.41184  0.04207 -0.81206 -0.92504  0.08798  1.44907  2.62605
  2.40258  0.87505 -0.68969 -1.36527 -0.96444 -0.10768  0.99527  0.71308
 -0.24748 -0.63365 -0.44523  0.32710  0.80503  1.32881  2.15503  3.28238
 -0.80511 -2.39777 -3.83456 -4.33430 -3.48052 -1.75445 -0.19983  0.60207
  0.06551 -1.07531 -2.16209 -2.48329 -2.40715 -2.05247 -2.16609 -3.19586
 -3.38809 -3.09350 -2.19949 -1.30642 -0.63336  0.28617  1.31525  0.58937
 -5.49419 -6.90233 -7.85445 -7.71328 -6.35345 -4.49678 -3.09411 -2.51174
 -2.73237 -3.57215 -4.35013 -5.04409 -5.50375 -5.86022 -6.64301 -6.80004
 -6.39815 -5.56010 -4.50638 -3.48952 -2.65640 -2.09936 -2.59104 -3.94783
 -4.95323 -5.81966 -5.21125 -5.74444 -5.56540 -5.11652 -5.21104 -6.68459
 -6.75332 -7.34507 -8.14475 -9.01762 -9.61284 -8.18605 -8.21980 -9.51019
 -8.69486 -8.13634 -7.49936 -6.76770 -5.79355 -6.63124 -7.48945 -8.89257
 -8.90818 -8.48907 -8.42313 -8.89309 -8.14630 -8.36733 -8.05899 -8.97334
 -8.08182 -8.40152 -8.88712 -8.44094 -8.96945 -8.84838 -8.06274 -8.04221
 -8.38659 -8.26564 -8.16867 -8.07604 -8.18975 -8.58300 -8.97423 -8.27557
 -8.58467 -8.84753 -8.42340 -8.80513 -8.29742 -8.94947 -8.12015 -8.36778
 -7.35387 -7.32522 -7.79483 -7.29000 -7.55762 -7.16439 -7.06554 -7.93809
 -7.42050 -7.29676 -7.26130 -7.35832 -7.63448 -7.16499 -7.15108 -7.79839
 -7.17886 -7.19451 -7.53222 -7.90130 -7.37702 -7.15717 -7.90496 -7.29665
 -7.60628 -7.95815 -7.07987 -7.00555 -7.24586 -7.75344 -7.50631 -7.32424
 -6.60700 -6.05537 -6.57198 -6.36398 -6.84789 -6.00007 -6.26382 -6.37899
 -6.97565 -6.79895 -6.81045 -6.38845 -6.75665 -6.50745 -6.34555 -6.97905
 -6.70335 -6.63155 -6.02445 -6.00075 -6.42685 -6.08775 -6.30235 -6.08385
 -4.99155 -4.10475 -4.44005 -4.52855 -4.24195 -4.38705 -4.89415 -4.12825
  0.72785  0.44055  0.25525  0.57015  0.50715  0.31935  0.02685  0.77055
  2.06855  1.95315  2.33365  3.28115  3.15315  4.20805  4.71215  4.07005
  8.99895  8.18825  9.28555  8.47075  7.81095  7.54885  7.86895  8.54445
  8.57285  8.51105  8.06095  8.24775  8.25665  8.34635  8.39995  8.38805
  8.69225  8.43795  8.69725  8.90195  8.97545  8.99285  8.67585  8.52795
  8.32625  8.65405  8.95355  8.25755  8.60965  8.25845  8.46825  8.12375
%FLAG CMAP_INDEX                                                                
%FORMAT(6I8)                                                                    
      25      27      37      39      41       4
      39      41      51      53      55       4
      53      55      57      60      62       1
      60      62      64      80      82       3
      80      82      84      91      93       2
      91      93     103     105     107       4
     105     107     109     125     127       3
