
  772  0.0000000e+00
 -12.0097237  17.7073479  -2.2921612 -11.1462765  17.3324146  -2.0444021
 -11.8952961  17.7604122  -3.2913435 -11.9719419  18.6530418  -1.8714366
 -13.1517973  16.8122349  -1.9408690 -14.0284100  17.2430477  -2.4262407
 -12.9470463  15.4190578  -2.5128338 -13.7816467  14.7296762  -2.3956108
 -12.7161961  15.4256248  -3.5727668 -12.2004642  14.8188152  -1.9185393
 -13.3485966  16.8959713  -0.4335612 -12.3960009  16.7040005   0.4000000
 -14.5153370  17.1935005   0.0916666 -15.2778044  17.1869278  -0.5620321
 -14.8601627  17.3822918   1.5439050 -13.9035368  17.2436504   2.1159594
 -15.1956758  18.8122063   1.9030482 -14.3066015  19.4882603   1.7448967
 -16.3800373  19.3134251   1.0180426 -16.3142281  19.0205517  -0.0304834
 -17.3595638  18.9019661   1.5256549 -16.2123680  20.3455715   0.9132051
 -15.5007887  19.0242119   3.4289775 -14.8345432  18.5226707   4.1051650
 -15.2460775  20.0478439   3.5695708 -16.5290623  18.9765377   3.6793857
 -15.8152952  16.3258572   2.2231588 -17.0197678  16.3817635   2.1856365
 -15.1360607  15.3909597   2.7607880 -14.1240082  15.4381075   2.6184866
 -15.7174416  14.2181311   3.4254770 -16.8195629  14.1636124   3.1991706
 -15.0434036  13.0449238   2.8047822 -15.1966705  13.1779470   1.6975038
 -13.9542952  13.0551910   3.0400810 -15.7251635  11.7212257   3.0520558
 -16.9437141  11.5964298   3.0830195 -15.0373564  10.6591654   3.1542778
 -15.5270081  14.1771307   4.9052486 -14.6605434  13.4383764   5.5419230
 -16.1475067  15.1680269   5.4625773 -16.7250805  15.6459150   4.8059263
 -15.9926929  15.6460552   6.8063259 -14.8933945  15.7066059   6.8944840
 -16.4126701  17.1688938   6.8745794 -15.9563074  17.6766376   6.0125027
 -17.5230770  17.1782932   6.8088074 -16.1451740  17.9818707   8.1511230
 -16.2904320  17.3185654   8.9577093 -14.6706524  18.5992527   8.2871513
 -13.9883518  17.8110695   8.4596462 -14.4082012  19.2066975   7.3716249
 -14.5866003  19.2892551   9.1457596 -17.1208820  19.1929226   8.3158445
 -18.1113873  18.8380013   8.5403614 -16.8497334  19.7399025   9.2050905
 -17.0298977  19.7903423   7.4510527 -16.5322857  14.6878757   7.8918700
 -15.8091660  14.3057308   8.8358574 -17.7618484  14.1909542   7.7226944
 -18.1376591  14.3953648   6.8285251 -18.5927963  13.3809481   8.6387281
 -17.9952621  12.5348473   8.9995766 -19.1442356  14.1686621   9.8409519
 -18.4228516  14.6707239  10.4964972 -19.8466015  14.8501053   9.4513197
 -19.8532963  13.2826090  10.7791214 -21.0621243  13.4811869  11.0070419
 -19.3064880  12.2533970  11.0723000 -19.7462959  12.6265106   7.9485960
 -20.4461212  13.0910292   7.0440884 -20.0575638  11.3984575   8.3990164
 -19.3350010  10.9738579   8.9895506 -21.3397961  10.6763468   8.2098598
 -22.1454964  11.4386759   7.9410081 -21.3302574   9.6685390   6.9894571
 -20.6631107   8.8039732   7.2317438 -22.2924023   9.2822342   6.7987270
 -20.8427525  10.2647896   5.6376247 -21.5701103  11.1001635   5.3933306
 -19.8476219  10.7184496   5.8142323 -20.8485870   9.2959814   4.3888969
 -20.9134693   8.0713539   4.5620346 -20.6911087   9.7905989   3.2051802
 -21.8550854   9.9886169   9.5108137 -22.6548996   9.1025667   9.4102564
 -21.4676647  10.5417671  10.6720753 -20.8992500  11.3852463  10.6858244
 -21.7106667   9.8401594  11.9037685 -21.9511814   8.7980347  11.6447773
 -20.4641914   9.8599939  12.8352451 -19.5941448   9.4953489  12.2927094
 -20.2788067  10.9040117  13.1388340 -20.6764259   8.8605661  14.3452110
 -22.8661709  10.3374052  12.6772547 -23.7627373   9.5227633  13.0068817
 -22.9000549  11.6073074  12.9477587 -22.1505928  12.1084881  12.4992123
 -23.8140526  12.3335819  13.7987614 -23.8879375  11.7749043  14.7505627
 -23.3751011  13.7728462  14.0558243 -23.4760647  14.2801895  13.0481672
 -24.1916580  14.2955770  14.6290436 -22.4025936  13.8963213  14.5592108
 -25.3033524  12.3060360  13.2912016 -26.2193565  12.3125954  14.0704641
 -25.5574894  12.2998486  11.9825516 -24.7658920  12.3970232  11.3591566
 -26.9023781  12.3179998  11.3795710 -27.2886391  13.3094158  11.5770712
 -26.7396908  12.1339855   9.8724689 -27.7785606  12.0317173   9.5139599
 -26.3423500  12.9889545   9.3747597 -25.9652233  10.9397545   9.5195456
 -26.1891537  10.6885824   8.5887070 -27.8474731  11.2451763  11.9290199
 -28.9890766  11.5798616  12.2310247 -27.4166508  10.0030050  12.0300436
 -26.6275387   9.7276545  11.4769735 -28.3410435   8.9493189  12.5060501
 -29.3569031   9.1406727  12.0299473 -27.7396946   7.5733347  12.1453428
 -27.4477615   7.5488844  11.1138992 -26.8725605   7.3516746  12.8134670
 -28.7859383   6.4899964  12.1688995 -29.2479477   6.4896698  13.1199923
 -29.5413399   6.8284941  11.4987755 -28.3088379   5.0686979  11.7787886
 -29.2322655   4.5037251  11.4692965 -27.6901722   5.0927763  10.8875790
 -27.6843681   4.2528043  12.8396358 -27.7181473   4.7512755  13.7026644
 -27.2897034   2.9877920  12.8293266 -27.4405651   2.1754980  11.7810726
 -28.1069927   2.2030220  11.0178413 -27.0528030   1.2799162  11.9332647
 -26.7154903   2.4626145  13.8967495 -26.2215633   3.0974224  14.5080004
 -26.5018196   1.4523476  13.8223667 -28.4262505   9.0325165  14.0932140
 -29.3793316   8.5207052  14.7200880 -27.4711246   9.6414032  14.7870245
 -26.8321400  10.0943146  14.2129745 -27.3824844   9.7992716  16.2372379
 -26.3494282  10.1886196  16.3731174 -28.2542782  10.9243383  16.7225208
 -27.8228455  11.8821888  16.3209858 -29.2798977  10.7123775  16.4779606
 -28.2044868  11.0124350  18.1170292 -28.3402996  11.8987694  18.4535847
 -27.4807205   8.4348068  16.9289112 -26.7128983   7.5783439  16.5505180
 -28.3660774   8.3033705  17.9318790 -28.7398911   9.1773901  18.3042297
 -28.6927490   7.1836562  18.7797585 -27.8182240   6.5972338  18.9530869
 -29.1838951   7.6027298  20.1525612 -29.9428844   8.3411655  19.9250507
 -29.7132702   6.7772827  20.6927853 -28.1152649   8.2386599  21.0388451
 -27.3422508   7.5117545  21.1993256 -27.6100502   9.0025854  20.4897499
 -28.6841583   8.8473148  22.3143272 -29.1106873   8.0352068  22.8696156
 -27.8271770   9.1419687  22.9248600 -29.6925354  10.0097952  22.1575623
 -29.1921825  10.9149370  21.8484917 -30.3245964   9.7341375  21.3254452
 -30.5689468  10.2567463  23.2749729 -31.1036606   9.4503870  23.3541508
 -30.1364021  10.4084396  24.2227478 -31.2342815  11.0604372  23.1882191
 -29.6575909   6.1439734  18.1332150 -29.9047775   5.0744481  18.6905727
 -30.2084808   6.4395580  16.9449272 -29.9044304   7.2623901  16.4914227
 -31.0724449   5.6157036  16.0599155 -31.8947449   5.1860166  16.6838055
 -31.7294903   6.3466859  14.8674288 -30.9956360   6.8069339  14.2113485
 -32.2713127   5.6253386  14.2629623 -32.6196823   7.3082442  15.5483170
 -32.9539413   7.9055738  14.9276199 -30.3376732   4.3850183  15.5829639
 -29.1811638   4.4429421  15.2704287 -31.0761433   3.2884150  15.4858379
 -32.1091690   3.3908834  15.4605141 -30.4921227   1.8856715  15.4969397
 -29.4326439   1.9259740  15.8313904 -30.9711723   1.2321916  16.1967754
 -30.5107403   1.3330595  14.0734272 -30.7178001   1.9543056  13.0821171
 -30.2239113   0.0369573  14.0309248 -30.0294476  -0.2882701  14.9972258
 -29.9218254  -0.7966942  12.8213921 -29.4288216  -0.1278380  12.1902580
 -29.0991611  -2.0531991  13.1379309 -29.7300148  -2.8827653  13.5133476
 -28.6118927  -2.5087473  12.2837114 -28.0018730  -1.8059714  14.2216291
 -28.5361557  -1.7442658  15.1350136 -27.4102383  -2.6927612  14.3299952
 -27.0590553  -0.5626132  14.0872946 -26.6366367  -0.2333722  12.9288530
 -26.7336349   0.0077759  15.1256905 -31.1575298  -1.0729890  11.9369307
 -31.0929642  -1.3271524  10.7747059 -32.3164558  -0.9937782  12.5223303
 -32.2427826  -0.7411488  13.5213861 -33.6451302  -1.0033779  11.8409195
 -33.8432045  -1.9832836  11.3638115 -34.8025818  -0.7510051  12.8088675
 -34.4959450   0.1799702  13.3919621 -35.6539230  -0.6808955  12.1814537
 -34.9942207  -1.8731939  13.8379145 -34.1167564  -2.0202470  14.4473705
 -35.9006882  -1.5842992  14.3287811 -35.2160797  -3.1921866  13.1230202
 -36.3119240  -3.3616147  12.5358095 -34.2988014  -4.0523639  13.1358852
 -33.6775589   0.0434674  10.7021027 -34.3415985  -0.0859913   9.6631594
 -33.0801582   1.2296669  10.9641781 -32.5938988   1.2265004  11.9220047
 -32.9185486   2.4260192  10.0834026 -33.8232727   2.5009189   9.4616108
 -32.8071785   3.7231112  10.8827982 -33.6783371   3.7932978  11.4631166
 -31.9719906   3.5870547  11.4812984 -32.6120644   5.0221958  10.0199318
 -32.9753838   6.1501951  10.4966536 -32.0594902   4.9902053   8.8828201
 -31.7844200   2.1057732   9.1721325 -30.6674271   1.8167307   9.6401148
 -32.0546761   2.0584061   7.8257079 -33.2547531   2.4232438   7.1105738
 -33.4618187   3.5256746   7.3597441 -34.1028404   1.9252639   7.4240260
 -33.0219498   2.2163341   5.6089501 -32.7510567   3.2401576   5.0821486
 -33.9248161   1.8111418   5.2597589 -31.8938255   1.1442279   5.6203337
 -31.3860111   1.2463403   4.7087631 -32.2025986   0.0516455   5.7801156
 -31.0675907   1.4598502   6.9014163 -30.6578560   0.5436192   7.2487855
 -29.8605061   2.4390018   6.6550279 -28.9611511   2.1294420   5.8613911
 -29.9256783   3.6881206   7.1304808 -30.6587124   3.9401939   7.7807732
 -28.6875801   4.5055547   7.1019483 -28.4153156   4.6488066   6.0453420
 -28.8307667   5.8559589   7.8268547 -29.1909313   5.6953950   8.8896236
 -27.8687763   6.3436871   7.9929323 -29.8660564   6.7626619   7.1743612
 -29.4586296   7.2162075   6.2512121 -30.8281937   6.2031517   6.9104223
 -30.2450085   7.9063711   8.0369539 -29.7682571   8.9949217   7.8428407
 -31.1553535   7.6917152   8.9504557 -31.5112972   6.6919880   9.0865555
 -31.3954811   8.3305788   9.6282349 -27.5105457   3.8266516   7.7982445
 -27.6738701   3.3058240   8.9351187 -26.2914696   3.7643895   7.2331047
 -25.9210320   4.2351360   5.8686328 -26.1667938   5.2749653   5.9059200
 -26.5236816   3.7308750   5.0784607 -24.4221859   3.9637074   5.7499623
 -23.8633003   4.8967371   5.8312531 -24.3374844   3.5150943   4.7447572
 -24.1127758   2.8737304   6.8277855 -23.0652390   2.9808602   7.1430011
 -24.2688541   1.9001502   6.3631129 -25.1052933   3.2514594   7.9640198
 -25.2837143   2.3350110   8.5131855 -24.5015488   4.2707767   8.9099407
 -24.8882904   5.4526205   8.9725046 -23.7019653   3.6668577   9.8371992
 -23.4404144   2.6508615   9.5782270 -22.9515476   4.2560444  10.9605064
 -22.5322037   5.2043190  10.5872574 -23.9296417   4.4917388  12.1732750
 -24.7970619   5.0390882  11.8846645 -24.2059555   3.5040638  12.5904503
 -23.2227592   5.1796932  13.3579168 -22.2500324   4.6859984  13.6398878
 -22.8021851   6.1535354  12.9670010 -24.2507839   5.3361344  14.5659533
 -25.1578255   4.5637856  14.6966190 -24.1020565   6.3640900  15.3139868
 -23.3731308   7.0174222  15.3564024 -24.9294128   6.6293330  15.8575907
 -21.7614460   3.3093991  11.1765394 -21.8815575   2.1259167  10.9123936
 -20.6847782   3.8119242  11.7278852 -20.5051155   4.7481327  11.9714727
 -19.5353565   2.9959319  12.0826569 -19.1427059   2.6039362  11.1213579
 -18.3292828   3.8332584  12.6940308 -18.7568283   4.5917392  13.3565950
 -17.6435528   3.1135533  13.1385307 -17.3248177   4.7908773  11.4386072
 -19.9021950   1.7948209  13.0628433 -20.1940136   2.0167322  14.2190065
 -19.5949688   0.5688777  12.5410252 -19.3842430   0.5388311  11.5405159
 -19.7185230  -0.6812990  13.3762989 -20.7813683  -0.8290982  13.4922113
 -19.1648045  -1.8064048  12.5207062 -19.7834873  -1.6993816  11.5890017
 -18.1025448  -1.6485370  12.2772636 -19.3257694  -3.1896620  13.2555084
 -18.6856174  -3.1962094  14.1282549 -20.3243217  -3.2899599  13.6200342
 -18.9566479  -4.3625317  12.4299278 -18.0731564  -4.3447852  11.5508556
 -19.5669918  -5.4982429  12.5235271 -20.2588749  -5.5526900  13.2356253
 -19.2884102  -6.2106762  11.9226179 -19.0504990  -0.6478285  14.7894993
 -19.6591644  -0.9001747  15.8339691 -17.7262058  -0.3038580  14.7550144
 -17.3609257  -0.1075683  13.8231239 -16.8319511  -0.1506623  15.9352722
 -17.3510094  -0.6772030  16.7352028 -15.2868500  -0.7128564  15.8219395
 -14.7377195   0.0507097  15.2583027 -14.8185148  -0.9719452  16.7662468
 -15.1544838  -2.0971458  15.1527424 -14.0705433  -2.6366982  14.5137081
 -14.2619600  -3.9378824  14.4290676 -13.6902561  -4.5367990  13.7523232
 -15.4483547  -4.2832284  14.9619408 -15.7842350  -5.2291465  15.0175228
 -16.0271835  -3.1190767  15.4593391 -16.9658546  -2.9891739  15.9908056
 -16.8881626   1.3983191  16.3855133 -17.6120319   1.6578517  17.3263664
 -16.1138115   2.3378973  15.8096867 -15.5989494   2.2528520  14.9408045
 -16.2282066   3.7305555  16.2911720 -17.2355576   3.9669018  16.5556355
 -15.2307606   3.8949175  17.4772873 -15.3039761   3.0330544  18.2092457
 -14.2445641   3.8367674  16.9257832 -15.1582613   5.2749534  18.2114544
 -14.8543921   6.0278587  17.4898567 -16.5221748   5.6196823  18.8710976
 -16.3943729   6.4387531  19.5054054 -17.1339970   5.8425207  18.0557480
 -16.9443226   4.6508760  19.3334160 -14.1046515   5.2386780  19.3230858
 -14.1578970   6.0292950  20.0206261 -14.4059181   4.4368443  19.9211502
 -13.0844221   5.0211229  18.9241600 -15.9488316   4.7974768  15.2650633
 -15.0749435   4.5520492  14.3670311 -16.7620983   5.9404898  15.2886047
 -17.4037514   6.0326586  16.0741711 -16.5909042   7.0168920  14.2744627
 -16.4284916   6.6232834  13.2522240 -17.7971630   7.9759264  14.2452946
 -17.9406700   8.4070988  15.2474165 -17.5558872   8.8067865  13.6012821
 -19.4150887   7.2523351  13.8556099 -15.3199711   7.8059726  14.4791851
 -14.8813906   8.1059628  15.5960646 -14.8054085   8.3207722  13.3427200
 -15.1385059   7.9379978  12.4237719 -13.6244917   9.2148361  13.3584509
 -13.5321445   9.9073925  14.1911497 -12.3379755   8.3434944  13.4876881
 -12.1468220   8.3052616  14.5958128 -12.4871674   7.3286324  13.0861874
 -10.9968939   8.8680010  13.0311966 -10.4156485   9.9793634  13.5268774
  -9.5413370  10.3476334  12.5882282  -8.8295574  11.2103834  12.7149439
  -9.5964451   9.5830803  11.5206480  -8.9846897   9.5974274  10.7433691
 -10.4810095   8.6143026  11.8313780 -10.7923841   7.8154941  11.1501064
 -13.6332121  10.1625719  12.1330624 -14.1319122   9.8039837  11.0753574
 -13.0807695  11.3383160  12.1338177 -12.6955090  11.5688047  13.0392752
 -13.5290966  12.4913082  11.2962427 -14.1262140  12.1434546  10.4893608
 -14.4120493  13.4468613  12.2086678 -13.8912573  13.8079634  13.0379620
 -14.6697340  14.3342628  11.6388836 -15.7919769  12.8866844  12.6474619
 -15.9349308  12.2372189  13.6485147 -16.6040840  12.8131247  11.6052189
 -16.2113724  13.1171598  10.7422915 -17.5294285  12.3993959  11.5801620
 -12.3633394  13.3247604  10.6802101 -12.6590166  14.2896500   9.9798174
 -11.0766401  12.9280195  10.8169031 -10.8440533  12.0646105  11.2701950
  -9.9299555  13.6891928  10.3984079 -10.2261944  14.3525877   9.5674524
  -9.3540068  14.4487143  11.6962128  -8.9555626  13.7139654  12.4344349
  -8.4944353  14.9765816  11.3933887 -10.2118502  15.3984718  12.4320049
 -10.5303755  16.6701813  11.9742670 -10.0081272  17.1791897  11.1406155
 -11.2746992  17.5353565  12.8118267 -11.3156414  18.6984825  12.6342468
 -11.9026165  17.0582924  13.9892330 -12.5935173  17.9093819  14.8217859
 -12.6142778  17.6728897  15.7877932 -11.8034887  15.7115641  14.2763977
 -12.2970715  15.2760839  15.1245155 -10.9449911  14.9014053  13.5396528
 -11.0016842  13.8765917  13.8518181  -8.7294092  12.8934336   9.7467728
  -8.8138475  11.6474380   9.6356764  -7.6951113  13.5781670   9.2289267
  -7.7262068  14.5831051   9.5029278  -6.3382711  12.9728937   8.9710550
  -5.6465616  13.7794437   9.0715523  -5.8569574  11.9916153  10.0523481
  -6.5154734  11.1273403  10.0565224  -4.4289265  11.6132584   9.7618465
  -3.7130747  12.3571100  10.0742302  -4.2128749  10.8200111  10.4394035
  -4.1846833  11.3208380   8.7438354  -5.8830791  12.6718988  11.4622097
  -5.2163596  13.5610256  11.5555038  -6.9088449  12.9435959  11.7238064
  -5.6824636  11.9835081  12.3068447  -6.1777711  12.3638544   7.5604801
  -5.3925138  12.7754412   6.7038245  -7.0773406  11.4669209   7.2822757
  -7.7717505  11.2309017   8.0075169  -7.3758101  10.8220873   5.9635649
  -6.8545475  11.2703466   5.0753284  -6.9788113   9.8872061   5.8496022
  -8.8680048  10.8424177   5.6357770  -9.3788853   9.8341112   5.1301289
  -9.5104275  11.8762627   6.1203380  -8.9825039  12.6354322   6.5082164
 -10.9464016  12.1095228   5.9731293 -11.1592598  13.0668154   6.4008102
 -11.1528206  12.1135416   4.9002762 -11.7703571  11.0677156   6.6963649
 -11.2636099  10.4633331   7.6457729 -13.0622578  11.0096664   6.4490886
 -13.4584608  11.5268230   5.7252417 -13.9624348  10.1620808   7.2268414
 -13.6986980  10.3709040   8.2837381 -15.4500256  10.5390835   6.9341445
 -15.5237856  11.6383018   7.0895357 -15.7475986  10.4763088   5.9397116
 -16.3620014   9.7005825   7.8093548 -16.9999714   8.4970551   7.3731060
 -16.8027134   8.1782875   6.3245173 -17.8281307   7.7678871   8.2127562
 -18.1995659   6.8580360   7.7929759 -18.1639538   8.2419748   9.5155268
 -19.0269928   7.5540156  10.2892780 -19.2950401   6.7701836   9.8547049
 -17.6314945   9.4955492   9.8957844 -17.7864437   9.9223394  10.7998791
 -16.6723824  10.1961222   9.0763731 -16.2362518  11.1488724   9.4114227
 -13.6228542   8.6384201   6.9907236 -13.6305466   8.1251907   5.9042902
 -13.3950939   7.9162650   8.0710754 -13.4293451   8.4179897   8.9822922
 -13.3070297   6.4609413   8.0968084 -14.2192497   6.0924921   7.6144404
 -12.0567360   6.0014415   7.3376088 -12.1528902   4.8671508   7.2366862
 -11.9601402   6.3537436   6.3136859 -10.7554903   6.2004228   8.0995207
 -10.1740665   5.0564833   8.7224932 -10.7368174   4.1648297   8.6063843
  -8.9477787   5.1654859   9.3971872  -8.5259142   4.2841520   9.8386726
  -8.3776522   6.4252906   9.5924492  -7.5264978   6.3808708  10.2931890
  -8.9110308   7.5832529   8.9603853  -8.2048082   8.4328318   8.9444103
 -10.0736055   7.4279337   8.2084274 -10.4588642   8.2689342   7.6803489
 -13.3356752   5.9702415   9.5868597 -12.8137093   6.7300949  10.4662514
 -13.9815044   4.8063822   9.8541288 -14.5511446   4.3864160   9.1315613
 -14.0181828   4.2540150  11.1754904 -14.6214695   4.8410020  11.8693018
 -14.8311062   2.9142334  11.0197239 -14.2486897   2.2464757  10.4472065
 -14.9920559   2.4101562  11.9910517 -16.4954453   3.2771463  10.3523455
 -12.6618567   4.0173068  11.8674412 -11.7822552   3.4366131  11.2521973
 -12.5795593   4.3583255  13.1639490 -13.4135132   4.7368808  13.6472645
 -11.4094048   3.8421512  13.9642677 -10.5200996   3.7002387  13.3613958
 -11.1038036   4.7024608  15.2133808 -12.0098791   4.9474010  15.7387772
 -10.4719639   4.1964507  15.9837437 -10.4343090   5.8558674  14.9164581
  -9.5929937   5.6849928  14.4437075 -11.8954372   2.3956101  14.3489542
 -12.5710144   2.1741648  15.3778820 -11.6143599   1.3985039  13.5169497
 -11.0571804   1.5085869  12.6312971 -11.9914989  -0.0140038  13.8042126
 -12.9507580  -0.0956596  14.2641249 -11.8737640  -0.8075402  12.4747696
 -10.8432589  -0.6075428  12.0813103 -11.9124336  -1.8720520  12.6123924
 -12.8936577  -0.3303937  10.9907932 -11.0018940  -0.6352533  14.8457985
  -9.8344746  -0.2594925  15.0791683 -11.4134445  -1.8500246  15.3929815
 -12.3085251  -2.3746386  15.1546011 -10.4599438  -2.5340347  16.2710819
 -10.0161114  -1.9701475  17.0341644 -11.2034378  -3.5731506  17.0807781
 -11.7087402  -4.2431273  16.4312553 -10.5217562  -4.0783548  17.7333698
 -12.3429184  -2.9552011  17.9849720 -12.0328131  -2.3914137  18.9089298
 -12.8897686  -2.2293024  17.3333549 -13.3368788  -3.9647970  18.4009819
 -14.0523615  -3.4821270  19.0746155 -13.6995392  -4.5192819  17.4856911
 -12.6218500  -4.9703441  19.2169857 -11.9150257  -4.6449199  19.8252697
 -12.9258299  -6.2802463  19.2548771 -14.0310841  -6.8479104  18.8451443
 -14.7479038  -6.2754612  18.4219494 -14.1995039  -7.8423028  19.0406494
 -12.1600714  -7.1197329  19.8255825 -11.3729753  -6.7421312  20.3070850
 -12.4003296  -8.0948744  19.8715706  -9.3001204  -3.2080617  15.5647993
  -9.4945583  -3.4876015  14.3543816  -8.1845407  -3.5374603  16.1828785
  -7.8104920  -3.3684950  17.5770798  -8.3388863  -3.9977388  18.2170753
  -8.0036230  -2.3980563  17.9434395  -6.3635392  -3.4942603  17.6345310
  -6.0806532  -3.5819731  18.6964207  -5.9123907  -2.5744865  17.1790352
  -6.1511946  -4.6854486  16.7950974  -6.5167255  -5.5339994  17.4098682
  -5.0278597  -4.8601184  16.5957394  -7.1101761  -4.3546371  15.5963726
  -6.5479655  -3.8093648  14.8007698  -7.6765575  -5.6853580  15.0493126
  -8.4779854  -6.2414856  15.7925119  -7.2411466  -6.2100501  13.9132576
  -6.4696989  -5.7233005  13.4718218  -7.7033014  -7.4556971  13.3811626
  -6.9329906  -7.9115748  12.7170124  -7.7690659  -8.0968609  14.2060776
  -8.9878349  -7.4502916  12.6090260  -9.4977713  -8.4981184  12.3031149
  -9.3740635  -6.2565799  12.1632729  -8.7700453  -5.4289713  12.3217020
 -10.6693830  -6.0619106  11.3994942 -11.0081367  -6.9466066  10.8637657
 -11.7488470  -5.4355569  12.3112383 -11.4079342  -4.5278912  12.7077389
 -12.6169949  -5.1905437  11.6843948 -12.2458439  -6.4185667  13.3521261
 -11.7291565  -6.4470682  14.6588459 -10.9660568  -5.8072243  14.9551640
 -12.2729549  -7.3467202  15.5965090 -11.9803581  -7.4406528  16.6302395
 -13.4037724  -8.1805630  15.2480431 -13.9743938  -8.9668703  16.2106590
 -14.3882132  -9.7585440  15.7492056 -13.9613857  -8.0434580  13.9720974
 -14.8803673  -8.6541080  13.7128582 -13.3602657  -7.1669073  13.0224981
 -13.7049484  -7.1233582  11.9645128 -10.3050461  -5.1134248  10.1640873
  -9.3228025  -4.3475857  10.2120485 -11.1496754  -5.1732392   9.1563606
 -11.9304848  -5.7342191   9.3068504 -10.9004250  -4.4800448   7.8747272
 -10.0964203  -3.7953732   8.0136509 -10.4721155  -5.5295129   6.8535147
  -9.5911665  -6.0731764   7.2323422 -11.2396994  -6.2653828   6.8705044
 -10.3094349  -4.9301214   5.4100771 -10.4769268  -5.7740774   4.6659040
 -11.0877314  -4.1274848   5.2853231  -9.0203419  -4.1721430   5.0782914
  -8.5520267  -4.4493542   3.9425371  -8.4409227  -3.5207391   5.9700770
 -12.2262106  -3.6896210   7.4408875 -13.2595444  -4.1875744   7.0981560
 -12.0269032  -2.4113514   7.5364752 -11.1306896  -2.0536904   7.8587208
 -12.8416252  -1.3412536   6.9638581 -13.6708593  -1.2165715   7.6587200
 -12.0385122  -0.0182176   6.9861259 -11.8692484   0.2059234   7.9987783
 -11.1385231  -0.1150726   6.3422985 -12.9526882   1.1519915   6.4714026
 -13.5533867   0.7039355   5.7238836 -13.9058189   1.7067538   7.5669928
 -14.5034733   2.4216783   7.0193009 -14.5425072   0.9177169   8.0633545
 -13.2429199   2.1332765   8.3029909 -11.9996414   2.2021599   5.9350929
 -11.3716021   2.6179738   6.7086954 -11.4213362   1.7247607   5.0930028
 -12.5258818   2.9677601   5.4416447 -13.3582535  -1.7121305   5.5535727
 -12.5420456  -2.1496177   4.7158089 -14.6195354  -1.5092684   5.2108712
 -15.2531128  -1.0912949   5.8767185 -15.1932564  -1.8163383   3.8652329
 -14.5280561  -2.4813337   3.2916646 -16.5187492  -2.6593170   4.0601773
 -17.2340031  -2.0641406   4.5872092 -16.9553776  -3.0171332   3.1503391
 -16.3002892  -4.0471401   4.8110666 -15.8969793  -3.9597723   5.7982941
 -17.2949905  -4.5180049   4.7968035 -15.2709827  -4.9539962   4.0425420
 -15.4560337  -5.2461185   2.8827574 -14.1754427  -5.3411961   4.6575050
 -13.8664093  -5.0852938   5.5709834 -13.6859140  -6.1413307   4.2837381
 -15.3740015  -0.4576121   3.0556557 -15.1452427   0.6544878   3.5824780
 -15.8313446  -0.5351345   1.8279827 -16.0717030  -1.4629437   1.4822298
 -15.9631462   0.5206563   0.7947478 -15.0562229   1.0831009   0.8249637
 -16.1346951  -0.1962489  -0.5552477 -15.3549004  -0.9356421  -0.6422575
 -17.0475559  -0.7616946  -0.4336797 -16.2795219   0.6361837  -1.7737947
 -17.1867943   1.2921753  -1.7659258 -15.4010305   1.2608058  -1.9123350
 -16.4189625  -0.3328563  -2.9791212 -17.3753128  -1.1054506  -2.9914846
 -15.6027393  -0.3667212  -3.8917782 -17.0543365   1.6353332   1.0813382
 -16.9361954   2.6999102   0.5810038 -18.0637131   1.2390525   1.8904321
 -18.0163078   0.3323840   2.3946779 -19.0268097   2.2294238   2.4211361
 -19.4490929   2.8507135   1.6228877 -20.2671642   1.6352479   3.0783761
 -20.8519058   2.4885583   3.2907162 -20.7491951   1.0552526   2.3518374
 -19.9459248   0.7602383   4.3115520 -18.7592468   0.6008145   4.6938510
 -20.8927078   0.1318966   4.8785753 -18.2337570   3.2615998   3.3935378
 -18.7396126   4.3400221   3.6904240 -17.1233120   2.8915894   3.9546432
 -16.8907127   1.9328730   3.7275865 -16.3530293   3.4943664   5.0241566
 -15.3852978   2.9801047   4.9651923 -16.1031609   4.9895673   4.7845416
 -17.0099277   5.6000652   4.7837005 -15.5014076   5.3799458   5.6273994
 -15.3095074   5.3026295   3.4895442 -14.6905441   6.1512084   3.6752393
 -14.6607628   4.5263491   3.0254996 -16.2020454   5.8992891   2.3360584
 -15.4999409   6.0540056   1.4823467 -16.9777966   5.2074060   2.0592735
 -16.6610126   7.2857261   2.6765468 -15.8836899   7.9144568   2.6459718
 -17.8645191   7.7339482   2.9967859 -18.9074020   7.0234747   3.0782566
 -18.7824783   6.0223775   3.0734258 -19.8140259   7.3511262   3.4567890
 -17.9197330   9.0091228   3.3001640 -17.1117687   9.6527910   3.1152513
 -18.8019257   9.4195118   3.4381926 -16.8831196   3.2264850   6.4455504
 -16.2879124   3.8044820   7.3349471 -17.9999924   2.5222886   6.6178031
 -18.4531517   2.0472751   5.8262706 -18.8007545   2.3046193   7.8657155
 -18.5016403   2.9217350   8.6866255 -20.2202969   2.7408252   7.5244846
 -20.5030518   2.2818701   6.6878724 -20.8918858   2.3288951   8.2489681
 -20.5133991   4.2042999   7.4318118 -20.5461674   5.1730099   8.4003725
 -21.1310558   6.2382789   7.7787948 -21.3105354   7.2331233   8.1568880
 -21.2249413   5.9850693   6.4264107 -21.4661503   6.6992311   5.7600303
 -20.9228172   4.6713705   6.2159915 -21.0281982   4.1942954   5.2208524
 -18.7721119   0.8907031   8.4260111 -18.8462029   0.7799410   9.6507425
 -18.6884670  -0.2086064   7.6892452 -18.6482754  -0.1801432   6.6966457
 -18.4858799  -1.5570128   8.2240229 -18.9079723  -1.5096986   9.2673950
 -19.2598000  -2.5313978   7.3517756 -20.2889652  -2.1742117   7.3836098
 -18.9011059  -2.5227122   6.3632674 -19.0217209  -3.7829828   8.0276651
 -19.9759636  -4.0377512   8.1960297 -16.9595222  -1.9178338   8.3535233
 -16.1846867  -1.7221761   7.3839164 -16.6182404  -2.4780264   9.5189161
 -17.3313732  -2.7146196  10.1982536 -15.2950420  -3.1087165   9.8163118
 -14.5717163  -2.7917931   9.0505342 -14.9367571  -2.6253579  11.2060061
 -15.7504463  -2.9796364  11.8974962 -13.9732628  -3.1091442  11.4246979
 -14.7888412  -0.8314139  11.4146729 -15.3215809  -4.6538715   9.7280331
 -14.3926373  -5.4278712  10.0116520 -16.4185295  -5.1740160   9.1022091
 -17.0750790  -4.5952549   8.7622452 -16.5973759  -6.6452999   8.8341789
 -16.5667629  -7.1402125   9.7570429 -17.9719124  -6.7010660   8.2543736
 -18.6404133  -6.0923281   8.8878012 -18.0006371  -6.3474703   7.2229309
 -18.3424187  -8.2136326   8.2744961 -19.2020855  -8.3507252   7.6601882
 -17.5042648  -8.7968311   7.8977985 -18.7965088  -8.7398071   9.6670370
 -19.1065445  -8.0010405  10.5532751 -18.9782677 -10.0005207   9.7443161
 -18.5038548 -10.7127934   9.0960436 -19.3821812 -10.3447781  10.5814600
 -15.5355682  -7.1262188   7.8626056 -15.5874481  -6.8953094   6.6580515
 -14.4398108  -7.7871442   8.3578987 -14.3609715  -7.7766409   9.3409786
 -13.4950466  -8.4582014   7.5081196 -13.0637884  -7.7483454   6.7327094
 -12.2441282  -8.8483982   8.2645159 -12.5805464  -9.6686831   8.9335632
 -11.5100584  -9.2263613   7.5835581 -11.7942867  -8.1147680   8.8654709
 -13.9038734  -9.8294764   6.8073874 -13.3570671 -10.2173128   5.8242264
 -14.8654041 -10.5709648   7.3936963 -15.3680038 -10.1612511   8.1364136
 -15.4750576 -11.7839661   6.7830129 -15.2881470 -11.7376137   5.6403942
 -14.8100080 -13.0801668   7.2840447 -15.1364613 -13.2361784   8.3563976
 -15.2473698 -13.9481678   6.7848797 -13.3272448 -13.1233587   7.1522446
 -12.7771931 -12.3070536   7.7810044 -12.9341469 -14.0254059   7.7303286
 -12.8144245 -13.1429844   5.7070708 -13.3671083 -13.8242283   4.8114805
 -11.6978474 -12.5955067   5.4759169 -17.0223808 -11.9000568   6.9171734
 -17.5823708 -11.7618990   8.0655661 -17.6815243 -12.1332150   5.8818650
