
  772  0.0000000e+00
 -17.6129856   5.9225659   9.7509899 -18.0014954   6.4476223  10.5126371
 -18.2797966   6.0743947   8.9813242 -17.6366425   4.9320216   9.9424744
 -16.2687149   6.3776979   9.3245716 -15.6385813   6.2852330  10.2122164
 -15.6824579   5.4142208   8.2424660 -15.7619181   4.3849635   8.5724335
 -16.2356224   5.5315161   7.2849183 -14.6693506   5.6724687   8.0651484
 -16.1774273   7.8590970   8.9272346 -17.2133694   8.5606041   8.8436499
 -14.9145803   8.3239794   8.7727232 -14.1180334   7.7210040   8.9631729
 -14.6269550   9.7222948   8.4939127 -15.1489353  10.2785406   9.2509861
 -13.1217766  10.0113211   8.6741648 -12.5731182   9.4509611   7.9225845
 -12.8855238  11.5507412   8.4211121 -13.3879108  12.2091684   9.1631279
 -11.8330402  11.8352327   8.5475101 -13.1508694  11.8346939   7.3582706
 -12.6044674   9.5927486  10.0142803 -13.0147638  10.1922245  10.7968988
 -12.8186598   8.5529394  10.2636290 -11.5358057   9.6749983  10.0598106
 -15.0807724  10.1384840   7.0903187 -15.8173218  11.0785761   6.9492693
 -14.6142387   9.4602566   6.0327678 -14.0247908   8.6725712   6.1892610
 -14.9873552   9.6805201   4.5902047 -16.0280952   9.9063826   4.6223536
 -14.2444715  10.9353085   4.0783720 -14.3181658  11.7170630   4.8477836
 -13.1522274  10.7174063   4.0833597 -14.8012629  11.5275002   2.7711561
 -15.8152094  11.0530376   2.2031617 -14.2982492  12.6157236   2.3501818
 -14.6741409   8.4150143   3.7861588 -14.3424225   7.4077649   4.4040694
 -14.7603836   8.4656754   2.4259357 -15.0570965   9.3371840   2.0307543
 -14.7946119   7.3368387   1.5018482 -15.6175222   6.7214823   1.8809556
 -15.2211523   7.8387828   0.0962321 -15.6404982   6.9859557  -0.4687986
 -15.9596243   8.6517944   0.1644948 -14.0735912   8.3774052  -0.7785153
 -13.2151976   7.6907444  -0.9119453 -14.6241388   8.4651356  -2.1901844
 -14.7523203   7.4729733  -2.5546799 -15.5629673   9.0296850  -2.2741537
 -13.9180269   8.9818115  -2.8880069 -13.6123466   9.7419052  -0.3238158
 -14.4518843  10.4125795  -0.1557610 -13.1294727   9.6396551   0.6606532
 -12.8332577  10.1629343  -1.0411130 -13.5518188   6.4366322   1.5189761
 -12.4078321   6.8650527   1.8736137 -13.6992397   5.2215929   1.0394815
 -14.6145210   4.9811268   0.6147956 -12.6440992   4.1971931   0.8625123
 -12.0388784   4.1929765   1.7500751 -13.2672071   2.7572689   0.8182803
 -12.4519825   2.0756128   0.6056323 -13.7289152   2.4320130   1.7524245
 -14.4009933   2.4765944  -0.1965096 -15.2503395   3.3511972  -0.5298475
 -14.5183754   1.2669636  -0.5578749 -11.7454166   4.5390515  -0.3561095
 -11.7158175   3.7432685  -1.3186173 -10.9289875   5.6002660  -0.1887140
 -11.0408535   6.1581731   0.6198056  -9.8683758   6.0400910  -1.1310620
 -10.3823938   6.3951521  -2.0123038  -9.1064529   7.2407818  -0.4858130
  -8.9083424   6.9620962   0.5650966  -8.1332169   7.3871088  -0.9370304
  -9.8836737   8.5329962  -0.5213696 -10.8434048   8.3903303  -0.0392818
  -9.2943277   9.1731491   0.1452025  -9.9883881   9.2523680  -1.8881803
  -9.5908451   8.7511787  -2.9387119 -10.3291950  10.4602194  -1.8503656
  -8.9356089   4.8932223  -1.5776579  -8.3944550   4.9161501  -2.6952729
  -8.6988754   3.8524830  -0.7769796  -8.8536377   3.9510467   0.2307862
  -8.0620012   2.5981126  -1.1885061  -6.9690900   2.6119182  -1.2265836
  -8.3881817   1.5898453  -0.0923141  -8.1754894   2.0735621   0.8566433
  -9.3907518   1.2455703  -0.2305256  -7.3659759   0.0611611  -0.0063766
  -8.5909510   2.1565235  -2.5902662  -7.7519965   1.8823349  -3.4642193
  -9.8986187   2.0316558  -2.7979805 -10.5445299   2.3026793  -2.0217874
 -10.4658022   1.6068642  -4.0880737  -9.7329969   1.2010951  -4.7840166
 -11.4751635   0.4545963  -3.8824155 -10.9844341  -0.4300526  -3.4211636
 -12.2563257   0.8209021  -3.2176089 -11.9185638   0.1953172  -4.8459635
 -11.1952868   2.6988091  -4.9005547 -11.0269508   2.7374842  -6.1230068
 -11.8516302   3.6055062  -4.1891603 -11.9105234   3.4690380  -3.1799974
 -12.7839651   4.6531196  -4.6504345 -13.2047272   4.3070989  -5.5739903
 -14.0375566   4.6412125  -3.8226173 -13.7118006   4.7668500  -2.7649336
 -14.6409550   5.4698081  -4.2264342 -14.8389740   3.4639506  -3.9895904
 -15.6562920   3.5485988  -3.5532942 -12.1763411   6.0441685  -4.8609285
 -12.4495783   6.8671913  -4.0416222 -11.3136024   6.2616878  -5.8792839
 -11.1278391   5.4144359  -6.4687939 -10.2955141   7.3354983  -5.9104915
  -9.9528103   7.5027366  -4.9028077  -9.0999069   6.8386979  -6.6791825
  -9.4286499   6.5334110  -7.6642823  -8.3237753   7.5845718  -6.8206162
  -8.4294882   5.6591959  -5.9672160  -8.2591677   5.9158702  -4.9309187
  -9.1027727   4.7693329  -5.8697419  -7.1149564   5.1638265  -6.5322189
  -7.2447929   4.7607193  -7.5671606  -6.3889618   6.0202026  -6.5580821
  -6.6422129   4.0258317  -5.7353172  -7.3433404   3.4707019  -5.2589602
  -5.4469180   3.5427892  -5.5399399  -4.3719687   4.0802517  -6.0590835
  -4.4534030   4.9137983  -6.6389561  -3.4855020   3.6982415  -5.8252168
  -5.2756453   2.5417738  -4.7159166  -6.1313705   2.1412966  -4.3626585
  -4.3380680   2.1332655  -4.6668262 -10.8065929   8.6871014  -6.4816351
 -10.1447296   9.4626350  -7.1788411 -12.0681667   8.9737616  -6.1419640
 -12.5467587   8.2618923  -5.6021242 -12.8088150  10.2003183  -6.4514251
 -13.8493681   9.9491291  -6.2575397 -12.4751081  11.3051405  -5.4477973
 -12.6399031  10.9499378  -4.4358931 -11.3649359  11.6274347  -5.4908581
 -13.2397089  12.5116539  -5.6233006 -12.9660835  13.1488371  -4.9281111
 -12.7154589  10.5893536  -7.9561944 -12.8241816   9.6484203  -8.7737398
 -12.4138823  11.9021025  -8.3511267 -12.3405161  12.6097155  -7.6306581
 -12.2404728  12.4097776  -9.7383060 -12.4017324  11.6483784 -10.4970741
 -13.0933485  13.6805115  -9.9053650 -12.7844620  14.3607569  -9.1316509
 -12.8141298  14.1408243 -10.8880920 -14.6045341  13.4070778  -9.8469143
 -14.9167051  13.1769714  -8.7928400 -15.0437651  14.4126787 -10.0837660
 -15.1425924  12.4168205 -10.8861542 -14.8720016  12.7330933 -11.9025249
 -14.7776527  11.4267063 -10.6801167 -16.6787167  12.3789463 -10.7361546
 -16.8343182  12.0346079  -9.7396994 -17.1328564  13.3961725 -10.7772055
 -17.2511311  11.3907280 -11.6996994 -16.6426830  10.5485907 -11.6738520
 -18.2629032  11.1646614 -11.5327539 -17.1980534  11.6732779 -12.7011013
 -10.7554436  12.8047104  -9.9379864 -10.3617611  13.8194456  -9.3919287
 -10.0448360  12.0103569 -10.7616253 -10.6011639  11.3118162 -11.1755381
  -8.6527052  12.2428360 -11.2536192  -8.5743437  11.6551256 -12.1886311
  -8.5169296  13.6800776 -11.7989492  -8.4209805  14.4521990 -10.9698629
  -7.6114631  13.6522245 -12.3744965  -9.5631971  14.0167189 -12.7055159
  -9.6301136  14.9971924 -12.7271690  -7.5332832  11.7901154 -10.2989206
  -6.3619466  12.1125021 -10.4469929  -7.8580422  10.9713898  -9.3470659
  -8.7928114  10.6606665  -9.2528162  -6.9175572  10.4976549  -8.2696514
  -6.2829404  11.3373575  -7.9373808  -7.4624586  10.2212572  -7.3282242
  -6.0233188   9.3358221  -8.5949116  -5.3328605   8.8008327  -7.7592564
  -6.0343165   8.8633051  -9.8254023  -6.7659717   9.1842785 -10.4698896
  -5.1561379   7.7528377 -10.2982082  -5.0430818   6.9543514  -9.5875721
  -5.7697449   7.1243625 -11.5309248  -5.7095199   7.7597342 -12.4282789
  -5.2163882   6.1925988 -11.7005167  -7.1772103   6.6030354 -11.2966642
  -7.2597656   5.5736012 -11.6893091  -7.3377347   6.4919133 -10.2007399
  -8.3182459   7.4628372 -11.9778671  -9.1752348   6.8261151 -12.6220789
  -8.3899441   8.6761551 -11.7726126  -3.7002871   8.1122437 -10.5800810
  -3.1303444   7.7223520 -11.5896339  -3.0603530   8.8234797  -9.6497784
  -3.5870805   9.0431232  -8.8168592  -1.6828182   9.2792568  -9.6677198
  -1.4879110   9.7865791 -10.6464472  -1.5011753  10.3500795  -8.5386105
  -1.7712791   9.8887081  -7.5881729  -0.4619730  10.7075710  -8.5393820
  -2.4563942  11.5814695  -8.7028112  -2.3782141  11.9491711  -9.7401085
  -3.4740071  11.2562761  -8.5962591  -2.1174054  12.6569357  -7.6608510
  -3.0123589  13.0181408  -6.8875036  -0.9609022  13.1243811  -7.5941758
  -0.5832274   8.2120514  -9.5104046   0.5284652   8.3662043 -10.0937166
  -0.8962334   7.0686603  -8.8933735  -1.8497013   6.9679255  -8.4516277
   0.0162986   5.9286637  -8.9062157   0.8091768   6.1592765  -9.5871363
   0.6492949   5.7334418  -7.4811931   1.1876271   6.6672678  -7.2822828
  -0.1972498   5.6553297  -6.7875476   1.6117718   4.5494752  -7.4158745
   2.3941758   4.3091807  -8.3446960   1.6016434   3.7991917  -6.4148283
  -0.7609106   4.6941085  -9.3321266  -1.3177218   4.0321045  -8.4905624
  -0.8224646   4.3037634 -10.6305304  -0.3023417   5.0273328 -11.7455254
   0.7412330   5.1712985 -11.6735258  -0.8397934   5.9950442 -11.9009018
  -0.4378499   4.1201873 -12.9611740   0.4218996   3.4622083 -13.0915785
  -0.6444628   4.7631454 -13.8595057  -1.6906177   3.3370066 -12.6227570
  -1.7931217   2.4415469 -13.1448832  -2.5883613   3.9808152 -12.7231236
  -1.4971925   3.0864189 -11.1758537  -2.4524200   2.9711180 -10.7227936
  -0.7400599   1.7929273 -10.8911848  -0.2709043   1.0500931 -11.7542181
  -0.5840603   1.4517870  -9.6135340  -0.8189403   2.1819532  -8.9191189
   0.0921144   0.3000829  -9.0919437   0.1070143  -0.4629154  -9.8139133
   1.5430819   0.5821548  -8.6578569   1.5653275   1.3043966  -7.8079228
   1.9597149  -0.3990907  -8.3091249   2.4272029   1.0176342  -9.8427801
   2.4235358   0.2196369 -10.5950470   2.1530001   1.9906681 -10.2145729
   3.8741753   1.1347666  -9.4177771   4.6705260   0.2658578  -9.6602478
   4.2585983   2.1767988  -8.7216864   3.6175518   2.9654980  -8.6342564
   5.1377749   2.1617625  -8.2507515  -0.7276701  -0.2643409  -7.8822656
  -1.4261712   0.5331046  -7.2436295  -0.6479054  -1.5857477  -7.4656482
   0.1289663  -2.6237350  -8.1245127   1.2209209  -2.5184407  -8.1468163
  -0.2745977  -2.7161636  -9.1678419  -0.2270772  -3.9440098  -7.4125557
   0.4208681  -4.1308837  -6.5610466  -0.2737179  -4.7849774  -8.0877457
  -1.6203349  -3.6698606  -6.8542891  -1.8705254  -4.3396540  -6.0370250
  -2.3614662  -3.8119965  -7.6462326  -1.5253217  -2.2008331  -6.4547210
  -2.4895074  -1.7411549  -6.4594836  -1.0967534  -1.9258856  -4.9692116
  -0.6424376  -2.8259311  -4.2717667  -1.1901209  -0.7117026  -4.4522171
  -1.4939673   0.0723153  -5.0507827  -0.8449077  -0.4644626  -2.9995596
   0.2215636  -0.6650749  -2.8779845  -1.0690048   1.0398396  -2.6515775
  -2.1274285   1.2854390  -2.5863779  -0.6584135   1.1847210  -1.6721814
  -0.3891937   1.9982142  -3.6658053  -0.1128043   2.9338064  -3.1602178
   0.5548206   1.6109588  -3.9932272  -1.3057297   2.3658097  -4.8238921
  -2.4616783   2.0425777  -4.8815660  -0.9295387   3.1858687  -5.8072038
   0.0033276   3.5094485  -5.9113688  -1.4658911   3.2463024  -6.6680903
  -1.6508102  -1.3176666  -2.0452807  -2.8406415  -1.5337505  -2.2000556
  -0.9962717  -1.8064009  -1.0073179  -0.0356549  -1.5153395  -0.9480673
  -1.6048681  -2.4869254   0.1826739  -0.7397696  -2.6232145   0.8302250
  -2.7050421  -1.6445751   0.9491438  -3.5526726  -1.5873523   0.2259317
  -3.0429318  -2.1191871   1.8699633  -2.3545513   0.0703780   1.3196611
  -2.1016521  -3.8871112  -0.1267539  -3.1809478  -4.0689473  -0.6673893
  -1.3904481  -4.9256387   0.3330051  -0.5420368  -4.7648940   0.8773350
  -1.6936374  -6.3212662   0.0143757  -1.8063498  -6.4232020  -1.0698932
  -0.4694173  -7.1881766   0.4641297   0.4307232  -6.8141413  -0.0906324
  -0.3088822  -7.0182319   1.5486212  -0.6388622  -8.7264347   0.1137239
  -1.3901358  -9.2128601   0.7870401  -1.0847838  -8.8013496  -0.8528031
   0.6273336  -9.5673676   0.1470867   1.6445969  -9.1194973   0.6629524
   0.5781778 -10.7689228  -0.4502207  -0.2852282 -11.1606159  -0.8768699
   1.4267118 -11.2779732  -0.5784745  -3.0129719  -6.8434625   0.6505922
  -3.6871462  -7.6169710  -0.0472019  -3.3847890  -6.4000349   1.8499827
  -2.8258591  -5.7364769   2.3843927  -4.6197968  -6.8631005   2.5295429
  -5.1403184  -7.6699638   2.0178847  -4.3155198  -7.4935098   3.9262722
  -3.6973572  -6.7552948   4.4680734  -5.2491951  -7.6592736   4.4437857
  -3.5016184  -8.7281389   3.9157810  -2.8551676  -9.0756607   5.0916028
  -2.2837226 -10.2721157   4.7982721  -1.7180549 -10.8710728   5.4819164
  -2.5719283 -10.6561422   3.5133996  -2.2667751 -11.5258045   3.0640399
  -3.3300004  -9.6467276   2.9469409  -3.6740372  -9.6105547   1.8570262
  -5.7529078  -5.7917638   2.6003695  -6.8467760  -6.1526785   2.2023852
  -5.4805894  -4.5870523   3.1600044  -4.5626698  -4.4770794   3.5425429
  -6.4528093  -3.4962239   3.3781710  -7.0275550  -3.3657858   2.4742479
  -7.4832659  -3.9025595   4.5045133  -8.3580589  -3.2383420   4.3593459
  -7.8056917  -4.9486785   4.4289999  -6.9715734  -3.7432168   5.9618912
  -6.3266039  -2.8896596   6.0253329  -8.1860552  -3.5037601   6.8726916
  -8.8510151  -4.3750978   6.8613343  -7.8333998  -3.4610324   7.8944759
  -8.6132584  -2.5460947   6.5420871  -6.1301575  -4.9445753   6.3876400
  -6.6248460  -5.8884697   6.0915589  -5.2191525  -4.8198562   5.8749352
  -5.9948521  -4.9597449   7.4507852  -5.8601375  -2.0814896   3.7069631
  -4.7033439  -1.9325459   4.0882864  -6.6803355  -1.0654352   3.6204877
  -7.6838026  -1.2510719   3.5325477  -6.2780542   0.3119645   3.8834622
  -5.1956897   0.3190317   4.1623187  -6.5094433   1.1620876   2.6783109
  -7.5479198   1.4504987   2.5858774  -6.0210032   2.1113560   2.9503207
  -5.7858305   0.6217176   1.0948853  -7.1475153   0.8653761   5.0758481
  -8.3302202   0.5747020   5.1650791  -6.5436740   1.6808929   5.9712286
  -5.5593538   1.8214269   5.8876343  -7.2614856   2.7516403   6.7412682
  -8.2417212   2.3715217   7.0420761  -6.5103602   3.1115673   8.0540915
  -5.5240803   3.3790419   7.7455516  -7.0198770   3.8881280   8.5956850
  -6.4976592   1.9743239   9.0272369  -7.6062088   1.5406667   9.7181330
  -7.2438583   0.4456909  10.3837070  -7.8940458  -0.0666332  11.0390387
  -5.9583430   0.1536638  10.1685333  -5.4650135  -0.5649623  10.6214895
  -5.4617171   1.1344646   9.2830935  -4.4313030   1.3452734   8.9966240
  -7.4817805   3.9364419   5.7891555  -6.7333889   4.1907506   4.8546367
  -8.5242558   4.7082419   6.0448165  -9.1196642   4.5613813   6.8590765
  -8.9496861   5.7699614   5.0725245  -8.1098595   6.0390716   4.4091663
 -10.0840149   5.3147507   4.1327457 -10.9885302   5.1319127   4.7104187
 -10.2947721   6.1049223   3.3887992  -9.7324200   4.0995560   3.3328032
  -8.9449320   4.1543760   2.3584144 -10.4193611   3.0172322   3.4491954
 -11.1830530   2.9053321   4.1471200 -10.1609507   2.2382298   2.9193068
  -9.3989449   7.0203753   5.8285637  -9.8750296   6.9887614   6.9492636
  -9.1486454   8.1605062   5.1964116  -8.6562634   8.1353941   4.3008623
  -9.3754082   9.4804878   5.6976457 -10.2066727   9.4009266   6.4217577
  -8.2102928   9.9655590   6.6133828  -8.4989271  10.9085808   7.0840263
  -8.0120344   9.2269888   7.3514614  -6.9198966  10.2625608   5.8449893
  -6.0189791   9.1916475   5.5799408  -6.3685894   8.2035913   5.7012005
  -4.7149363   9.4113674   5.0704103  -4.0953069   8.5235748   4.8080778
  -4.2451148  10.7233353   4.8586717  -3.0076983  10.9379187   4.2814279
  -2.9348621  11.8764124   3.9884493  -5.1166267  11.7859926   5.0988646
  -4.7918720  12.7903118   4.8518457  -6.4518256  11.5621557   5.5689549
  -7.0339007  12.4203072   5.8624582  -9.7217016  10.4765329   4.5737352
  -9.6117220  10.1200438   3.3951011  -9.9244099  11.7610836   4.9319677
 -10.0074244  12.0327320   5.9173794 -10.1108189  12.8374662   3.9576106
 -10.8815403  12.5021763   3.2777259 -10.5482817  14.2159986   4.5382352
 -10.3908911  14.9816809   3.8050721 -12.0432177  14.3446302   4.7776108
 -12.5708342  14.2327747   3.8141634 -12.3311291  13.5195961   5.4728608
 -12.2156763  15.3644323   5.1971145  -9.8757925  14.6407423   5.8400326
 -10.2937555  13.9598846   6.6060729  -8.8218822  14.4980164   5.6744409
 -10.1039829  15.6186600   6.1588759  -8.8656616  13.0167284   3.0521898
  -7.7487898  13.4147844   3.5350525  -9.0459337  12.6787758   1.7759215
  -9.9975719  12.4544630   1.4957385  -8.0515614  12.8203344   0.7053017
  -8.4964170  12.7350473  -0.2543837  -7.6012192  13.8325500   0.7921287
  -6.8949695  11.8603039   0.8398808  -5.8560781  12.0575094   0.1865830
  -7.0228124  10.7882261   1.6574031  -7.8489594  10.6511793   2.2609346
  -5.9411807   9.7873077   1.6347812  -5.7216640   9.6030588   0.6104895
  -5.0825577  10.2149830   2.0994871  -6.2781715   8.4463511   2.3163877
  -7.4059539   8.1519556   2.7795708  -5.2966304   7.5565486   2.2656212
  -4.4039063   7.7883167   1.8454884  -5.3262901   6.1980276   2.8611419
  -6.0270448   6.1896591   3.6859636  -5.8532739   5.1820035   1.8059205
  -5.9441161   4.2559853   2.2991285  -6.8683524   5.4575629   1.5516312
  -5.0298996   5.0905681   0.5224217  -5.3217406   5.9348640  -0.5793296
  -6.1054163   6.6566415  -0.4910113  -4.6182904   5.8020563  -1.8072163
  -4.8461528   6.4231453  -2.6679378  -3.5785570   4.8701391  -1.9189376
  -2.8347383   4.7850666  -3.0474677  -1.9371717   4.5638900  -2.9045475
  -3.3519270   3.9698446  -0.8348991  -2.5556836   3.2231047  -0.9443179
  -4.0388575   4.0887637   0.3927473  -3.8454924   3.4045866   1.2168818
  -3.9556575   5.8123283   3.5160651  -2.9372919   6.4480014   3.2618353
  -3.9137015   4.7473793   4.3046708  -4.7824497   4.2950926   4.5706611
  -2.6470294   4.1054454   4.7156577  -1.9419184   4.2252617   3.9051108
  -2.0250740   4.7845373   5.9450250  -1.1139247   4.2391639   6.2362347
  -1.7449148   5.7551770   5.6376619  -2.8689406   4.8785367   7.2021728
  -3.8626502   5.8831830   7.3672886  -4.0950260   6.6013217   6.6248703
  -4.5167694   6.0390973   8.6077299  -5.1584406   6.8360543   8.7631874
  -4.2939987   5.1566095   9.6762352  -4.8080354   5.2521296  10.6059761
  -3.3712864   4.1296663   9.4965372  -3.1658423   3.4970715  10.3342810
  -2.6743546   3.9279180   8.2527409  -1.9841169   3.0927217   8.0528812
  -2.8120410   2.5906849   4.9184146  -3.9254508   2.0905375   5.1940656
  -1.7615675   1.7741528   4.6417532  -0.8427119   2.1084023   4.3803530
  -1.8935417   0.2780657   4.6133447  -2.7697155  -0.0245468   3.9963188
  -0.6853581  -0.2938194   3.8734198   0.2431708   0.0779592   4.3319297
  -0.7313519  -1.3577546   3.9386199  -0.4917270   0.1501298   2.1130493
  -1.9750916  -0.3895122   5.9606771  -1.5042387   0.1838271   6.9444151
  -2.5210903  -1.6226025   6.0324569  -2.8366339  -1.9972993   5.1437564
  -2.6332769  -2.4997349   7.2009702  -1.7362595  -2.3973553   7.7901168
  -3.8450763  -2.1158283   8.0991583  -3.9449692  -1.0193136   8.1765585
  -4.7405567  -2.4835482   7.5580292  -3.7946341  -2.6559784   9.3923264
  -3.1067457  -2.1704497   9.9561176  -2.6711736  -4.0192041   6.7177196
  -2.4575772  -4.2643967   5.5517578  -2.7881312  -4.9678679   7.6335788
  -3.1382692  -4.6788998   8.5722914  -2.6367581  -6.4357514   7.3423986
  -2.8958902  -6.6301327   6.2875814  -1.1864738  -6.8753572   7.5411630
  -0.9460395  -6.6512642   8.6031561  -1.1993486  -7.9829502   7.4125118
   0.0776846  -6.1722589   6.4578657  -3.5577803  -7.2794051   8.2081909
  -3.9338241  -6.9285960   9.2998066  -4.0752010  -8.3607349   7.6005769
  -3.9188061  -8.5506735   6.6259861  -4.9398322  -9.3308945   8.2857237
  -5.8531022  -8.7724218   8.5873718  -5.2744389 -10.4284945   7.2420497
  -5.6488705  -9.9959993   6.3357110  -4.3845830 -10.8880577   6.8474417
  -6.2846422 -11.5388956   7.6159673  -7.1463470 -11.1313915   8.1330299
  -6.6113806 -12.0337954   6.6664886  -5.7498608 -12.7570343   8.4425173
  -4.6917229 -12.8762569   8.2721386  -5.8784842 -12.6911726   9.5062571
  -6.4531369 -13.9988031   8.0619326  -7.2440047 -13.9366045   7.4140816
  -6.1549859 -15.2012653   8.4419823  -5.3313141 -15.3988075   9.4309025
  -5.0501785 -14.6324434  10.0036907  -5.0806069 -16.3555317   9.6459761
  -6.6046858 -16.2977962   7.8885980  -7.2709093 -16.2120800   7.1674948
  -6.2342544 -17.1667767   8.1879673  -4.2675605  -9.9695549   9.5377350
  -3.0940547 -10.3927660   9.4621458  -5.0043292 -10.1410923  10.6328430
  -6.2903881  -9.6388903  10.8944530  -7.0979271 -10.1964903  10.4036379
  -6.3596015  -8.6069641  10.5533648  -6.4268498  -9.6712675  12.4224472
  -7.4318938  -9.8649302  12.7884188  -5.8990521  -8.7647657  12.8274155
  -5.6116433 -10.8471127  12.8399334  -6.2095833 -11.7193851  12.6553049
  -5.2426934 -10.7752819  13.8795395  -4.4358630 -10.7043657  11.8844929
  -3.7762091  -9.9728022  12.3201027  -3.6920395 -12.0371256  11.7076912
  -4.2099347 -13.0148067  11.1250353  -2.4762940 -12.1097698  12.2470331
  -2.1665187 -11.3975525  12.9352274  -1.4916085 -13.1774178  11.9223690
  -0.9930935 -13.4625349  12.8699722  -1.9735240 -14.0669394  11.4663887
  -0.3479535 -12.7970810  10.9608955   0.6364464 -13.5184536  10.8003893
  -0.4448609 -11.6196156  10.3289404  -1.3187729 -11.1261177  10.4660597
   0.5047284 -11.0603466   9.4137449   1.3985779 -11.5975094   9.5499325
  -0.0155879 -11.2685575   7.9428906  -0.8375857 -10.5090427   7.8428316
   0.7888240 -11.0286894   7.2650270  -0.4719403 -12.6407251   7.5800748
  -1.8645893 -12.9147110   7.4351974  -2.5384388 -12.0740652   7.5404067
  -2.3263500 -14.1826649   7.0777364  -3.3976839 -14.3923302   6.9697504
  -1.3554015 -15.1759195   6.7414470  -1.7886968 -16.3789215   6.4047427
  -2.7796242 -16.4516716   6.3818455   0.0066051 -14.9681377   6.9072208
   0.6567774 -15.8845320   6.8535132   0.4582171 -13.6704102   7.2646136
   1.5321130 -13.5138645   7.3749428   0.7551987  -9.5913019   9.7832909
  -0.1085997  -8.8223457  10.2646723   1.9556324  -9.1203394   9.5051155
   2.5794017  -9.7288218   8.9746389   2.4992275  -7.7786565   9.8760376
   1.7402624  -7.1663685  10.3846407   3.7541089  -7.9176517  10.7520494
   4.5889645  -8.2330866  10.1184597   3.9407353  -6.8772435  11.1038055
   3.7331324  -8.7834110  11.9642725   3.7573574  -9.8395433  11.6206837
   4.6410122  -8.5471382  12.4883833   2.5313008  -8.5558443  12.8812256
   2.1155734  -7.3871064  13.0180368   1.9723438  -9.5415268  13.3528271
   2.7770305  -7.0048780   8.5825453   3.2803762  -7.5440879   7.6091690
   2.6001799  -5.6827064   8.5726805   2.3606274  -5.2065520   9.4443464
   3.0259094  -4.7941713   7.4822855   2.6438847  -5.2000141   6.5406747
   2.4099801  -3.3988204   7.7004819   1.3648241  -3.5769794   8.0093479
   2.9961667  -2.8414905   8.3952847   2.4738636  -2.5576308   6.4348006
   3.4943156  -2.6481018   6.0315304   1.4614360  -2.9723182   5.3326912
   0.4357396  -2.9508915   5.7033920   1.5759754  -2.3314600   4.4294510
   1.6131897  -4.0067811   4.9725142   2.1919608  -1.1380953   6.7755651
   1.3148237  -1.1000793   7.4322557   2.9997625  -0.7710433   7.3920941
   2.1419895  -0.5508285   5.8480854   4.5676942  -4.7950521   7.3934216
   5.2629805  -4.4726715   8.3415670   5.1212592  -5.2704568   6.2638779
   4.4910026  -5.4410963   5.4689574   6.5253716  -5.4031181   5.9567065
   7.0477276  -5.8452225   6.8603873   6.7639499  -6.4859986   4.8373413
   6.1707993  -6.1343474   3.9431720   7.7805896  -6.5990791   4.5945301
   6.2250290  -7.8499122   5.0780463   5.1257653  -7.8222418   5.2084470
   6.3866167  -8.4532614   4.1896968   6.8464904  -8.5638132   6.2613006
   7.9908285  -8.9849749   6.2049508   6.1438327  -8.7878933   7.3516011
   5.2044034  -8.3803635   7.4624939   6.5781903  -9.2488461   8.1354923
   7.1364326  -4.0283041   5.5714250   6.4709716  -3.0120597   5.3539629
   8.4771042  -3.9957283   5.5486422   8.9984150  -4.9027662   5.6490421
   9.2365761  -2.7907743   5.5303545   8.8298216  -2.1320996   6.2860942
  10.6464958  -3.1692603   5.8385854  11.2117443  -2.2431529   6.0175819
  10.6455288  -3.6995780   6.7861171  11.4241266  -4.0454388   4.8554945
  11.1859999  -3.7996004   3.8107233  12.4961653  -3.7580440   4.9629097
  11.3321686  -5.5821199   5.1962061  10.2848587  -6.0251336   5.7155943
  12.3030033  -6.3568997   5.0112100   9.1384201  -2.0572786   4.1853051
   9.4042778  -0.8497458   4.1689911   8.7025557  -2.6301541   3.0724275
   8.4681997  -3.6074829   3.1378639   8.3284330  -1.9289680   1.8422675
   9.1490421  -1.2619704   1.6456043   8.1214733  -2.9108574   0.6201674
   7.9590111  -2.2787781  -0.2317792   9.0114603  -3.5266142   0.4661641
   6.8733120  -3.8394592   0.6802326   6.1134763  -3.8042955   1.6778015
   6.6813941  -4.6157794  -0.2912316   7.0713673  -1.0154446   1.9755414
   6.8834348  -0.1607319   1.1042347   6.1986442  -1.2081875   3.0111554
   6.4841728  -2.0100145   3.5337830   4.9348359  -0.5203503   3.3637033
   4.7524943  -0.7452827   4.3988795   5.0755095   1.0739751   3.2058823
   5.2509522   1.2939125   2.1701455   4.0624738   1.4736514   3.3430223
   6.0343704   1.8207358   4.1233959   5.6655498   1.8721929   5.1462955
   6.9712000   1.3106109   4.1314135   6.2605863   3.2801213   3.6099670
   5.3034983   3.8182721   3.4522061   6.7982035   3.8321290   4.3467999
   7.0318146   3.3011711   2.3327427   6.5230103   3.5908530   1.5178549
   8.3282614   3.0406060   2.2272103   9.0618534   2.7432256   3.2911172
   8.6503325   2.7545238   4.2179213  10.0121078   2.4440560   3.1801090
   8.8994732   3.0868306   1.0460759   8.2889166   3.1969504   0.2393710
   9.9354858   3.1166053   0.9098541   3.6922014  -1.0687910   2.6201985
   2.6510060  -0.4101243   2.7721403   3.7138619  -2.2292457   1.9213973
   4.6176648  -2.6635623   1.7824048   2.6168797  -2.8231697   1.1403861
   1.7008733  -2.3116093   1.4189937   2.7988863  -2.5434270  -0.3811084
   3.7009082  -3.0048034  -0.7506993   1.9542979  -3.0285213  -0.8857412
   2.7995918  -1.0542870  -0.7138035   1.6559917  -0.2566764  -0.6235734
   2.0347502   0.9863036  -0.9043693   1.3919085   1.8652875  -0.8891910
   3.3376596   1.0188769  -1.0746572   3.8823531   1.8477781  -1.0465759
   3.8494210  -0.2635311  -1.0301902   4.8627715  -0.5401973  -1.0487107
   2.4088330  -4.3131809   1.3651527   1.2499143  -4.7521420   1.5715218
   3.5415123  -5.0602131   1.3581752   4.4439139  -4.6006460   1.2721457
   3.4628389  -6.5341721   1.6360488   2.6350472  -6.9050646   0.9391007
   4.8571386  -7.1626587   1.2844855   5.0148730  -7.0835638   0.1790543
   5.6160879  -6.6302342   1.8473667   5.0104861  -8.5663052   1.6309346
   5.9279542  -8.8203440   1.3184124   3.0408347  -6.8750591   3.0634813
   3.2895756  -6.1342640   3.9884644   2.4313819  -8.0509462   3.2096875
   2.4414644  -8.7213697   2.4505172   1.9943522  -8.5852537   4.4323874
   2.4084167  -7.9777794   5.2161798   0.4970825  -8.5624151   4.5526876
   0.1100909  -9.1008930   3.6990390   0.2671216  -9.1315727   5.4728565
  -0.3643607  -6.9566865   4.6353359   2.4865875 -10.0168791   4.5407338
   2.1298585 -10.9131832   3.7627344   3.2680748 -10.2791891   5.5520158
   3.5318658  -9.5773544   6.2440329   3.8446388 -11.5830765   5.7993531
   3.2349322 -12.3610163   5.3466840   5.2780480 -11.7301321   5.1917276
   6.0362458 -11.1768389   5.8009343   5.5603023 -12.7791748   5.2685933
   5.4784484 -11.2738695   3.7171946   5.1931744 -10.2328396   3.6822472
   6.5102787 -11.3181925   3.4573605   4.7518544 -12.0997276   2.6178050
   4.5940237 -13.3021698   2.6745772   4.3389425 -11.4275446   1.5578759
   4.3834171 -10.4032526   1.5701793   4.0435843 -11.9919100   0.7556826
   3.8784251 -11.8829288   7.2842402   3.6615357 -11.0200605   8.1271582
   4.1656594 -13.1038208   7.6702332   4.3603783 -13.7341614   6.8917770
   4.1409216 -13.5564766   9.0601768   3.2120202 -13.2017221   9.5016079
   4.2296419 -15.0564337   9.0815744   3.4520280 -15.4667091   8.5076847
   5.2106667 -15.3437700   8.7063599   4.1715488 -15.4168892  10.0683079
   5.3262877 -13.0043402   9.8846350   5.2271609 -12.9837236  11.1625690
   6.4676838 -12.7017822   9.2721758   6.4941263 -12.8798971   8.2586870
   7.7423677 -12.3250675   9.8620377   7.8668175 -13.0046740  10.7295361
   8.8761692 -12.6859465   8.8822575   8.7165384 -13.6132708   8.3371840
   8.9397860 -11.8693085   8.1484661  10.2322378 -12.8091154   9.5423574
  10.4953327 -11.8648920   9.9912987  10.1395798 -13.5467615  10.3583946
  11.3692045 -13.2031956   8.5196095  12.3901424 -13.8276300   8.9599285
  11.3128777 -12.8949680   7.2632036   7.7663393 -10.8870907  10.3786936
   8.0214005 -10.6232500  11.5714073   7.5016079  -9.9624949   9.5895643
