
29966  0.0000000e+00
 -18.7923393   1.3920759 -16.5640850 -18.2146435   1.2330605 -15.7491970
 -19.4063911   0.5628453 -16.6726322 -19.3696442   2.1649671 -16.3279037
 -17.8690357   1.6232378 -17.6988964 -17.2661743   0.7125788 -17.7464085
 -18.6829681   1.6959455 -19.0035267 -19.5897865   2.2864523 -18.9112015
 -18.0149670   2.0335183 -19.8118057 -19.1020279   0.2700101 -19.3607578
 -18.2391758  -0.3866206 -19.1993790 -19.8540478  -0.0372894 -18.6893082
 -19.7234383   0.1421717 -21.0472679 -19.9561024  -1.6539700 -21.1078625
 -20.8338242  -1.9835739 -20.5468445 -20.0607014  -1.9514180 -22.1300964
 -19.0362625  -2.1453815 -20.6403160 -16.9659824   2.8417482 -17.3930836
 -16.9320717   3.3155892 -16.2619324 -16.1618652   3.2797897 -18.3782692
 -16.2600555   2.8722942 -19.2776623 -15.2328959   4.3701100 -18.1808929
 -14.4448767   4.0201082 -17.4851112 -14.5165367   4.6678486 -19.5056458
 -15.2070036   5.2109842 -20.1382713 -13.6665020   5.3438635 -19.2534561
 -14.0831718   3.3708003 -20.2191525 -12.8628721   3.1461475 -20.3620510
 -14.9446220   2.5882890 -20.7484798 -15.9139643   5.6339269 -17.6491394
 -16.9964161   5.9848933 -18.0979233 -15.2275753   6.2892580 -16.7023506
 -14.4095049   5.8636236 -16.2981377 -15.4751959   7.6009750 -16.1859531
 -16.5303249   7.7763629 -16.3238182 -15.0479240   7.5931959 -14.6995831
 -13.9477148   7.4547787 -14.6573772 -15.1143475   8.6346378 -14.4042959
 -15.8477507   6.7232032 -13.7062664 -15.7938290   5.7091928 -14.0489807
 -15.2422295   6.8288832 -12.3106213 -15.3720589   7.8495593 -11.9389973
 -15.7605753   6.1367321 -11.6663227 -14.1681719   6.5313263 -12.3994493
 -17.2853298   7.2019873 -13.6223307 -17.7824211   7.1900206 -14.6031761
 -17.8659191   6.5769215 -12.9044905 -17.3544998   8.2512617 -13.3145094
 -14.7691364   8.7397251 -16.9472294 -13.6179295   8.5262413 -17.3545170
 -15.3733253   9.9202318 -17.0565872 -16.8090229  10.2130070 -16.9143772
 -16.9681606  10.2743435 -15.8322573 -17.3601799   9.3946037 -17.3665028
 -17.0296040  11.5790548 -17.5782471 -17.7613258  12.1984386 -17.0675335
 -17.3892384  11.3981962 -18.6240406 -15.6269360  12.2122717 -17.6401634
 -15.5744553  12.8608723 -16.7716637 -15.5721178  12.8111515 -18.5348301
 -14.6241999  11.0728636 -17.6420116 -14.3164148  10.7423515 -18.6386776
 -13.3544865  11.5148439 -16.8395653 -13.3063974  11.1868868 -15.6243410
 -12.3937721  12.2336540 -17.4309807 -12.4495993  12.5065699 -18.8716125
 -13.1381989  13.2772388 -19.1020603 -12.6799049  11.5916462 -19.4642868
 -10.9945974  12.9773998 -19.1769638 -11.0512009  13.7077045 -20.0070267
 -10.3809500  12.1101570 -19.4950390 -10.4940948  13.5813894 -17.9462566
 -10.6721106  14.6692028 -17.8830090  -9.4271345  13.4635773 -17.8711929
 -11.1588726  12.7876463 -16.8201332 -10.5793180  11.8978519 -16.5882664
 -11.3830700  13.6227140 -15.6145020 -10.8250322  13.3081045 -14.5450134
 -12.2715435  14.6204472 -15.6626940 -12.8628483  14.7249546 -16.4706631
 -12.5087204  15.4809675 -14.5111408 -11.4911003  15.8973455 -14.3669844
 -13.5040512  16.6188641 -14.8046913 -14.5108089  16.2791653 -14.7092304
 -13.3279896  17.3912029 -14.0277147 -13.3594036  17.3214512 -16.1826687
 -13.6031494  16.6321430 -17.0201244 -14.0139618  18.1735001 -16.2969246
 -11.9353571  17.7451000 -16.3512268 -11.2269306  17.3219662 -17.2947903
 -11.3346815  18.6572475 -15.5790386 -10.4694118  19.1465454 -15.9028931
 -11.8466043  19.0993423 -14.8347416 -12.9411716  14.7480211 -13.2340660
 -12.3901320  15.1178493 -12.1604862 -13.8175058  13.7339516 -13.3479137
 -14.1263819  13.4167633 -14.2634401 -14.2512932  12.9521799 -12.2253742
 -14.5520220  13.6417341 -11.4097023 -15.5159616  12.1398630 -12.5255957
 -15.5089750  11.6914759 -13.5129890 -15.5962553  11.2746534 -11.8840399
 -16.8333588  12.9219151 -12.4743662 -16.7606182  13.5660543 -11.5850744
 -17.0988026  13.6985674 -13.7197580 -17.0422516  13.1180191 -14.6289845
 -17.9978180  14.2375174 -13.5518732 -16.3902969  14.4697094 -13.7508011
 -17.9977341  11.9333134 -12.3438168 -17.9215698  11.3448229 -11.3835011
 -18.9604664  12.4180841 -12.3349304 -17.9991264  11.2591667 -13.1628370
 -13.1341019  11.9832821 -11.7125225 -12.9693708  11.8787146 -10.5133009
 -12.5096321  11.2488031 -12.6298141 -12.7870932  11.3047705 -13.6128283
 -11.2858887  10.4376841 -12.3632050 -11.5199852   9.5790195 -11.7907543
 -10.5708466   9.9855080 -13.6637106 -10.3448477  10.8726730 -14.2948914
  -9.6019363   9.5460405 -13.3794880 -11.2574196   8.9438629 -14.3614874
 -11.9788084   9.3602600 -14.8616428 -10.3103981  11.2560310 -11.5455055
  -9.9377375  10.9023085 -10.4498720  -9.8841228  12.3987570 -12.0734129
 -10.2640743  12.6981945 -12.9948521  -8.9834013  13.3579111 -11.3963022
  -8.0336227  12.8977404 -11.2422314  -8.7163143  14.4866886 -12.3684425
  -8.1470404  14.1526833 -13.2706394  -9.6576347  14.9995461 -12.7079239
  -7.8313141  15.6504917 -11.8092842  -6.4319091  15.4452219 -11.7735281
  -6.0065227  14.4482222 -11.9752779  -5.5744500  16.4550991 -11.3904476
  -4.5113173  16.3208313 -11.3116779  -6.1184382  17.6898537 -11.0030899
  -5.4828734  18.4794025 -10.6160278  -7.5088310  17.9544888 -11.1302748
  -7.8914304  18.9538288 -10.8951750  -8.4048023  16.9451199 -11.5342093
  -9.4703531  17.0574570 -11.4777555  -9.5144463  13.8621130 -10.0189171
  -8.7291956  13.7626286  -9.0639906 -10.7337370  14.3674612  -9.8702927
 -11.3040352  14.5167742 -10.7271976 -11.4283953  14.5904598  -8.6091223
 -11.1032305  15.5834208  -8.1518440 -12.4727011  14.6739054  -8.7794819
 -11.2428331  13.4687996  -7.5873618 -10.8000174  13.7727585  -6.4949989
 -11.6724148  12.2550631  -7.8914795 -12.0348024  12.0516911  -8.8023710
 -11.5434313  11.1037722  -6.9824767 -12.0388021  11.4448881  -6.0971079
 -12.3269320   9.8878584  -7.5613999 -13.3756056  10.2084627  -7.7714515
 -11.8159628   9.4542332  -8.4704266 -12.4339123   8.7439356  -6.5230269
 -12.6124573   9.1460905  -5.5248137 -13.6182108   7.8483033  -6.8933153
 -13.5576258   7.6145263  -7.9804583 -13.6757812   6.9988246  -6.2034059
 -14.4461107   8.4407120  -6.7143559 -11.2094345   7.8298287  -6.3686042
 -10.6349373   8.2154980  -5.5130539 -11.5315056   6.7837687  -6.2061367
 -10.5312681   7.9514842  -7.2295375 -10.1094255  10.8364496  -6.5975666
  -9.8348083  10.5639744  -5.4106088  -9.1681404  10.9541435  -7.5132151
  -9.4504051  11.2183714  -8.4502869  -7.7342916  10.9117470  -7.2064633
  -7.4978995  10.0314083  -6.6311269  -6.9726238  10.8788891  -8.5757923
  -7.3756056  11.6317234  -9.2658653  -5.9342484  11.1876001  -8.4186716
  -6.9003959   9.6100931  -9.3147316  -6.6078591   8.3851137  -8.6893196
  -6.3088899   8.4029713  -7.6799345  -6.6213903   7.1322756  -9.4078026
  -6.3989711   6.1865544  -8.9103165  -6.8829989   7.1993618 -10.7634020
  -6.8434310   6.0260792 -11.4526472  -6.9470901   5.2451801 -10.9109516
  -7.1613832   8.4108629 -11.4316807  -7.2875319   8.3866005 -12.5314159
  -7.1317458   9.5821304 -10.6904354  -7.3631186  10.5227957 -11.1861219
  -7.1793418  12.0752678  -6.3196611  -6.2789183  11.9106665  -5.4794116
  -7.6682396  13.2929983  -6.5649681  -8.2693415  13.4360704  -7.3960304
  -7.2364278  14.4852467  -5.8254061  -6.1918125  14.5435228  -5.7929177
  -7.6296043  15.8049831  -6.5670929  -8.6971855  15.7042332  -6.8047056
  -7.5455065  17.0472755  -5.6829524  -6.5201163  17.2469063  -5.3319402
  -7.9317183  17.8967896  -6.2490196  -8.1427689  16.9697361  -4.8022041
  -6.7459035  16.0881195  -7.8176780  -6.8527980  15.2870855  -8.5650625
  -7.1128540  17.0477924  -8.2275047  -5.6940932  16.0974579  -7.4789090
  -7.7078719  14.4081402  -4.3493519  -6.9049287  14.7001858  -3.4843609
  -8.9422026  13.9807568  -4.0922184  -9.4975357  13.7960424  -4.9195433
  -9.4822464  13.6399069  -2.7337539  -9.5147924  14.5943155  -2.1590502
 -10.9639463  13.1846514  -2.9004190 -11.0620365  12.1552649  -3.3037353
 -11.4485397  13.2574139  -1.9037499 -11.4485216  13.8817263  -3.6165438
  -8.6794701  12.5838709  -1.9850745  -8.1939049  12.8891897  -0.8663323
  -8.4909592  11.3787317  -2.5925174  -8.8438883  11.2711563  -3.5444484
  -7.7100258  10.3094854  -1.9779146  -8.2352057   9.9723682  -1.1171491
  -7.6343441   9.1476107  -2.9154639  -7.1443896   9.5743313  -3.8274632
  -7.0084858   8.3432894  -2.4932294  -8.6277380   8.7802544  -3.2551694
  -6.3092570  10.8025951  -1.5852358  -5.8261471  10.5773726  -0.4646066
  -5.6200800  11.4957323  -2.5074170  -6.0329399  11.5529461  -3.4630642
  -4.3168654  12.1259613  -2.2658834  -3.6079834  11.3094997  -2.0053830
  -3.8173840  12.6997938  -3.5656800  -3.5759902  11.9599428  -4.3614759
  -4.6415935  13.3509960  -3.9637699  -2.5701406  13.5266113  -3.4804692
  -1.3097709  12.9234447  -3.5171173  -1.2366786  11.8367624  -3.6270285
  -0.1554218  13.6902561  -3.5161877   0.7774782  13.2069006  -3.4065852
  -0.2515044  15.0805273  -3.3729732   0.5977502  15.7033243  -3.3204482
  -1.4688908  15.6965628  -3.3699212  -1.5342199  16.7674904  -3.2532125
  -2.6346185  14.9380789  -3.3721743  -3.5658190  15.4353905  -3.3447323
  -4.2946658  13.1255388  -1.1496781  -3.5721362  12.9637232  -0.1541787
  -5.1719112  14.1231585  -1.2323567  -5.7644868  14.2372036  -2.0530236
  -5.2043338  15.1870050  -0.2450690  -4.1984353  15.5909195  -0.1713319
  -6.1432118  16.2918777  -0.7632836  -7.1577616  15.8969297  -0.8349738
  -6.1836014  17.0629520   0.0067098  -5.7971735  16.6786957  -1.7041655
  -5.5060239  14.7643394   1.2059728  -4.8405447  15.1980486   2.1449645
  -6.4853902  13.8328266   1.3508313  -7.0122676  13.6504068   0.5031715
  -6.8057461  13.1733370   2.6667199  -6.9912648  13.9017239   3.4378419
  -8.0804729  12.3060904   2.4862645  -7.9294868  11.6404581   1.6203712
  -8.1582098  11.6934862   3.3639560  -9.3694935  13.1173334   2.2480068
  -9.1261091  13.9618578   1.5952201 -10.3832636  12.1499767   1.5706472
 -10.6804171  11.3486156   2.2551346 -11.2066040  12.7370214   1.2342190
  -9.9324484  11.7530050   0.6630083 -10.0331879  13.5807095   3.5484271
  -9.3920937  14.2882767   4.0965152 -10.8473005  14.2442122   3.2943640
 -10.3494034  12.6927700   4.1006956  -5.6569824  12.3402109   3.2082269
  -5.2233515  12.4704924   4.3452196  -5.1616530  11.3997936   2.3876860
  -5.5262194  11.3207045   1.4786131  -4.1914864  10.4880381   2.8331409
  -4.5403333  10.1179972   3.7889814  -4.0487113   9.6546373   2.1611695
  -2.7625403  10.9683132   3.0620484  -2.1313047  10.4708099   3.9917443
  -2.2699246  11.9126263   2.2327142  -2.9337666  12.3098135   1.5303063
  -0.8905589  12.3804674   2.3152623  -0.3191805  11.5495129   1.9096327
  -0.6511372  13.6382790   1.3847827  -0.7017579  13.3344164   0.3268614
  -1.4077200  14.4137659   1.5936648   0.6697043  14.3471518   1.6329279
   1.9128304  13.6806288   1.4904816   1.9337451  12.6456413   1.1137794
   3.1141808  14.2769670   1.8924727   4.0394955  13.7684288   1.7746526
   3.1266119  15.5383196   2.4700749   4.0618734  15.9458342   2.7897551
   1.9344778  16.2566681   2.5861888   1.9591702  17.2942467   2.9749296
   0.7022708  15.6848001   2.1606367  -0.1902439  16.2981777   2.2645340
  -0.3934861  12.6025639   3.7458899   0.5725973  11.9338598   4.1690154
  -1.0535750  13.5051146   4.5173612  -2.2007439  14.4003630   4.2300291
  -3.0151007  13.8444910   3.7605724  -1.8713914  15.2074299   3.5771523
  -2.7465198  14.8536577   5.5666399  -3.3531237  14.0364447   5.9149103
  -3.2659843  15.8088207   5.4650307  -1.4940088  14.9333487   6.3994460
  -1.6500068  14.8322382   7.4538636  -1.0330340  15.8715620   6.2238431
  -0.6223994  13.7455654   5.8748336   0.4392752  14.0779486   5.8867507
  -0.7521748  12.5374146   6.7531199   0.0898305  12.3422184   7.6396728
  -1.7220455  11.6488943   6.4998455  -2.3559270  11.8941631   5.7227044
  -1.9772719  10.5220900   7.3873634  -1.8424816  11.0022211   8.3200712
  -3.4283936  10.0028648   7.2333694  -3.5922384   9.7443829   6.1827607
  -3.4415679   9.1069527   7.8836460  -4.5069547  10.9505129   7.6863976
  -4.3259468  11.9457760   7.2461510  -5.9146662  10.4989100   7.2404957
  -6.0802550   9.4045410   7.4279051  -6.6403985  11.0887804   7.6935534
  -5.9486623  10.5354776   6.1611185  -4.4256816  11.0217390   9.2390251
  -3.4960895  11.4046774   9.6039848  -5.1942058  11.7825518   9.5327206
  -4.6466627  10.0601883   9.6920919  -0.9336767   9.4144745   7.2866626
  -0.5367798   8.8785763   8.3378515  -0.4724360   9.1082039   6.0592527
  -0.9753821   9.5811710   5.2868891   0.5514216   8.1040258   5.9022450
   0.2807412   7.2928209   6.5909681   0.6362008   7.4728532   4.4847283
   1.5610731   6.8450284   4.4316053  -0.1157567   6.7652302   4.2804317
   0.6494125   8.4779263   3.3463833   1.6162734   9.1983881   3.1778800
  -0.3016704   8.4855642   2.4302602  -0.0824523   8.9538593   1.5928829
  -1.1757513   7.9198308   2.5273869   1.9310325   8.6099901   6.4077096
   2.7781539   7.8320642   6.8464108   2.1025774   9.9114447   6.4404325
   1.3395572  10.4804029   6.1055713   3.2828074  10.5984869   7.0930333
   4.1942730   9.9857779   6.8293648   3.5138755  11.9910393   6.4876127
   2.5878000  12.4171686   6.0939097   4.1604075  12.9693642   7.4252124
   5.0050445  12.5129805   7.8487873   4.4431291  13.8552704   6.8270059
   3.4569244  13.2492466   8.1594257   4.4218946  11.8746386   5.2982979
   3.9645462  11.1654911   4.6087246   4.4435239  12.8280773   4.7209759
   5.4112015  11.5754404   5.6064887   3.1540051  10.6194153   8.6457987
   4.0768518  10.2871933   9.4074602   1.8761486  10.7390776   9.1329565
   1.1923293  11.1667442   8.5100946   1.5283151  10.6987762  10.5696354
   2.1922615  11.4123354  11.0516272   0.0285195  11.0652103  10.7240763
  -0.4014429  11.4342995   9.8166761  -0.5613704  10.2357435  11.0387411
  -0.2378668  12.1799278  11.7560310   0.1893821  11.9496059  12.7151289
   0.3552467  13.5326061  11.3776169  -0.1037159  13.8765640  10.4359970
   0.0289279  14.1890993  12.1672916   1.4192747  13.5168953  11.2689486
  -1.7411541  12.2828856  12.0787230  -2.1160910  11.3328857  12.5268278
  -1.9232669  13.0829544  12.7958775  -2.1892424  12.4929829  11.1236372
   1.8275862   9.2763510  11.0711498   2.1979678   9.1861916  12.2347918
   1.7599982   8.1906767  10.2747335   1.3248293   8.3236036   9.3879900
   2.2378399   6.8188386  10.5937901   1.6757845   6.5337806  11.5146303
   1.9249129   5.8670897   9.3970566   2.5358534   6.1150436   8.5846157
   2.2212002   4.8858662   9.7354116   0.8796617   5.9609513   9.1063366
   3.7531340   6.8658566  10.8786144   4.2398019   6.3660140  11.8808002
   4.5342531   7.4657540   9.9881754   4.0883331   7.9275079   9.1918335
   6.0074563   7.6208396  10.0479603   6.3561611   6.6166396  10.1637735
   6.6293163   8.1758852   8.7446203   6.2075191   9.1524782   8.4866219
   8.1382160   8.3460083   8.8448238   8.5074100   7.3646111   9.2046795
   8.5830364   8.6256294   7.9009209   8.3506260   9.1632185   9.5930338
   6.2633047   7.3172216   7.4946570   6.7599640   6.3461967   7.6065536
   5.1989050   7.1945100   7.4094973   6.7801352   7.9455690   6.1941957
   7.8073115   7.8625369   6.0889349   6.3161569   7.4562593   5.3840141
   6.5081172   8.9890022   6.1952734   6.3970304   8.4092827  11.2808409
   6.9927878   7.9030223  12.1810236   5.9837704   9.6898661  11.3407030
   5.4000158  10.0131340  10.6068916   6.2586708  10.6220551  12.4598923
   7.3215408  10.6488943  12.5788460   5.8493109  12.1096029  12.1133814
   6.3698907  12.3445930  11.1871386   4.7548742  12.1727266  11.8810759
   6.2080345  13.1052914  13.2319031   5.4766903  13.0324163  13.9986286
   7.1524282  12.8838015  13.6638641   6.2219667  14.5522680  12.7890606
   6.0865140  15.1853952  13.6762133   7.1659656  14.8265371  12.3211975
   5.1424189  14.8713226  11.8714418   5.2986646  14.5835962  10.9189501
   3.9580307  15.4970016  12.0304337   3.6250029  16.1354122  13.1473846
   4.3253317  16.2334785  13.8610926   2.6610639  16.4102154  13.2889671
   3.0579047  15.5170393  11.0906305   3.2904434  15.1166868  10.1923456
   2.2515326  16.1118107  11.2591887   5.6862926  10.0907888  13.7993612
   6.3376961  10.1717272  14.8494740   4.4718747   9.5533066  13.8162947
   3.9337687   9.6710424  12.9871693   3.7995460   8.8463707  14.9506273
   3.6792836   9.5992413  15.7347488   2.7838459   8.5268974  14.7024298
   4.7130117   7.6928325  15.5221214   5.0292678   7.6956253  16.7200947
   5.2095861   6.8095498  14.6577072   4.8528328   6.8078704  13.7243547
   6.1270905   5.7210708  15.0550842   5.7289076   5.1610560  15.9269514
   6.1590271   4.6873403  13.8653288   6.3518782   5.1833115  12.8807392
   6.9375892   3.9471481  14.0290260   5.1576042   4.2107339  13.8246050
   7.4965386   6.2473421  15.4818830   8.1404877   5.6481166  16.3325157
   7.9249234   7.3679218  14.8890791   7.3120351   7.8363400  14.2318249
   9.1813087   7.9906635  15.2193346   9.9529419   7.1915412  15.2099438
   9.5825710   9.0177689  14.2078867   8.7697296   9.7282686  14.0180159
  10.8754930   9.7722054  14.5196009  11.6236782   9.0280476  14.7725811
  11.2794695  10.3717985  13.7123346  10.7327356  10.4571247  15.3458462
   9.8959465   8.3033381  13.0182323   9.0890064   7.9063172  12.6825562
   9.1915150   8.5799093  16.6587906  10.2738008   8.6010056  17.2539349
   8.0103712   8.9512014  17.2133274   7.1925783   9.0313072  16.6436977
   7.8246026   9.3415613  18.6310425   8.6690845   9.9816723  18.9388008
   6.6221027  10.3011522  18.6790161   5.6869678   9.7295322  18.5575447
   6.5620718  10.6933079  19.6969490   6.7400117  11.1500940  18.0020542
   7.6517506   8.1634083  19.5885162   8.2545404   8.2062836  20.6552715
   6.9104667   7.1182532  19.2083664   6.3436646   7.2235651  18.3972950
   6.7888732   5.9388871  20.0540810   6.3068743   6.1662340  21.0192966
   5.8870201   4.9100151  19.3957863   4.9386334   5.4204278  19.1642570
   6.3160224   4.5471010  18.4481068   5.5752606   3.7605536  20.3384972
   4.6318159   3.8549316  21.3556652   4.6259675   2.6840451  21.9754410
   3.9194930   2.4321554  22.7299118   5.5447731   1.8536258  21.4203186
   5.7283096   0.9282026  21.8008423   6.1557779   2.5140347  20.3726578
   6.9063873   2.1104426  19.6700172   8.1314926   5.3167844  20.4636784
   8.2709579   5.0089126  21.6591625   9.1110907   5.2521763  19.5430470
   8.8240862   5.5376701  18.6274281  10.4992094   4.7166653  19.7364731
  10.4012585   3.6704133  20.0007477  11.2704954   4.8027616  18.4259701
  11.5373812   5.8336191  18.2092648  12.2238445   4.2503314  18.4427662
  10.7613678   4.3716407  17.5591106  11.2848196   5.3937001  20.8437138
  12.1083269   4.8021126  21.5582066  11.1298294   6.7188830  20.9187431
  10.4286337   7.1110926  20.2412128  11.7055407   7.5949597  21.9627171
  12.5524702   7.0212603  22.3769760  12.1983137   8.8862591  21.2863235
  12.4658155   9.6167488  22.0350838  13.0972204   8.6584625  20.6648903
  11.1228170   9.6412182  20.5008316  10.6539202   8.9365597  19.7744408
  10.2971020   9.9827967  21.0692768  11.7962828  10.7899494  19.7494869
  11.0326824  11.4749136  19.3813667  12.5159636  11.3103571  20.3768902
  12.5647602  10.3349819  18.5811729  12.1920099   9.5066376  18.1235790
  13.7215052  10.7976379  18.2200775  14.2634983  11.9207468  18.5806675
  13.6857910  12.7259588  18.8513718  15.1761169  12.0551987  18.1416340
  14.4334278  10.1449203  17.3884220  14.2139711   9.1547689  17.1625080
  15.2788639  10.5991545  17.0060520  10.8636580   7.9151583  23.2067413
  11.4164839   8.2329969  24.2400455   9.5162506   7.7650208  23.1511765
   9.0194530   7.6840520  22.2971039   8.6696682   7.7647753  24.3824596
   9.0279360   8.5439281  25.0781612   7.2174449   8.1308374  24.0852165
   6.9653869   7.7040081  23.0769768   6.6566491   7.5974517  24.8427773
   6.9105906   9.6452322  24.2487717   7.1099877   9.9378319  25.2964001
   7.6250277  10.6191540  23.2288933   7.3867426  10.4793701  22.1882458
   7.3428054  11.6248550  23.5717793   8.6954470  10.5941525  23.3230057
   5.4505868   9.8381414  23.9061146   4.8731384   9.2150011  24.5754166
   5.1308498  10.9033127  23.9938526   5.1845164   9.5150785  22.9083443
   8.7336407   6.4047012  25.1613846   8.8441830   6.4615307  26.4079857
   8.6958866   5.2374487  24.4462624   8.6190290   5.2993689  23.4221363
   8.5612144   3.8864961  25.0636520   8.9956207   3.9154029  26.0890007
   7.0795817   3.6191072  25.3079510   6.6431327   4.5251446  25.7833405
   6.6904759   3.5303414  24.3533516   6.7371273   2.3524089  26.1636143
   7.4259300   1.5799552  25.8811550   6.8125868   2.5278327  27.2347050
   5.3091288   1.9062530  25.9198608   4.6421299   2.7224085  26.1196175
   5.1950741   1.6174610  24.8808079   4.8671050   0.7919320  26.8033333
   4.2496557   1.0081778  27.5991631   5.1593075  -0.4926702  26.6867428
   5.9893374  -0.9097804  25.8190269   6.4062114  -0.2958980  25.1424446
   6.0347948  -1.9112113  25.6771851   4.6621933  -1.3577366  27.4943161
   3.9674470  -1.0112469  28.1432152   4.9165192  -2.3705864  27.5719280
   9.3377047   2.7135363  24.3247585   9.8524160   1.8517743  25.0348568
   9.3370953   2.6698079  22.9656010   8.7674341   3.3859074  22.5426769
   9.9335823   1.6097045  22.0740528   9.7913465   2.0248752  21.0536480
  11.4570513   1.5043159  22.3653793  11.8592033   2.5090661  22.4710941
  11.6039238   0.9911048  23.2804871  12.2972317   0.7306066  21.3642960
  13.3020926   1.2065996  21.4439869  12.3288336  -0.7209823  21.7098122
  11.3165569  -1.1065581  21.7794724  12.8914566  -1.2927233  20.9956646
  12.8087654  -0.8582430  22.6629868  12.0256844   0.9369889  19.8979740
  11.9600668   2.0004983  19.7186394  12.8908777   0.6447846  19.2826977
  11.0639324   0.4676177  19.5869770   9.1296921   0.2737706  22.0787449
   8.7175951  -0.2647885  23.0761566   8.8354092  -0.2873994  20.9125786
   9.0903177   0.2007057  20.0776958   8.0287352  -1.5117038  20.7173653
   8.3683977  -2.3266258  21.3893356   6.4759994  -1.3052863  20.8431530
   6.1257696  -0.6136621  20.0894718   5.6742806  -2.6408482  20.7652855
   6.0540867  -3.4272406  21.4761162   4.5983000  -2.5187311  20.8973484
   5.8442836  -3.0496953  19.7721748   6.2542768  -0.7594281  22.1356506
   7.1028323  -0.8541166  22.6146164   8.3345089  -2.0304968  19.3087502
   8.2473173  -1.2232571  18.3974857   8.6665735  -3.3465674  19.0624542
   8.6909208  -4.4257579  20.0093441   7.6896691  -4.5287499  20.4017754
   9.4487543  -4.2596388  20.8288040   9.0598345  -5.7196240  19.2657318
   8.1094036  -6.2384911  19.0437908   9.6893682  -6.3706646  19.8905773
   9.7048836  -5.2085209  17.9938278   9.4331608  -5.8266373  17.1590118
  10.7766714  -5.0700283  18.0869236   9.2220049  -3.7867234  17.7766819
  10.0407810  -3.1379271  17.4783974   8.1948738  -3.7426174  16.6817913
   8.5666094  -3.7739649  15.5342617   6.8896556  -3.7249157  17.0240707
   6.6422424  -3.7546084  17.9733009   5.7945228  -3.6281466  16.0427437
   6.0575366  -4.2888484  15.2253962   4.4534931  -4.1090326  16.5812035
   3.8068724  -4.1753631  15.7072248   4.5475144  -5.0935755  17.0114212
   3.8545732  -3.2332203  17.5114403   3.7936809  -3.6801343  18.3570404
   5.6057734  -2.2198915  15.3603220   4.9231200  -2.1744385  14.3470755
   6.3245316  -1.1638126  15.8204708   7.0512838  -1.3409899  16.5364151
   6.3546753   0.1385417  15.1138344   5.3178701   0.4759387  15.0370455
   7.0157008   1.1853698  16.0727863   6.6375704   2.1827145  15.8009672
   6.6466484   1.0805478  17.0431919   8.5749235   1.3228017  16.1906013
   8.9884577   0.2698842  16.0452690   9.1888180   2.2474995  15.1491919
   8.7393103   3.2427275  15.2192106  10.2805090   2.4150310  15.2486000
   8.9628668   1.8766319  14.1355553   9.0851460   1.8124443  17.5727139
   8.9090223   0.9954363  18.2268467  10.1587954   1.9877125  17.5729008
   8.5421000   2.7153554  17.8406887   6.8962498   0.1139963  13.7105799
   6.5857172   0.9873080  12.8922167   7.7726216  -0.8800018  13.4256115
   8.1260681  -1.3955914  14.2208586   8.3472366  -1.1516019  12.0952406
   8.8946486  -0.2742833  11.8341837   9.2882710  -2.3730597  12.0405006
   8.7312870  -3.2399855  12.2649498   9.8172340  -2.7133739  10.6147709
  10.2250471  -1.8018700  10.1439486  10.6251640  -3.4163132  10.7136908
   9.0462418  -3.2269421  10.0025082  10.5298128  -2.2198870  12.9365921
  10.3070555  -2.1598532  14.0151024  11.1742640  -3.0808280  12.8435030
  11.0765762  -1.3055922  12.7227678   7.2508960  -1.2557143  11.0598717
   7.3171492  -0.5493898  10.0770130   6.2515554  -2.1124980  11.2208691
   6.2817240  -2.6186595  12.1080599   5.0855179  -2.3032186  10.2683020
   5.4834790  -2.6162481   9.2756176   4.0779309  -3.3879428  10.7352314
   3.5863171  -3.0373583  11.6538811   3.3308733  -3.3708730   9.9621096
   4.6143160  -4.8096323  10.9442234   5.6845994  -5.2484779  10.1013050
   6.0720401  -4.7333035   9.2606783   6.1587043  -6.5429015  10.2640686
   6.8682790  -6.9209266   9.5801258   5.5947061  -7.4079771  11.1800289
   6.1327500  -8.6548634  11.2700214   7.0896716  -8.6355505  11.0120974
   4.5987425  -6.9625640  12.0652256   4.2051964  -7.7235746  12.7642488
   4.1053915  -5.6449914  11.9914045   3.3282738  -5.2379951  12.6867409
   4.3841071  -0.9404063  10.1175976   4.0433369  -0.6050991   8.9745312
   4.0818377  -0.1646302  11.1795988   4.3848128  -0.5128586  12.0789680
   3.5277047   1.2139264  11.0410490   2.5674973   1.0980188  10.5639458
   3.2582297   1.8036567  12.4387455   4.1119556   1.7968863  13.1053534
   3.0187690   2.8272083  12.3300371   2.3436375   1.3113697  12.8359509
   4.4413762   2.1350007  10.1892099   3.9960363   2.7532122   9.2145948
   5.7466059   2.2354732  10.5012312   6.0890827   1.8889492  11.3465214
   6.6939073   2.9925334   9.6901407   6.3101602   4.0037971   9.6781263
   8.0410061   2.9593072  10.4341993   7.8902841   3.6107841  11.2452555
   8.2008448   1.9528621  10.7628832   9.3250856   3.4071522   9.6915236
  10.0351763   3.4278109  10.5249786   9.8459711   2.4757309   8.6190739
   9.4693718   2.7229738   7.6590710  10.9115887   2.6261168   8.4928370
   9.6836367   1.4334620   8.8567238   9.2931137   4.8362250   9.1666327
   9.1201534   5.5651326   9.9589577  10.2746496   5.0953860   8.7006626
   8.5196886   4.9610415   8.3923044   6.7754421   2.5695202   8.2371893
   6.6397858   3.3709936   7.2791605   6.9946499   1.2678016   8.0230923
   7.0661545   0.6075087   8.8042965   7.0693069   0.6323994   6.6656399
   7.8135042   1.2105217   6.1113496   7.4988718  -0.8323038   6.7858849
   8.5043774  -0.8517183   7.1654778   6.9120650  -1.3589256   7.5158358
   7.4982495  -1.6404011   5.5069094   8.3589516  -1.5836872   4.6496711
   6.3373823  -2.1082776   5.1980000   6.2440472  -2.5465422   4.2850084
   5.6418715  -2.2543106   5.8808804   5.7642365   0.7845301   5.8592315
   5.8334394   1.0747247   4.7132225   4.6463242   0.6472219   6.5444608
   4.7198505   0.4873841   7.5381570   3.3674731   0.9200570   5.8858404
   3.3594630   0.3169915   4.9781632   2.2374167   0.4044488   6.7248831
   2.2678988  -0.6514052   6.9155388   2.2561395   0.9242261   7.7317638
   0.7717998   0.5803793   6.1959558   0.5740772   1.6068994   5.9689260
   0.6288679  -0.1739898   4.9115758   0.8421897  -1.2049701   4.9761448
  -0.4624547  -0.1871956   4.6574140   1.1526334   0.2457124   4.0742488
  -0.3469700   0.1304038   7.1445317  -0.1903738   0.4756817   8.1574936
  -1.3315849   0.5029937   6.7857866  -0.4742285  -0.9307250   7.0785241
   3.3175251   2.4042509   5.5040369   3.1819179   2.6829634   4.3433018
   3.5786119   3.2798049   6.4642472   3.8102703   2.9233334   7.4042821
   3.8894987   4.6817894   6.1864243   2.9138563   5.1905804   6.1983819
   4.4524231   5.0510688   7.0169420   4.6493921   5.0353403   4.9440327
   4.1153116   5.7453294   4.0913830   5.8506441   4.5575275   4.7618895
   6.2299294   3.9286091   5.4616308   6.6710997   4.9841619   3.6440473
   6.4570646   6.0205011   3.4721785   8.1550179   4.9389439   4.1239147
   8.7838860   5.3830299   3.3437448   8.2177916   5.5135231   5.0582886
   8.8224545   3.3026216   4.4567008   9.0249481   2.8423405   3.2033157
   6.3885684   4.1996474   2.3352315   6.6651392   4.7578397   1.2877607
   5.7652311   3.0128953   2.3484259   5.6003184   2.5844016   3.2475119
   5.0569439   2.3368316   1.1801993   5.7830520   2.2444739   0.3181090
   4.7012076   0.8807679   1.4555101   4.2698550   0.4406271   0.4874500
   5.5658417   0.2880758   1.6880417   3.8296142   0.6346366   2.5680768
   4.2982726   0.9019074   3.3842418   3.8600659   3.1739411   0.6898576
   3.7426832   3.5414741  -0.5107812   2.9388323   3.5642705   1.5779065
   2.9393723   3.1631505   2.5270948   1.8323696   4.4612417   1.2735059
   1.3539150   4.1172919   0.3449863   0.8753353   4.5598726   2.5034750
   1.4703071   4.8814340   3.3283279   0.0721663   5.3443584   2.2910941
   0.1462705   3.2459559   2.8197644  -0.3023516   2.4924870   1.8773596
  -0.1759891   2.9979250   3.9924324   2.2238877   5.9367518   0.8641534
   1.6523169   6.5136786  -0.0628926   3.3793900   6.3838220   1.4182906
   3.6671786   6.0147481   2.3212717   4.0211992   7.5960393   0.8985996
   3.2141914   8.3773680   0.8962981   5.0807214   8.0791321   1.9104280
   4.6259432   8.0962811   2.8967099   5.8963156   7.3894386   1.9999820
   5.7604628   9.4534254   1.5872942   6.2519603   9.3514118   0.6273312
   4.7707586  10.5684938   1.4833760   4.4121437  10.8318920   2.4827781
   5.2056236  11.4202328   0.9240630   3.9682651  10.2445974   0.8519133
   6.8050504   9.8786240   2.6408508   7.6492352   9.1216974   2.6627066
   7.2101650  10.8029499   2.3428204   6.3687210   9.9916878   3.5984037
   4.6507769   7.4548812  -0.5171694   4.4813437   8.3270798  -1.3331221
   5.2692270   6.3346524  -0.8679221   5.4619284   5.6692104  -0.1315830
   5.7123060   6.0729938  -2.2176149   6.3107777   6.8934450  -2.5663071
   6.5146298   4.7842011  -2.2484686   7.3162994   4.7963362  -1.4993970
   5.9049511   3.9918516  -1.8436779   7.0483632   4.3583994  -3.6225059
   6.1799903   4.2277660  -4.2626290   7.9347477   5.4253359  -4.2670736
   8.6199017   5.8067989  -3.5448122   8.5179081   4.9561830  -5.0945477
   7.2869592   6.2056298  -4.7223892   7.8296227   3.0714319  -3.6475551
   7.2475767   2.3122978  -3.0723689   8.1650724   2.7438438  -4.6196933
   8.7638779   3.1707537  -2.9875371   4.5205646   5.9715419  -3.2005107
   4.5445137   6.6284113  -4.2298155   3.4761426   5.2986212  -2.8873968
   3.5373094   4.7203789  -2.0609305   2.2523391   5.3430901  -3.6477065
   2.4413402   5.0280519  -4.6815481   1.2517871   4.3302922  -3.0214596
   1.7976273   3.3520362  -2.9501522   0.9404757   4.6486440  -2.0328512
  -0.0338038   4.2151704  -3.9181006  -0.5508898   5.1480174  -4.0125704
   0.2563505   3.5333352  -5.2667327   0.8751360   2.6598597  -5.1435528
  -0.6767294   3.3016660  -5.7380266   0.8009129   4.2186108  -5.8864017
  -1.0431546   3.2356939  -3.2047522  -1.4058708   3.6477745  -2.2794051
  -1.9162928   3.0013394  -3.8014975  -0.5188780   2.3015575  -2.9214752
   1.6150743   6.7430353  -3.7315736   0.9242413   7.1116667  -4.6991792
   1.7800404   7.5521374  -2.7118955   2.0634868   7.1564622  -1.8365954
   1.3580828   8.9602203  -2.6813102   0.2885478   9.0321169  -3.0427256
   1.4227967   9.5491686  -1.2751471   2.4091766   9.5502748  -0.8130949
   0.8004913  10.8839788  -1.1354543  -0.2860389  10.9076595  -1.3158411
   0.9710878  11.2601700  -0.1126844   1.3433015  11.5344105  -1.8152035
   0.5301641   8.8158655  -0.4668719   0.7648519   7.8998418  -0.4837605
   2.1697412   9.8006611  -3.6155703   1.6483226  10.7433605  -4.1477804
   3.4312460   9.4460373  -4.0206285   3.7768576   8.5501003  -3.7217221
   4.1770577  10.0769758  -5.1277046   4.1442409  11.1549559  -4.9391031
   5.7130318   9.6898890  -5.1357551   5.8889322   8.6407776  -5.1050515
   6.3696866  10.3971624  -6.3860254   6.2708182  11.4862871  -6.4021134
   7.4457498  10.0978994  -6.3485808   6.0220857  10.0431385  -7.3303838
   6.4090180  10.3070793  -3.8715937   6.0463829   9.7742815  -2.9888222
   7.4702640  10.1356983  -3.8967075   6.2399178  11.3381481  -3.7425270
   3.4925132   9.7813530  -6.4418464   3.3607750  10.6409082  -7.3254490
   3.0887783   8.5325165  -6.6600175   3.1168656   7.8403311  -5.9219084
   2.5767889   8.0790291  -7.9826283   3.1430886   8.5290985  -8.7412786
   2.6432633   6.5585523  -8.2322397   2.5799632   6.4131937  -9.3014345
   3.6334572   6.2890215  -7.9093046   1.6369073   5.8533196  -7.5591516
   1.0707991   5.4273386  -8.2524157   1.1295248   8.5409994  -8.2717505
   0.7576534   8.6413422  -9.4229326   0.3949745   8.8240204  -7.2244792
   0.6584296   8.3879128  -6.3662443  -0.9844625   9.4479313  -7.2748003
  -1.6508263   8.7620182  -7.7806263  -1.5682615   9.5948858  -5.7999659
  -0.7242960   9.3409939  -5.2037835  -1.8461858  10.6008005  -5.6122131
  -2.8323314   8.7765675  -5.5449290  -3.1068113   8.8720493  -4.5207348
  -3.9706450   9.3044109  -6.3617964  -3.8658552   9.0706987  -7.3996019
  -4.8178673   8.7771645  -5.9795804  -4.0682182  10.3858366  -6.2386341
  -2.5262091   7.2937970  -5.7522864  -1.6611494   7.0117474  -5.1944919
  -3.3799376   6.7470193  -5.4328089  -2.3606939   7.0481467  -6.8034930
  -0.9930286  10.7720585  -8.0275021  -1.8369191  10.8831501  -8.9069405
  -0.1099476  11.7730083  -7.8313694   0.5234481  12.0407486  -6.5530639
   1.2515639  11.2460461  -6.4151530  -0.1905554  11.9841309  -5.7025819
   1.1893117  13.4210157  -6.6659899   2.0702295  13.5382166  -6.0217915
   0.5079510  14.2233610  -6.3606520   1.4435698  13.5579319  -8.1564980
   2.3360887  12.9797478  -8.3864365   1.6183400  14.5891771  -8.4563913
   0.1898973  12.8895893  -8.7609816  -0.6780940  13.5748720  -8.6537971
   0.4490361  12.5849972 -10.2740154  -0.3284854  13.0634356 -11.1106195
   1.3588266  11.6488647 -10.6412830   1.9112575  11.2320700  -9.8331909
   1.4472209  11.1827126 -12.0116920   1.5859236  12.0819530 -12.6526489
   2.6303742  10.1859465 -12.0987263   2.5404940   9.4764557 -11.2681665
   2.5915942   9.7320137 -12.9977341   4.1070776  10.7459126 -11.9917736
   4.7795234   9.8917084 -11.9350538   4.4556394  11.5554771 -13.2387877
   3.7778425  12.4258947 -13.3157053   5.4916053  11.9035206 -13.1479845
   4.3345304  10.9105387 -14.1008768   4.4175830  11.6499290 -10.7837105
   4.0009513  11.2543297  -9.8489418   5.5315695  11.7112017 -10.7258511
   4.0802002  12.6577291 -10.9824963   0.1824930  10.4633036 -12.6033010
  -0.1928473  10.6387224 -13.7402143  -0.5322291   9.6724682 -11.8189754
  -0.1554718   9.4678745 -10.8888044  -1.7883034   9.0445175 -12.2925148
  -1.7113637   8.7674131 -13.3304405  -2.0588083   7.7935643 -11.4139137
  -1.1188587   7.2603140 -11.2763033  -2.3275869   8.0978899 -10.3828468
  -3.0781183   6.7753463 -12.0195532  -2.9960420   5.8868737 -11.3965025
  -4.0546255   7.2668839 -11.9735832  -2.8275478   6.4040036 -13.4960384
  -3.1130028   7.2376781 -14.1223068  -1.7385011   6.2352891 -13.6521196
  -3.6363709   5.2147012 -13.9221668  -3.3439538   4.3501401 -13.3243008
  -4.6954741   5.2929215 -13.6937962  -3.4882352   5.0618715 -15.3652849
  -3.8697841   4.2035627 -15.7578135  -3.9060769   5.8247156 -15.8798618
  -2.5030468   5.0582080 -15.6618309  -3.0124686   9.9693928 -12.3889313
  -3.6886654   9.8666782 -13.4102345  -3.2339194  10.8989439 -11.4806166
  -2.6652596  10.8764420 -10.6548681  -4.1479912  11.9744015 -11.5285587
  -5.1694293  11.5654564 -11.5765629  -3.9763186  12.7919054 -10.2358828
  -3.0455303  13.3530226 -10.2166557  -4.7882404  13.5812130 -10.1892433
  -4.0274158  12.0808411  -9.3888083  -3.8832664  12.8537903 -12.8084078
  -4.7688665  12.9682970 -13.6108389  -2.6099417  13.2556295 -13.0365324
  -1.8167837  13.0126705 -12.4342146  -2.2949910  14.1517258 -14.2313251
  -3.0566826  14.8664951 -14.1752157  -0.9680281  14.9510689 -14.0534630
  -0.9186080  15.2944326 -12.9959536   0.2802882  14.1394472 -14.3675289
   0.3900044  13.9372492 -15.4790697   1.1506550  14.6578979 -13.9501286
   0.1677421  13.1900969 -13.9409885  -0.9965533  16.2149277 -14.9381456
  -1.7575593  16.9104233 -14.5825825  -0.0200407  16.7788887 -14.9192486
  -1.1985919  15.9602890 -15.9552021  -2.3671408  13.3743038 -15.5800686
  -2.7939451  13.9037132 -16.6043835  -1.9397806  12.1185627 -15.6414366
  -1.4203544  11.6772480 -14.8721886  -2.2756617  11.1996069 -16.7699280
  -1.8200743  11.5953875 -17.6586876  -1.6154112   9.8442688 -16.5421848
  -0.6025566  10.0132027 -16.1660690  -2.1394134   9.3777189 -15.6721392
  -1.6373569   8.8562889 -17.7078114  -2.3398726   9.2263718 -18.4161301
  -0.7419729   8.8662739 -18.3045921  -2.1241620   7.4473643 -17.2623482
  -3.3427060   7.2328739 -17.0989723  -1.2614710   6.5204687 -17.1494408
  -3.7817647  11.0161304 -17.0121384  -4.1945748  11.1562872 -18.1548424
  -4.5354195  10.7329388 -15.9646835  -4.1432304  10.5019283 -15.0620136
  -5.9684033  10.5214596 -16.1402473  -6.1150031   9.7459068 -16.9062462
  -6.6184149  10.0535097 -14.8315992  -6.4197702  10.7265797 -13.9899530
  -7.7022476  10.0944424 -14.9673452  -6.2140293   9.0902205 -14.5471468
  -6.6558371  11.8231354 -16.6355438  -7.6046162  11.7344322 -17.3980904
  -6.2314963  12.9877939 -16.0876732  -5.4543552  12.9466810 -15.4500637
  -6.6796994  14.2647362 -16.5420628  -7.7913342  14.2553434 -16.3993378
  -6.1168761  15.3970575 -15.7349892  -6.2195950  15.1539440 -14.6890554
  -5.0743108  15.4446306 -15.9309759  -6.7889476  16.7927666 -15.9409008
  -6.6991825  17.1624832 -16.9650726  -8.2359457  16.9203358 -15.5356617
  -8.4207144  16.5364799 -14.5083036  -8.4165754  17.9727478 -15.5078211
  -8.8465958  16.4277477 -16.2545414  -5.9282408  17.7533188 -15.1025000
  -4.8497162  17.6536331 -15.3568001  -6.2296629  18.7702541 -15.3421307
  -6.1343145  17.6603737 -14.0791626  -6.4374170  14.5645390 -18.0837421
  -7.2668738  15.1306477 -18.7745495  -5.3377590  14.0323362 -18.6344776
  -4.6344528  13.6127462 -17.9774723  -4.9803491  13.9724627 -20.0649815
  -5.2759910  14.8694811 -20.4902153  -3.4338865  13.9842148 -20.0892715
  -2.9933653  13.0722542 -19.6842117  -3.0305576  14.0091286 -21.1245651
  -3.0161951  14.8480186 -19.5551605  -5.5626268  12.7563753 -20.8308220
  -4.9789991  12.3946047 -21.8600864  -6.6319571  12.1496973 -20.3534031
  -6.9273658  12.5092592 -19.4670792  -7.2643847  10.9606228 -21.0248547
  -8.0784283  10.6310186 -20.3693752  -7.9173203  11.3402643 -22.3509769
  -7.0904207  11.6248026 -23.0571346  -8.4420834  10.4945316 -22.7327557
  -8.8901062  12.3121090 -22.2144165  -8.3887568  13.1334410 -22.1781902
  -6.2665505   9.7642174 -21.1959114  -6.2186475   9.1199932 -22.2612286
  -5.4499002   9.4745550 -20.1617985  -5.4610405  10.1000633 -19.3692093
  -4.5305624   8.3102865 -20.1397057  -4.3366737   8.0490961 -19.1145573
  -5.0193663   7.4313951 -20.6086731  -3.1965618   8.5554037 -20.8688335
  -2.3297486   7.6783605 -20.7702351  -2.9902647   9.7646923 -21.4800167
  -3.7726316  10.4171124 -21.4998608  -1.6772039  10.1236210 -22.0818233
  -1.3669837   9.2578802 -22.7169209  -1.9416575  11.3005400 -23.0662708
  -2.2921617  12.2173405 -22.5947838  -1.1005973  11.5839005 -23.6777687
  -2.6581433  10.9600592 -23.8053875  -0.5489506  10.3351221 -21.0622005
  -0.6562855  11.0339441 -20.0013561   0.5559006   9.5914459 -21.2945843
   0.5613215   9.0535698 -22.1580925   1.7579364   9.7611570 -20.5087395
   1.5035334   9.4886112 -19.4746666   2.8455639   8.7940388 -20.9987621
   2.4193928   7.7726097 -20.9654446   3.0391917   9.0254622 -22.0490551
   4.1249561   8.8387918 -20.1488419   5.3487635   9.0988054 -20.6641083
   5.5103216   9.2891245 -21.7130356   6.2927961   9.1044283 -19.6930542
   7.3094087   9.1509323 -19.8887291   5.7664342   8.7368879 -18.4834194
   6.3481903   8.6047888 -17.2210102   7.4297881   8.8434515 -17.1011353
   5.5191350   8.2544565 -16.1518059   6.0047894   8.2169256 -15.1929274
   4.1295342   8.0237207 -16.3690853   3.5043297   7.7489338 -15.5648766
   3.5820413   8.1118774 -17.6532745   2.5709357   7.8451772 -17.7215996
   4.4049015   8.4989920 -18.7503033   2.2162101  11.2359200 -20.6668510
   2.3931994  11.6812563 -21.8329220   2.5877235  11.9436359 -19.5662346
   2.5361705  11.4590015 -18.2137661   3.3660648  10.7994852 -18.0240211
   1.6030087  10.9592457 -17.9711990   2.6508918  12.7101574 -17.2788429
   3.7056515  12.9209728 -17.0065422   1.9986485  12.4892187 -16.3736191
   2.1594110  13.8565493 -18.1902943   2.6167128  14.7944269 -17.8434200
   1.0705565  13.9086056 -18.2961502   2.7545128  13.3709517 -19.5316429
   2.1541438  13.7758532 -20.3294163   4.2084103  13.8888683 -19.6772327
   4.5101357  15.0533667 -19.3748779   5.1553116  13.0352402 -20.0248184
   4.8389959  12.1577091 -20.4651470   6.6015491  13.1306705 -19.8047600
   6.8154531  14.1867056 -19.9086781   6.9194169  12.6559258 -18.3370380
   6.3477640  11.7265797 -18.2571983   7.9722114  12.4117365 -18.3134995
   6.6597466  13.6218204 -17.1902523   5.6680751  14.0808630 -17.2424641
   6.7043810  12.8369541 -15.8399343   7.5211067  12.1110687 -15.7484617
   6.6606898  13.5033474 -14.9882498   5.8014679  12.2453966 -15.8869591
   7.6773500  14.7601614 -17.1692886   7.8578496  15.2407255 -18.1377487
   7.3969269  15.5602732 -16.4508419   8.7028008  14.3850765 -17.0785217
   7.4508953  12.3609066 -20.8215714   6.9226618  11.6218567 -21.6301746
   8.7683096  12.5549355 -20.7572002   9.4235840  13.6934862 -20.1750221
   9.5259886  13.5472641 -19.0712261   8.9085798  14.6304083 -20.3413811
  10.7995996  13.6964693 -20.7332783  11.4494762  14.2084160 -20.0582294
  10.7980289  14.0951624 -21.7328625  11.1647215  12.2469368 -20.8802109
  11.4202681  11.7903843 -19.8849602  12.0134087  12.0766659 -21.5445328
   9.8351183  11.7188129 -21.4047089   9.7386169  11.9333162 -22.4464264
   9.6694098  10.2017736 -21.0991402   9.4565945   9.7714176 -19.9539890
   9.8241901   9.3575020 -22.0958729   9.8015137   9.7954779 -22.9879742
   9.5409994   7.9068909 -22.1356411   8.5391092   7.7584419 -21.7213326
   9.6641712   7.5453043 -23.5794945  10.6218042   7.9055209 -23.8935776
   9.6843204   6.4653120 -23.6823006   8.8726416   7.9841323 -24.1586514
  10.4074907   7.0828009 -21.1221294  10.0198545   5.9725075 -20.7752457
  11.5413322   7.5690646 -20.6299572  11.7994270   8.5295162 -20.9512024
  12.4113407   6.9135261 -19.6289864  12.4982014   5.8568506 -19.8596001
  13.7850962   7.5873952 -19.7462368  14.4881067   7.0335131 -19.0861588
  14.1158628   7.4888296 -20.7703094  13.6782074   8.9629641 -19.3479786
  14.5833645   9.3543415 -19.3987045  11.9778004   7.0488448 -18.1751614
  12.4238930   6.3296089 -17.2916145  11.0139008   7.9180474 -17.8466816
  10.8161459   8.5458632 -18.6506443  10.3722706   8.0513201 -16.5028076
  11.0516758   7.8378983 -15.6501112   9.8744974   9.4748106 -16.3800793
   9.2971430   9.7346869 -17.2601795   9.1417913   9.5367956 -15.5688992
  10.9965763  10.4930162 -16.1444836  11.9287672  10.1405249 -16.5127983
  10.6548891  11.7933092 -16.8422604   9.8105593  12.3180828 -16.4164581
  11.4814129  12.5081978 -16.7504349  10.4451132  11.6178913 -17.9185715
  11.2149420  10.8587637 -14.6719351  11.3674650   9.9815741 -14.0212908
  11.9809008  11.5696802 -14.5091000  10.2652321  11.2352076 -14.2947140
   9.1900444   7.0420618 -16.3501778   8.7489643   6.8984013 -15.2154655
   8.7903214   6.3133001 -17.4105854   9.2548695   6.4899211 -18.3096561
   7.7809787   5.2849483 -17.2526989   6.8623424   5.7317276 -16.9016666
   7.4918103   4.6674209 -18.5712090   7.1433592   5.4550762 -19.2251225
   8.4727268   4.3095837 -18.9452934   6.3640399   3.2386801 -18.6249142
   8.2124681   4.2206154 -16.1795769   7.3669691   3.9234555 -15.3438702
   9.4212523   3.6706579 -16.0857658  10.4943428   3.6589859 -17.1079311
  10.7065811   4.6843662 -17.5106087  10.1545105   2.9277823 -17.8908997
  11.7294121   3.1333945 -16.3647041  12.3205986   3.9342973 -16.0165863
  12.3269711   2.5248837 -17.0471725  11.1466398   2.2264605 -15.2750416
  11.8247366   2.2614191 -14.4234676  11.0958776   1.1811527 -15.6591883
   9.7238798   2.7431486 -14.9620819   9.0062084   1.8987708 -15.0039110
   9.6853275   3.2882476 -13.5390177   9.2966337   2.6273503 -12.5754786
  10.1461449   4.5513964 -13.4426136  10.3367414   5.0219107 -14.3125401
  10.0769825   5.2869220 -12.2105370  10.7255545   4.8223705 -11.4447746
  10.5723877   6.7238421 -12.4215050   9.9695864   7.1944332 -13.1568089
  10.4330196   7.4928575 -11.0849085  10.8723125   6.9957252 -10.2231588
  10.9159279   8.4813118 -11.2153997   9.4077835   7.7223678 -10.8451672
  12.0483971   6.7559443 -12.7883396  12.2581568   6.1013055 -13.6470127
  12.4468727   7.7846742 -13.0232515  12.6267204   6.3801188 -11.9211016
   8.6519251   5.3370857 -11.7453976   8.4426422   4.9898009 -10.5997095
   7.7251859   5.7717605 -12.6148176   7.9750543   6.0517268 -13.5553265
   6.3127189   5.7319746 -12.1825209   6.1725421   6.3358755 -11.2991896
   5.4424281   6.3909063 -13.2538595   5.6331015   7.4655128 -13.2376709
   5.7646394   6.0231452 -14.2459593   3.9538493   6.1488676 -13.0523214
   3.2196321   6.7428851 -11.9800434   3.7187390   7.4751377 -11.4245977
   1.8504645   6.5126200 -11.8259478   1.4171492   7.0180964 -10.9886179
   1.1811569   5.6768365 -12.7473249   0.1613302   5.4235454 -12.5341883
   1.8562622   5.0495248 -13.7963285   1.2771559   4.2893891 -14.3325138
   3.2647464   5.2557807 -13.9406595   3.7537646   4.7221851 -14.7081032
   5.8084450   4.3257895 -11.8949137   5.1925235   4.0693893 -10.8669491
   6.1611938   3.3002818 -12.6753197   6.7032619   3.5120702 -13.4896669
   5.7365923   1.9444342 -12.3667994   4.6425695   1.8753545 -12.4300442
   6.3162131   1.0100042 -13.4702311   7.3873930   0.8225108 -13.3436680
   5.7601638   0.1043180 -13.3882160   6.0187144   1.3743992 -14.5110703
   6.1023884   1.4896014 -10.9526625   5.2406006   1.0045140 -10.2391567
   7.3850393   1.6227216 -10.5872631   8.0834074   1.9367541 -11.2838459
   7.8650627   1.3777380  -9.1840343   7.4785013   0.3899564  -9.0099754
   9.3914051   1.2162136  -9.0847225   9.6995373   0.6561658  -9.9848900
  10.1440964   2.5569692  -9.2242155   9.9883127   3.1497858  -8.3636913
  11.2088776   2.3784688  -9.2207575   9.8202610   3.0517678 -10.0958672
   9.9592505   0.5583818  -7.8647513   9.4956236  -0.4298744  -7.7068944
  11.0246172   0.3710735  -8.0290213   9.7928200   1.1193225  -6.9838786
   7.3169260   2.3416898  -8.1432333   7.1401463   1.8646450  -7.0170093
   6.9756565   3.5734086  -8.5133562   7.2428513   3.8761835  -9.4355221
   6.1604624   4.3955317  -7.6086192   6.6483016   4.3920989  -6.5936799
   6.1748562   5.8395505  -8.0425892   5.7343864   5.7897611  -9.0319557
   5.6254725   6.4623828  -7.3985386   7.2286463   6.1893849  -8.0476160
   4.7288432   3.8192000  -7.3692055   4.1368876   3.9716468  -6.2860131
   4.1727362   3.1074014  -8.3506260   4.6436329   3.1053722  -9.2640753
   2.7601848   2.7397285  -8.3639154   2.2220054   3.2997551  -7.6513166
   2.2191713   3.0257902  -9.7801304   2.5869975   3.9926586 -10.1587868
   2.5565040   2.3160872 -10.5267258   0.7256066   3.0543292  -9.8160934
  -0.0216713   4.1699128  -9.4477730  -1.3174863   3.7356017  -9.5018940
  -2.2150741   4.2914872  -9.3020172  -1.3391809   2.4507115  -9.9256477
  -2.1820481   1.9343936 -10.0030766  -0.0673744   1.9941233 -10.2049627
   0.2546285   1.0179942 -10.4326954   2.5231423   1.2584746  -7.9801726
   1.7978935   1.0699232  -7.0075912   2.9243395   0.2843622  -8.7555618
   3.4335015   0.4588766  -9.5923386   2.4946728  -1.1252104  -8.5691032
   1.4218562  -1.0752429  -8.3536348   2.6621222  -1.8900983  -9.8958340
   3.6714516  -1.7582314 -10.2884569   2.4926522  -2.9422643  -9.6899347
   1.6656322  -1.4676799 -10.9207449   0.3599232  -1.9195086 -10.7734489
   0.0837733  -2.5692451  -9.9473696  -0.6273940  -1.4462732 -11.6581392
  -1.6159749  -1.8893940 -11.5346136  -0.3264351  -0.5033410 -12.6700583
  -1.1005645  -0.1481167 -13.3064795   1.0165831  -0.0608788 -12.8045835
   1.2699664   0.6505294 -13.6174927   2.0215738  -0.5056552 -11.9293690
   2.9975834  -0.1557584 -12.0029545   3.1175830  -1.8124211  -7.3521857
   2.3822827  -2.4642792  -6.6222219   4.3987513  -1.6338518  -7.1418858
   4.8589807  -1.1231407  -7.8369756   5.2196698  -2.1476481  -6.0240984
   5.3070302  -3.2289486  -6.2633824   6.6336894  -1.6065240  -6.1375256
   7.0875573  -1.9621063  -7.0679755   6.5481477  -0.5304689  -6.2925434
   7.4980159  -1.8776491  -4.9507041   8.3339138  -0.8316922  -4.5114751
   8.3917656   0.0632590  -5.1105685   8.9824848  -0.9033884  -3.2767019
   9.5350618  -0.0588130  -2.9187605   8.9461365  -2.1250961  -2.5790367
   9.4907045  -2.1972241  -1.6566720   8.1530132  -3.1985900  -3.0194304
   8.1049070  -4.1194053  -2.4299488   7.4395366  -3.0746362  -4.2374916
   6.7976756  -3.8366983  -4.5841799   4.5454154  -1.9824603  -4.6663747
   4.2661524  -2.9921799  -4.0667381   4.2347345  -0.7429186  -4.2123909
   4.5855598   0.5621615  -4.8219290   4.2762241   0.6602699  -5.8541179
   5.6627626   0.7192070  -4.7498598   3.8787436   1.6376877  -3.9972525
   2.9493880   1.9116141  -4.4878111   4.4094553   2.5493286  -3.7511339
   3.5170803   0.9149581  -2.7168918   2.5399737   1.2788962  -2.3816502
   4.3215685   1.2435195  -2.0225003   3.5228372  -0.5990567  -2.9623690
   4.0367775  -1.1240193  -2.1160493   2.0687423  -1.1874121  -3.0654316
   1.6031970  -1.8452647  -2.1392202   1.3696926  -0.9854800  -4.2025857
   1.8328370  -0.5418200  -4.9385772  -0.0096136  -1.4536966  -4.3132052
  -0.6457660  -1.0532532  -3.4977136  -0.5507330  -1.0696957  -5.6771016
  -0.3440698  -0.0211253  -5.8208857  -0.0167890  -1.5626370  -6.4979482
  -2.0481796  -1.3482704  -5.8830066  -2.2715826  -2.3492017  -5.6390200
  -2.9056125  -0.4533001  -4.9845829  -2.5765765   0.5958267  -5.0710487
  -3.9745169  -0.5186361  -5.3417611  -2.9188302  -0.7448361  -3.9370427
  -2.4061129  -1.0459864  -7.3471718  -1.8975120  -1.7590692  -7.9998450
  -3.4744182  -1.1088406  -7.4063272  -2.1102574  -0.0819899  -7.6571779
  -0.0827171  -3.0067003  -4.0154691  -1.0065053  -3.4367321  -3.3181188
   0.8093995  -3.8087094  -4.5927448   1.5312200  -3.3581648  -5.1842828
   0.9480572  -5.2299972  -4.3657370  -0.0774917  -5.6212044  -4.4195929
   1.7978245  -5.9436364  -5.5040932   2.7888200  -5.4179869  -5.6378183
   2.0337131  -6.9604011  -5.1877732   1.0665740  -6.1462808  -6.7564392
  -0.0622752  -7.0256906  -6.7186403  -0.2900725  -7.5475760  -5.8062072
  -0.7302555  -7.4011583  -7.9033632  -1.5724241  -8.0377979  -7.8153234
  -0.3588803  -6.7798133  -9.1271629  -1.1565526  -6.9724321 -10.1890554
  -1.7135226  -7.7777286 -10.0504446   0.7542876  -5.9216127  -9.1750641
   1.0905674  -5.4997845 -10.0754833   1.4724363  -5.5640860  -7.9825401
   2.2219105  -4.8402243  -8.0539303   1.4824330  -5.5460925  -2.9723766
   0.8596659  -6.3338432  -2.2353005   2.5575581  -4.8810453  -2.6073325
   2.9731765  -4.2537928  -3.3133042   3.2214334  -5.0836716  -1.3338448
   3.4629550  -6.1372643  -1.2975503   4.5327549  -4.2821689  -1.2680887
   4.3681283  -3.2151601  -1.2061824   5.1183600  -4.6083455  -0.3871061
   5.1596999  -4.4608717  -2.1194837   2.3446729  -4.7355742  -0.0791365
   2.4446616  -5.4192977   0.9412928   1.4409286  -3.7449167  -0.1559772
   1.4044524  -3.1542823  -0.9868745   0.6108627  -3.3375719   0.9771097
   1.2777867  -2.9738598   1.8189361   0.0247811  -2.4732509   0.6155480
  -0.2334844  -4.4711051   1.5454060  -0.4528793  -4.4793458   2.7602718
  -0.7163609  -5.4247718   0.7359821  -0.5778457  -5.4294448  -0.2537605
  -1.4388090  -6.5619898   1.2731820  -2.2889555  -6.1859088   1.8047357
  -1.7571168  -7.1648641   0.4474980  -0.6347436  -7.4291401   2.1461878
  -1.1515542  -7.9456496   3.1550477   0.6811237  -7.5104218   1.8685066
   1.0557629  -7.0091176   1.0687071   1.6519344  -8.1852751   2.7970486
   1.4495264  -9.2806253   2.8570197   2.6459217  -8.0272512   2.2969797
   1.7258670  -7.5489998   4.1757584   1.5687199  -8.1867542   5.1841788
   1.8828679  -6.2248015   4.2221265   1.9750272  -5.7601032   3.3113394
   1.9575267  -5.3578157   5.4273033   2.7110915  -5.8623533   6.0639162
   2.4478078  -3.9717457   5.0038772   1.6284143  -3.4594879   4.4891090
   2.6070318  -3.4624963   5.8980198   3.6880031  -3.9082866   4.1504002
   4.7680445  -4.8395014   4.2505636   4.7551661  -5.6365724   5.0347037
   5.8352828  -4.8229880   3.3363378   6.6059952  -5.6117148   3.3514533
   5.8247523  -3.9140379   2.3068900   6.5676670  -3.8505361   1.5291642
   4.7900186  -2.9514658   2.2109053   4.7759981  -2.3165975   1.3024431
   3.7601922  -2.9114745   3.1438413   2.9659114  -2.2026820   3.0373993
   0.7057889  -5.3423591   6.2796574   0.7832246  -5.4790969   7.4750233
  -0.4876048  -5.2738233   5.6479402  -0.4749200  -5.2027874   4.6334462
  -1.7829071  -5.4465370   6.2828732  -1.8008565  -4.8391409   7.2304845
  -2.9561615  -4.9723711   5.3728943  -2.6953077  -5.2678394   4.3764839
  -3.8388791  -5.5401378   5.7109900  -3.3714685  -3.4795330   5.3259368
  -4.1422424  -3.3711555   4.5751672  -3.9977143  -2.9824667   6.6446953
  -3.3222115  -3.0316625   7.4870296  -4.4615412  -1.9942286   6.6057134
  -4.7537785  -3.6955640   6.9015622  -2.2489426  -2.5322363   4.9938207
  -1.7044659  -2.8962541   4.1301088  -2.6765201  -1.4969041   4.8179512
  -1.5286244  -2.4507203   5.7980947  -1.9518529  -6.8058677   6.9718499
  -2.3712673  -6.8337641   8.1479063  -1.6596411  -7.9617505   6.3148570
  -1.5243573  -7.8618932   5.3409967  -1.6797271  -9.3028183   6.9484682
  -2.6476500  -9.4627361   7.4457331  -1.4363979 -10.3170385   5.8596344
  -0.4531557 -10.1025715   5.4005046  -1.4696660 -11.3687754   6.2515330
  -2.1274350 -10.2241602   5.0677872  -0.6659425  -9.4295712   8.0943222
  -1.0680478  -9.8232288   9.1688538   0.5943888  -9.0007935   7.9862595
   0.8580592  -8.5952473   7.1144481   1.6272198  -8.9844818   9.0288210
   1.8952863 -10.0101576   9.2430086   2.9213610  -8.4281206   8.4182625
   2.7705476  -7.3435502   8.2260199   3.7778542  -8.6716185   9.0111933
   2.9993644  -8.9767094   7.4387951   1.2196163  -8.2830925  10.3211966
   1.2116494  -8.8257809  11.4411869   0.7527918  -7.0261259  10.1476116
   0.7766023  -6.5487452   9.2182102   0.0868651  -6.3551617  11.2538824
   0.8644986  -6.0931773  11.9962397  -0.5058126  -5.0585647  10.7887602
  -0.9577271  -5.3442597   9.8200302  -1.2581517  -4.6871767  11.5007772
   0.4288247  -3.8878238  10.4931736   1.2636204  -4.3290334  10.0146065
  -0.2709754  -2.8410270   9.5673084  -1.1806377  -2.4360096  10.0091019
   0.2989995  -1.9180142   9.3922443  -0.5041816  -3.4186745   8.6756849
   0.7611447  -3.1826653  11.8088999   1.3471236  -3.7794290  12.5091181
   1.3107206  -2.2752306  11.5220728  -0.1486277  -2.8489099  12.3053827
  -1.0390725  -7.1824465  11.9184580  -1.0552616  -7.3147492  13.1160412
  -2.0480917  -7.5862370  11.1388540  -1.9784861  -7.3832531  10.1345911
  -3.2740629  -8.2448568  11.6199493  -3.7962601  -7.5633864  12.3032951
  -4.2756577  -8.5677414  10.4521360  -3.8682306  -9.3063126   9.8074579
  -5.2192745  -8.9301691  10.9073753  -4.5637555  -7.4248357   9.6899652
  -3.7637448  -7.1551199   9.1942873  -2.9823539  -9.4895906  12.4699783
  -3.2468667  -9.5717440  13.6568985  -2.2048502 -10.4456091  11.9022074
  -1.8848203 -10.2619133  10.9996090  -1.6331388 -11.4981613  12.7333469
  -2.4066193 -12.1496239  13.0967722  -0.8054019 -12.3436356  11.7699232
   0.0667004 -11.8061752  11.3736858  -0.4459989 -13.2355204  12.2428036
  -1.3993030 -12.7011099  10.9157801  -0.7434986 -11.0604382  13.9592876
  -0.7984110 -11.6693773  15.0203428   0.0918809 -10.0350466  13.8334665
   0.1744497  -9.5828142  12.9294987   0.8312111  -9.4558039  14.9516783
   1.5277219 -10.1712456  15.3422918   1.3738941  -8.5912724  14.5856905
  -0.0733104  -8.9446077  16.1005707   0.0458951  -9.4197731  17.2394867
  -1.0279663  -7.9977107  15.8322611  -1.0604146  -7.5959034  14.9024591
  -1.9647158  -7.4583240  16.8030205  -1.4457455  -6.9093065  17.6134415
  -2.9324877  -6.4678173  16.1604652  -3.1595430  -6.7796803  15.1065598
  -3.8776519  -6.4616356  16.7557411  -2.4858599  -5.0000601  16.0985146
  -3.3936157  -4.3749542  16.0194550  -2.0226891  -4.7662916  17.0050964
  -1.4894943  -4.6659679  14.9660292  -0.6187192  -5.2869411  15.1464739
  -1.8894207  -4.9719915  13.9980211  -1.1950148  -3.2298784  15.0288286
  -1.9112788  -2.6328108  14.6284523  -0.1004436  -2.6193552  15.4332438
   0.9121254  -3.2308528  16.0727253   0.8433601  -4.2404370  16.2960339
   1.7351034  -2.7102516  16.3324127   0.0973348  -1.3511207  15.1920424
  -0.6709524  -0.9089044  14.6944771   0.9591153  -0.8409652  15.3601646
  -2.8250029  -8.5928450  17.4629364  -3.0946443  -8.5007792  18.6750259
  -3.2515299  -9.5641441  16.6631985  -3.0913079  -9.4733133  15.6704798
  -3.9689205 -10.7206478  17.1095734  -4.8583326 -10.3730450  17.6507645
  -4.4902358 -11.4906511  15.9253902  -5.2920461 -10.8711615  15.4687071
  -3.6797750 -11.6141930  15.2370644  -5.1035862 -12.7953682  16.2692299
  -6.1782022 -12.9168024  17.1770649  -6.6405687 -12.0417166  17.5618858
  -6.7399817 -14.1794930  17.5193996  -7.5990839 -14.2726221  18.1777706
  -6.2161360 -15.3369284  16.9180031  -6.7228394 -16.5526085  17.2163944
  -7.4017997 -16.5020657  17.8911438  -5.1232390 -15.2246561  16.0099297
  -4.7550764 -16.1751595  15.5981159  -4.5369091 -13.9895077  15.7441225
  -3.6644130 -13.9364204  15.1278868  -3.2047031 -11.6006746  18.1333008
  -3.7274339 -11.9729433  19.1735725  -1.9740002 -11.9937801  17.8019123
  -1.5942920 -11.6490221  16.8880558  -1.1228385 -12.7802324  18.7205868
  -1.6723459 -13.7081671  19.0700569   0.1209080 -13.2532682  17.9647751
   0.4349272 -12.5416079  17.2100906   1.0038115 -13.2491541  18.6159000
  -0.0072415 -14.6679163  17.4025555  -0.2130785 -15.3793440  18.2116165
  -1.1363242 -14.8006716  16.4038830  -1.0461761 -14.1455069  15.5442734
  -1.2621545 -15.8415976  16.0530777  -2.0301690 -14.5812216  16.9627724
   1.3017803 -14.9457750  16.6818352   2.1492376 -14.8984909  17.3806267
   1.2321053 -15.9099312  16.1693745   1.3801588 -14.2457676  15.8970594
  -0.7646921 -11.9536409  19.9837418  -0.7949149 -12.5246811  21.0915737
  -0.4927876 -10.6504011  19.8594131  -0.5254546 -10.3012571  18.9041958
  -0.2120192  -9.6820431  20.9542122   0.7027152  -9.9668140  21.4809818
  -0.0455924  -8.7000256  20.5526524  -1.4139628  -9.6135511  21.8989182
  -1.2256073  -9.4533701  23.1262703  -2.6681781  -9.7832422  21.4680576
  -2.8061447 -10.0340118  20.5120888  -3.8718176  -9.8501129  22.3121548
  -3.6864088  -9.2479935  23.2035370  -4.9577446  -9.1094313  21.5600376
  -5.1799388  -9.6643658  20.6565361  -5.9038596  -9.1146641  22.1567726
  -4.5788727  -8.1021852  21.4260101  -4.3001256 -11.2550535  22.7307911
  -5.3830714 -11.3496675  23.2886486  -3.4604487 -12.2897015  22.5486546
  -2.6117265 -12.0452347  22.0000057  -3.6907463 -13.6547241  23.0792141
  -4.5711727 -13.6262035  23.6418419  -4.0486608 -14.5788193  21.9055634
  -3.1307781 -14.8282776  21.3941021  -4.4799318 -15.5163107  22.2421951
  -4.7264638 -14.0189762  21.2498512  -2.5765560 -14.2410507  23.9397354
  -2.7522180 -14.9835510  24.9090118  -1.3511909 -13.9069071  23.5562496
  -1.2498201 -13.2261324  22.8350296  -0.0814214 -14.3282909  24.2316418
  -0.0912072 -15.3947592  24.4358253   1.0734370 -14.0395660  23.2811146
   0.9883738 -13.0451727  22.9478493   1.9903977 -14.1061039  23.7860661
   1.2356831 -14.9274912  22.0453358   0.3733906 -15.9932823  21.7057533
  -0.5119281 -16.2485619  22.3458672   0.6243905 -16.7581730  20.5545712
  -0.1230587 -17.5043602  20.2804832   1.7704660 -16.5351124  19.7836628
   2.0306523 -17.1624489  18.9008694   2.7090364 -15.5761929  20.1983910
   3.6711967 -15.4727449  19.6891766   2.4173691 -14.7497978  21.2961960
   3.0630395 -13.9267721  21.6030331   0.0949070 -13.5668697  25.5571480
  -0.5662200 -12.5421724  25.8329754   0.9738830 -14.1245232  26.4183617
   1.6055132 -15.4170752  26.4195042   2.4384980 -15.4066038  25.7988186
   0.8744527 -16.2111759  26.0670452   2.0806985 -15.6841125  27.8611259
   2.8149662 -16.4734974  27.9000072   1.2663629 -15.9085388  28.5303917
   2.5687644 -14.2505255  28.2096024   3.4656229 -14.0535154  27.7075996
   2.7199757 -14.0235567  29.2785358   1.4250885 -13.3665314  27.5737553
   0.6212240 -13.3208742  28.3145504   1.9197280 -11.9416418  27.2522163
   2.6550355 -11.6553040  26.2719612   1.5887069 -10.9885836  28.1265068
   0.9669066 -11.2485609  28.8557606   1.7857499  -9.5401964  27.8498154
   1.3490509  -9.3755322  26.8643494   1.0557281  -8.7328072  28.9279671
   1.2853826  -9.0924463  29.9091911   1.4153706  -7.6781969  28.9349747
  -0.4247758  -8.6306438  28.8305931  -0.8614160  -9.6063938  28.5794048
  -1.0310702  -8.1972418  30.1843529  -0.7803338  -7.2035308  30.4515362
  -2.1449342  -8.2399979  30.1740646  -0.6209881  -8.8999710  30.9493103
  -0.8545407  -7.5332875  27.8368073  -0.4374408  -7.7649174  26.8307991
  -1.9437999  -7.5348430  27.7721634  -0.4561222  -6.5616865  28.1961803
   3.2502654  -9.1266470  27.7603436   3.5680752  -8.1666336  27.0271759
   4.1749997  -9.7858562  28.4759560   3.8425205 -10.5772362  29.0019588
   5.6451697  -9.4970913  28.5696011   5.7303615  -8.5714836  29.1385155
   6.1730824 -10.2739897  29.1442471   6.3943667  -9.3272648  27.2143974
   7.4184680  -8.6515980  27.1190338   5.9135699 -10.0256910  26.1695881
   5.1409883 -10.6431198  26.2860909   6.7091570 -10.3310394  24.9665623
   7.6379557 -10.8179369  25.2484741   5.9695959 -11.3454742  24.0430622
   4.9738479 -10.9280777  23.7055569   6.5826874 -11.3597155  23.1146507
   5.7716398 -12.7633610  24.5290871   6.1562181 -13.2440395  25.7413521
   6.5838695 -12.6381216  26.5442486   5.9203548 -14.5991316  26.1053944
   6.0997343 -15.0617781  27.1239491   5.3765163 -15.4680529  25.1352863
   5.0959010 -16.7730522  25.5349712   4.8323703 -17.3741837  24.8390369
   5.0680947 -15.0530376  23.8450794   4.5744233 -15.7043276  23.1021671
   5.2334094 -13.6878548  23.5579872   4.9291735 -13.4004507  22.5778465
   6.9988914  -9.0500097  24.1282578   7.9748368  -8.9850435  23.3576565
   6.2849135  -7.9145594  24.3630981   5.4727359  -8.0021667  24.9019451
   6.5631099  -6.6086764  23.7559719   6.8911738  -6.7499347  22.6770802
   5.2464247  -5.8414464  23.5154915   5.4840636  -4.8343954  23.2401352
   4.6784296  -6.2586741  22.6668091   4.3265224  -5.7125235  24.7549095
   3.4561253  -5.1178842  24.4284554   3.9329123  -6.6946387  25.0650806
   5.0077577  -5.0763230  25.9819431   5.4929852  -3.9396021  25.8795586
   4.9704843  -5.6768141  27.1431713   5.2205796  -5.1346107  27.9624443
   4.5244226  -6.5782933  27.2741127   7.6872849  -5.8029060  24.4337196
   8.1888103  -4.8227410  23.8537388   8.1130924  -6.1493278  25.6603928
   7.6272898  -6.8945055  26.1536903   9.2929363  -5.5537219  26.3961868
   9.3792257  -4.5234613  26.0073872   8.9750576  -5.3963909  27.8522778
   9.1195507  -6.3066502  28.4132462   9.6508684  -4.6677952  28.2939835
   7.9727273  -5.0517011  28.0297871  10.5856266  -6.2937922  26.1222000
  11.6321039  -5.7160592  25.8904648  10.5534134  -7.6322126  26.1950855
   9.6803541  -8.0694323  26.3978558  11.7325678  -8.4809847  26.3615322
  12.2164583  -8.2015085  27.2845936  11.3970289  -9.9770632  26.4499645
  11.0756073 -10.3068676  25.4551048  12.3295116 -10.5142975  26.7015553
  10.4501457 -10.3991032  27.5452347   9.7538652 -11.6178474  27.3779888
   9.8403625 -12.1981726  26.4624519   8.8570347 -12.0215883  28.3804531
   8.2575560 -12.9450665  28.2575150   8.6278725 -11.2869024  29.5544662
   7.8938828 -11.5563393  30.2681389   9.3195667 -10.1120033  29.6900082
   9.1049366  -9.4757271  30.5333405  10.2466965  -9.6272192  28.7135201
  10.6939230  -8.6571779  28.9179420  12.8215618  -8.2182398  25.3450985
  14.0082703  -8.1469603  25.7550240  12.5498219  -8.0971012  24.0481224
  11.5566177  -8.1106396  23.7978249  13.4989157  -8.0997171  22.9242401
  14.2440042  -7.3558950  23.1275826  14.0907373  -9.5204477  22.7677364
  14.5918703  -9.7897892  23.7219715  13.3422375 -10.2912807  22.5392838
  15.1597748  -9.5619612  21.6930504  14.6753511  -9.5258017  20.7109241
  15.8787775  -8.7557640  21.8599968  15.9651079 -10.8910360  21.6491528
  16.3767776 -10.9986992  22.6577492  15.2280722 -11.6834984  21.4796333
  16.9982376 -10.8621368  20.5855179  16.7004128 -11.0544596  19.6099014
  18.3032055 -10.7043371  20.7122879  18.9299736 -10.5883312  21.8494587
  18.4294109 -10.7076178  22.6823158  19.9506035 -10.6564865  21.8572445
  19.0652332 -10.7168045  19.6373768  18.6202164 -10.9007568  18.7555599
  20.0670509 -10.5888453  19.6795387  12.8229389  -7.6025162  21.5964870
  11.5984163  -7.6287813  21.4013500  13.5928097  -7.1334105  20.6349277
  14.5980024  -7.0826035  20.8949680  13.2275667  -6.7485471  19.2714443
  12.1143723  -6.8114715  19.1702614  13.5021219  -5.2312565  19.0477066
  14.5812473  -5.0763946  18.9227962  13.0739508  -4.9777050  18.0553741
  13.0294933  -4.2781649  20.1451893  12.7600565  -3.3729486  19.6879768
  12.0680857  -4.5918231  20.6223278  14.1195793  -3.9895031  21.2232304
  15.0409231  -4.5084028  20.9161091  14.3369436  -2.9317462  21.2866993
  13.6958466  -4.4777479  22.5652714  12.7068863  -4.6230354  22.6743774
  14.5429888  -4.6304507  23.5927277  15.7826080  -4.3560877  23.5147400
  16.2053680  -4.0315762  22.5868912  16.3577747  -4.3679495  24.2806034
  14.0615740  -5.0180626  24.7540970  13.0521641  -5.2333283  24.8321819
  14.7220373  -5.3120813  25.4555130  13.9106979  -7.6789503  18.2488899
  14.9749126  -7.3389587  17.7439537  13.2693615  -8.8349056  17.9464741
  12.0902109  -9.4124250  18.5138779  11.2165356  -8.7794571  18.5766144
  12.4226942  -9.7732182  19.4613266  11.7521095 -10.6362619  17.7020111
  11.1364937 -10.3408613  16.8453693  11.1898060 -11.4542246  18.2649632
  13.0823250 -11.1055079  17.1972542  12.8761663 -11.7246761  16.2913246
  13.5203228 -11.7427492  17.9501839  13.8384905  -9.7827225  16.9929676
  14.8900690  -9.9925966  17.1173038  13.7027178  -9.3569870  15.5550280
  12.9960461  -8.3929739  15.2841082  14.4562550 -10.0233412  14.6708345
  15.1073637 -10.7495031  15.0206032  14.5832548  -9.7919741  13.2580109
  14.8261967  -8.6876392  13.1696720  15.7211437 -10.6237898  12.7403345
  16.5327873 -10.2978249  13.3411407  15.5030651 -11.6602240  13.0322847
  16.0183945 -10.6414661  10.9780598  17.3205414 -10.9922743  10.9808054
  13.2785702  -9.9738131  12.4106970  13.1343031  -9.4352741  11.2876558
  12.2600794 -10.6485405  12.9878607  12.2801352 -10.8912888  13.9640436
  11.0315790 -11.0195751  12.2663221  11.2058964 -11.6427336  11.3443413
  10.1138744 -11.7669964  13.3030434   9.7631454 -10.9526539  13.9448509
   9.2913513 -12.1690550  12.7148581  10.7130518 -12.8558359  14.1895237
  11.8900976 -13.6023350  13.9017973  12.5139771 -13.3530178  13.0278301
  12.2662630 -14.6675348  14.7363281  13.0705223 -15.3388319  14.4893894
  11.5052710 -14.9205532  15.8715172  11.7978630 -15.9726257  16.7128716
  11.1280403 -15.9604082  17.4518375  10.4251308 -14.1614676  16.2601891
   9.8245087 -14.3211746  17.1272011  10.0188341 -13.1300592  15.3762665
   9.1260433 -12.6070776  15.5783930  10.3028622  -9.7605619  11.7612762
   9.7187881  -9.7590113  10.6969490  10.3472509  -8.7004833  12.5550661
  10.9199657  -8.7728004  13.3869839   9.6397734  -7.4198685  12.2671757
   8.6000719  -7.6738997  12.0860472   9.6893444  -6.5337110  13.5556135
   9.5247326  -7.2022033  14.3951883  10.5823908  -5.9973979  13.6369524
   8.6296425  -5.6133151  13.4938526   8.6683102  -5.1063437  14.3331833
  10.0871840  -6.6911798  11.0277376   9.3599730  -6.5919442  10.0607290
  11.3846149  -6.2901664  10.9737225  11.9440508  -6.5397906  11.7422199
  12.0657921  -5.8209281   9.7528439  11.4805689  -4.9794455   9.4280901
  13.4811211  -5.4813914  10.1041651  14.0407791  -6.3339086  10.5169163
  13.9011374  -5.1086636   9.1611567  13.6912289  -4.3674254  11.0850859
  13.9845791  -4.4857655  12.3760519  14.1652117  -5.3599977  12.9599533
  14.0766420  -3.2832005  12.9342308  14.2993889  -3.1338301  13.8970470
  13.7476358  -2.2990837  12.0296764  13.7464952  -0.8925748  12.1496105
  14.0466919  -0.4513251  13.0683670  13.4316177  -0.0790661  11.0567293
  13.3745861   1.0193756  11.1647434  13.1217279  -0.6785366   9.8212261
  12.8779593  -0.0819357   8.9595394  13.1850071  -2.0834522   9.7128582
  13.1365786  -2.5183778   8.7344589  13.4935951  -2.9534781  10.8126450
  12.0760450  -6.9019456   8.6197243  11.8505144  -6.5532303   7.4730687
  12.4580345  -8.1391859   8.9447746  12.7070389  -8.3670874   9.8942509
  12.7725315  -9.2061977   8.0089064  13.5161409  -8.8913860   7.3151703
  12.9972591 -10.0984488   8.5620441  11.5893593  -9.5430651   7.0920129
  11.7580357  -9.7348528   5.8953867  10.3502989  -9.6859760   7.5933695
  10.2130232  -9.6810799   8.5844650   9.1865463  -9.9175358   6.7328482
   9.4585600 -10.7992067   6.1155410   7.9469705 -10.3405237   7.5210690
   7.1914821 -10.6036472   6.7720900   8.1956348 -11.6351471   8.2394943
   8.8743343 -11.5185413   9.0708046   7.2554631 -12.0740023   8.6569109
   8.5986881 -12.3617992   7.5318046   7.2223659  -9.3389149   8.4275894
   6.9514918  -8.4433794   7.8034444   6.2977080  -9.7786255   8.8300781
   7.8649626  -9.0136433   9.2968187   8.8756523  -8.7922277   5.7684021
   8.4054890  -9.0598192   4.6951661   9.2073040  -7.5816445   6.1206584
   9.5593996  -7.4252081   7.0196395   9.0813513  -6.4465003   5.2235937
   8.1109238  -6.5035958   4.8025222   9.2026463  -5.1054387   6.0151172
  10.2181444  -5.0064526   6.3458824   9.0523748  -4.3156538   5.2991495
   8.0438309  -4.9425845   7.4137878   8.6799583  -5.8102269   8.2026691
  10.1120872  -6.6391616   4.0850296   9.7375498  -6.4850454   2.9374597
  11.3664007  -7.0116158   4.3832159  11.5050507  -7.1803260   5.3700042
  12.4159517  -7.2488737   3.3867905  12.6274729  -6.3680248   2.8109052
  13.7458696  -7.6247573   4.0483551  13.6347437  -8.4828463   4.6696754
  14.4496460  -7.9019971   3.3349409  14.1044474  -6.7760606   4.6337900
  11.9738684  -8.3655519   2.4275806  11.9916344  -8.1827335   1.2203609
  11.4916458  -9.4985304   2.9260776  11.5642185  -9.6011143   3.9472330
  10.8542461 -10.5812540   2.1541944  11.6128693 -11.0246887   1.5372353
  10.3791828 -11.6787825   3.0879834   9.5581274 -11.2342081   3.7278724
   9.9311562 -12.4637175   2.5153437  11.2495432 -12.0307817   3.6694679
   9.8056993 -10.0862999   1.1194043   9.9989376 -10.3703804  -0.0550473
   8.7335682  -9.3134613   1.4952641   8.6057768  -9.1290874   2.4759200
   7.6948714  -8.7939959   0.5915495   7.2776279  -9.6050463   0.0206446
   6.5698338  -8.1320906   1.4065769   6.9943328  -7.2914820   1.9804157
   5.5381398  -7.5117640   0.4453193   5.1499767  -8.2857475  -0.1955304
   4.7798524  -6.9843678   1.0477700   6.0052538  -6.7282591  -0.1085556
   5.8361192  -9.0490017   2.4329181   6.4960952  -9.4518194   3.1993077
   5.0441165  -8.5176001   2.9274664   5.1130638 -10.2705145   1.8562019
   5.7356339 -10.9284306   1.2465233   4.7736106 -10.9075584   2.6799347
   4.2906814 -10.0070581   1.2510866   8.3104601  -7.7976804  -0.4651091
   7.9256449  -7.7803326  -1.6432822   9.2447929  -6.9321604  -0.0751238
   9.4858255  -6.7644405   0.8709531   9.9710770  -6.1189346  -1.0555936
   9.2686129  -5.5403290  -1.6570203  10.9903135  -5.1978235  -0.3682143
  11.5516958  -5.7915993   0.3399040  11.7646990  -4.8227510  -1.0734172
  10.4763374  -3.9406908   0.3045031   9.4840469  -3.8736305   1.2946814
   8.8179808  -4.7356815   1.6216069   9.4387875  -2.6451025   1.8136158
   8.7523327  -2.3333833   2.4331605  10.3969564  -1.8073171   1.2385138
  10.7115793  -0.4513460   1.4486808  10.0993385   0.1896366   2.0916915
  11.8011293   0.0607102   0.7541448  12.1376133   1.0881103   0.8175261
  12.5287962  -0.7656875  -0.1369824  13.3588314  -0.2955414  -0.7238585
  12.1111050  -2.0566974  -0.4503220  12.6814594  -2.6564207  -1.1323577
  11.0838737  -2.6359522   0.3015891  10.7670736  -6.9386606  -2.0376370
  10.5832977  -6.6754360  -3.2113984  11.6482306  -7.8553624  -1.6589569
  11.7358875  -8.0190039  -0.6572080  12.4477959  -8.6842432  -2.5868676
  13.1003399  -8.1204758  -3.2666163  13.3233566  -9.6217375  -1.7521837
  12.7563848 -10.3208437  -1.1246254  14.0428915 -10.1571455  -2.4151599
  13.9976444  -9.0505648  -1.0767503  11.5458908  -9.5140343  -3.5851052
  11.7475834  -9.5585785  -4.7685380  10.4895830 -10.0257626  -3.0014358
  10.3927574  -9.8112106  -2.0109940   9.4243135 -10.7383718  -3.7208402
   9.8569307 -11.6901913  -4.1045837   8.2817659 -11.0784454  -2.7266135
   8.7002411 -11.7847939  -2.0366402   8.0784559 -10.2207375  -2.1372337
   7.0116944 -11.6868677  -3.2612786   6.6321058 -10.9589376  -4.0087972
   7.2883291 -13.0561390  -3.9363146   7.7346382 -13.7742472  -3.2672322
   6.3405776 -13.4836092  -4.2979040   7.9121847 -12.9204121  -4.8722129
   6.0121155 -11.7705908  -2.1271687   5.8602858 -10.7877874  -1.7058389
   5.1059670 -12.2307959  -2.4805913   6.3316016 -12.3533831  -1.2999333
   8.7990494  -9.9298372  -4.8852382   8.7861176 -10.4663849  -5.9886937
   8.2545977  -8.7458925  -4.5588603   8.3208513  -8.4345875  -3.5974457
   7.6599641  -7.9152260  -5.5925159   7.0426993  -8.5292835  -6.2633924
   6.7719407  -6.8649096  -4.9928751   7.3207836  -6.2627630  -4.2595806
   6.0512061  -5.9837575  -5.9931421   5.3842587  -6.5444140  -6.6476994
   5.3818412  -5.2447743  -5.5190592   6.7809939  -5.3901906  -6.5575738
   5.6964788  -7.5773811  -4.1247816   6.0841398  -8.0830030  -3.2752395
   5.1244125  -6.7527814  -3.7341855   4.9787245  -8.1907711  -4.7367353
   8.6611605  -7.2452350  -6.5524125   8.3977213  -7.2207909  -7.7421732
   9.8299637  -6.8005986  -6.0939007   9.9372921  -6.7786117  -5.0788374
  10.7949457  -6.1726375  -6.9677496  10.3083601  -5.3584886  -7.5734849
  11.8593302  -5.4801226  -6.0983415  12.3712263  -6.1408372  -5.4092264
  12.5920248  -5.1420641  -6.8384461  11.3556328  -4.3070927  -5.2373152
  10.6534147  -4.6138110  -4.5261183  12.5944824  -3.8075266  -4.4554348
  13.3226061  -3.4005916  -5.1474953  12.2585163  -3.0271194  -3.7364385
  13.0591955  -4.5670371  -3.8818500  10.7005653  -3.1457081  -6.0153151
   9.8149185  -3.4657476  -6.6301498  10.4333010  -2.3746476  -5.2923036
  11.3895216  -2.6611435  -6.6972027  11.3285694  -7.1223602  -7.9622297
  11.3058386  -6.8535757  -9.1336288  11.8198690  -8.2898226  -7.5496874
  11.8496532  -8.4795933  -6.5449057  12.3327532  -9.2631874  -8.4844189
  13.0347776  -8.7681475  -9.1718311  13.0575228 -10.3524790  -7.7518320
  13.8300028  -9.8690405  -7.1389194  12.4212370 -10.8536806  -7.0371418
  13.7502193 -11.4786720  -8.8946247  12.7939930 -11.7236319  -9.7807064
  11.2699356  -9.8644867  -9.4453926  11.5530014  -9.9691496 -10.6346083
  10.0440121 -10.1212893  -8.9408493   9.9078188 -10.0458040  -7.9567318
   9.0298042 -10.7543793  -9.7739115   9.4819136 -11.4812908 -10.4190941
   8.0564613 -11.5013905  -8.8969173   8.5587149 -12.0154381  -8.0548344
   7.3929272 -10.7185736  -8.4466705   7.2042427 -12.5594349  -9.6175833
   6.1695390 -13.3039055  -8.9983425   5.7113385 -14.1026583  -9.9832649
   4.8886356 -14.8014679  -9.9077568   6.4847541 -13.9954605 -11.1019850
   6.2984176 -14.5484104 -11.9270248   7.4604030 -13.0622959 -10.8978701
   8.1982765 -12.7577343 -11.6000996   8.3673220  -9.8082266 -10.7591619
   8.3100805 -10.1491919 -11.9475794   8.0555668  -8.5529890 -10.3980484
   8.2212362  -8.2771778  -9.4106054   7.6823397  -7.5005288 -11.3666487
   6.8698483  -7.8564115 -11.9816389   7.1537733  -6.2018971 -10.6151190
   7.9113908  -5.8431334  -9.9154558   6.9646878  -5.3642631 -11.3304701
   5.8769794  -6.4489989  -9.7649679   6.1377521  -7.0051298  -8.8864212
   5.4105244  -5.0105247  -9.3970413   5.1126528  -4.5549765 -10.3518476
   4.6091089  -5.0861330  -8.6941700   6.2520003  -4.4848123  -8.9266663
   4.8013716  -7.2117562 -10.4959574   5.0240893  -8.2439766 -10.6080780
   3.8876913  -7.0793695  -9.9377804   4.6915789  -6.7391129 -11.4780540
   8.8248529  -7.1702762 -12.3450317   8.6345768  -7.3157430 -13.5570917
   9.9783525  -6.7218027 -11.8666267  10.1249714  -6.6951890 -10.8606529
  11.1239395  -6.3776798 -12.6379013  10.9154911  -5.4526215 -13.1913242
  11.9759264  -6.2524137 -11.9442711  11.5806103  -7.4977875 -13.5960054
  11.9863243  -7.1493869 -14.6797361  11.4821644  -8.8063183 -13.2423325
  11.3004103  -9.0243855 -12.2957315  11.7276306  -9.9049845 -14.1895123
  12.7306652  -9.8003654 -14.5574970  11.5940704 -11.2308607 -13.4309587
  12.3283186 -11.2124348 -12.6030722  10.5902328 -11.2841244 -13.0373325
  11.7355175 -12.4788704 -14.3044777  12.3704538 -12.1969547 -15.1676331
  12.4678946 -13.5810900 -13.5817242  11.8291988 -14.1079512 -12.8471527
  12.8204012 -14.3145990 -14.3290224  13.3096790 -13.1461706 -13.0726948
  10.4517374 -13.0665026 -14.9283075  10.0696077 -12.4882593 -15.7664585
  10.6372890 -14.0415688 -15.3957882   9.7151699 -13.1330967 -14.1764088
  10.8308258  -9.8302364 -15.4046440  11.3114557  -9.8280525 -16.5115280
   9.4778118  -9.8596039 -15.1924696   9.1401682  -9.7143183 -14.2837324
   8.5156050  -9.8367729 -16.3245468   8.7894554 -10.6253157 -17.0305500
   7.1105571 -10.1584044 -15.8188343   6.9591837  -9.3879166 -15.0772333
   6.0192776 -10.0554647 -16.8894081   6.2768869 -10.6371746 -17.7438984
   5.0895901 -10.4310408 -16.4504471   5.9494920  -8.9941740 -17.1786594
   7.0126100 -11.4946003 -15.0563326   7.7207093 -11.4262962 -14.2493258
   6.0274291 -11.6098347 -14.5923080   7.2017307 -12.3287315 -15.7782831
   8.4699383  -8.5095472 -17.0740395   8.3528929  -8.5066719 -18.3037395
   8.5273724  -7.3742456 -16.4006596   8.7276707  -7.4361234 -15.3873978
   8.6495571  -6.0922318 -17.0375347   7.7954493  -5.9585042 -17.6441994
   8.5780516  -5.0423722 -15.8878956   7.6725588  -5.1609998 -15.3533764
   9.4004641  -5.2185016 -15.1883135   8.6289759  -3.5819321 -16.3417931
   8.0746641  -3.1235628 -17.5647602   7.6783175  -3.7845376 -18.2802753
   7.8741283  -1.7507463 -17.7484169   7.4354172  -1.4092301 -18.6777153
   8.2934456  -0.8291230 -16.8060570   8.1823044   0.2342764 -17.0012417
   8.9986420  -1.2298336 -15.6509533   9.4723310  -0.5424871 -14.9668331
   9.1013908  -2.6149485 -15.4166498   9.5906315  -2.9103434 -14.4622812
   9.8357067  -5.9956880 -18.0253620   9.5575809  -5.7052784 -19.1826286
  11.0770664  -6.2872910 -17.5969944  11.2123594  -6.4165521 -16.5952415
  12.2174511  -6.2915587 -18.4775238  12.4222240  -5.2729158 -18.8303490
  13.0657244  -6.6378284 -17.8099670  12.1289082  -7.3034725 -19.6312523
  12.3791075  -6.9090767 -20.7658939  11.7015085  -8.5628405 -19.3091202
  11.4830341  -8.8273754 -18.3755531  11.6601706  -9.6174517 -20.3191929
  12.6258173  -9.5193691 -20.8761692  11.5540743 -11.0678091 -19.6909313
  10.6841679 -11.1246881 -19.0324478  11.2526426 -11.7946186 -20.4800529
  12.7251768 -11.6360950 -18.9177856  12.9791307 -10.9898386 -18.0916443
  12.2625208 -12.9763908 -18.3878384  11.9131174 -13.6279287 -19.2094994
  13.0836859 -13.4372950 -17.9008846  11.4883232 -12.8181639 -17.5938931
  13.9588470 -11.8295631 -19.8328495  14.4983301 -10.8989286 -20.0167732
  14.6912327 -12.4746561 -19.3317699  13.6135216 -12.2037411 -20.7831669
  10.5497656  -9.4849100 -21.3628273  10.7350674  -9.8781319 -22.5196247
   9.3631353  -9.0481548 -20.9491463   9.2344666  -8.8030872 -19.9253559
   8.1670170  -9.1046448 -21.7642860   8.3644619  -9.6916237 -22.6332932
   7.0669799  -9.8345861 -20.9874039   6.7382526  -9.2625027 -20.1215172
   6.2132335  -9.9512320 -21.6666622   7.5097795 -11.2192001 -20.4476833
   8.3270893 -11.1581888 -19.7546616   6.7131181 -11.5754023 -19.8753262
   7.8930163 -12.2198210 -21.6078796   7.4870548 -12.0031214 -22.7677078
   8.3421888 -13.3117542 -21.2815952   7.6627359  -7.6942949 -22.2623920
   6.7521076  -7.6787424 -23.0694180   8.1935034  -6.5351343 -21.8123360
   8.9164133  -6.5310359 -21.0805035   7.9563875  -5.2394781 -22.4817638
   6.8568606  -5.1939545 -22.4483128   8.5465317  -4.0822892 -21.6520576
   9.6002474  -4.2875361 -21.5512924   8.3952475  -3.1959150 -22.2156525
   8.0565662  -3.9122388 -20.6941776   8.4442606  -5.2245231 -23.9753265
   9.6051989  -5.5786843 -24.1824436   7.6528735  -4.7217751 -24.9241428
   6.2247853  -4.3924079 -24.7894955   6.0739422  -3.3972073 -24.2887859
   5.7744308  -5.1901865 -24.2109299   5.6927009  -4.3067236 -26.2181263
   4.8715978  -3.6148648 -26.2846603   5.4094081  -5.2989483 -26.5513401
   6.8981023  -3.8446352 -27.0377159   6.8687243  -2.7598796 -26.9853249
   6.8417192  -4.1591926 -28.0925350   8.0781803  -4.5294847 -26.2975521
   8.2298336  -5.5130811 -26.7671242   9.3245554  -3.6416361 -26.4088230
  10.1602879  -3.8325195 -27.2878571   9.4819651  -2.6458371 -25.4969673
   8.7134066  -2.4511733 -24.8830452  10.6396437  -1.7567712 -25.3880787
  11.1473122  -1.5945771 -26.3293686  10.2839174  -0.8348697 -24.9686909
  11.6780424  -2.2077184 -24.3580284  12.4518595  -1.3586586 -23.8778496
  11.6210575  -3.4530644 -23.8633842  10.9099054  -4.0632224 -24.1930218
  12.6190300  -4.0357637 -22.9823418  13.2933846  -3.2678461 -22.5906773
  12.1552458  -4.5198069 -22.1320553  13.4691477  -4.9985919 -23.7454014
  13.9400091  -4.6386366 -24.8245049  13.5963535  -6.2237272 -23.1544895
  13.1802664  -6.3919740 -22.2847919  14.3248930  -7.3256116 -23.7454243
  15.4000139  -7.1207852 -23.6538906  14.0698442  -8.5386896 -22.8254967
  14.2697439  -8.0999899 -21.8648129  13.0151320  -8.8455868 -22.8122330
  14.9632635  -9.7336493 -22.9027576  16.2148056  -9.8907375 -22.4458008
  16.6981163  -9.1125402 -21.8158817  16.7042789 -11.1586342 -22.7748299
  17.6253605 -11.4978781 -22.5409870  15.7245827 -11.9092865 -23.3690720
  15.6666107 -13.2626638 -23.8492889  16.5201664 -13.9051933 -23.8279934
  14.4040632 -13.7602472 -24.3902245  14.2579556 -14.8054266 -24.6940231
  13.2975578 -12.9038639 -24.3903465  12.3552523 -13.2648754 -24.7224731
  13.4129677 -11.5719500 -23.9638882  12.5321379 -10.9810638 -23.9723892
  14.5980949 -11.0050764 -23.4661846  14.0496969  -7.5862312 -25.2293758
  14.9323273  -8.0527458 -25.9579773  12.8656921  -7.2298698 -25.7721825
  12.1543980  -6.7834339 -25.1850014  12.4776087  -7.5115681 -27.1843452
  12.9040327  -8.4168348 -27.5270824  10.9423504  -7.5916858 -27.3300171
  10.5551720  -6.5583687 -27.2454338  10.7154713  -7.9145293 -28.3618431
  10.2227364  -8.4880085 -26.2959900  10.4289436  -8.1434021 -25.2736206
   8.7064657  -8.5298576 -26.5461445   8.4348354  -8.9245729 -27.5550346
   8.2328825  -9.1109285 -25.7504120   8.2853765  -7.4816566 -26.4666405
  10.7468548  -9.9340906 -26.3930874  11.7277193 -10.0871515 -25.8781738
  10.0292959 -10.5861521 -25.8762093  10.8148947 -10.2911806 -27.4438763
  13.0107460  -6.4507842 -28.1758671  12.8981829  -6.5778470 -29.4006519
  13.5990915  -5.3315735 -27.6649265  13.6195173  -5.2217669 -26.6656895
  14.1691008  -4.2708583 -28.5381889  13.7425604  -4.4125981 -29.5568295
  13.7437305  -2.8784263 -28.0763607  12.6787615  -2.7754292 -28.2342567
  13.9216089  -2.7669396 -27.0529976  14.3975821  -1.7385067 -28.8578892
  14.6861038  -1.9432319 -30.0497608  14.5346460  -0.6521412 -28.2356472
  15.7047644  -4.3029037 -28.5529232  16.3621597  -4.2412324 -27.5023918
  16.3109970  -4.4267635 -29.7480106  15.6959677  -4.4996395 -30.5361671
  17.7919178  -4.5055852 -29.9425716  18.2937737  -4.8539381 -29.0312939
  18.1619225  -5.4397340 -31.1492767  17.8248634  -4.9287539 -32.0448608
  19.2517357  -5.4950519 -31.2067318  17.6885300  -6.8793530 -31.0393925
  16.7965088  -7.5133843 -31.9227581  16.5099640  -8.6999254 -31.3123493
  15.9297962  -9.5131912 -31.7721596  17.1507473  -8.8213310 -30.1394653
  17.0509720  -9.5706787 -29.4830799  17.8767471  -7.6671515 -29.9594402
  18.5516224  -7.4485965 -29.1688232  18.3485947  -3.1080642 -30.1555290
  19.5701332  -2.9209921 -30.1419754  17.4699497  -2.1671777 -30.3771572
  16.4862461  -2.4239545 -30.2646351  17.8164558  -0.7561711 -30.4180164
  18.8663502  -0.7444222 -30.7900848  17.0752449   0.0120470 -31.5312672
  17.4241047   1.0322187 -31.5314312  17.2008343  -0.4764397 -32.5152702
  15.6888380   0.1321852 -31.2677765  15.3040113  -0.6861817 -30.9331341
  17.8748760  -0.0400179 -29.0065269  18.4540405  -0.6095724 -28.0897999
  17.2805481   1.1692954 -28.9029140  16.7016430   1.4573491 -29.6354866
  17.4922562   2.0564413 -27.8159351  17.9105301   1.4039515 -27.0205154
  18.5417786   3.0897069 -28.2045002  18.1501236   3.8570466 -28.9009895
  18.8276596   3.5619583 -27.2446136  19.7817955   2.5468287 -28.8662529
  19.8452206   2.2917459 -30.0550823  20.8873405   2.4755256 -28.1615849
  21.7384624   2.1897335 -28.6070271  20.8984013   2.9341710 -27.2564964
  16.1952877   2.6373110 -27.2411537  16.2096920   3.7615540 -26.6560764
  15.0249853   2.0553317 -27.4250336  14.9940577   1.2055463 -27.9521103
  13.7268972   2.4917297 -26.8398781  13.6042452   3.5449173 -27.1197605
  12.4816504   1.7597090 -27.3483486  11.5939445   2.2202876 -26.8378906
  12.2205591   1.7333615 -28.8531780  13.1505985   1.4263368 -29.3178368
  11.3830900   1.1164386 -29.1747169  11.9593163   2.7451382 -29.1354370
  12.5213661   0.3757479 -27.0255585  13.3373756   0.0603497 -27.4028759
  13.6862144   2.3915813 -25.3175259  14.2982197   1.5139621 -24.7339268
  12.9658070   3.3310053 -24.6733685  12.4795809   4.0613818 -25.2066326
  12.7913084   3.3368680 -23.1909981  13.8038845   3.1287954 -22.7473869
  12.3346386   4.7156005 -22.7438850  11.3812113   5.0166874 -23.1201077
  12.1655474   4.6311078 -21.6650620  13.2645884   5.7383356 -23.0086212
  13.1437969   5.9484158 -23.9501362  11.8446350   2.2605393 -22.7117805
  10.7901373   2.0336456 -23.3461666  12.1460915   1.6397928 -21.5216160
  13.0608997   1.8640088 -21.1074257  11.3235712   0.5295641 -21.0117989
  11.3639059  -0.2912118 -21.7384338  11.9715462   0.0345665 -19.6947327
  12.9755707  -0.2638329 -19.8641758  12.0147800   0.8749920 -19.0223866
  11.2318859  -1.1314018 -18.9871559  10.2086496  -0.8052310 -18.8035526
  11.2682161  -2.4282722 -19.7608109  12.2837877  -2.7752163 -19.8548203
  10.8374357  -3.2298734 -19.1644554  10.7306376  -2.3470123 -20.7036819
  11.9178486  -1.4355152 -17.6533566  11.7428436  -0.5771181 -16.9987259
  11.3876333  -2.2757347 -17.1404800  12.9868832  -1.5586579 -17.7745953
   9.7950058   0.8986188 -20.7814026   9.5508404   1.9357990 -20.1870537
   8.8462219   0.0783361 -21.2262173   9.1544781  -0.7418624 -21.7329006
   7.4016356   0.0600124 -20.8158855   6.9824562  -0.9471974 -20.9046822
   7.3073921   0.2849717 -19.7400112   6.4434218   0.9759566 -21.5859070
   5.2693415   0.8581451 -21.2149162   6.8116040   1.9004445 -22.4273319
   7.7976985   1.9988039 -22.6075478   5.8607893   2.7518215 -23.2233810
   5.1005945   3.1876111 -22.5914097   6.5504675   4.0037079 -23.8195229
   7.4592505   3.7385571 -24.3158455   5.6795650   4.5967431 -24.9226742
   4.7061901   4.8193798 -24.4997807   6.0971971   5.5294666 -25.2717953
   5.5379434   3.9861343 -25.7959919   6.8589730   5.0022168 -22.6646996
   7.4216671   4.4505086 -21.8863525   7.5385900   5.6789966 -23.1068211
   5.7521982   5.8408031 -21.9817257   5.0672765   5.1211243 -21.4582806
   6.2574668   6.4904337 -21.2522221   5.2019815   6.4472132 -22.6815109
   5.1604614   1.8848575 -24.2611294   5.7946091   1.1829435 -24.9712276
   3.8403034   2.0322921 -24.3922024   3.4344580   2.6972601 -23.7324638
   2.9891658   1.3474323 -25.3668423   3.6520050   0.7604201 -26.0343533
   2.0172868   0.4074855 -24.6247005   1.3030100   1.0012920 -24.0663528
   1.5023761  -0.2162511 -25.3707600   2.7367756  -0.5191830 -23.6160374
   2.6997402  -0.3190661 -22.4235001   3.3141925  -1.5687437 -24.0877647
   3.9348373  -2.0629306 -23.4572639   3.2207403  -1.8118602 -25.0556965
   2.1931949   2.4225001 -26.2021065   1.6201961   3.3893802 -25.6798820
   2.1281998   2.2916539 -27.5186272   2.5499067   1.4956558 -28.0014896
   1.4328195   3.2694769 -28.4016399   1.1274316   4.1265316 -27.8159809
   2.2679136   3.6950042 -29.5735741   2.3911729   2.8538969 -30.2699738
   1.6641861   4.8740406 -30.3622856   1.3164275   5.5830956 -29.6222954
   2.4356220   5.3154187 -31.0578003   0.9191394   4.5001659 -31.0111408
   3.5015397   4.1791768 -29.1498032   3.8658724   3.5552046 -28.5831146
   0.1049841   2.5753806 -28.8956242   0.0874222   1.9621266 -29.9579906
  -1.0049112   2.5535045 -28.1192570  -1.1279260   3.2914748 -26.8780804
  -0.7438258   4.3370037 -26.9594612  -0.6700938   2.6854136 -26.1122684
  -2.5982046   3.4104648 -26.5744190  -3.0065856   4.3788066 -26.9087448
  -2.7437806   3.3267596 -25.4916401  -3.1612322   2.1622505 -27.2688599
  -4.2407622   2.2921045 -27.4423122  -2.9878030   1.2798189 -26.5996284
  -2.3107595   2.0534005 -28.5125923  -2.2355933   0.9884250 -28.8140011
  -3.0003347   2.8091905 -29.6313591  -3.9761708   2.3009830 -30.1757984
  -2.5334408   4.0559320 -29.9340076  -1.7125529   4.3732858 -29.4438152
  -3.1373165   5.0227313 -30.8464985  -3.1067314   4.6108561 -31.8566151
  -4.6247158   5.3318591 -30.6152821  -5.2053332   4.3744073 -30.6399460
  -5.0226026   6.0405488 -29.2754250  -4.5315733   7.0060940 -29.1866283
  -6.0955548   6.1955385 -29.2461681  -4.6884241   5.5851989 -28.3919792
  -5.2470279   6.1780806 -31.7405338  -4.9956794   5.7036600 -32.7106361
  -6.3037653   6.1558318 -31.5333824  -4.8806896   7.2158079 -31.8322163
  -2.2998064   6.3224382 -30.8109837  -1.9452839   6.7755027 -29.7305775
  -1.9803267   6.8820972 -31.9998627  -2.1907241   6.3321381 -32.8257370
  -1.1719398   8.0841894 -32.1320038  -0.1749394   7.8762007 -31.7625713
  -0.9272821   8.4051962 -33.6160164  -0.0064084   8.9733763 -33.7255936
  -0.7784578   7.4847460 -34.1700706  -2.0214005   9.1751299 -34.3633957
  -3.0754995   8.6673536 -34.7295456  -1.8143268  10.4415092 -34.5772400
  -2.5888071  11.0300360 -34.8725014  -0.9523309  10.8675709 -34.3195648
  -1.7976712   9.2946205 -31.3894119  -3.0335615   9.4244261 -31.3193359
  -1.0055722  10.1206722 -30.6581612   0.0079363  10.0586090 -30.8544235
  -1.5312527  11.2365742 -29.8782005  -0.9708363  12.1295347 -30.0415401
  -2.5405097  11.4687824 -30.1663818  -1.4650810  10.9875593 -28.3764553
  -1.5101566  11.9436026 -27.5770798  -1.3539553   9.7362175 -27.9857140
  -1.3018875   8.9732304 -28.6332150  -1.5714777   9.3722267 -26.5899200
  -1.1328542  10.0763216 -25.8754425  -3.0345461   9.3627434 -26.2280560
  -3.1403329   9.0624933 -25.1660538  -3.3887708  10.3630848 -26.4123344
  -3.8769994   8.4885035 -26.9975739  -3.5530820   7.5909095 -26.9207745
  -0.8421063   8.0363159 -26.2378864  -1.5225004   7.0894761 -25.9152584
   0.5160636   7.9103928 -26.3036556   1.4470683   8.9324675 -26.7217083
   1.2160169   9.9680786 -26.3735886   1.3486415   8.9870434 -27.8123302
   2.8202150   8.4893379 -26.1632347   2.9986672   8.8557529 -25.1434345
   3.6603782   8.9120483 -26.7308273   2.6881061   6.9642301 -26.1909504
   3.3980954   6.5278172 -25.4762077   2.8721223   6.5756245 -27.2124844
   1.2471381   6.7057633 -25.8404903   0.9032803   5.8445573 -26.3839073
   1.0165616   6.6083264 -24.3177681   0.7756284   7.6103826 -23.6342430
   1.0293342   5.3861327 -23.8114662   1.3884734   4.6395020 -24.3896675
   0.8267834   5.1291938 -22.3831558   0.7689003   6.0790582 -21.8771381
  -0.4783739   4.3805308 -22.1232395  -0.6400615   4.2744894 -21.0358791
  -1.7229583   5.0857205 -22.7327461  -1.8507086   4.9309039 -23.8284969
  -2.6509736   4.7454495 -22.2419262  -1.6100250   6.1316228 -22.6394844
  -0.4760061   2.9648066 -22.6759758   0.1447875   2.3233078 -22.0186424
  -1.4688624   2.5103126 -22.6506271  -0.0806940   2.9296556 -23.6931019
   1.9743026   4.4023476 -21.7365913   2.7515554   3.7145851 -22.4035912
   2.0719934   4.4470544 -20.4191303   1.3814996   4.9313121 -19.8499184
   3.0658219   3.6779480 -19.6930428   3.8450959   3.2715585 -20.3411503
   3.7653134   4.6830111 -18.7517471   4.4342275   5.3555322 -19.2874470
   3.0525699   5.3061061 -18.2235222   4.7889643   3.8722837 -17.5431404
   2.3261604   2.5127590 -18.9986916   1.7554278   2.7042508 -17.9357319
   2.3495991   1.3359332 -19.6227531   2.8542290   1.3038455 -20.5130997
   1.8884927  -0.0101394 -19.1322079   2.5348437  -0.7576143 -19.6308594
   2.0632675  -0.2687203 -17.6321774   1.3516457   0.3305142 -17.1001282
   1.8987261  -1.3535800 -17.4311943   3.4672210   0.0722758 -17.0478840
   3.6986196   1.1092914 -17.1471176   3.5043156  -0.3268971 -15.5574751
   2.9853644  -1.2559270 -15.4534674   4.4758201  -0.4909470 -15.1868486
   3.0101421   0.3576509 -14.9162235   4.5340257  -0.8270780 -17.7269592
   4.6108351  -0.5330864 -18.7993984   5.5042119  -0.6035823 -17.2587032
   4.2280879  -1.8824751 -17.6433945   0.4648371  -0.4068853 -19.5354576
   0.2300849  -1.6147016 -19.7360897  -0.5049472   0.4841600 -19.6665001
  -0.2557074   1.4515923 -19.5608692  -1.9384511   0.0815242 -19.6754436
  -2.1233122  -0.6246337 -18.8341045  -2.8001056   1.3198758 -19.5142059
  -2.6721189   1.8903171 -20.4515915  -3.8569837   0.9604747 -19.4670429
  -2.4924788   2.2556269 -18.3388252  -1.3686143   2.4316509 -18.2354507
  -3.0237958   3.2007480 -18.4922543  -3.0016181   1.6584433 -17.0013638
  -2.9330215   0.4374014 -16.7820950  -3.4614091   2.4659874 -16.1946850
  -2.2164378  -0.7974904 -20.9349346  -2.9000955  -1.8237782 -20.7952805
  -1.7614443  -0.4346494 -22.1307659  -1.3039256   0.4582786 -22.1560211
  -2.0382199  -1.1649311 -23.3737679  -3.0647418  -1.5431033 -23.3749752
  -2.0070190  -0.0821503 -24.4257355  -1.0177791   0.4185966 -24.2889633
  -2.0982633  -0.5251608 -25.4086685  -2.8748262   0.5814618 -24.2361450
  -1.0911542  -2.3503277 -23.6306839  -1.2175715  -3.0234175 -24.6613121
  -0.1809056  -2.6005602 -22.6747875  -0.1585269  -2.0700815 -21.8373013
   0.6774169  -3.7835622 -22.7010040   1.3094406  -3.7549593 -23.6179199
   1.6366612  -3.7379205 -21.5399914   2.0630980  -2.7193811 -21.4762669
   0.9607251  -3.9296041 -20.6800747   2.7951286  -4.6987667 -21.4431782
   3.4324076  -5.4145536 -22.4088383   3.0618143  -5.4554424 -23.4536648
   4.5007806  -6.0521464 -21.8715382   5.0596457  -6.6530747 -22.4473591
   4.5851173  -5.8558412 -20.4975319   5.4047580  -6.3691020 -19.4450588
   6.2142634  -7.0413589 -19.6777287   5.1216960  -6.0240221 -18.1286736
   5.7451363  -6.3300114 -17.2753506   4.0536733  -5.1220226 -17.8818302
   3.8622591  -4.7493801 -16.8786125   3.2821894  -4.5557280 -18.9002914
   2.5187514  -3.8087807 -18.6373272   3.5150008  -4.9538174 -20.2052765
  -0.1391625  -5.1350508 -22.7803307  -1.1436250  -5.3352885 -22.0764618
   0.2185054  -6.0243850 -23.7010555   1.0190753  -5.7443104 -24.2948151
  -0.5873659  -7.1934061 -24.1072922  -1.4936544  -6.8267798 -24.5084953
   0.1238194  -7.9033623 -25.2427940   0.5187806  -7.1986079 -25.9702606
   0.9655731  -8.4334583 -24.7836113  -0.7865489  -8.9323177 -25.8656292
  -0.7828093 -10.0696697 -25.3434067  -1.4487159  -8.6189003 -26.8984261
  -0.9371101  -8.1064339 -22.9045124   0.0056446  -8.4318914 -22.1305733
  -2.1574678  -8.6590757 -22.8632545  -3.3088403  -8.3030052 -23.7196712
  -3.1365778  -8.7215919 -24.7220974  -3.4480338  -7.2063680 -23.7117672
  -4.5018158  -8.9798584 -23.1048107  -5.3026061  -9.1781311 -23.7970924
  -4.8449807  -8.3085079 -22.3958130  -3.9335048 -10.1696033 -22.3055439
  -3.8616562 -10.9990082 -23.0169983  -4.6072717 -10.4817057 -21.4869576
  -2.5614815  -9.6284590 -21.8582821  -2.6248372  -9.1442099 -20.8807659
  -1.6324606 -10.8109560 -21.6887646  -1.4219755 -11.2433529 -20.6071072
  -1.0841018 -11.4106073 -22.7679806  -1.1481731 -10.9734478 -23.7185478
  -0.1907559 -12.5671635 -22.7172871  -0.5988083 -13.3662748 -22.0890408
  -0.0411428 -13.0761814 -24.1650677   0.6501803 -12.3907013 -24.6836376
   0.3335598 -14.1180143 -24.1335907  -0.9928971 -13.0881062 -24.6623631
   1.1929388 -12.1983871 -22.1493359   1.8380275 -12.9975700 -21.5354557
   1.6566156 -10.9521589 -22.3808594   1.1528935 -10.3222761 -22.9921036
   2.9717162 -10.4887829 -22.0220547   3.6647794 -11.3259649 -21.9639282
   3.5479448  -9.5760880 -23.1126633   3.1616375  -8.5912142 -22.9515095
   4.6484523  -9.4759312 -23.0239754   3.1546805  -9.9730768 -24.3874474
   3.7729480 -10.6765575 -24.6086292   3.1503317  -9.7545452 -20.6557159
   4.0891595 -10.0343332 -19.9154415   2.1633289  -8.9346790 -20.3399544
   1.4705449  -8.6564722 -21.0845928   1.9557618  -8.3638268 -19.0018158
   2.9370933  -8.0743904 -18.6232548   1.0666206  -7.1292744 -19.2265339
   0.0759172  -7.5219040 -19.5285053   1.0483638  -6.5482402 -18.2860260
   1.4746510  -6.5363355 -20.0138187   1.3425065  -9.4493103 -18.0429039
   1.6044456  -9.4615831 -16.8400154   0.5925198 -10.3471222 -18.6416168
   0.5463981 -10.2884283 -19.6521606  -0.2668988 -11.3706293 -18.0666466
  -1.2922262 -10.9377947 -17.9314957  -0.3187364 -12.2596636 -18.6844139
   0.2117258 -11.9243183 -16.7421322  -0.5293577 -11.8067169 -15.7544651
   1.4171308 -12.5835514 -16.6123486   2.4160295 -12.8135595 -17.6902695
   2.6647089 -11.8536205 -18.1476898   1.9993782 -13.5058298 -18.4278698
   3.6006737 -13.4313488 -17.0236130   4.2745504 -12.6745853 -16.6201744
   4.1412811 -14.1604424 -17.6514416   3.0151513 -14.1365042 -15.8111515
   3.7125840 -14.3525753 -14.9741182   2.6595950 -15.1377535 -16.1429405
   1.7999755 -13.3131132 -15.3780174   1.0507178 -13.9809790 -15.0835533
   2.1563129 -12.3634138 -14.1890516   1.9303435 -12.7151394 -13.0510712
   2.5734804 -11.1251450 -14.4561205   2.7006695 -10.8599339 -15.4283829
   2.6096001  -9.9883213 -13.4956369   3.0619717 -10.3293171 -12.5616922
   3.4511044  -8.8276272 -14.0978012   2.8810647  -8.3530140 -14.9146271
   3.6907134  -8.0434465 -13.3365393   4.4181738  -9.2107763 -14.4565544
   1.2402152  -9.5450897 -13.0435123   0.9609439  -9.2815886 -11.8680811
   0.2928652  -9.4250383 -13.9962521   0.6086794  -9.6785717 -14.9478769
  -1.1311915  -9.0755949 -13.7475700  -1.1412331  -8.1737089 -13.1041374
  -1.8127906  -8.7118521 -15.0925312  -1.7237295  -9.5711308 -15.8009186
  -2.8788350  -8.6357508 -14.9557362  -1.2716538  -7.4313364 -15.7641907
  -1.4851652  -6.6024117 -15.0405874  -0.2277008  -7.6231966 -15.9382267
  -2.0046346  -7.1821113 -17.1156826  -1.8241210  -8.0477924 -17.7747955
  -3.0915639  -7.2074766 -16.9858246  -1.5600179  -5.9031348 -17.7081127
  -0.7654050  -5.5547423 -17.2287254  -1.8554150  -5.2663784 -18.8427143
  -2.6879740  -5.8679447 -19.6472149  -3.0852795  -6.7732935 -19.4370880
  -2.6501617  -5.5658264 -20.6019821  -1.4028096  -4.1147213 -19.2511902
  -0.7698560  -3.5828333 -18.6614647  -1.7624028  -3.6269486 -20.0226097
  -1.7797309 -10.1842442 -12.9207554  -2.5432322  -9.8750601 -12.0007362
  -1.5292354 -11.4701071 -13.2011929  -0.9513382 -11.5934811 -14.0460062
  -2.1658769 -12.6745787 -12.6260986  -3.2624838 -12.5517941 -12.5150194
  -2.0170889 -13.8252401 -13.6666784  -2.4558485 -13.4559765 -14.6081219
  -0.9506316 -14.0243578 -13.8354359  -2.6723061 -15.1308784 -13.3416739
  -4.0960989 -15.2947054 -13.4637508  -4.7888227 -14.5046921 -13.8349285
  -4.6511745 -16.5748768 -13.1561680  -5.7490025 -16.7301922 -13.2024183
  -3.8866668 -17.6624660 -12.6854057  -4.3727226 -18.5367470 -12.3596468
  -2.5052366 -17.4851379 -12.5587482  -1.9165231 -18.3089066 -12.1182165
  -1.9346142 -16.2595005 -12.8956547  -0.8585214 -16.1305103 -12.7990522
  -1.5409644 -13.0729151 -11.2876406  -2.2369471 -13.0550756 -10.2714405
  -0.2650166 -13.4570589 -11.2183475   0.2655628 -13.2097807 -12.0533714
   0.2614214 -14.1958895 -10.0983829  -0.4624246 -14.9910536  -9.9390278
   1.6103607 -14.7865715 -10.5273685   1.9640083 -15.4992542  -9.7460041
   1.4425856 -15.4128447 -11.3891115   2.5832205 -13.7503338 -10.7732286
   2.3755620 -13.3180485 -11.6295958   0.4052787 -13.3794250  -8.8237886
  -0.0488011 -13.8273335  -7.7765045   0.9308594 -12.1749964  -8.8928871
   1.5358534 -11.9469948  -9.6590967   0.9266427 -11.2210951  -7.7984672
   1.4645941 -11.6024017  -6.9212370   1.6147553  -9.9303799  -8.1895418
   1.2415655  -9.5106096  -9.1173553   1.3638098  -9.1528473  -7.4379091
   3.1852758  -9.8644686  -8.2550449   3.4821212  -8.7984705  -8.3019648
   3.9063144 -10.4803410  -7.1223402   3.6437678 -11.5675507  -6.9372458
   5.0032787 -10.4005642  -7.2784433   3.7026086  -9.8349075  -6.2340922
   3.8365827 -10.4690313  -9.4692917   3.3388863 -10.0713816 -10.3475046
   4.8803554 -10.2326002  -9.5259380   3.7378213 -11.5241547  -9.5001774
  -0.5254186 -10.8833113  -7.3590918  -0.7280887 -10.7197046  -6.1682801
  -1.5385371 -10.9555521  -8.2531242  -1.3276793 -11.2348795  -9.2102633
  -2.9702427 -10.8289623  -7.8449755  -3.0162871  -9.9932585  -7.1306276
  -3.7791383 -10.4405346  -9.0316305  -3.5879662 -11.2369738  -9.7373466
  -4.8200212 -10.4451475  -8.7116251  -3.4242063  -9.2140160  -9.6592560
  -3.2829783  -9.4169054 -10.6075754  -3.5916557 -12.0731487  -7.2373438
  -4.6545668 -12.0191565  -6.6471071  -2.8768234 -13.1757984  -7.1755962
  -2.0567975 -13.1558743  -7.7569876  -3.1289043 -14.2847252  -6.3355255
  -4.1420546 -14.3060780  -5.9924793  -2.8198304 -15.6088581  -7.0901937
  -1.7857052 -15.6543531  -7.3503418  -3.0668750 -16.4170952  -6.3509507
  -3.6345339 -15.8665285  -8.3353376  -3.5027876 -15.0564632  -9.0305576
  -3.1186519 -17.1587677  -8.9863243  -3.1498530 -17.9811440  -8.2573528
  -3.7471735 -17.4637032  -9.8385897  -2.0968111 -17.0334396  -9.2395992
  -5.1222630 -16.1093559  -8.1836739  -5.6425171 -15.3241291  -7.6748190
  -5.5482984 -16.1566849  -9.1655064  -5.3383117 -16.9805450  -7.6330323
  -2.2620015 -14.2225170  -5.0282497  -2.8239324 -14.1360102  -3.9446216
  -0.9053627 -14.2902756  -5.1566119  -0.4516825 -14.2502327  -6.0810566
   0.0491491 -14.5420446  -4.0864644  -0.1539004 -15.4431162  -3.5988026
   1.4680569 -14.6097336  -4.8029690   1.3925850 -15.2023983  -5.7050924
   1.7510532 -13.6098118  -5.1122041   2.6467416 -15.2099628  -3.9815543
   3.4707012 -15.3441916  -4.6949196   3.0615544 -14.2501793  -2.8447673
   2.2403140 -14.0166206  -2.1837285   3.9115009 -14.6544943  -2.3512595
   3.3503220 -13.3110857  -3.3200905   2.3463316 -16.5676842  -3.4053538
   2.1356483 -17.2286167  -4.2342772   3.2482958 -16.8597221  -2.8711722
   1.4655186 -16.5775127  -2.8026748  -0.1021527 -13.4191761  -3.0305889
  -0.1679897 -13.6806202  -1.8094569  -0.2680625 -12.1571684  -3.4739428
  -0.3514132 -11.9819069  -4.4842644  -0.5173754 -11.0369167  -2.5754428
  -0.4036438 -11.3627138  -1.5583085   0.5369330  -9.9679203  -2.7775834
   0.4709521  -9.6076679  -3.7761590   0.3605026  -9.0966578  -2.1062496
   2.0514963 -10.3716755  -2.5954590   2.3643205 -11.2043285  -3.2544038
   2.9877553  -9.2301779  -2.7623677   2.7180934  -8.3909054  -2.1498926
   4.0220490  -9.5824947  -2.5104094   3.0151615  -8.8828773  -3.8154933
   2.2011080 -10.7985706  -1.1512632   1.5451825 -11.6375217  -0.9764585
   3.2073390 -11.1370907  -1.0326406   1.9606414  -9.9483347  -0.5236961
  -1.9531040 -10.5034447  -2.7416720  -2.1980655  -9.3160906  -2.5743318
  -2.9609272 -11.3613710  -2.8899882  -2.7580700 -12.3519802  -3.1659958
  -4.3215289 -10.9810591  -2.5062208  -4.3015528 -10.0857782  -1.8193887
  -5.2380772 -10.6264782  -3.6589718  -4.7887511  -9.8353300  -4.2929454
  -5.3182597 -11.5400028  -4.2620840  -6.6799302 -10.2536240  -3.3159063
  -6.9403267  -8.9635210  -2.7468548  -6.1728902  -8.2325325  -2.6901555
  -8.2479134  -8.6878462  -2.2274728  -8.4377079  -7.7456961  -1.8027729
  -9.2658348  -9.6791687  -2.3340461 -10.2141466  -9.4583092  -1.9353808
  -9.0180645 -10.8462429  -3.0135207  -9.8253107 -11.5240784  -3.2382476
  -7.7510543 -11.1566868  -3.5201335  -7.5852547 -12.0825443  -3.9570377
  -4.9780045 -12.0589790  -1.6742049  -5.3614211 -11.8232336  -0.5111497
  -5.1905136 -13.2423782  -2.2332094  -4.7921553 -13.4125710  -3.1642346
  -5.7947583 -14.3324842  -1.4914142  -6.7798500 -13.9887953  -1.1071389
  -6.0692792 -15.5074873  -2.4323053  -5.2044559 -15.9150324  -2.9619577
  -6.4265590 -16.3900051  -1.8020706  -7.1468406 -15.1145859  -3.4315791
  -8.4597216 -14.8222246  -2.9778552  -8.7165747 -14.7832813  -1.9046956
  -9.3850365 -14.3092451  -3.9282718 -10.3250132 -13.9716072  -3.5425994
  -9.0542755 -14.2343292  -5.2826829  -9.8078842 -13.8218012  -5.9626508
  -7.7762728 -14.6675482  -5.7211499  -7.5135021 -14.6373835  -6.7506404
  -6.8361516 -15.1556358  -4.7984166  -5.8965130 -15.5221453  -5.1586385
  -4.9991436 -14.8227072  -0.2826582  -5.6133652 -15.1323271   0.7277068
  -3.6486194 -14.9407721  -0.2706023  -3.1545198 -14.6995564  -1.1024458
  -2.9360940 -15.2114239   1.0038580  -3.3755267 -16.1295471   1.4269887
  -1.4518516 -15.5050039   0.6676461  -1.4489883 -16.2408504  -0.1883030
  -0.9553964 -14.6860847   0.1874034  -0.5344577 -16.0592098   1.7732706
   0.4344083 -16.2316341   1.2815739  -0.3028643 -15.1480885   2.9353950
  -1.2001655 -15.1005516   3.5387902   0.4987341 -15.5082083   3.5639145
  -0.0060609 -14.1762352   2.5723026  -1.0779030 -17.3735657   2.2968171
  -1.2923731 -18.0331154   1.4363455  -0.3576517 -17.8840351   2.9247737
  -2.0075338 -17.1390362   2.8325853  -3.2599833 -14.1905842   2.1194365
  -3.8056376 -14.6285381   3.1230569  -2.9385161 -12.8814945   1.9240301
  -2.0817683 -12.2721863   0.9235158  -2.6093028 -12.1909094  -0.0120584
  -1.0740385 -12.7684345   0.8541810  -1.8499304 -10.8590355   1.3711745
  -1.6050589 -10.2464571   0.5237872  -1.0518312 -10.7617483   2.1643350
  -3.1623709 -10.5991735   2.0685177  -3.9376662 -10.3570099   1.3548852
  -2.9888229  -9.7455873   2.6818392  -3.5104685 -11.8860044   2.8176191
  -2.9758379 -11.9809113   3.7491932  -4.9525714 -11.9861078   3.1726770
  -5.2352304 -11.9307632   4.3553610  -5.8970399 -12.0380363   2.2078271
  -5.6320977 -11.8454762   1.2515905  -7.2965007 -12.1407213   2.5188651
  -7.5264878 -11.3079166   3.1339738  -8.0941849 -12.1786890   1.2178354
  -7.9141278 -11.2620726   0.6635067  -7.7941108 -13.0301781   0.6657788
  -9.6061859 -12.2752466   1.5370239  -9.7575302 -13.1698895   2.0065587
 -10.0595341 -11.0633478   2.4020956  -9.6934929 -10.1215639   1.9485009
 -11.1015244 -11.0830021   2.5896332  -9.5889988 -11.1187162   3.3585763
 -10.5286112 -12.2621346   0.3159490 -10.1289597 -12.9841766  -0.3884180
 -11.5611839 -12.5061340   0.6626204 -10.6182661 -11.1952610  -0.1158986
  -7.5470381 -13.3384943   3.4802225  -8.1382122 -13.0840130   4.5589104
  -7.0342503 -14.5528069   3.1827431  -6.5083618 -14.6554270   2.3311906
  -7.2124152 -15.7534752   3.9632010  -8.2465849 -16.0698090   3.9648893
  -6.4507494 -16.9028454   3.2442007  -5.3962665 -16.7600288   3.2114136
  -6.6732483 -17.8284969   3.7237599  -6.8175597 -17.0023766   2.1951194
  -6.8899565 -15.5361567   5.4556875  -7.7444191 -15.7388840   6.3449430
  -5.6666427 -15.1319304   5.7558918  -4.9804864 -15.0239077   5.0423241
  -5.1477060 -14.9115744   7.1500134  -5.5188470 -15.7443705   7.8050799
  -3.6416869 -15.1042862   7.2415061  -3.3768382 -15.1071377   8.2684059
  -3.2891176 -16.5213413   6.7296696  -3.2919326 -16.6213684   5.6650610
  -2.3283322 -16.7518730   7.1525164  -3.9421537 -17.3574371   7.0972342
  -2.8119669 -14.0214176   6.5466781  -3.1467745 -13.9053688   5.5512195
  -3.0335717 -13.0735149   7.0546489  -1.3121171 -14.2282677   6.6469536
  -1.1428679 -15.0544300   6.0097609  -0.7497699 -13.3529959   6.3337145
  -1.0209280 -14.4463081   7.6425118  -5.7050009 -13.6540499   7.8263192
  -6.0125260 -13.6611853   8.9900331  -5.9706411 -12.5456324   7.0992069
  -5.8266077 -12.6179075   6.1181688  -6.7185187 -11.4524698   7.6681085
  -6.2150216 -11.2299433   8.6265926  -6.7074513 -10.1394615   6.8302374
  -7.3462777  -9.3428288   7.3148270  -5.3533440  -9.5224924   6.6507835
  -4.6143537 -10.2262688   6.2664175  -5.3430538  -8.6811409   5.9717841
  -5.0160069  -9.1479645   7.6278586  -7.2566128 -10.3518925   5.5643125
  -6.5353417 -10.8153048   5.0906496  -8.1803150 -11.7823496   8.0888729
  -8.5893459 -11.4119539   9.1965866  -8.8772249 -12.6231146   7.3469276
  -8.5414314 -12.8819036   6.4461145 -10.1683130 -13.0843821   7.7392626
 -10.7772350 -12.2467890   8.1151495 -10.8660803 -13.7828083   6.5529199
 -10.3726330 -14.7325087   6.4058108 -11.8552313 -14.0242777   6.8756671
 -10.8864698 -13.1170282   5.6597371 -10.0456800 -14.0263195   8.9623499
 -10.7571564 -13.8503838   9.9781094  -9.0953169 -14.9472246   8.9517221
  -8.4866199 -15.0033045   8.1619873  -8.8460340 -15.9189281  10.0642443
  -9.7221985 -16.5594082  10.2023611  -7.6872516 -16.8271141   9.7113400
  -8.1090508 -17.7327175   9.2138596  -6.9924493 -16.2860565   9.0852232
  -6.9504266 -17.3251266  10.9476624  -5.7664084 -16.7015533  11.3609419
  -5.3305573 -15.8821974  10.8214016  -5.1365848 -17.0124340  12.5795383
  -4.2392573 -16.5147114  12.9186020  -5.7812123 -18.0152245  13.4348860
  -5.2948732 -18.3045750  14.3479528  -6.9953365 -18.6048012  13.0720797
  -7.3857031 -19.2924423  13.7459202  -7.5569911 -18.2266960  11.8128033
  -8.3962765 -18.6963482  11.4501562  -8.6666622 -15.1706228  11.4000740
  -9.5266609 -15.3635635  12.2710505  -7.6926394 -14.2411842  11.4950361
  -7.1560221 -13.9949980  10.6679821  -7.4119668 -13.5058975  12.7428808
  -7.3752589 -14.2129278  13.5620546  -6.0290222 -12.8819761  12.6613941
  -5.9184976 -12.2688589  13.5602436  -5.2586842 -13.6328020  12.7201700
  -5.7928257 -11.7131729  11.2752647  -5.5596633 -12.5849152  10.2849531
  -8.5299416 -12.5379276  13.1506491  -8.6916285 -12.3535652  14.3688574
  -9.3685074 -12.0780239  12.2442570  -9.1859894 -12.1611538  11.2277603
 -10.5884762 -11.3606586  12.6380911 -10.3213501 -10.4948177  13.2320042
 -11.2342539 -10.7812548  11.3957615 -10.5214462 -10.3254452  10.7257233
 -11.7350578 -11.5070820  10.8261318 -12.3230314  -9.7509136  11.5799847
 -12.5564375  -9.0615416  12.7764721 -12.0252619  -9.3265648  13.6244106
 -13.5630465  -8.0708771  12.8483572 -13.7829876  -7.5952940  13.7714472
 -14.3226805  -7.6972990  11.7199411 -15.3172722  -6.8002748  11.8279552
 -15.9658041  -6.8034558  11.1174641 -14.0986595  -8.3615284  10.5308676
 -14.7014704  -8.0975466   9.6677856 -13.1525755  -9.4439049  10.4397125
 -13.0217066  -9.9162502   9.4556217 -11.5875378 -12.2061453  13.4290237
 -12.0334291 -11.9254150  14.5468416 -11.9103355 -13.3333607  12.8083954
 -11.4557352 -13.4737635  11.9163141 -12.8456173 -14.3595972  13.3172894
 -13.7230310 -13.8444796  13.6561127 -13.1914701 -15.3385029  12.1794119
 -12.3164291 -15.7483301  11.6877985 -14.0811844 -16.5527363  12.5969648
 -15.0689545 -16.3141136  13.0008898 -14.2532978 -17.2244987  11.7418404
 -13.5603561 -17.1408634  13.3620939 -14.1094971 -14.6286011  11.1790895
 -13.7650290 -13.6997557  10.7694330 -14.3248358 -15.3247089  10.3966799
 -15.0872812 -14.4886503  11.6590509 -12.2429428 -15.0384369  14.5802612
 -12.9597187 -15.5502119  15.4210234 -10.9073915 -15.0973425  14.7480955
 -10.3262339 -14.9020596  13.9320431 -10.2000227 -15.4418364  15.9960327
 -10.4558134 -16.4587383  16.2733078  -9.1243782 -15.3813066  15.7467794
 -10.5096970 -14.5891085  17.2333298 -10.9329939 -15.1107635  18.2624855
 -10.3947544 -13.2400932  17.0841160 -10.0744905 -12.8774347  16.1477261
 -10.8305540 -12.2340574  18.0720062 -10.2082481 -12.4159327  18.9619484
 -10.5100746 -10.7651663  17.6117344 -11.1743975 -10.4547987  16.8342686
 -10.6190596 -10.0510874  18.3963394  -8.8114948 -10.6122103  16.9783669
  -8.8597260 -11.4161978  15.8909216 -12.2836514 -12.4440136  18.4779892
 -12.5763798 -12.5339241  19.6571045 -13.2004585 -12.5005016  17.5383549
 -12.9386005 -12.3883457  16.5792427 -14.6305170 -12.5628519  17.9139977
 -14.8343277 -11.7873049  18.6377373 -15.5680408 -12.2801886  16.7566090
 -15.4137983 -13.0797806  16.0318966 -16.6209679 -12.2960491  17.1225224
 -15.3475943 -10.8794346  16.2048988 -14.2980022 -10.7285881  15.9810352
 -16.1410389 -10.7529984  14.9045076 -17.2091198 -10.9057102  15.0239487
 -16.0042782  -9.7529945  14.4908819 -15.7969151 -11.5222158  14.1994152
 -15.7150640  -9.8103542  17.2296562 -15.0343571  -9.8770018  18.0418987
 -15.5987825  -8.7984314  16.8222485 -16.7563705  -9.9316673  17.5597935
 -15.0297880 -13.8669577  18.6990757 -15.8051386 -13.8476658  19.6147079
 -14.4426928 -14.9837389  18.3168068 -13.9296837 -14.9198494  17.4376831
 -14.5193863 -16.2437210  19.0717525 -15.5660009 -16.4354839  19.2201271
 -13.8705435 -17.3575726  18.2919235 -12.8826294 -17.0733662  17.8390923
 -13.7208738 -18.2367382  18.9620857 -14.7921333 -17.7954712  17.1196957
 -15.7952700 -18.1615791  17.4848022 -14.8904848 -16.9758263  16.3825912
 -14.0112867 -18.9340992  16.3767490 -13.5647211 -19.5417938  17.1472473
 -14.7225151 -19.5313606  15.7570076 -12.8637323 -18.4515820  15.6510267
 -12.7386179 -17.4282951  15.6373930 -11.9106092 -19.2479973  15.1702127
 -11.9897289 -20.5438976  15.1003542 -12.7237425 -21.0244846  15.5269547
 -11.2836742 -21.0474434  14.5494375 -10.8376589 -18.7216072  14.6527901
 -10.1112280 -19.2796726  14.1555319 -10.7254791 -17.7134476  14.6778440
 -13.9965839 -16.2002449  20.5235004 -14.6207733 -16.7876549  21.4040184
 -12.8513136 -15.5600986  20.7307434 -12.3459835 -15.2044506  19.9173717
 -12.2042427 -15.3603983  22.0721912 -12.1305456 -16.3257332  22.6012058
 -10.7830963 -14.9436750  21.7579155 -10.7572279 -14.1552296  20.9799938
 -10.3922358 -14.4738159  22.6766853 -10.2204046 -15.8008299  21.5043926
 -13.1324444 -14.3725634  22.9010582 -13.3267307 -14.5751095  24.0855789
 -13.5961723 -13.3380651  22.2490768 -13.2588711 -13.2753754  21.2895679
 -14.4440699 -12.2334108  22.7268963 -13.8857222 -11.7953644  23.5821266
 -14.4762430 -11.1627111  21.6067581 -13.4147644 -10.8867188  21.4138317
 -14.9201698 -11.5559282  20.7033768 -15.1054049  -9.7673864  21.8018703
 -14.7218628  -9.1385202  20.9846001 -16.6262608  -9.7613125  21.8174725
 -16.9496937 -10.4536266  22.6251068 -17.0021896  -8.7452259  21.9884014
 -17.0056381 -10.1024094  20.8502693 -14.6549711  -9.1164103  23.1176071
 -13.5937710  -8.9779215  23.1810284 -15.1112223  -8.1097202  23.2430553
 -15.0369787  -9.7712231  23.8977165 -15.7581625 -12.6360598  23.2937355
 -16.1294861 -12.1705723  24.3670197 -16.4260635 -13.6050148  22.6518364
 -16.0973320 -13.9026976  21.7170753 -17.6672535 -14.1839352  23.1276035
 -18.4120598 -13.3941975  23.1784058 -18.0598946 -15.2978315  22.1381969
 -17.3264027 -16.0890408  22.1462612 -18.9924030 -15.7501640  22.4320984
 -18.1959572 -14.9143047  21.1067486 -17.5503368 -14.7066517  24.6212025
 -18.5052891 -14.7196722  25.4036312 -16.4136524 -15.3560152  24.9941463
 -15.7355232 -15.2733917  24.2703991 -16.0861187 -15.9271202  26.3062305
 -17.0368576 -16.0286980  26.8502598 -15.5114670 -17.3253670  26.0537891
 -14.5606384 -17.2345715  25.5389614 -15.2253723 -17.8399944  27.0079784
 -16.4547482 -18.2157631  25.2437496 -17.3787231 -18.3611336  25.8040619
 -16.7191811 -17.8580742  24.2356701 -15.8658361 -19.6321754  25.0033169
 -16.6213760 -20.1348400  24.4079952 -14.9017715 -19.5045528  24.4861336
 -15.5735731 -20.4051094  26.2261581 -16.0045414 -20.0720711  27.0727520
 -14.8501921 -21.4951305  26.2895756 -14.2539711 -22.0060139  25.2781658
 -14.3714037 -21.6434460  24.3500347 -13.7279034 -22.8741188  25.3741665
 -14.8252192 -22.1769218  27.4184399 -15.4630175 -21.9908714  28.2015591
 -14.2644491 -23.0225182  27.4633389 -15.1024160 -15.1166162  27.1710854
 -14.6972170 -15.6035318  28.2409859 -14.7919550 -13.8637629  26.7898407
 -15.3099146 -13.4446573  25.9849815 -13.6975279 -13.0973721  27.4006176
 -12.8468904 -13.7417374  27.4688034 -13.3833685 -11.9251928  26.4592152
 -13.1118927 -12.2839460  25.4755402 -14.3374271 -11.3434896  26.3291187
 -12.3454752 -11.1030407  27.0226765 -12.7285471 -10.4932203  27.6430874
 -13.9018860 -12.6274414  28.8172817 -15.0872622 -12.4564323  29.2755032
 -12.8145399 -12.4239597  29.5200062 -11.9347048 -12.5247335  29.0445538
 -12.7952013 -11.7464256  30.8060303 -13.7747307 -11.8145123  31.3239212
 -11.9710970 -12.1038933  31.4325352 -12.4623718 -10.2823772  30.5987587
 -12.9280415  -9.6392641  29.6399498 -11.5653849  -9.7424755  31.4389515
 -11.0938072 -10.3500261  32.1153984 -11.1771202  -8.3131733  31.4597359
 -11.9861641  -7.6755710  31.8016033 -10.0316753  -8.2340536  32.5174103
 -10.4015350  -8.6081181  33.4830132  -9.2038164  -8.9143705  32.2523575
  -9.4658985  -6.8036318  32.7819099  -8.9768581  -6.5027933  31.8483047
 -10.5390759  -5.7851658  33.1625290 -11.2601461  -6.0822973  33.9003639
 -10.0271311  -4.8914218  33.5040131 -11.1137857  -5.4896374  32.2786026
  -8.4166508  -6.8167381  33.9007912  -7.7857494  -7.6843414  33.7768974
  -7.8464088  -5.8846645  33.9171829  -8.9147482  -6.9299574  34.8482094
 -10.6399336  -7.7691660  30.1461411 -10.8256254  -6.5603170  29.9140148
  -9.9651012  -8.6105423  29.3552513  -9.8976812  -9.5567970  29.7059269
  -9.1344910  -8.2251682  28.1786079  -8.5996418  -7.2705865  28.4309940
  -8.0602760  -9.2698011  27.9158611  -7.5435381  -9.4088802  28.8909321
  -8.6224823 -10.6313705  27.4418621  -9.0853214 -10.5161400  26.4562702
  -7.8408790 -11.4080353  27.4760151  -9.3628922 -10.9507122  28.1595592
  -7.1593289  -8.8640862  26.9020348  -7.5491853  -8.8918762  26.0367088
  -9.9976473  -7.9622946  26.9258480  -9.5082855  -7.8193994  25.8292217
 -11.3232336  -7.8267741  27.0695190 -11.6049204  -7.8516936  28.0550594
 -12.3886480  -7.5830407  26.1101437 -12.4953480  -8.5275726  25.5300064
 -13.6920681  -7.3860407  26.9639874 -14.0615273  -8.3438854  27.2647171
 -13.4888659  -6.7763085  27.8708572 -14.7613449  -6.6036506  26.2578773
 -14.7051811  -5.2397008  25.9910126 -15.8747349  -4.9803023  25.3752117
 -16.1267357  -3.9489076  25.0083008 -16.5978546  -6.0946059  25.1599426
 -17.5336609  -6.1424751  24.7020378 -15.8864613  -7.1192794  25.6973858
 -16.1912231  -8.2033978  25.7709599 -12.0140953  -6.4294343  25.1794052
 -11.9950714  -6.6243334  23.9446068 -11.5484543  -5.3110361  25.7925434
 -11.5672216  -5.2952719  26.8304901 -11.1522789  -4.1014810  25.0808029
 -11.9388065  -3.8414297  24.3625469 -11.0447636  -3.0126681  26.1090832
 -11.9202518  -3.0548718  26.7218628 -10.1520195  -3.1412125  26.7098427
 -10.9984961  -1.6177766  25.4675179 -10.7563601  -0.9457627  26.2386875
 -10.2251244  -1.5982463  24.6778183 -12.3127661  -1.1637359  24.8673744
 -13.1854877  -1.6163840  25.3858585 -12.3614740  -0.0868918  24.9511433
 -12.3725901  -1.4407383  23.4077950 -11.4779177  -1.3310467  22.9101791
 -13.3856401  -1.7505472  22.6715870 -14.5793304  -1.9524956  23.0845623
 -14.8614235  -1.7574562  24.0407581 -15.3485193  -2.0658579  22.3908138
 -13.2139645  -1.8352019  21.3658714 -12.3649740  -1.5700709  20.8961029
 -14.0903749  -1.9246875  20.8452244  -9.8864651  -4.3955398  24.2166309
  -9.8738832  -4.0928621  23.0054550  -8.7893734  -4.9681568  24.7838879
  -8.8257818  -5.1381969  25.7829742  -7.5738721  -5.4041247  24.0209198
  -7.1891403  -4.5659342  23.4945221  -6.4616795  -5.7999439  25.0683117
  -6.0597200  -4.8444505  25.4551105  -7.0300016  -6.2772245  25.8367329
  -5.3361459  -6.7184615  24.5497494  -5.8110852  -7.6678333  24.3098259
  -4.8776073  -6.3025541  23.6652012  -4.3509245  -6.9355111  25.7020359
  -3.8097863  -6.0167861  25.9207993  -4.9523501  -7.1439261  26.5575695
  -3.3996453  -8.0166359  25.4365005  -2.6103458  -7.7963305  24.8116570
  -3.3449898  -9.2275610  25.9532948  -4.2083054  -9.6644268  26.8329048
  -5.0298424  -9.1027317  27.0084362  -4.1021862 -10.4899635  27.3926201
  -2.2967055  -9.9926281  25.7266808  -1.5831823  -9.7527924  25.0408154
  -2.3005598 -10.9007378  26.1662712  -7.9089146  -6.4336596  22.9146557
  -7.4203057  -6.3373337  21.7943192  -8.9038334  -7.2836776  23.1296349
  -9.1797333  -7.4444098  24.0870132  -9.4342213  -8.2548962  22.1428013
  -8.5698471  -8.7609215  21.6876869 -10.3672113  -9.2413511  22.8832054
 -10.0289869  -9.4035616  23.9418392 -11.4070950  -8.8556404  22.8595943
 -10.4015055 -10.6214485  22.2136688 -11.2393970 -11.1967173  22.6700382
 -10.5749054 -10.5320120  21.1192493  -9.1663132 -11.4786539  22.4105911
  -9.2366018 -12.3199196  21.6721058  -8.2648220 -11.0047569  22.1946449
  -9.1564264 -12.1021595  23.8372250  -9.1644106 -11.3382435  24.5868587
 -10.0483465 -12.7047148  24.0144901  -7.9227681 -12.9634371  23.9921417
  -7.1034956 -12.4795628  23.6541939  -7.7902002 -13.2445927  24.9491711
  -7.9793162 -13.7928972  23.3921547 -10.2203760  -7.5776682  21.0239868
 -10.2191315  -8.0603895  19.8877296 -10.9763193  -6.4855404  21.2388439
 -11.2491665  -6.2445617  22.1824760 -11.6564045  -5.7054043  20.1857948
 -11.9363508  -6.4511371  19.4732590 -12.9627905  -5.0788741  20.6771202
 -12.7568064  -4.4506226  21.5427685 -13.2880363  -4.3739223  19.9174347
 -14.2000189  -5.9604979  20.9074669 -13.8763199  -6.9200130  21.2715702
 -15.0848341  -5.4543300  22.0294476 -15.3920269  -4.4449525  21.7817326
 -15.9613276  -6.1137004  22.1019955 -14.5029821  -5.5053763  22.9235535
 -14.9885073  -6.1386247  19.6515694 -14.4732752  -6.5880136  18.8085861
 -15.8990850  -6.7291780  19.8993111 -15.2971020  -5.1234956  19.3839951
 -10.7230520  -4.6760931  19.4953175 -10.8280392  -4.5091681  18.3104839
  -9.7076235  -4.1099567  20.1932449  -9.6793613  -4.3417535  21.1825676
  -8.5590973  -3.4908721  19.5501156  -8.8848667  -2.6037660  19.0996246
  -7.4917264  -3.0690756  20.5821533  -8.0689898  -2.6410925  21.4305096
  -6.9637055  -3.9993834  21.0340424  -6.4625702  -1.9887092  20.1939869
  -6.9609208  -1.1943121  19.6454353  -5.9735231  -1.6445775  21.1044579
  -5.2660990  -2.5299704  19.3406887  -4.8005748  -3.3574769  19.8599262
  -5.6361489  -2.8369358  18.3348465  -4.1896782  -1.5170180  19.2039223
  -4.2244368  -0.9803462  18.3191109  -3.3377099  -1.0451030  20.0659771
  -3.1074276  -1.5433927  21.2357254  -3.6208248  -2.3857780  21.5081406
  -2.1716175  -1.4051591  21.6263866  -2.6250439  -0.0358698  19.6992779
  -2.7752261   0.4906043  18.8082619  -1.8336148   0.2646018  20.2752476
  -7.9847713  -4.3893414  18.4736061  -7.7715254  -3.9548831  17.3102798
  -7.7233815  -5.6647944  18.7632656  -7.7736311  -5.9001904  19.7338104
  -7.2134323  -6.6182132  17.7805367  -6.4484415  -6.0934405  17.2045937
  -6.5448136  -7.8263063  18.5115662  -7.2112250  -8.2662725  19.2567406
  -6.2786493  -8.6092854  17.7387676  -5.6768870  -7.4542007  19.0421696
  -8.1990414  -6.9646411  16.6658764  -7.8162522  -6.9402676  15.5072460
  -9.5048599  -7.1161623  16.9958382  -9.7279615  -7.0667229  17.9787560
 -10.5770550  -7.2186732  15.9906664 -10.3729744  -8.1208658  15.3574896
 -11.9289770  -7.4770842  16.6772289 -12.2762194  -6.5464015  17.0724373
 -12.6997557  -7.8227968  15.9773064 -11.8176603  -8.2170076  17.4308548
 -10.6621351  -6.0552568  14.9887800 -10.8029356  -6.2773952  13.7933731
 -10.4986811  -4.7954373  15.4439106 -10.5080881  -4.6790705  16.4419785
 -10.4887066  -3.6044157  14.5974340 -11.4757776  -3.6100802  14.1984072
 -10.2338505  -2.3086340  15.3533764  -9.6102028  -2.4731591  16.2086830
  -9.6945076  -1.5596588  14.7125969 -11.5129614  -1.6534902  15.7375631
 -12.1027651  -1.4903717  16.9465275 -11.7597713  -1.9649714  17.8908806
 -13.2396650  -0.7486365  16.7972107 -13.9464245  -0.7360024  17.5699615
 -13.5006418  -0.5050813  15.5031033 -14.6079245   0.0849127  14.8576593
 -15.4098454   0.4310421  15.4094419 -14.5334005   0.2605481  13.4268723
 -15.3794918   0.6726605  12.8217239 -13.4330807  -0.2056998  12.7060232
 -13.4389067  -0.0409927  11.6175890 -12.3903313  -0.8534321  13.3695326
 -11.5452518  -1.1936946  12.8056145 -12.3778057  -1.0012755  14.8040876
  -9.5611153  -3.7187133  13.4268417  -9.9247761  -3.5437083  12.2718735
  -8.2886162  -3.9984729  13.6884584  -7.9815159  -4.1185770  14.6689749
  -7.2828250  -4.0005484  12.5927439  -7.4454641  -3.1331673  11.9431458
  -5.8234067  -3.8684430  13.1592312  -5.7667994  -3.1956336  14.0464077
  -5.2306199  -5.1600080  13.6697674  -5.0706964  -5.8938999  12.8447905
  -4.2552500  -4.8941832  14.1137161  -5.8931952  -5.6121664  14.3999786
  -4.8309522  -3.4491823  12.0638266  -5.1029944  -2.4759002  11.7604914
  -3.8250902  -3.4114614  12.4539948  -4.7785444  -4.1496444  11.1893368
  -7.4046717  -5.1290994  11.5993443  -7.2237945  -4.9194202  10.4307690
  -7.7441807  -6.3395305  12.1149311  -7.7952652  -6.4300771  13.1319427
  -8.1015568  -7.5354509  11.3552284  -7.1991868  -7.7742119  10.7738008
  -8.3915215  -8.7207594  12.3030424  -9.2928944  -8.4605398  12.8645382
  -8.5843859  -9.5745506  11.6423788  -7.5089912  -8.9318876  12.9231253
  -9.3060999  -7.3490486  10.4381428  -9.2160521  -7.6382694   9.2869968
 -10.4048080  -6.7435598  10.9325657 -10.3908911  -6.4882512  11.9120979
 -11.5415487  -6.3204904  10.1532450 -11.9690275  -7.1763735   9.6151085
 -12.3188934  -5.9708734  10.8496389 -11.1736622  -5.2594752   9.1227417
 -11.3463068  -5.4900317   7.9073210 -10.5107250  -4.1721902   9.6138935
 -10.5373058  -3.9563167  10.6028605 -10.0616074  -3.0439985   8.7576294
 -10.8953819  -2.5191488   8.3722830  -9.5870800  -2.3281999   9.4304314
  -9.1311226  -3.5943482   7.6148410  -9.1946001  -3.0575609   6.5093155
  -8.3371496  -4.6072330   7.8630805  -8.2610083  -4.9875374   8.8061485
  -7.4736285  -5.2249169   6.8339491  -6.8724747  -4.3917437   6.3510618
  -6.4901423  -6.1616879   7.4888687  -6.9156475  -7.0276031   8.0265818
  -5.8221145  -6.6420131   6.7872429  -5.8274536  -5.5841203   8.1972198
  -8.3229532  -5.8786201   5.7294126  -8.0964937  -5.5620165   4.5378070
  -9.3333864  -6.7245479   6.0839777  -9.5077286  -6.7241769   7.0532298
 -10.2462435  -7.3570976   5.1126866  -9.6300373  -8.0092230   4.4477262
 -11.2731161  -8.2500973   5.8949475 -10.6781759  -8.8516302   6.5182028
 -11.8998737  -7.7010751   6.5577598 -12.1570673  -9.1449251   5.0365634
 -11.7106161  -9.3097105   4.0464373 -12.2405052 -10.5076828   5.6870670
 -12.5940647 -10.5562983   6.7501659 -12.9199314 -11.1641235   5.0967889
 -11.2859688 -10.9869967   5.6133566 -13.5976877  -8.6973648   4.8920636
 -13.6337528  -7.7241702   4.4507928 -14.1686430  -9.3318186   4.2037082
 -14.0903940  -8.5554419   5.8715124 -11.0402031  -6.3556585   4.3452449
 -11.2200651  -6.4643984   3.1366744 -11.4652548  -5.3142667   5.0376654
 -11.2225342  -5.3224573   6.0309453 -12.2063017  -4.1409206   4.4848890
 -13.0573597  -4.5484600   3.9148941 -12.7642260  -3.3428428   5.6886463
 -12.0127096  -3.3655870   6.4751873 -12.9348183  -2.3381186   5.3612094
 -14.0644922  -3.9417853   6.2469144 -14.8349848  -3.4986117   5.6684523
 -14.3110933  -5.4566808   6.2682724 -13.4307194  -5.9500937   6.6454182
 -15.1931229  -5.6804824   6.8815536 -14.4884787  -5.8104997   5.2484660
 -14.2877159  -3.4094012   7.6873260 -14.1374578  -2.3730419   7.6888347
 -15.3273830  -3.5734894   7.9876237 -13.6041536  -3.7900841   8.3875332
 -11.3784943  -3.3233044   3.5464196 -11.8230190  -3.0309062   2.4710665
 -10.1548157  -2.9592447   3.8959358  -9.8157415  -3.1840026   4.8440413
  -9.3107405  -2.2386961   2.9243088  -9.8851032  -1.4110675   2.4507666
  -8.0643101  -1.4997759   3.5127630  -8.3819571  -0.8655440   4.3245721
  -6.9064717  -2.3941829   4.0390635  -6.4475212  -2.9354408   3.1788919
  -6.1136317  -1.7215298   4.4340625  -7.2655888  -3.1557655   4.7202330
  -7.5342150  -0.6966752   2.4847708  -6.6690898  -0.3754468   2.7514400
  -8.9430094  -3.0921950   1.7115414  -9.0930910  -2.6178422   0.5803055
  -8.6588097  -4.4083300   1.8847446  -8.5454760  -4.7305236   2.8256111
  -8.3410320  -5.2973609   0.7850199  -7.4779754  -4.8962064   0.2328993
  -7.9743438  -6.7412133   1.2736285  -8.7136660  -7.0887465   2.0194926
  -8.0461483  -7.4092922   0.4603249  -6.6231585  -6.8800302   1.9668740
  -6.5303321  -6.1195211   2.7504406  -6.5658207  -8.2453356   2.6809835
  -6.6747279  -9.0305176   1.9759952  -5.5885181  -8.3878994   3.1748817
  -7.3946519  -8.3759127   3.4459293  -5.4137654  -6.7558045   1.0303082
  -5.5269880  -5.8588166   0.5223859  -4.4280424  -6.7639694   1.4976715
  -5.4741030  -7.5619755   0.3404546  -9.5365124  -5.3142190  -0.2227280
  -9.3240757  -5.0015211  -1.3853350 -10.7926226  -5.6333599   0.1980639
 -10.8588896  -5.8467464   1.1572260 -12.0107784  -5.7098918  -0.6057686
 -11.9530296  -6.4203453  -1.4593806 -13.1766405  -6.1697798   0.3054580
 -13.0670881  -5.8233876   1.3347061 -14.0715017  -5.6901507  -0.0303935
 -13.4912024  -7.6901746   0.2691319 -13.8688049  -8.0095005  -0.6760271
 -12.2154522  -8.5699329   0.5117853 -11.7695274  -8.3954868   1.5245377
 -12.6024818  -9.6011581   0.4964459 -11.5051832  -8.3466454  -0.2668273
 -14.5959997  -7.8974028   1.3127202 -15.5050983  -7.2894092   1.1525253
 -14.9106798  -8.9231262   1.2318147 -14.2219725  -7.7433581   2.3125646
 -12.3474598  -4.3364449  -1.2495334 -12.8516016  -4.3108292  -2.3710008
 -12.0080385  -3.1564646  -0.6945479 -11.6115389  -3.1904528   0.2244000
 -12.3851347  -1.8519037  -1.3037239 -13.3659477  -1.8670012  -1.7215055
 -12.4852095  -0.8103192  -0.2204329 -13.1008015  -1.1953932   0.5578829
 -11.5255270  -0.7593904   0.3279724 -12.9405060   0.5744181  -0.6102018
 -13.7120190   0.4849562  -1.3959982 -13.6006556   1.1446940   0.6489878
 -12.8887644   1.1254944   1.4443432 -13.8979912   2.1828907   0.5573888
 -14.4189606   0.5040610   0.9587566 -11.8203831   1.4975386  -1.0717458
 -11.0120764   1.5879323  -0.3357959 -11.4200401   1.2662100  -2.0247447
 -12.2609949   2.5524096  -1.1697305 -11.3199606  -1.3928545  -2.3304553
 -11.6839018  -1.0280859  -3.4578946 -10.0543127  -1.4069991  -1.9517897
  -9.8040171  -1.7597257  -1.0116607  -9.0278912  -0.8767668  -2.8479748
  -9.4031153   0.0112682  -3.3581305  -7.8954077  -0.3416021  -1.9966824
  -7.3327599  -1.1703534  -1.5560730  -7.1336422   0.2100511  -2.5955167
  -8.4176283   0.7753757  -0.6014482  -9.0980148  -0.1183063   0.1322479
  -8.4753752  -1.8095794  -3.9380691  -8.1019011  -1.3809611  -5.0110364
  -8.3279543  -3.1130815  -3.5773456  -8.5828247  -3.4345388  -2.6529262
  -7.3826771  -3.9731886  -4.3711333  -7.1587987  -3.4393814  -5.2692060
  -6.0634575  -4.2187066  -3.6692383  -5.5075197  -4.9568124  -4.2241182
  -5.1701603  -2.9917238  -3.6044452  -5.5678635  -2.1394756  -3.0309067
  -4.2388077  -3.2064085  -3.1971931  -5.0478911  -2.6062105  -4.6584272
  -6.1350055  -4.8262744  -2.2748573  -6.7382665  -5.7202392  -2.4378154
  -5.1132064  -4.9411907  -1.9061850  -6.6888423  -4.2316298  -1.5629483
  -8.0441847  -5.2760177  -4.7707243  -7.7112370  -5.8333311  -5.8192568
  -9.0683784  -5.7896113  -4.0557604  -9.3074217  -5.2628307  -3.2074251
  -9.8627844  -6.9795566  -4.4572287  -9.1820564  -7.8625464  -4.5553851
 -10.6736031  -7.1343040  -3.7608063 -10.4168596  -6.8438478  -5.8619661
 -10.1684971  -7.7011156  -6.6884942 -11.1994352  -5.7899022  -6.2170548
 -11.6848183  -4.7914472  -5.2779717 -10.8513536  -4.0936527  -5.0104785
 -12.0307722  -5.3013225  -4.3750849 -12.8400249  -4.1387477  -6.0062847
 -12.8891888  -3.0535688  -5.7721610 -13.7930298  -4.6146326  -5.7840166
 -12.5424948  -4.2994542  -7.4769430 -12.0025368  -3.4376531  -7.8381639
 -13.4402313  -4.3752174  -8.0232391 -11.6640196  -5.5679493  -7.5550961
 -12.3502274  -6.3682013  -7.8241401 -10.5749216  -5.4426045  -8.6121922
 -10.6170454  -6.0258384  -9.6866035  -9.5259609  -4.6595631  -8.3441887
  -9.5234222  -4.2300549  -7.4588399  -8.3320446  -4.5272131  -9.1862831
  -8.6015167  -4.0380297 -10.1736279  -7.3582764  -3.5001400  -8.5379963
  -7.7426581  -2.4346931  -8.7389622  -7.4824963  -3.5245004  -7.3835254
  -5.9114785  -3.5944126  -8.9660921  -5.5061984  -3.0028248 -10.1704311
  -6.3195238  -2.5920014 -10.8449574  -4.1924644  -3.1196606 -10.5783167
  -3.9557376  -2.8051994 -11.5691910  -3.2434261  -3.7842000  -9.7780933
  -2.0358343  -4.1065907 -10.2577782  -1.6697873  -4.9101796  -9.8277941
  -3.6425755  -4.3029680  -8.5262098  -2.8923047  -4.7779922  -7.9338212
  -4.9834237  -4.2274551  -8.1662159  -5.2778358  -4.6402016  -7.2174416
  -7.7169538  -5.8575268  -9.4718609  -7.5849528  -6.2610297 -10.6256247
  -7.3696799  -6.5964699  -8.4373875  -7.5710230  -6.2123818  -7.5132728
  -6.7512207  -7.9635835  -8.4847946  -5.8024483  -7.8971648  -9.0236702
  -6.4318085  -8.4246931  -7.0492864  -7.2899103  -8.2224026  -6.4303203
  -6.2645240  -9.4754105  -6.9601135  -5.1512523  -7.7288775  -6.4427404
  -5.0672812  -7.3596721  -5.2567577  -4.0680475  -7.6304817  -7.2299910
  -3.3158660  -7.0488472  -6.8386388  -4.0591216  -7.8744144  -8.1900730
  -7.6120090  -8.9899998  -9.2582941  -7.1180940  -9.6169558 -10.1704693
  -8.9200764  -9.0894060  -8.9009180  -9.2412796  -8.6123524  -8.0722513
  -9.8715372  -9.9573936  -9.5811834  -9.5581350 -10.9726257  -9.5527372
 -11.2632236  -9.7881212  -8.9784956 -11.5332127  -8.7603531  -9.0825367
 -11.8575754 -10.3998384  -9.6279202 -11.3378992 -10.1201239  -7.9466414
  -9.9851980  -9.6130428 -11.0809050  -9.9753819 -10.5068121 -11.9328489
 -10.0782022  -8.3088579 -11.4760990  -9.9946136  -7.5768995 -10.7831373
 -10.1908865  -7.9438453 -12.9173660 -11.0485134  -8.3922005 -13.3636484
 -10.4676008  -6.4450283 -12.9978800 -11.4630690  -6.2728577 -12.6555786
  -9.6969547  -5.9860334 -12.3909492 -10.2391577  -5.9198709 -14.2880402
 -10.3730116  -4.9321847 -14.2739916  -8.9629450  -8.3666515 -13.6943932
  -9.0317259  -9.0277834 -14.6917143  -7.7915001  -8.1325998 -13.1737671
  -7.7230034  -7.6019907 -12.2969685  -6.4721589  -8.5996780 -13.7788887
  -6.4810319  -8.2005720 -14.8224154  -5.3143716  -7.8699360 -12.9995298
  -5.3784890  -8.0598907 -11.8819895  -4.3509550  -8.3027277 -13.3138323
  -5.2805753  -6.4142680 -13.4252167  -4.7554207  -5.9803219 -14.4396114
  -5.7939935  -5.4744525 -12.6190386  -5.6220822  -4.4816923 -12.8431282
  -6.3880963  -5.6578941 -11.7989273  -6.1887550 -10.0961504 -13.9167776
  -5.5856938 -10.5017290 -14.9456558  -6.7562084 -10.8662367 -13.0140295
  -7.2334461 -10.3936539 -12.2470942  -6.8608947 -12.3243275 -13.0448284
  -5.8294368 -12.7279234 -13.2889509  -7.2994800 -12.8809376 -11.6726770
  -8.1874437 -12.3513498 -11.3923464  -7.8087091 -14.3231068 -11.6760454
  -7.0521932 -14.9396410 -12.0894136  -8.1364031 -14.6610632 -10.7027779
  -8.6856117 -14.4346428 -12.3120108  -6.1736698 -12.7133179 -10.6419325
  -5.9209948 -11.6732159 -10.5986643  -6.5005488 -13.0339336  -9.6349907
  -5.3437381 -13.3471384 -10.8546543  -7.7839894 -12.6725826 -14.2058811
  -7.3020048 -13.3513470 -15.1282015  -9.0467024 -12.2493210 -14.1334934
  -9.3148117 -11.7482319 -13.2899799 -10.0237894 -12.4410715 -15.1917543
 -10.2407370 -13.4777126 -15.2435789 -11.3075209 -11.7569256 -14.6688309
 -11.1574306 -10.7023144 -14.3084297 -12.0183172 -11.7922592 -15.4708977
 -11.6668072 -12.2719297 -13.7956953  -9.5646162 -11.9404306 -16.5958881
  -9.8490086 -12.6276026 -17.5657253  -8.8373356 -10.8367481 -16.6914768
  -8.5841007 -10.3349676 -15.8362217  -8.3972359 -10.2684631 -17.9509335
  -9.2249432 -10.2994556 -18.7013626  -7.9035707  -8.7929611 -17.8054028
  -7.1144347  -8.7570324 -17.0628777  -7.6197491  -8.3716221 -18.7672634
  -8.9440012  -7.9528308 -17.3586617  -9.2589064  -8.3132782 -16.5558796
  -7.1658902 -11.0395346 -18.5867043  -6.9466968 -10.8836460 -19.7546406
  -6.4538574 -11.8731403 -17.7978821  -6.7047596 -11.9871464 -16.8394089
  -5.5051165 -12.8478966 -18.3398132  -5.1708360 -12.5704851 -19.3815594
  -4.2878656 -12.9726944 -17.4174824  -3.6812668 -12.0533581 -17.3723106
  -4.6875200 -13.1010838 -16.3952656  -3.3153679 -14.0683880 -17.8239460
  -2.6124966 -13.9676571 -19.0759659  -2.7690146 -13.1559134 -19.8141994
  -1.6255354 -14.9340239 -19.4292488  -1.0588704 -14.8829193 -20.3525772
  -1.3978696 -16.0149651 -18.5893021  -0.5831358 -16.6816521 -18.9450264
  -2.1667871 -16.1713181 -17.3947010  -1.8980838 -17.0163746 -16.7359600
  -3.0398104 -15.1535997 -16.9824486  -3.5580537 -15.2407837 -16.0374947
  -6.1543322 -14.1846285 -18.6429100  -6.2095170 -14.6283627 -19.8082714
  -6.8174796 -14.7871122 -17.6600246  -6.8352861 -14.3044586 -16.7739143
  -7.5042911 -16.0677719 -17.7023067  -6.8079138 -16.9145966 -17.9227028
  -8.1567926 -16.3703346 -16.3105316  -7.3499703 -16.3478889 -15.5568018
  -8.8194208 -15.5588255 -16.0662670  -8.9980040 -17.6898518 -16.2606049
  -9.7819767 -17.7182980 -16.9767227  -8.1513319 -18.9344559 -16.5579052
  -7.2966843 -18.8852768 -15.8673277  -8.7776165 -19.8331909 -16.4206104
  -7.8135977 -18.8274765 -17.6217422  -9.5849915 -17.9310513 -14.9000664
 -10.3302917 -17.1676083 -14.6498775 -10.0728083 -18.8818722 -14.9565811
  -8.7835121 -17.9108734 -14.1799469  -8.5560513 -16.1218605 -18.8438339
  -8.5789366 -17.1283875 -19.5723114  -9.3022261 -15.0058842 -19.0553150
  -9.0763321 -14.2384338 -18.4113369 -10.1933289 -14.6694489 -20.1396923
 -10.1462603 -15.5735989 -20.7713814 -11.6563139 -14.4766140 -19.6075268
 -11.6917238 -13.5848293 -19.0216732 -12.3173857 -14.3616505 -20.4808216
 -12.1536655 -15.5716848 -18.7013493 -12.6091766 -16.7990131 -19.2389202
 -12.5924864 -16.9276314 -20.3217392 -12.9030046 -17.8737316 -18.3711777
 -13.1479826 -18.8438988 -18.7575359 -12.9027367 -17.7042236 -16.9595795
 -13.1944332 -18.6847610 -16.1252193 -13.2671375 -19.5630226 -16.5589409
 -12.5675726 -16.4188156 -16.4103527 -12.5903625 -16.2196121 -15.3541422
 -12.2582140 -15.3723392 -17.3033161 -11.9576359 -14.4112968 -16.8494625
  -9.6609821 -13.4227753 -20.9347553  -9.7783365 -12.2898684 -20.3851395
  -9.0926666 -13.5741901 -22.1605377  -9.2109222 -14.7866478 -22.9198093
 -10.2486935 -14.9871063 -23.1445732  -8.7847338 -15.6086073 -22.3248081
  -8.5554514 -14.5795307 -24.2801552  -9.2836628 -14.1734800 -25.0344124
  -7.9784555 -15.4422340 -24.6732063  -7.5285344 -13.5121965 -23.9355297
  -7.2644720 -12.9127493 -24.8591976  -6.6426516 -13.9919844 -23.4960938
  -8.1911001 -12.6566067 -22.8262901  -7.4803691 -12.3500671 -22.0645542
  -8.8793774 -11.4302588 -23.4585648  -8.2225428 -10.4211187 -23.8175983
 -10.1904297 -11.4983740 -23.6492996 -10.6754074 -12.3177824 -23.3268452
 -10.9683084 -10.5229492 -24.3686466 -10.2520981  -9.8710279 -24.8616791
 -11.7448826 -11.3134775 -25.4235630 -12.1470394 -10.5236816 -26.1268406
 -10.9742403 -11.8868637 -25.9827328 -12.8845778 -12.1356411 -24.8945732
 -13.1304569 -12.3482790 -23.7018433 -13.5963812 -12.7265654 -25.8368702
 -14.3061247 -13.3492794 -25.5027122 -13.2724180 -12.7225933 -26.7853718
 -11.7783871  -9.6298237 -23.4107857 -12.5821028  -8.8395176 -23.9314747
 -11.6073132  -9.6503096 -22.0801716 -11.1628475 -10.4778519 -21.7348118
 -12.3537149  -8.7854223 -21.1155434 -13.4082794  -8.7672310 -21.3345833
 -12.1979771  -9.4580307 -19.7240429 -12.6876554 -10.4501143 -19.8065853
 -11.1425438  -9.6739368 -19.5630569 -12.7384624  -8.7404556 -18.5213928
 -12.3566427  -7.7175498 -18.4386578 -14.2446156  -8.5977507 -18.4019947
 -14.7140036  -9.5618553 -18.6565247 -14.4705029  -8.3514853 -17.3786850
 -14.5557299  -7.8414392 -19.0473862 -12.1892452  -9.5094252 -17.3147202
 -11.0921612  -9.6029387 -17.2488689 -12.6576986  -9.0860472 -16.4113159
 -12.5753889 -10.5553617 -17.3646240 -11.9629993  -7.2497706 -21.1286907
 -10.8121777  -6.8441162 -21.1522179 -13.0224791  -6.4337487 -21.0448818
 -13.9242067  -6.8232174 -20.9727211 -12.9796114  -4.9593391 -21.1842327
 -12.6577854  -4.6818194 -22.2402287 -13.9857922  -4.5401821 -21.0185432
 -11.9006748  -4.2132463 -20.3186970 -11.8560219  -4.4211941 -19.0991039
 -11.1527739  -3.2953320 -20.9444828 -11.2731037  -3.0158119 -21.9186440
 -10.1695557  -2.4643936 -20.2305679  -9.3898973  -3.0477235 -19.7270260
  -9.7164478  -1.7686970 -20.9135723 -10.7672873  -1.5778035 -19.1623554
 -10.0000753  -1.2561232 -18.2318497 -12.0430889  -1.1932092 -19.2755432
 -12.5094452  -1.3209413 -20.1797867 -12.7630472  -0.4407082 -18.2018566
 -12.4283495   0.5807971 -18.1999607 -14.2737284  -0.4337260 -18.5525055
 -14.4324675   0.1408452 -19.4485931 -14.6433563  -1.4450074 -18.8007927
 -15.1169815   0.0961526 -17.5053177 -15.1715231  -0.5494325 -16.7843342
 -12.4857283  -1.0470604 -16.8374596 -12.1543608  -0.3766285 -15.8901873
 -12.6506348  -2.3958311 -16.7873764 -13.0508795  -2.8834805 -17.5612431
 -12.4672718  -3.1171272 -15.5137253 -13.0633678  -2.5566270 -14.8147869
 -13.1741276  -4.4803686 -15.6511936 -12.4456615  -5.1427317 -16.1538963
 -13.2179441  -4.8919497 -14.6787682 -14.4506664  -4.5242915 -16.3959141
 -14.6960344  -5.2955823 -17.4976845 -13.9231205  -5.8750386 -17.9877224
 -15.8839893  -4.9628730 -18.1111240 -16.1376038  -5.3440423 -19.0244370
 -16.5246143  -3.9188502 -17.4155331 -17.6151066  -3.1190872 -17.6701126
 -18.2253494  -3.2723060 -18.5295143 -17.9848385  -2.1574492 -16.7095585
 -18.8750191  -1.5625070 -16.8489933 -17.1698685  -1.8670703 -15.6288538
 -17.4031029  -1.0433874 -15.0096998 -15.9730473  -2.5725088 -15.4793568
 -15.3115549  -2.4044862 -14.6581221 -15.6520691  -3.6489174 -16.3063278
 -11.0350246  -3.0633078 -14.9558067 -10.8859911  -3.2803416 -13.7355766
  -9.9758186  -2.8446963 -15.7393875 -10.1539698  -2.7747011 -16.7475662
  -8.6417255  -2.5032439 -15.2983561  -8.4127703  -3.0878332 -14.4598598
  -7.5782962  -2.8788326 -16.3819084  -7.5926886  -3.9777303 -16.4369125
  -7.7751279  -2.4427946 -17.4034290  -6.1823697  -2.4818411 -15.9448147
  -6.1327772  -1.3465300 -15.9146748  -6.0569234  -2.8569841 -14.9273977
  -5.0445838  -2.9043684 -16.9008217  -4.8578467  -3.9592147 -16.9297829
  -5.2542253  -2.5055931 -17.9253597  -3.8246107  -2.1739159 -16.4278679
  -3.7099266  -1.2744223 -16.8533287  -2.9261651  -2.5719142 -15.5585861
  -2.9241543  -3.7368331 -14.9742184  -3.6643836  -4.3951406 -15.2402220
  -2.1896875  -3.9674852 -14.3116045  -1.9711381  -1.7600356 -15.2063007
  -2.1434588  -0.8257169 -15.5894136  -1.3062017  -1.9609303 -14.4965649
  -8.5876856  -1.0278342 -14.7653379  -8.3370686  -0.7972756 -13.5546169
  -8.9789047  -0.0559949 -15.5794897  -9.1882830  -0.3224087 -16.5417862
  -9.0025473   1.3800513 -15.2798042  -7.9789667   1.6916585 -15.1226292
  -9.5323114   2.0260379 -16.5561180 -10.4738674   1.6076844 -16.9085026
  -9.7402601   3.0620172 -16.3201847  -8.5678520   1.9108473 -17.7687759
  -7.7175593   2.6046326 -17.6663418  -8.0092773   0.9468580 -17.8893585
  -9.2276793   2.2059560 -19.1471062  -8.5638371   1.9209980 -19.9638157
 -10.1762762   1.6555324 -19.2230873  -9.5092592   3.7435617 -19.2135010
 -10.0867996   4.0397229 -18.3544960  -8.5648251   4.2508230 -19.2009087
 -10.3366175   4.1045351 -20.3860703 -11.2408152   3.6335063 -20.3278179
 -10.4801292   5.0672350 -20.4921837  -9.9560299   3.8277349 -21.2581615
  -9.7878428   1.6915346 -14.0108452  -9.2668905   2.3458233 -13.1266327
 -11.0550537   1.2442271 -13.8861513 -11.4796152   0.6546659 -14.5927057
 -11.8747892   1.4474641 -12.6296091 -11.7347670   2.5077586 -12.4395847
 -13.3309259   1.0252663 -12.7341423 -13.3379040   0.1124760 -13.3983984
 -13.7075729   0.7389486 -11.7320910 -14.2177725   2.1402726 -13.3042803
 -14.0801897   3.0367980 -12.6987648 -13.9150991   2.5069723 -14.7509470
 -14.1802521   1.6928070 -15.4799881 -14.5335693   3.3503470 -15.0498953
 -12.8914442   2.7619150 -14.8482456 -15.6762829   1.7008303 -13.1530848
 -15.9142151   1.4665725 -12.1061945 -16.2812271   2.6219270 -13.3581057
 -15.9158888   0.9428413 -13.8884010 -11.2970152   0.7447901 -11.4630814
 -11.3519344   1.3255094 -10.3959503 -10.6345835  -0.4052684 -11.6358767
 -10.5981016  -0.8030316 -12.5261164  -9.7696762  -1.0072423 -10.5644903
 -10.4468050  -1.4278342  -9.8350639  -9.2925396  -1.8484257 -11.0759935
  -8.7241745  -0.0815645  -9.9201012  -8.6752949   0.0407997  -8.7169590
  -7.9810886   0.6109684 -10.7767715  -8.1558666   0.4457386 -11.7781353
  -7.0323205   1.6742378 -10.3577824  -6.3238091   1.2896346  -9.6046228
  -6.1973262   2.1732802 -11.5609131  -6.8705416   2.3987191 -12.4191179
  -5.7522030   3.1269262 -11.2642756  -4.9999447   1.2040908 -11.8422461
  -4.5970364   0.8464832 -10.8807268  -5.2802248  -0.0342041 -12.7195644
  -5.5442710   0.2036521 -13.7569103  -4.3030052  -0.5711470 -12.7599916
  -6.0639057  -0.6549609 -12.3438368  -3.8164184   1.9456434 -12.5192833
  -3.5602367   2.7492511 -11.8140697  -2.9447422   1.2909936 -12.5396528
  -4.0518723   2.2718470 -13.5027304  -7.7364020   2.8900518  -9.7261219
  -7.2317991   3.4149203  -8.7277279  -8.8529835   3.3389065 -10.2927580
  -9.1730013   3.0097418 -11.2120008  -9.6354733   4.3565049  -9.6752224
  -8.9707966   5.2167554  -9.4292526 -10.8217049   4.9776945 -10.5466566
 -11.5735636   4.2169714 -10.7477303 -11.5324888   6.1566410  -9.8476677
 -10.8318434   6.9561286  -9.6800613 -12.3355474   6.5717368 -10.4355993
 -11.8641224   5.9400921  -8.8353128 -10.2376022   5.4712243 -11.8848906
  -9.8386078   6.4646015 -11.8517733  -9.3911018   4.8815913 -12.1987810
 -11.2722826   5.4665709 -13.0180464 -12.0224380   6.2083716 -12.7772989
 -10.8316669   5.7893038 -13.9848986 -11.7539892   4.4775429 -13.1530228
 -10.0190020   3.9603794  -8.2114525  -9.7360601   4.6962981  -7.2785754
 -10.6159267   2.7773979  -7.9911895 -10.9542265   2.1798279  -8.7506876
 -10.8646193   2.2921829  -6.6115670 -11.2839689   3.2122276  -6.1233978
 -11.9391737   1.2357926  -6.5317798 -12.6843185   1.4819585  -7.2600369
 -11.4363918  -0.1953644  -6.8413882 -10.5404482  -0.4024532  -6.2785506
 -12.2090092  -0.8729529  -6.5224838 -11.2261238  -0.3827420  -7.8829775
 -12.5188074   1.1419219  -5.2399373 -11.9847126   0.4893691  -4.7678847
  -9.6092644   1.9961269  -5.7389350  -9.6256371   2.0850101  -4.5297284
  -8.4360857   1.7444683  -6.3953333  -8.5005913   1.8040931  -7.4155231
  -7.1008706   1.7071210  -5.7945228  -7.0348930   0.8656883  -5.1252298
  -6.3720746   1.5205102  -6.5791297  -6.6895843   2.9725430  -5.0415921
  -6.1408086   2.8824697  -3.9563825  -7.0298071   4.1231928  -5.5895419
  -7.4372764   4.1025038  -6.5056796  -6.7241526   5.4323502  -5.0872421
  -5.6602473   5.6832142  -5.3901005  -7.6191564   6.5010066  -5.7632070
  -8.6620607   6.3520188  -5.4980345  -7.2857141   7.4902415  -5.5222349
  -7.5200915   6.3080926  -6.8220816  -6.8782644   5.5774803  -3.5486438
  -6.0437698   6.1307201  -2.8266027  -7.9356484   4.9955964  -2.9841256
  -8.5565653   4.4264274  -3.5321367  -8.2789021   5.0472732  -1.5454185
  -8.4185820   6.1070943  -1.2545532  -9.6456566   4.4014912  -1.2386776
  -9.5444660   3.4251201  -1.6650629  -9.7613182   4.3090720  -0.1613940
 -10.7242670   5.1928325  -1.9284297 -11.3913498   4.7387772  -3.0226140
 -11.2685318   3.7218502  -3.4437122 -12.1836386   5.7692623  -3.5422096
 -12.7686043   5.6488252  -4.3322353 -12.0859327   6.9038029  -2.7450802
 -12.6887369   8.1664524  -2.7834878 -13.3873100   8.4077778  -3.5881429
 -12.3589039   9.1099682  -1.7427726 -12.7928152  10.1049509  -1.7661716
 -11.4583578   8.7782545  -0.7362070 -11.0674210   9.4985428  -0.0457599
 -10.8972702   7.4756212  -0.6867387 -10.2133799   7.1957088   0.1312799
 -11.1750593   6.5471416  -1.7260927  -7.2349744   4.4252481  -0.6350645
  -7.0628910   4.9061894   0.4832659  -6.4639611   3.4399655  -1.1570369
  -6.5549092   3.2409177  -2.1206279  -5.3863382   2.7591352  -0.4005231
  -5.8912659   2.1329045   0.3184212  -4.5113239   1.8952591  -1.3236456
  -5.1581836   1.0963066  -1.7021078  -4.1954594   2.5616000  -2.1251686
  -3.4035163   1.3267475  -0.6726896  -3.5741448   0.4070948  -0.5963513
  -4.4508333   3.7500176   0.3892961  -4.1135035   3.6152058   1.5801830
  -4.1129279   4.8961320  -0.2616588  -4.4715023   4.9392552  -1.2016064
  -3.3222721   6.0705376   0.2559033  -2.3396215   5.7378078   0.5626329
  -3.1337812   7.1193881  -0.8808047  -4.1251059   7.2844563  -1.3578867
  -2.6594033   8.5181026  -0.4865377  -1.8235015   8.3186541   0.1957150
  -2.2333174   9.1224298  -1.3369353  -3.3911519   9.0949507   0.0388942
  -2.2381101   6.6341834  -1.9870179  -2.6252046   5.6655722  -2.3858323
  -2.2085145   7.3417063  -2.7837186  -1.1935518   6.4801950  -1.6548626
  -3.9590144   6.7674680   1.5174677  -3.2230616   7.0531697   2.4601359
  -5.2818084   6.8351107   1.6876304  -5.8241792   6.3143392   1.0073085
  -5.9589262   7.2973442   2.9243879  -5.2301416   7.9093313   3.5155308
  -7.0995946   8.2739506   2.5688753  -6.6210456   9.1694584   2.2351844
  -8.0345907   7.7937527   1.4309456  -8.5101433   6.9149547   1.7920274
  -8.7521191   8.5644302   1.1929270  -7.3730855   7.6036644   0.5515710
  -7.8843379   8.6270542   3.8135312  -7.1866612   8.9278908   4.6050482
  -8.5629950   9.4571428   3.7072148  -8.4994516   7.8209000   4.1714916
  -6.4336786   6.1303191   3.8194599  -6.3436513   6.1944885   5.0418849
  -6.9435797   5.0464673   3.1846480  -6.9673657   4.9090447   2.2073510
  -7.5684090   3.9837718   3.9442091  -8.2816734   4.4318409   4.6384254
  -8.4053154   3.1375120   2.9939864  -8.8418465   3.8640630   2.3221624
  -7.7575417   2.5129511   2.3403425  -9.4232569   2.2269101   3.6541343
  -8.8679018   1.4409702   4.1598730 -10.4364433   2.8366022   4.6314850
 -11.0383930   3.5598383   4.1922684 -11.0351791   2.1035800   5.0960617
  -9.9232988   3.3270178   5.4536958 -10.2964439   1.5364673   2.6212857
  -9.6282606   1.0850152   1.9247879 -10.9238110   0.8139330   3.0513189
 -10.9168615   2.2968094   2.1544991  -6.6830783   3.1065998   4.8009901
  -6.9636273   2.9376564   5.9718375  -5.5416818   2.6996150   4.2848377
  -5.3532262   2.8729610   3.2945087  -4.5336275   1.9863510   5.0896811
  -4.9618349   1.0939788   5.4500437  -3.3881307   1.5483732   4.1693521
  -3.0367026   2.4049220   3.6938324  -2.6368718   1.0941544   4.7828727
  -3.8202546   0.5527683   3.0638669  -4.9618192   0.1503419   2.8978496
  -2.7932391   0.1670270   2.3069847  -2.8970921  -0.5902227   1.6757936
  -1.9396878   0.7297116   2.2890244  -4.0928659   2.7807047   6.3271327
  -3.9404998   2.2052786   7.3939567  -3.8034186   4.0855441   6.2383981
  -3.2522969   4.7749686   5.0664420  -4.0159130   4.9771686   4.3447165
  -2.4863863   4.1843266   4.6097322  -2.6633537   6.0850201   5.5962038
  -2.8051922   6.8897433   4.8995237  -1.6026378   5.8816123   5.7471414
  -3.3434734   6.3552856   6.9268966  -4.2615242   6.9445043   6.7381473
  -2.7348244   6.9140391   7.6249642  -3.6204729   4.9606948   7.4225197
  -2.7939429   4.6670260   8.0220013  -4.7828178   4.8784351   8.4607239
  -4.5875921   4.4306393   9.5824852  -6.0279222   5.1776943   7.9922419
  -6.1509476   5.3608556   6.9783163  -7.1780729   5.0960155   8.8623495
  -7.0298786   5.7304330   9.7140484  -8.4129190   5.6511502   8.1106443
  -8.6350880   5.0222979   7.2265296  -9.2306719   5.5277963   8.7370768
  -8.3137121   7.1243148   7.7770376  -7.4691672   7.2736263   7.1535392
  -9.6069269   7.5961685   7.0754528 -10.4079189   7.5442309   7.7905078
  -9.4523258   8.5974627   6.7024975  -9.7980509   6.9154997   6.2410378
  -8.0908737   8.0417929   9.0113678  -7.0623779   7.9648504   9.3949118
  -8.1733332   9.0758438   8.6546268  -8.8317614   7.8381486   9.8099699
  -7.4082289   3.6940742   9.4737597  -7.8119659   3.6403766  10.6562338
  -7.0826268   2.5882556   8.7718716  -6.7422919   2.6823692   7.7949376
  -7.3336501   1.2627823   9.3070946  -8.0875425   1.3962364  10.0303411
  -7.7908750   0.2058096   8.2483749  -7.9794378  -0.7274725   8.8748655
  -9.1574154   0.5337389   7.5899754  -9.0229168   1.4668466   7.0424204
  -9.4767046  -0.2672023   6.9146180  -9.8599167   0.7996773   8.3711271
  -6.7382627  -0.1572478   7.2183733  -5.7918177   0.0981449   7.6160717
  -6.8142080  -1.2586393   7.1026249  -6.8827968   0.3272219   6.2354236
  -6.1562223   0.7315198  10.2198019  -6.2594028  -0.3665093  10.7229853
  -5.1526718   1.5681520  10.4624710  -5.2021127   2.3976092   9.9788847
  -4.0460744   1.2003423  11.4011583  -4.4125185   0.4374095  12.0547857
  -2.8681538   0.7019211  10.5614223  -2.0685623   0.4484129  11.2621365
  -3.0845726  -0.5435587   9.7257347  -4.0086346  -0.3963679   9.1310587
  -2.2904940  -0.6628924   8.9652147  -3.2117658  -1.3684316  10.4439459
  -2.3583093   1.7062058   9.7282209  -2.9801440   1.8396724   8.9819984
  -3.5308573   2.3103311  12.3424072  -2.6177454   2.0424852  13.1585369
  -4.1429834   3.4819338  12.2465324  -4.5842562   3.7373760  11.3849936
  -3.9411986   4.5717702  13.1637468  -4.3640037   4.3077660  14.1023216
  -2.8646522   4.6660371  13.3179750  -4.5529041   5.9483905  12.7049818
  -5.5845098   6.0293527  12.0489607  -3.9319313   7.1042109  12.9320669
  -4.3593388   7.8644257  12.3893108  -2.7151155   7.4461699  13.7206669
  -2.4655054   6.6029720  14.3584166  -1.5124081   7.5938182  12.7524290
  -1.7789640   8.1585188  11.8491459  -0.6963648   8.1402950  13.2957420
  -1.0684062   6.1584420  12.2901287  -1.4148462   5.6797628  11.0085096
  -2.0465562   6.2676020  10.3330994  -0.9844034   4.4337106  10.5964108
  -1.1772112   4.1375408   9.6210041  -0.2231941   3.6291025  11.4905319
   0.1067901   2.3227339  11.0986433  -0.5651876   2.0373991  10.4499865
   0.0978696   4.0885339  12.8011026   0.7045157   3.4539423  13.4308453
  -0.2992433   5.3435035  13.1703968  -0.0027047   5.8049984  14.1442318
  -2.9741387   8.6816502  14.6497364  -2.0976777   9.1209211  15.3808489
  -4.2310472   9.1061487  14.7039948  -4.8970656   8.6857948  14.0686560
  -4.7164469  10.0920000  15.6387138  -4.0555282  10.9717798  15.5748405
  -6.1307626  10.5421629  15.1276960  -6.7649608   9.6835785  14.9213495
  -6.7281084  10.9544802  15.9494114  -6.1945529  11.5719213  13.9853992
  -7.2834444  11.7481346  13.8513317  -5.5237813  12.9044046  14.3460579
  -4.5367813  12.7913370  14.6874151  -5.5459218  13.5722170  13.5054007
  -6.1745811  13.3437815  15.1141729  -5.6817489  10.9565058  12.6772394
  -6.0895343   9.9705210  12.5324631  -6.1168389  11.6086493  11.9177618
  -4.5889482  10.9655371  12.7262592  -4.6940804   9.6431723  17.1549587
  -4.3381972   8.4996920  17.4913883  -5.0215025  10.5054569  18.1165314
  -5.3168173  11.4294758  17.7907906  -4.8857336  10.2061834  19.6057129
  -5.6642218  10.7480707  20.1187057  -5.1891236   9.1405973  19.8718147
  -3.5118124  10.6153097  20.1439934  -2.9682186   9.9839573  21.0584278
  -2.9327843  11.6700163  19.5084724  -3.5326684  12.1971693  18.8364964
  -1.4997483  12.0045280  19.5819798  -1.1135422  11.7165012  20.5710106
  -0.7208335  11.2323685  18.4696026  -1.2569656  11.4437332  17.5578728
   0.2714638  11.6481991  18.3658066  -0.5329414   9.7193375  18.5663052
  -1.5038203   9.2094402  18.6697044  -0.0891430   9.4020042  17.5812130
   0.4733165   9.3081970  19.6360931   0.7386619   8.2451477  19.4908657
   1.3765305   9.9556913  19.5679359  -0.1250417   9.4782572  20.9660225
  -1.1212466   9.3553524  21.0089149   0.4998608   9.6242514  22.1104355
   1.7801111   9.7452869  22.1589890   2.3034220   9.6713905  21.3757820
   2.2554538   9.8022575  23.0145111  -0.1325541   9.5283117  23.2447414
  -1.1171072   9.5570917  23.2004719   0.2570736   9.8187857  24.0891190
  -1.2548542  13.4903822  19.4269695  -0.1106849  13.9388180  19.7139397
  -2.2464812  14.2714405  19.0892391  -3.1627810  13.8460083  18.8338814
  -2.0860229  15.7415209  18.7613640  -1.7650928  15.8223495  17.7455826
  -3.0878541  16.1612263  18.7470245  -1.0388575  16.5440636  19.5060825
  -0.1798330  17.1820469  18.8520355  -0.9749261  16.5051994  20.8345337
  -1.9439273  16.0709038  21.8034248  -2.2534730  15.0279331  21.6154594
  -2.8148673  16.7114906  21.6901398  -1.3558663  16.2043858  23.1549759
  -0.7477280  15.3388062  23.3736267  -1.9877236  16.3346310  24.0394878
  -0.4909198  17.4509087  23.0133667   0.3718905  17.3974609  23.7260704
  -1.0601605  18.3510513  23.1198730   0.0117148  17.3854351  21.5613289
  -0.0374519  18.3830700  21.1548080   1.4671479  16.9252319  21.4489288
   2.3514512  17.7932758  21.3407440   1.7080464  15.6297989  21.3511505
   0.9262676  14.9932947  21.3080006   2.9914429  15.0839796  20.8998394
   3.7606454  15.5146751  21.5278702   3.0481126  13.9770613  21.0546017
   3.2889593  15.4047403  19.4762058   4.3513680  15.9480515  19.1352119
   2.3089437  15.2536192  18.5621471   1.5036752  14.8088646  18.8634014
   2.4397006  15.6371412  17.1417980   3.2700720  15.0877609  16.7711163
   1.1474965  15.2602615  16.3908806   0.3190159  15.4936695  17.0310688
   1.0493219  15.7522316  15.4733706   1.0656871  13.7324085  16.0883865
   1.2360985  13.1355133  16.9591751  -0.3300831  13.3474865  15.5704556
  -0.6101525  14.0329943  14.7388544  -0.3755855  12.3001089  15.3602781
  -1.0517577  13.5394897  16.3751183   2.0183523  13.2902966  14.9927654
   3.0526009  13.5408363  15.2606058   1.9238292  12.2156191  14.8750868
   1.7238222  13.8296328  14.0723886   2.8318772  17.0860863  16.9049282
   3.6477213  17.3464394  16.0401840   2.3196497  18.0674648  17.6564465
   1.5746872  17.8355236  18.3171806   2.7340267  19.4621201  17.4975033
   2.6969073  19.6380501  16.3937836   1.5786947  20.2267761  18.1834888
   0.6039190  19.8555298  17.7846870   1.6436369  20.0963211  19.2406693
   1.5652984  21.7500095  18.0959511   2.2423532  22.1567421  18.8088531
   1.9165598  21.9282513  17.0999737   0.1769729  22.4489822  18.2536011
   0.2631371  23.4953327  17.9441261  -0.5055220  21.9794388  17.5698853
  -0.3975047  22.3486137  19.6427231  -0.1953657  21.3168621  20.0098495
   0.1698943  23.0222511  20.3281422  -1.8225796  22.6615219  19.6542244
  -2.3891053  21.9536953  19.1843338  -2.0897591  22.6550694  20.6372242
  -2.0580778  23.6148872  19.3325157   4.1434703  19.8447418  17.9309731
   4.5980320  20.9387016  17.6549149   4.9406567  18.9189568  18.4496422
   4.5175419  18.0691357  18.7345142   6.3448596  19.1783485  18.9166794
   6.2193832  19.9590721  19.7079678   6.9708118  17.9325142  19.5376663
   6.2220907  17.5978813  20.2815838   7.4306941  16.7732449  18.7019501
   8.1024618  17.1210651  17.9058819   7.8975224  16.0386143  19.3717232
   6.6008015  16.3119755  18.1771717   8.1415253  18.3038788  20.2135658
   7.8943009  18.8645821  20.9572411   7.2858114  19.7211857  17.8487473
   8.2273159  20.4562092  18.0846100   7.0549059  19.2601509  16.6008835
   6.3551006  18.5129051  16.3941879   7.7836890  19.8068905  15.4317875
   8.8646812  19.8710690  15.6141129   7.7657647  18.7656136  14.2526140
   8.4251194  19.1843834  13.4337482   8.3762150  17.3868484  14.6482363
   7.6818943  16.7091446  15.2100124   8.6652498  16.9190826  13.7172432
   9.2203979  17.6352291  15.2480879   6.3627529  18.5296974  13.6658659
   5.8813424  19.4042988  13.1980934   6.4052844  17.8253918  12.7835646
   5.7219691  18.1497078  14.4036484   7.3316107  21.2024288  15.0439825
   8.1726103  22.0575447  14.8007154   6.0279708  21.5188484  15.0583830
   5.4009204  20.7256680  15.2304697   5.6115003  22.9019337  14.8610773
   6.0027533  23.3121281  13.8987865   4.0352287  22.8760700  14.7153473
   3.8434410  22.2114201  13.8909998   3.6751463  22.4386501  15.6490669
   3.1817369  24.5141449  14.5043221   1.9697454  23.9630299  14.3188276
   6.1154418  23.7901669  16.0041218   6.5282722  24.9160194  15.7186117
   6.1696463  23.2786636  17.2220192   5.7837577  22.3477383  17.3243217
   6.7250853  23.8772755  18.4163532   6.1133428  24.7404709  18.7351952
   6.6619949  22.8241196  19.5450974   7.4342422  22.0952301  19.5036507
   6.7338305  23.3073215  20.5317764   5.7274671  22.3386040  19.6085854
   8.1402206  24.4746227  18.2065220   8.3714886  25.5657082  18.7240429
   9.0138359  23.7724667  17.4631596   8.8213005  22.8711510  17.0066338
  10.4308357  24.2232685  17.3793430  10.7919998  24.5143871  18.3888607
  11.3506117  23.0303307  16.9709549  11.0921345  22.6583481  15.9622211
  12.4186172  23.3926849  17.0384865  11.2153435  22.2148037  17.7303143
  10.6499214  25.4403038  16.4511757  11.3213596  26.3676147  16.8362579
  10.0595512  25.4271164  15.2920256   9.4244614  24.6453114  15.0682316
  10.4550686  26.3403625  14.2160568  11.1743879  27.1116467  14.4829235
  11.1803827  25.4886551  13.1252089  10.6359758  24.5522919  13.0044546
  11.1799288  26.0282879  12.1798601  12.6121988  25.0741787  13.4360600
  12.6534462  24.3753166  14.3083801  12.9801931  24.5326309  12.5720501
  13.5197983  26.2634964  13.7336206  13.2964315  27.1188335  13.1015978
  13.3538208  26.6063519  14.7818613  14.9924297  25.8964520  13.5497761
  15.2316189  24.9056740  13.3432922  15.9448376  26.8032818  13.4855671
  15.7643690  28.0741310  13.8012066  14.9245663  28.4151173  14.2552757
  16.6369343  28.6013203  13.8829031  17.1603737  26.4996548  13.1460752
  17.3945389  25.5555153  12.9298353  17.9223671  27.2038193  13.1809702
   9.2824574  27.0697632  13.5107956   9.5058327  27.9227428  12.6808729
   8.0357561  26.7931099  13.9012165   7.9073763  26.0978241  14.6334000
   6.8500857  27.5230980  13.3268404   7.2225041  28.2218056  12.5883408
   5.9305258  26.5397949  12.6075382   5.5844970  25.7220726  13.3027649
   4.7425742  27.1360664  11.8171310   5.0911546  27.9529953  11.2304678
   4.3104239  26.3827591  11.1594715   3.8740811  27.4016743  12.4351654
   6.6924996  25.9998016  11.5432987   7.5189881  25.7208805  11.9392004
   6.1018629  28.3280602  14.3862095   6.5514641  29.4174957  14.6981716
   5.0247307  27.7833176  14.9726858   4.8119226  26.8204670  14.6754074
   4.1163998  28.3468647  15.9637079   4.5820346  29.2770786  16.3163738
   2.7094076  28.5899258  15.4128304   2.2635093  27.6906185  15.0226746
   2.1281188  28.9859276  16.2669353   2.7039955  29.7754459  14.4254055
   2.6565967  30.7011032  14.9623680   3.6037316  29.7367897  13.7859669
   1.4484738  29.8148232  13.5087395   1.4224845  30.2719479  12.3885117
   0.3301553  29.2804146  13.9401388  -0.4174671  29.2069416  13.2394838
   0.2488181  29.0431290  14.9547710   4.1296988  27.3657436  17.1436577
   5.1544065  27.1196079  17.7550488   2.9963770  26.7783947  17.4634209
   2.1796730  27.1335068  17.0304241   2.8185680  25.6217003  18.3506851
   1.7693365  25.3155499  18.3410225   3.4062359  24.7652664  17.9881763
   3.2229648  25.7990932  19.7856331   3.1424580  26.8207455  20.4421597
   3.7900972  24.7024517  20.3151684   3.7056315  23.8166332  19.7577457
   4.1046820  24.4702435  21.7065086   4.8353634  23.6810589  21.8330574
   4.6254492  25.2836876  22.1691685   2.8723650  24.0873814  22.5458126
   1.8522899  23.6477833  22.0203686   2.9825842  24.3378429  23.8518696
   3.7842667  24.8687191  24.1612663   1.9172127  24.1190910  24.8716145
   1.3941400  23.1902580  24.6240616   2.5803330  23.8809757  26.2806873
   3.0012155  24.8270073  26.6852169   1.7524241  23.5923595  26.9093704
   3.7086127  22.8045940  26.2928467   4.4906778  23.1851082  25.6074314
   4.2140350  22.8095989  27.2597866   3.3378122  21.3869877  25.8677082
   3.0328803  21.4211006  24.7640305   4.2151494  20.7318668  25.9226627
   2.2136507  20.7039051  26.6547184   1.2997594  21.2614517  26.4888096
   2.0659108  19.7416267  26.2501907   2.4249163  20.6493931  28.1579685
   2.5186973  21.5896511  28.5108757   1.6265260  20.2589512  28.6608601
   3.2332673  20.0843334  28.3543224   0.8409780  25.2122478  24.8857002
   0.4023940  25.6653671  25.9384556   0.3910244  25.6104259  23.6946869
   0.8510742  25.1632881  22.8888302  -0.8143386  26.5017109  23.4764690
  -0.5841563  27.3210335  24.1633987  -0.8456871  27.1071339  22.0762272
  -1.6196656  27.8797245  21.9072323   0.1305902  27.5671482  21.9307308
  -1.0039963  26.1562920  21.0256386  -1.0887547  26.6998291  20.1921940
  -2.1401186  25.8832912  23.9007397  -2.2152064  24.7376995  24.3516350
  -3.2335711  26.6265106  23.6838913  -3.0960200  27.4894810  23.2123795
  -4.6443276  26.2711906  23.9969711  -4.6598520  25.4452686  24.7741985
  -5.3558187  27.5006275  24.5987148  -4.7549729  27.7592850  25.4835873
  -5.3176646  28.2418098  23.7657719  -6.8631501  27.2463207  25.0618649
  -7.4579215  26.6722507  24.3338757  -6.9248967  26.6226940  25.9875851
  -7.6123672  28.5641499  25.2637005  -7.0803456  29.6778584  25.1189270
  -8.8669643  28.4874039  25.6740017  -9.3130655  29.3906498  25.7824936
  -9.2731123  27.5828915  25.9941769  -5.3893728  25.7446671  22.7701740
  -5.2512975  26.2865810  21.6790886  -6.2099271  24.7200699  22.9399376
  -6.2098103  24.2506771  23.8513775  -7.1538572  24.2582245  21.9111805
  -6.6434073  24.1459560  20.9608154  -7.7128096  22.8326778  22.2253876
  -6.8764071  22.1739311  22.5443497  -8.4796772  22.9483204  22.9565620
  -8.4083900  22.2586460  20.9969311  -9.0386667  22.9906101  20.4937210
  -7.6742406  21.9879913  20.2607632  -9.3193960  21.0647564  21.4347916
  -9.4634304  20.4787445  20.5250549  -8.8243189  20.3987522  22.1584396
 -10.6708422  21.5289402  22.0222683 -10.4878006  22.2237854  22.8526669
 -11.0707045  22.1657085  21.2471371 -11.5729666  20.4084301  22.3198872
 -11.1525002  19.7154408  22.9203205 -12.3666344  20.7736683  22.8084068
 -11.9878969  20.0680466  21.4758720  -8.2328844  25.3258247  21.6787891
  -8.9271927  25.6467724  22.6601200  -8.3650398  25.8006458  20.4992275
  -8.2489834  49.2890205  10.4600487  -8.7462015  48.3945045  10.6739464
  -7.3557787  49.2458382  10.9690781  -8.0008020  49.4541359   9.4835367
  -9.0730705  50.4511452  10.9098902  -9.4452114  50.2925453  11.9262838
  -8.2037668  51.7491112  10.8362589  -7.3179121  51.5476303  11.4142742
  -7.8154945  51.8650398   9.8292313  -8.9203358  53.0805283  11.2081156
  -9.8656120  53.2152901  10.6650972  -9.2757854  53.1361427  12.6714430
  -8.4276905  53.2446709  13.2952747  -9.9261837  54.0319519  12.8274679
  -9.9278393  52.3261986  12.9881468  -8.0805740  54.3183746  10.8625946
  -8.0286846  54.3960724   9.7979155  -8.5022793  55.2171860  11.2450457
  -7.0811234  54.1922188  11.1875553 -10.4286213  50.4996452  10.1473942
 -11.4630308  50.2223816  10.6920004 -10.4055347  50.8384552   8.8393507
  -9.5205679  51.1023483   8.4166822 -11.5723505  51.0634651   7.9676790
 -12.1668262  51.6983833   8.5591793 -11.1796656  51.7651215   6.6359377
 -10.5347738  52.5798416   6.8639479 -10.5576000  51.0166702   6.1010027
 -12.3512545  52.2836075   5.7977734 -11.9379959  52.7991142   4.9709654
 -12.9495897  51.4524879   5.4143667 -13.3099651  53.1675873   6.6389008
 -14.0010881  52.5051308   7.1583042 -12.7515602  53.7153969   7.4506865
 -14.0245876  54.2395096   5.8113170 -14.5415077  54.8754463   6.5734453
 -13.2613478  54.8395386   5.2923675 -15.0613346  53.7002335   4.8779716
 -14.7723675  52.9922142   4.2150393 -15.8348083  53.2286415   5.3553543
 -15.5225220  54.4191818   4.3491077 -12.4111328  49.7991905   7.6129036
 -13.6619301  49.8625183   7.4853344 -11.7104740  48.6439705   7.5242372
 -10.7255459  48.7448082   7.6951466 -12.2490683  47.3450813   7.2090111
 -12.6326380  47.4149284   6.2183719 -11.1300793  46.3317566   7.2201443
 -10.5407524  46.4709473   8.1226797 -11.5314541  45.3622589   7.4278827
 -10.1276865  46.2868462   6.0186625  -9.8338375  47.2549782   5.7329946
  -8.9101887  45.4507675   6.3463755  -9.2263765  44.4492302   6.2795110
  -8.1204052  45.5450974   5.6029205  -8.5390720  45.6157913   7.3467784
 -10.8082113  45.6393814   4.8308272 -11.7871752  46.1075974   4.5828853
 -10.1077261  45.6006699   3.9903629 -10.9408569  44.5922623   5.0382190
 -13.4956465  46.9552193   8.0783386 -14.3718615  46.1975937   7.5913000
 -13.5389414  47.4785995   9.3482065 -12.8233013  48.1433144   9.6076221
 -14.6578999  47.3413467  10.2271557 -14.6197119  46.2804794  10.5286207
 -14.3958902  48.2524834  11.4653921 -13.4542742  47.9387054  11.8504229
 -14.2967434  49.2723885  11.1250172 -15.3726139  48.1655083  12.6638594
 -16.3560848  48.5653152  12.4034128 -15.6036148  46.7147408  13.0898895
 -14.6531096  46.2221870  13.4095182 -16.3433380  46.7977753  13.8980732
 -16.0621452  46.1965981  12.2692986 -14.8542109  48.9675331  13.8358793
 -14.6147299  49.9745407  13.4797087 -15.5863571  48.9587364  14.6377611
 -13.9603710  48.4945259  14.1825733 -16.0136871  47.6178398   9.6769800
 -16.9722977  46.9682159  10.0897779 -16.1176376  48.5931549   8.7887506
 -15.3312387  49.0346680   8.3823709 -17.4328785  49.0769577   8.3042135
 -18.0439644  49.0283623   9.1971979 -17.4012222  50.5298653   7.7604966
 -18.3925877  50.9270096   7.7832565 -16.7177563  51.0978394   8.4302568
 -16.9338703  50.6420326   6.3123631 -16.4657669  49.6745529   5.6833725
 -17.1731148  51.6874771   5.6825252 -18.1315670  48.0840912   7.3270187
 -19.3373604  48.2545700   7.0240850 -17.3845444  47.1069946   6.7780037
 -16.4240856  47.0490608   7.0423646 -17.9392509  45.9951553   5.9717412
 -18.7801437  46.4234390   5.3760929 -16.8203888  45.3598404   5.1094494
 -16.1275806  44.7538795   5.7282858 -17.3149738  44.6467171   4.4210997
 -16.0133572  46.2988625   4.2878742 -16.4115849  46.8145027   3.2411137
 -14.8015537  46.5808334   4.6575985 -14.1934910  47.1148911   4.0787115
 -14.5207682  46.2719688   5.5826306 -18.6066933  44.9442253   6.8851833
 -19.7451458  44.5057831   6.6431971 -17.8917999  44.5729065   7.9788933
 -16.9910221  45.0127792   8.0774355 -18.2890072  43.5290337   8.9286680
 -18.6035576  42.5740852   8.3832273 -17.1797256  43.1881294   9.9271765
 -17.0177040  44.0903244  10.5385790 -17.4967499  42.3077545  10.4928322
 -15.8334436  42.8822670   9.2523632 -15.5966387  42.5286331   7.9530678
 -16.3283195  42.2995567   7.2218633 -14.2348347  42.4731102   7.7888799
 -13.8501205  42.1269188   6.9615412 -13.5236940  42.8740158   8.8666420
 -12.1723499  43.0641556   9.0652313 -11.5145054  42.7772980   8.2881393
 -11.8061829  43.7267876  10.2185364 -10.7475796  44.0452423  10.3661537
 -12.7166328  44.0688477  11.2370052 -12.3584137  44.4701767  12.1795359
 -14.0809669  43.7274895  11.0543299 -14.8077793  43.9863930  11.8557606
 -14.5076408  43.1818581   9.8257809 -19.6093616  43.9531670   9.6581755
 -20.5229988  43.1756935   9.7691298 -19.6655865  45.2306595  10.0612640
 -18.8119144  45.7906799   9.9092960 -20.8421993  45.8789444  10.6191502
 -21.2556953  45.2904663  11.4197912 -20.3585987  47.2226410  11.1550131
 -19.3934708  47.2143173  11.6839333 -20.1661987  47.7984428  10.2295780
 -21.3390274  48.0072784  12.0464907 -22.0482235  47.3617210  12.8089418
 -21.2828522  49.2605247  12.1216574 -22.0285320  45.9559021   9.6490269
 -23.1476231  45.5984840  10.0021849 -21.7851448  46.3128738   8.3694477
 -20.8602600  46.6860542   8.1989689 -22.7808971  46.3339233   7.2942214
 -23.5155563  47.0418510   7.5458617 -22.0856972  46.7706375   5.9879141
 -21.7893066  47.8511238   6.0583191 -21.2018795  46.1989670   5.8199267
 -23.0738354  46.6249275   5.0066562 -22.6240444  46.2278404   4.2222342
 -23.4545746  44.9774017   7.1938729 -24.6849041  44.8555794   7.2545109
 -22.6236057  43.9402351   7.0705919 -21.6515369  44.1435394   7.1172390
 -23.1469193  42.5804482   6.8996239 -23.8788128  42.5826721   6.1266212
 -22.0066242  41.5946426   6.4415312 -21.1666889  41.6071167   7.1777840
 -22.5607281  40.1976967   6.2339020 -23.3798866  40.1560211   5.5081697
 -21.6941299  39.5897980   6.0052328 -22.8297443  39.8440399   7.2228317
 -21.5026455  42.0490608   5.0426250 -21.3115673  43.1405258   4.9816995
 -20.6357746  41.4658432   4.7332292 -22.3100662  41.9460754   4.2868967
 -23.8280602  42.1046906   8.2067547 -24.9797268  41.6393890   8.2374392
 -23.1382542  42.1487961   9.3518391 -22.1850471  42.4558983   9.3771152
 -23.7217236  41.7662239  10.6503830 -23.7615318  40.7123375  10.7000341
 -22.8505135  42.2320213  11.8545876 -22.7936745  43.3214188  11.8405113
 -23.3254662  41.8209801  13.2249689 -23.3700027  40.7130280  13.2022324
 -22.5960331  42.0528984  14.0035334 -24.2733097  42.2507553  13.5443029
 -21.5224495  41.7428551  11.7743053 -21.1578636  42.2010384  10.9988461
 -25.1397038  42.2485123  10.8801165 -25.9860134  41.4410019  11.3715935
 -25.3803082  43.5700951  10.6499825 -24.6275730  44.1310654  10.3456545
 -26.7907562  44.1856956  10.8284988 -27.1439667  43.8830566  11.7910681
 -26.6694851  45.7045212  10.8396063 -26.1246967  46.0575562  11.7494106
 -26.1671734  46.0233116   9.9209776 -27.9657402  46.2136154  10.8536673
 -28.3155079  46.2170181  11.7565155 -27.7419453  43.7699203   9.7392998
 -28.8600960  43.3377800  10.0304747 -27.3656693  43.8527832   8.4457197
 -26.4467316  44.2481575   8.2320890 -28.2133656  43.4306717   7.3169537
 -29.0720863  44.0846596   7.3799677 -27.4353008  43.6680946   6.0012417
 -26.4964600  43.1498566   6.0652618 -28.1214314  43.1954651   4.7375307
 -29.2232742  43.3647881   4.9892302 -27.9005527  43.7150536   3.8061814
 -28.0065460  42.0989571   4.6503062 -27.0507450  45.0165710   5.8839555
 -26.2597103  45.1527367   6.4322181 -28.7385845  42.0092735   7.4326324
 -29.8691063  41.7374229   7.0404177 -27.8753281  41.1020470   7.8890700
 -26.8860817  41.3353539   8.0379705 -28.2316952  39.6789932   7.9476261
 -28.6784534  39.4747696   6.9707294 -26.9651318  38.8248749   8.2208815
 -26.2259789  39.0849075   7.4080381 -26.5400047  39.2097816   9.1498051
 -27.1680069  37.3091278   8.1839142 -27.1178646  36.5903816   9.3784781
 -26.8858242  37.0603981  10.3552542 -27.3750896  35.1975975   9.3837824
 -27.3071651  34.5979462  10.3129053 -27.5596447  34.4926643   8.1701317
 -27.6182594  33.4123688   8.1449680 -27.6081657  35.2440872   6.9525576
 -27.7369022  34.7496147   6.0000796 -27.4318542  36.6270866   6.9676471
 -27.4605083  37.1610794   6.0128741 -29.2891483  39.4236755   8.9992723
 -30.0294476  38.4637413   8.8549891 -29.4039345  40.2802315  10.0216398
 -28.7764168  41.0435066  10.0737400 -30.4113846  40.0500107  11.1145544
 -30.1315765  39.1219482  11.6459770 -30.3817825  41.2365685  12.0922289
 -30.9980392  40.9603653  12.9739141 -29.3456249  41.3014603  12.4439621
 -30.7822590  42.4811554  11.4729710 -30.0437260  42.8018913  10.9244766
 -31.8005257  39.7746086  10.5085869 -32.3350563  38.7078934  10.7901945
 -32.3466949  40.5853844   9.5818844 -31.8128967  41.3746071   9.2240086
 -33.6994743  40.3711662   9.0350723 -34.3950119  40.2003822   9.8310165
 -34.1797752  41.5978470   8.2865810 -33.5381660  41.7647133   7.4162035
 -35.1719398  41.4105835   7.8718328 -34.2646294  42.8488121   9.1750946
 -33.3078880  43.0993614   9.6256247 -34.5352592  43.6526337   8.4984169
 -35.3482018  42.8529396  10.3567419 -36.2800636  43.2708702   9.9716129
 -35.5855217  41.8549042  10.7029734 -34.9211121  43.6625290  11.5945740
 -34.5172272  44.6119766  11.1971512 -35.8493118  43.8075867  12.2452736
 -33.8411446  43.0121765  12.4103546 -33.0270844  42.8255615  11.8174314
 -33.6052361  43.6452904  13.1581106 -34.1340294  42.1586075  12.8018513
 -33.7844696  39.1380081   8.1319456 -34.8234901  38.4989891   8.0027084
 -32.6955757  38.8017044   7.4034696 -31.8346519  39.1937332   7.7008367
 -32.6275978  37.6192589   6.5338736 -33.4868927  37.6465187   5.9276910
 -31.4596844  37.7424583   5.5651708 -30.5571594  37.8425369   6.1601424
 -31.4922504  36.9040451   4.8681097 -31.4284687  39.0167580   4.7493467
 -31.4169502  39.8887215   5.4207325 -30.2005367  39.0632591   3.8776257
 -30.1808434  38.1845818   3.1675606 -30.1450005  39.9544945   3.2682691
 -29.2940311  39.0437546   4.4614463 -32.6207809  39.1994247   3.8088105
 -33.5287323  39.2676506   4.3930883 -32.5421600  40.1189384   3.1492105
 -32.7578011  38.3448601   3.1370285 -32.7551346  36.2943420   7.3849373
 -33.7121391  35.5555763   7.2515254 -31.8528976  36.1581230   8.3603134
 -31.0612144  36.8163834   8.4198065 -31.8676605  35.1615372   9.4791336
 -31.5769844  34.2259865   9.0357246 -30.7176666  35.4904137  10.4486217
 -29.8012714  35.5169258   9.8590069 -30.9205227  36.4897690  10.8144321
 -30.5174046  34.5229874  11.6409912 -29.6951885  34.9542427  12.1788015
 -31.3944168  34.5733109  12.2790422 -30.2641468  33.0569572  11.2129917
 -30.9351521  32.7995338  10.4149580 -29.2636795  33.0680809  10.8097544
 -30.3503227  32.0853844  12.3594570 -29.4771805  31.8003941  12.7489319
 -31.4341583  31.6664391  12.9510889 -31.3159389  31.1582966  14.1320801
 -30.3975677  31.0684280  14.5809994 -32.1599007  30.8500080  14.5740757
 -32.6430168  31.7436886  12.4336233 -32.8121643  32.3247681  11.6551065
 -33.3918610  31.3763790  13.0055962 -33.2607002  35.0674515  10.1291466
 -33.7621117  33.9458084  10.3032341 -33.8163147  36.2004013  10.5363741
 -33.3385773  37.0557861  10.3030872 -35.0383415  36.3457031  11.3844357
 -34.9777565  35.6701660  12.2662401 -35.1661758  37.8112946  11.9279861
 -34.9325066  38.5466499  11.1565008 -36.2320671  37.9684219  12.1211586
 -34.3719902  38.0066986  13.2192945 -34.5590668  37.1786194  13.8536587
 -33.3160477  37.8928452  12.9672165 -34.6766129  39.3620071  13.8927603
 -35.1630096  39.2762184  15.0533476 -34.3273048  40.4814682  13.4089746
 -36.2392998  35.9934464  10.5487556 -37.1674004  35.4481812  11.1402626
 -36.3126221  36.2156639   9.1983690 -35.4955521  36.6414413   8.7229195
 -37.5326157  35.9613037   8.4222393 -38.3772125  35.9373322   9.0749502
 -37.7064590  37.1374359   7.4446926 -37.7813263  38.0077591   8.0758924
 -36.7883911  37.1976929   6.7975469 -39.0533218  36.9828491   6.6328764
 -39.7568283  36.3016014   7.1192260 -39.5946083  37.9521255   6.5270238
 -38.8493690  36.4217415   5.2457972 -37.7972260  35.9444160   4.8000259
 -39.8745804  36.3741264   4.4568653 -39.7072296  35.9019127   3.5327826
 -40.7975159  36.6920433   4.7470155 -37.4674797  34.6090012   7.7240715
 -38.4920807  33.9848824   7.5551462 -36.3269997  34.1037254   7.3387933
 -35.4642448  34.6038742   7.4716473 -36.0904999  32.7900963   6.7799087
 -36.6581497  32.6629715   5.8746414 -34.6183739  32.6761818   6.3230538
 -34.2954178  33.5568085   5.7165699 -34.0483475  32.6399536   7.2549624
 -34.2540398  31.4601173   5.5072494 -34.5086365  30.5888729   5.9974594
 -34.9267426  31.4954987   4.1118903 -34.7200317  32.4471741   3.6215112
 -34.5310440  30.6944294   3.4770684 -36.0200005  31.2919712   4.2060785
 -32.7244987  31.3689594   5.2391715 -32.2044449  31.4434986   6.1729665
 -32.4738617  30.4182606   4.7632875 -32.4236107  32.1796799   4.5919428
 -36.3844910  31.6557522   7.7352772 -36.9266930  30.6643600   7.2430224
 -36.1088524  31.8080750   9.0386305 -35.7497330  32.6782341   9.3144398
 -36.3181152  30.7829094  10.0678272 -35.5702209  29.9677944   9.8996267
 -36.1112976  31.1158752  11.0480042 -37.7466431  30.2417164  10.1186714
 -37.9153557  29.1008224   9.7629557 -38.7612572  31.0747147  10.4408827
 -38.6462898  32.4714966  10.9367046 -37.9356613  33.0591736  10.3490849
 -38.4237061  32.4843826  12.0206680 -40.0068130  33.0858688  10.7527065
 -40.1276207  33.4214783   9.7331963 -40.2506218  33.8948593  11.4892282
 -40.9426193  31.8986721  10.9657660 -41.9082603  32.0344772  10.4878378
 -41.1184845  31.7261124  11.9987879 -40.1666451  30.7155399  10.4175777
 -40.3474579  29.8617554  11.0755491 -40.7149467  30.2697182   9.0174351
 -41.6432037  29.4338989   8.9539633 -40.2049637  30.8144474   7.8891940
 -39.4916649  31.5112705   7.9685874 -40.4913521  30.3436756   6.5316515
 -41.5379028  30.3338985   6.3650937 -39.8391762  31.2452965   5.4843426
 -38.8255043  31.4784260   5.6854124 -39.9300423  30.7010384   4.0580053
 -40.9490623  30.6602001   3.7212420 -39.4473190  31.4415531   3.3654752
 -39.3635406  29.8105640   3.9104161 -40.5590858  32.6185112   5.4244990
 -40.4579544  33.0192871   6.4492321 -40.0091324  33.3138847   4.8114834
 -41.6141319  32.6392059   5.1214361 -40.0686455  28.8427525   6.4050875
 -40.8378754  27.9648438   6.0923014 -38.7916641  28.5981731   6.7133169
 -38.2135468  29.4275265   6.9726033 -38.0898323  27.3338585   6.7327590
 -38.2519608  26.9982510   5.7258902 -36.6065483  27.5441723   6.9736843
 -36.4238281  27.9379063   7.9475279 -35.8141060  26.1933613   6.8555593
 -34.7443810  26.4005890   6.9840908 -36.1155281  25.4629326   7.5963087
 -35.9341736  25.7074356   5.8693390 -36.0596542  28.4483643   6.0546045
 -36.2680588  29.3148022   6.4962811 -38.7329788  26.2425652   7.6097436
 -38.8846283  25.1310177   7.1644640 -39.1643028  26.6327972   8.8133821
 -38.8715515  27.6003666   9.1053286 -39.8296585  25.7565098   9.7918720
 -39.2376938  24.8442478   9.8951044 -39.9797935  26.4111729  11.1667347
 -40.3213577  27.4172001  11.0572290 -40.6612473  25.8345528  11.7625570
 -38.6158142  26.4442997  11.9856071 -38.1444397  25.4568405  11.8627310
 -38.0046005  27.2457485  11.5950060 -38.8279305  26.5674591  13.5451450
 -39.7490578  27.1637135  14.0730944 -37.9282722  26.0095196  14.3382988
 -37.9875412  26.2765675  15.3185549 -37.1298256  25.5385399  13.9600000
 -41.1592484  25.2549171   9.2719631 -41.4136848  24.0162582   9.2399769
 -42.0597610  26.1681976   8.8270388 -41.8454590  27.1308899   9.0580254
 -43.2697487  25.8416252   8.0760822 -44.0024643  25.3020287   8.7175312
 -44.0051613  27.1038799   7.7025075 -44.2262611  27.7032070   8.5843573
 -43.2407455  27.6737518   7.1952248 -45.1780014  26.9301319   6.7624912
 -44.8672066  26.5962124   5.8183107 -45.7594299  26.1063747   7.1323023
 -45.8989143  28.2677917   6.5506291 -45.5270920  28.9888363   5.5804653
 -46.8486214  28.5974350   7.3070202 -43.0609093  24.9430580   6.8402839
 -43.7956238  23.9674740   6.6279526 -41.9737587  25.2139740   6.0658903
 -41.4791069  26.1052322   6.1821222 -41.6481628  24.4200344   4.8957486
 -42.5339851  24.3845158   4.2268682 -40.5824242  25.0874310   4.0293632
 -40.9570503  25.8994465   3.4333727 -39.7862663  25.5299549   4.7055073
 -39.8192825  24.1840343   3.0874610 -38.4044609  24.1457958   3.1957531
 -37.8628464  24.6666355   4.0126524 -37.6542931  23.3550835   2.3003964
 -36.5974426  23.4007816   2.3250709 -38.3034554  22.4984207   1.4032545
 -37.7127762  21.7973366   0.7961103 -39.6697655  22.4998951   1.3040525
 -40.1164856  21.8616905   0.5864768 -40.4491386  23.3630466   2.1222081
 -41.5534782  23.2981091   2.0421383 -41.2662697  22.9462032   5.2687817
 -41.7183533  22.0163059   4.5933051 -40.5442810  22.7635078   6.3320060
 -40.2846107  23.5549908   6.8628459 -40.3148804  21.4259701   6.8907366
 -40.0128899  20.7855606   6.0482311 -39.1510315  21.4702988   7.8677006
 -38.2741051  21.7175102   7.2354374 -39.3658485  22.2497635   8.5852814
 -39.0535889  20.1173706   8.5553951 -38.4314613  19.0802784   8.0301266
 -37.9199333  19.1133556   7.0725555 -38.3049240  18.0627003   8.9843025
 -37.8440704  17.1754475   8.8358116 -38.9026108  18.4348831  10.1515789
 -39.0195808  17.7563839  11.3293657 -38.6762924  16.7450371  11.4358797
 -39.8537369  18.3018513  12.2685528 -40.1070557  17.7553921  13.1701717
 -40.3371964  19.6088943  12.1304426 -40.9343033  20.0179863  12.9484835
 -40.1800957  20.3238602  10.9506950 -40.6153641  21.3149242  10.8948565
 -39.4530258  19.7126198   9.8924761 -41.5600204  20.8236160   7.4615154
 -41.7848053  19.6431656   7.2115808 -42.3618393  21.5784149   8.2226410
 -42.1863174  22.6030903   8.3365784 -43.6019325  21.0081463   8.8550930
 -43.3546104  20.2977962   9.6091785 -44.4915237  22.0657997   9.5776749
 -43.8224487  22.6326599  10.2760592 -44.9365807  22.8070431   8.8435516
 -45.6739235  21.4043407  10.3598166 -46.8132820  21.8920174  10.1910362
 -45.4304504  20.4477997  11.1621990 -44.5131760  20.3666134   7.8026199
 -44.9374542  19.2074261   7.8899884 -44.7981720  21.0944061   6.6927738
 -44.5162201  22.0156364   6.7402072 -45.4025116  20.6123905   5.4443960
 -46.4495163  20.4428654   5.6506891 -45.2915344  21.6604614   4.3985133
 -44.3327713  22.1493626   4.4761176 -45.3930321  21.1822624   3.4295344
 -46.3923225  22.7257195   4.5308752 -47.4572334  22.5452023   3.9762669
 -46.1940002  23.8232021   5.2278337 -46.9336090  24.4667530   5.3485723
 -45.2548561  24.0398693   5.6115699 -44.6875000  19.3540993   4.9111028
 -45.3291130  18.3260479   4.7789435 -43.3750496  19.4786148   4.6491823
 -42.8899918  20.3623867   4.7525816 -42.6409607  18.2981701   4.0790396
 -43.1394920  18.0848293   3.1268826 -41.1904221  18.7189522   3.6997268
 -41.2108383  19.5580921   2.9565427 -40.7082596  19.1015167   4.5264568
 -40.2918205  17.5913372   3.1105936 -40.2193794  16.7143250   3.7874403
 -40.8991394  17.1152802   1.7667117 -40.9439430  17.9197521   1.0472857
 -40.2162132  16.4540329   1.2727323 -41.8638420  16.6357975   1.9476436
 -38.8822250  18.1485386   2.8660574 -38.5760727  18.7256908   3.7620902
 -38.2021370  17.3439960   2.8401730 -38.8222084  18.7908783   1.9731934
 -42.8130722  16.9820557   4.9053102 -43.0876160  15.9111042   4.3779955
 -42.7197685  17.0955811   6.2472157 -42.6788292  18.0501213   6.5702672
 -42.9642296  16.0374260   7.2247529 -42.3051224  15.1715717   6.9826813
 -42.4102783  16.4673119   8.5872116 -41.3454399  16.4920025   8.5305586
 -42.7295494  17.5193501   8.8054552 -42.9213295  15.6175709   9.7583590
 -42.5316086  16.0666828  10.6819525 -44.0340195  15.7439327   9.8554049
 -42.5655212  14.0933313   9.8420696 -42.0370331  13.4870005   8.8962278
 -42.8160133  13.4537697  10.9073725 -44.4063034  15.5300541   7.3365684
 -44.6856728  14.3075361   7.3275476 -45.4605827  16.3914299   7.3762398
 -45.2417984  17.3936634   7.3506222 -46.8653450  15.9913864   7.3020554
 -47.0404282  15.2012148   8.0655499 -47.7243271  17.2015400   7.6150446
 -47.4169960  18.0707130   7.0554590 -48.7313690  16.9541702   7.3603625
 -47.6728783  17.4746151   9.1068220 -48.2743645  16.7274361   9.5937176
 -46.6457329  17.4720459   9.4258127 -48.3739662  18.7913876   9.4033203
 -47.8212204  19.6079712   9.0232124 -49.3154106  18.7923775   8.8625517
 -48.5677147  19.0014725  10.9153833 -49.3793526  18.3288422  11.2702856
 -47.6580887  18.6924400  11.3886061 -48.8485756  20.4294205  11.1992636
 -49.6422424  20.7298946  10.6484327 -49.0627747  20.6023331  12.1967745
 -48.0947838  21.0557671  10.9710159 -47.2664299  15.3109350   5.9863782
 -48.1091652  14.4401159   5.9677610 -46.6323280  15.6770859   4.8653107
 -46.0655670  16.5641956   4.8721137 -46.6095695  14.9137058   3.6133873
 -47.6440010  14.7085524   3.3964076 -45.9964333  15.6827440   2.4173994
 -45.0455437  16.1467743   2.7264628 -45.7111893  14.9691401   1.6732000
 -46.8443260  16.8127384   1.8703263 -47.6163902  16.2880840   1.3633969
 -47.3296967  17.3608284   2.7032182 -46.1631088  17.7465553   0.8346820
 -45.0785294  18.3521461   1.0571146 -46.7157440  17.8500900  -0.2826735
 -45.9878502  13.5569820   3.8105259 -46.5099030  12.5136137   3.4507797
 -44.7762337  13.5372686   4.3658438 -44.3348846  14.4537020   4.5435600
 -44.0217934  12.3041344   4.6667771 -43.8450394  11.7876101   3.7693441
 -42.6549301  12.6421442   5.2682405 -42.8026047  13.2195816   6.1735487
 -41.7546043  11.4303074   5.4650970 -41.7865524  10.8871260   4.5267577
 -40.6489525  11.6619024   5.6908054 -42.0788040  10.7941017   6.2792568
 -41.9410286  13.4496403   4.3216810 -42.4461823  14.2878380   4.2540102
 -44.7988930  11.3157749   5.5155945 -44.7266350  10.0938358   5.2999420
 -45.5952606  11.7068882   6.5504003 -45.6688881  12.6649809   6.7946029
 -46.3943100  10.8340549   7.3889680 -45.6508255  10.1462831   7.8583727
 -47.2125473  11.6374493   8.4338465 -46.5850220  12.2414780   9.0799046
 -47.8833237  12.2631922   7.8444409 -48.0938683  10.7841625   9.3525591
 -48.6310005  11.5005312   9.9868288 -48.8348618  10.3325939   8.7845526
 -47.2869873   9.7840595  10.1853456 -46.1549721  10.1243258  10.5668182
 -47.8009224   8.6438904  10.5042257 -47.2904015   9.8778801   6.5343456
 -47.2919083   8.6789970   6.8350453 -47.9991913  10.3695488   5.5360694
 -47.9992294  11.3516607   5.3097529 -48.7444153   9.4645977   4.6332273
 -49.5608139   8.9989195   5.1658754 -49.2084084  10.1261988   3.8816955
 -47.9041901   8.3528395   3.9374933 -48.2362595   7.1546717   3.9087491
 -46.7749863   8.7545719   3.4120295 -46.5066872   9.7508678   3.4805593
 -45.7868538   7.8703575   2.7322512 -46.2964973   7.3096046   1.9617926
 -44.7207718   8.8225136   2.1235881 -45.2632103   9.3737307   1.3552393
 -44.3931160   9.5169077   2.8847659 -43.4831047   8.1236858   1.5418916
 -42.8424530   7.6515765   2.2978873 -43.8227234   7.1168160   0.4602310
 -44.4321785   7.6363688  -0.2784319 -42.8756905   6.8092346  -0.0464547
 -44.3150406   6.2225337   0.8813853 -42.6915970   9.2725697   0.9006596
 -42.4623528  10.0081148   1.6334491 -41.8234978   8.8699999   0.3591122
 -43.3687973   9.8355284   0.2156453 -45.1900063   6.8456278   3.7063298
 -45.0290337   5.6923862   3.2997501 -44.7088585   7.2417879   4.9230204
 -44.7597275   8.2624226   5.0675817 -44.2677307   6.3788147   6.0618539
 -43.3558502   5.8778448   5.7288618 -43.8508682   7.3326440   7.2241397
 -43.3789520   8.2251396   6.7584276 -44.7708931   7.7210569   7.7373819
 -42.8964272   6.7760344   8.2899971 -43.4209137   6.1400242   9.0349379
 -42.2121887   6.1451669   7.7395897 -42.1332588   7.8309340   9.1054621
 -41.5864754   7.3273368   9.8929768 -41.3810692   8.2463531   8.3830137
 -43.0395966   8.8607035   9.6455898 -43.9620171   8.5890760   9.9912682
 -42.8167686  10.1888552   9.5819397 -43.6575699  11.0451231  10.0893869
 -44.6089325  10.7664003  10.1891508 -43.3548431  12.0179501  10.1589003
 -41.7674446  10.7336044   9.1259346 -40.9180794  10.2183237   8.8524876
 -41.7162170  11.7392645   9.1748800 -45.3211555   5.2698851   6.4353223
 -44.9521980   4.1156316   6.5023942 -46.5866432   5.6229777   6.4153385
 -46.7634239   6.6070557   6.2951088 -47.7205620   4.7449164   6.5613818
 -47.5957260   4.1170702   7.4081807 -48.9571724   5.6007366   6.8725061
 -48.9899101   6.4938278   6.2429047 -49.8762741   5.0618954   6.6870098
 -48.9523277   6.1328907   8.3213177 -49.1330795   5.3056121   9.0437069
 -48.0061302   6.6269274   8.6304636 -50.0692177   7.1577096   8.4563932
 -51.0602341   6.9313202   9.0908098 -50.0310516   8.2810135   7.7271800
 -50.8304558   8.9028111   7.7211981 -49.1407776   8.4620810   7.3145337
 -47.9008865   3.7483039   5.4109573 -48.0778847   2.5559416   5.6866550
 -47.6716461   4.1387110   4.2037683 -47.5621262   5.1431637   4.0607748
 -47.5466576   3.1966660   3.1310735 -48.3565598   2.4821615   3.1592488
 -47.6057014   3.9449980   1.7975075 -46.9043045   4.7853956   1.8040203
 -47.3305931   3.3816001   0.9007961 -49.0284538   4.4563537   1.6320051
 -49.3959084   5.0525422   2.4465976 -49.0320053   5.1699471   0.7766598
 -50.0230980   3.3299279   1.3258957 -49.9193039   2.6846781   0.2698847
 -50.9148445   3.0337777   2.1722269 -46.2951088   2.3288226   3.1363835
 -46.3830185   1.1664724   2.7555943 -45.1574173   2.8497279   3.5398250
 -45.0993004   3.8620946   3.7527726 -43.9454041   2.0277531   3.7335112
 -43.7324524   1.4864982   2.8067205 -42.7397614   2.8973784   3.9606855
 -42.8090248   3.4494698   4.8589191 -41.9182205   2.2225680   4.2155342
 -42.3027000   3.7568057   2.7873192 -43.0359306   4.5651474   2.5732563
 -41.3740578   4.2858710   3.0562770 -42.0123711   2.7639160   1.2749554
 -43.6682968   2.8776586   0.4538695 -44.0099678   3.9191904   0.5476710
 -43.5665512   2.5466919  -0.5686285 -44.4346619   2.2158978   0.8628520
 -44.1936455   0.9840018   4.8397641 -43.8257675  -0.1480194   4.6939750
 -44.8506165   1.3573904   5.9467006 -45.0057068   2.3828323   6.0096416
 -45.2913513   0.4834408   7.0444555 -44.4340706  -0.0335643   7.4427228
 -45.8463135   1.3905786   8.1697712 -45.0864830   2.0536945   8.5251255
 -46.6614571   2.0419657   7.7931399 -46.3196602   0.5717744   9.2019577
 -45.6455994   0.5527004   9.9070091 -46.3080444  -0.5441902   6.5978951
 -46.2039223  -1.7149628   7.0165086 -47.2429428  -0.1603194   5.7004337
 -47.2693024   0.8351689   5.4509459 -48.2111588  -1.0519907   5.0085635
 -48.6236763  -1.6597860   5.8051395 -49.4488869  -0.3102282   4.4810596
 -49.5527649   0.5232976   5.1830478 -49.2401085   0.1228124   3.5028956
 -50.6983032  -1.1958629   4.4193211 -50.5301247  -2.0380518   3.7200644
 -50.9631767  -1.6257464   5.3866954 -51.9369507  -0.4424754   3.9759352
 -52.8870468  -0.9417751   4.3202982 -51.9197693   0.4882575   4.6047497
 -51.9756126  -0.1871715   2.4756634 -50.9568481  -0.0341701   2.0866828
 -52.3390274  -1.0746535   1.9502776 -52.8299103   0.9320397   2.1150260
 -52.3670731   1.8248783   2.3974998 -52.8869820   0.9733274   1.1098710
 -53.7752495   0.7884558   2.4475267 -47.5539474  -2.0165200   4.0534296
 -47.9254303  -3.2066653   4.0781827 -46.6231346  -1.5774183   3.2286260
 -46.4989052  -0.5681332   3.1177413 -45.7689095  -2.4837027   2.4174764
 -46.4839134  -2.9592228   1.7267807 -44.7680855  -1.6707646   1.6064690
 -45.1596413  -0.7242116   1.2322866 -43.9299469  -1.3945034   2.2446072
 -44.1203461  -2.4915857   0.4343989 -43.2085876  -1.9597839  -0.2159415
 -44.5704231  -3.6129687   0.1197500 -45.1818123  -3.6354754   3.2293785
 -45.2897987  -4.8068242   2.8407314 -44.6615562  -3.3527839   4.4105086
 -44.5360909  -2.3982315   4.7215838 -44.1019249  -4.3439045   5.3407722
 -43.3105888  -4.9163227   4.8619142 -43.3928642  -3.5860257   6.4993949
 -42.6179504  -2.9370770   6.0721440 -44.1109657  -2.8813624   6.9555278
 -42.7847252  -4.3108134   7.6550431 -43.6766090  -4.7216067   8.2012749
 -41.9567070  -5.5279660   7.2159195 -41.2586937  -5.1740937   6.4876966
 -41.4741936  -6.0142450   8.0697060 -42.5909462  -6.2640352   6.7497134
 -42.0188103  -3.4257438   8.5965405 -42.7695236  -2.6933577   8.9718685
 -41.5829048  -3.9604833   9.4186115 -41.2522736  -2.9305005   8.0885963
 -45.2038536  -5.3422327   5.7703872 -44.9825745  -6.5627670   5.8073435
 -46.3922462  -4.8795056   6.1653018 -46.5900612  -3.8908312   6.2194943
 -47.4363937  -5.8028755   6.6396899 -47.0912361  -6.4079304   7.4699650
 -48.6782036  -4.9764671   7.1474667 -48.8889694  -4.2188873   6.4017649
 -49.6014023  -5.5424700   7.2177372 -48.5158119  -4.1614099   8.4237471
 -47.4980202  -3.7703190   8.4262733 -49.2277489  -3.3368998   8.5008898
 -48.7453690  -5.0937986   9.6381674 -48.2004547  -6.2301259   9.7012882
 -49.4835091  -4.6997585  10.5928030 -47.8502350  -6.7838554   5.4923387
 -48.0470276  -7.9815454   5.7196722 -48.0842743  -6.2797923   4.2721601
 -47.9107437  -5.2814560   4.1692262 -48.4436188  -7.0337400   3.0508556
 -49.3592072  -7.4999261   3.1982908 -48.5251999  -5.9645462   1.9258420
 -49.3660164  -5.3279157   2.1446345 -47.6665115  -5.3030581   1.9708914
 -48.4729233  -6.4691920   0.4862513 -48.5303459  -5.6349049  -0.1555587
 -47.5448570  -6.9644260   0.2661297 -49.6142235  -7.4591537   0.1587031
 -49.4715881  -8.4442739  -0.6169688 -50.7503700  -7.2277470   0.6397342
 -47.4747314  -8.1787357   2.7214096 -47.8685188  -9.3503170   2.4721029
 -46.1482697  -7.8657413   2.8038030 -45.8699074  -6.9039817   3.0712006
 -45.0745773  -8.9413147   2.7171879 -45.2989159  -9.6020775   1.8501687
 -43.6321602  -8.3192596   2.6970098 -43.5234413  -7.5926871   3.5028949
 -42.5585556  -9.4408121   2.7865081 -42.6968231 -10.1694098   1.9106854
 -41.5432434  -9.0362711   2.7516019 -42.6899300 -10.0382280   3.6905842
 -43.3278847  -7.4808164   1.4207340 -42.3346291  -6.9955158   1.6118883
 -43.3076859  -8.0815191   0.5371195 -44.0469055  -6.6732521   1.2767984
 -45.2881584  -9.8840122   3.9076064 -45.3924217 -11.1145735   3.6928096
 -45.3577118  -9.3969421   5.1396818 -45.3617134  -8.3881016   5.2147446
 -45.4441032 -10.2785721   6.3342357 -44.5280685 -10.8976736   6.4657030
 -45.5839615  -9.3477898   7.5722051 -44.6866608  -8.7146482   7.5284834
 -46.4616051  -8.7044630   7.5283108 -45.5201530 -10.2001762   8.8488188
 -46.0565376 -11.1569834   8.7671480 -44.5034637 -10.4908075   9.0813503
 -46.0548630  -9.5717611  10.0947857 -47.1178627  -9.3591671  10.0721254
 -46.0817490 -10.3709135  10.8321943 -45.2343941  -8.4810658  10.7702293
 -45.3802719  -8.5226049  11.8308659 -44.1794548  -8.6876698  10.6769457
 -45.5296402  -7.1028004  10.2426386 -46.5710487  -6.9322281  10.2833195
 -44.9951897  -6.4628263  10.8427668 -45.2692184  -6.9464226   9.3099442
 -46.6226807 -11.2724457   6.2310514 -46.4601898 -12.5073872   6.4079051
 -47.7791214 -10.7776299   5.8314161 -47.7953949  -9.8179951   5.6076407
 -49.0058517 -11.5856285   5.6639581 -49.3331718 -11.9880629   6.6513281
 -50.0836754 -10.5860538   5.1793952 -49.9228821 -10.4315948   4.1002231
 -51.0679436 -11.0198069   5.3515673 -50.0242805  -9.5925617   5.6542616
 -48.8013153 -12.7543726   4.6723261 -49.4189873 -13.7817116   4.8823209
 -47.9290581 -12.6435661   3.6329732 -47.4434280 -11.7347946   3.5724781
 -47.6148987 -13.6725235   2.6219227 -48.4449577 -14.4012690   2.5519583
 -47.4607048 -13.0265665   1.2178068 -46.6994438 -12.2685776   1.2847918
 -47.1159744 -13.7876167   0.5329425 -48.8571358 -12.5498638   0.6802953
 -49.4497910 -13.4777632   0.4709616 -49.3487549 -11.9610538   1.4609292
 -48.5416451 -11.7490587  -0.6060144 -48.2468948 -10.7572021  -0.3233500
 -47.6993141 -12.1880426  -1.1952529 -49.7674713 -11.6261311  -1.5319477
 -49.3571434 -11.2530670  -2.4691079 -50.2764587 -12.6053324  -1.6081636
 -50.7610741 -10.7033930  -0.9680650 -50.2559242  -9.8537464  -0.6979170
 -51.3307724 -10.4531231  -1.7531849 -51.3516197 -11.0413456  -0.2261542
 -46.3322906 -14.4274940   2.9815447 -46.1588058 -15.4695549   2.3515930
 -45.4417839 -13.9533224   3.8514676 -45.5881348 -13.0255880   4.1674762
 -44.3208008 -14.7457161   4.3284817 -43.8605957 -15.1329842   3.3738592
 -43.2240448 -13.8239880   5.0009770 -43.7142181 -13.1901789   5.7489514
 -42.0577202 -14.5732212   5.7003355 -41.8050079 -15.4085207   5.0435429
 -41.2600555 -13.8313093   5.7800288 -42.3565445 -14.8996201   6.6951900
 -42.6453743 -12.9310169   3.8851354 -43.4159431 -12.3336449   3.4353468
 -41.9189682 -12.2293463   4.2962236 -42.1685371 -13.5806770   3.0798376
 -44.6872559 -15.8418264   5.3191776 -44.1201477 -16.9330826   5.2686429
 -45.5858192 -15.6018724   6.2458544 -46.0038795 -14.6612415   6.2716432
 -45.9088936 -16.5037937   7.3711920 -45.0245361 -16.6211433   7.9570127
 -46.9706802 -15.8807039   8.2431374 -46.4879379 -14.9491444   8.6176043
 -47.8014030 -15.4478607   7.6696391 -47.5033913 -16.7686386   9.4522114
 -48.4376297 -16.3398628   9.9329786 -47.8595390 -17.6961365   9.1069784
 -46.4397774 -17.1993980  10.4642715 -46.1071854 -16.5409241  11.4560690
 -45.7561913 -18.3081856  10.2130804 -45.2629471 -18.7178402  10.9571085
 -45.9951401 -18.8404541   9.4108858 -46.3884506 -17.9113407   6.9540572
 -45.8787231 -18.8839035   7.5289493 -47.2743187 -18.0790863   5.9548354
 -47.9780159 -17.0864162   5.1854224 -47.4073448 -16.8120193   4.3076353
 -48.1677818 -16.1337242   5.6964893 -49.2856598 -17.7704201   4.8564377
 -49.7320251 -17.3184700   3.9513021 -49.9084816 -17.6459637   5.7264252
 -48.9099083 -19.2357235   4.6284585 -48.4994087 -19.3077965   3.6068223
 -49.7897530 -19.8427238   4.7976646 -47.6908722 -19.4552021   5.5606456
 -48.0625000 -19.9939327   6.4541874 -46.5652046 -20.2485867   4.9191389
 -46.2602959 -21.3563080   5.2962823 -45.8267937 -19.6242733   4.0295224
 -46.1325912 -18.6710835   3.8184211 -44.6483421 -20.1431179   3.3147981
 -44.9900017 -21.0387497   2.8270409 -44.1800728 -19.0940704   2.2915795
 -44.9901543 -18.7218628   1.6631854 -43.8689766 -18.2435493   2.8367286
 -43.0315933 -19.5455036   1.4135437 -41.7245941 -18.9504852   1.4869177
 -41.5666237 -18.1939430   2.1988347 -40.7660828 -19.2844677   0.5580961
 -39.7705688 -18.8055553   0.6421971 -41.0703697 -20.2547646  -0.4505254
 -40.0967369 -20.6331539  -1.3114674 -39.2857857 -20.1193352  -1.2587827
 -42.3416481 -20.9022312  -0.5201272 -42.6419029 -21.6157436  -1.2831520
 -43.3230247 -20.5364132   0.4072520 -44.3020821 -20.9179726   0.3142018
 -43.5161552 -20.5304642   4.3138576 -43.0041733 -21.6448097   4.2873716
 -43.1381073 -19.6901226   5.2810903 -43.4053497 -18.7128429   5.1839876
 -42.3493919 -20.0149460   6.4811368 -41.3101387 -20.2346153   6.1174202
 -42.2467575 -18.7846184   7.3636894 -41.5678101 -18.0980415   6.9034204
 -43.2386627 -18.3337955   7.3767157 -41.7390289 -18.9204941   8.8245735
 -42.4323235 -19.5695477   9.3517027 -40.2591286 -19.4903202   8.8651714
 -39.6585541 -18.8235741   8.2924089 -39.8684120 -19.5025482   9.9308252
 -40.1038551 -20.5189819   8.5064678 -41.7460594 -17.5529633   9.5107279
 -42.7619629 -17.2486286   9.6563416 -41.3356094 -17.5589314  10.4777355
 -41.2305298 -16.8097191   8.8896189 -42.8713188 -21.1939716   7.2197313
 -42.0789299 -22.0281429   7.5829177 -44.1720238 -21.2550526   7.4731441
 -44.7419548 -20.4835682   7.2268877 -44.7844849 -22.3970642   8.1993694
 -44.1434555 -22.4829216   9.0912189 -46.2340012 -22.0964031   8.6522551
 -46.2365494 -21.0507469   8.9204550 -46.8885612 -22.2691517   7.7985806
 -46.6816330 -23.0332737   9.7927771 -47.8625450 -23.4470749   9.6186705
 -46.0240173 -23.3124275  10.8204088 -44.6413956 -23.7168159   7.4722524
 -44.4208374 -24.7935276   8.0582933 -44.7950401 -23.7668705   6.1038189
 -44.9745636 -22.8934460   5.6503801 -44.4353676 -24.8791695   5.2520180
 -45.0352135 -25.8043327   5.5242009 -44.8367538 -24.5778160   3.8274214
 -45.8341217 -24.1406345   3.8345931 -44.1890869 -23.8178711   3.4180233
 -44.8346786 -25.8913403   2.9651189 -43.9115715 -26.0666466   2.1197639
 -45.7806854 -26.7014103   3.1716304 -42.9087105 -25.1860790   5.2351198
 -42.4689522 -26.3007965   5.2952299 -42.0968704 -24.1515446   5.3193445
 -42.4938164 -23.2706051   5.3616881 -40.6603584 -24.2706871   5.3964734
 -40.3290329 -24.9186497   4.6127014 -39.9921494 -22.9025955   5.1492233
 -40.3376465 -22.5110798   4.1699796 -40.3048477 -22.2295456   5.9336882
 -38.4976234 -23.0044289   5.0999970 -37.8408585 -23.2893963   3.8643634
 -38.4301949 -23.4112587   2.9389789 -36.4562531 -23.4210224   3.8228929
 -35.9567299 -23.5945034   2.8554318 -35.7094421 -23.2769089   5.0197697
 -34.6446571 -23.4268169   4.9557590 -36.3684158 -22.9899578   6.2832904
 -35.7881851 -22.9157181   7.1540923 -37.7620468 -22.8378296   6.2814360
 -38.2683792 -22.6319237   7.2266345 -40.2739906 -25.0079994   6.6980882
 -39.4493790 -25.8963604   6.6034985 -40.8480301 -24.6722679   7.8710885
 -41.3636742 -23.7924671   7.8260512 -40.6863937 -25.4020958   9.1428642
 -39.6952019 -25.1528587   9.4990273 -41.6462173 -24.8645859  10.2576485
 -42.7144432 -24.8722000   9.9522791 -41.6222572 -25.5957775  11.0734177
 -41.1669197 -23.4569359  10.7486525 -41.1362457 -22.8461628   9.8386116
 -41.9850883 -23.0460777  11.3804808 -39.8014908 -23.3415260  11.4949951
 -39.1895523 -24.2952900  11.8938103 -39.3181610 -22.1352119  11.6936131
 -38.4763069 -22.0521584  12.2431459 -39.8442307 -21.3005085  11.4454184
 -40.7974205 -26.9351025   9.0138884 -39.8934364 -27.6481609   9.4774904
 -41.8079033 -27.4735184   8.2974215 -42.5065956 -26.8304806   7.8840847
 -41.9533577 -28.9034271   8.0384188 -41.7259407 -29.3959351   9.0164843
 -43.4168625 -29.2571812   7.7801390 -44.0599136 -28.7961178   8.5963402
 -43.7110596 -28.8411312   6.8102131 -43.6774635 -30.6930161   7.8441792
 -44.7504272 -30.8704491   7.6896091 -43.1948051 -31.1902046   6.9781203
 -43.2334900 -31.4183693   9.0962811 -42.1567993 -31.3676281   9.1994171
 -43.7433624 -31.0600300  10.0017538 -43.5423698 -32.9261627   9.0904388
 -43.4986534 -33.2532310  10.1140547 -44.5568237 -33.0443268   8.6778154
 -42.5952682 -33.7915573   8.3687439 -41.7053185 -33.4919624   8.8236198
 -42.7985153 -34.7528648   8.5161743 -42.6298714 -33.4979820   7.3842764
 -40.9433327 -29.5628395   7.0954728 -40.3290215 -30.5657215   7.4679661
 -40.7361565 -28.8944798   5.9656549 -41.1667480 -28.0114727   5.9036751
 -39.6729698 -29.1909599   5.0328488 -39.8018494 -30.1677685   4.7378120
 -39.6425858 -28.1550140   3.9100564 -40.6738510 -28.0067520   3.4684706
 -39.4154701 -27.1841640   4.3151741 -38.5861168 -28.4171181   2.7588680
 -37.6380196 -28.5473461   3.1875179 -38.8537979 -29.3233128   2.2650263
 -38.5993576 -27.2169685   1.8264729 -39.6532669 -27.0933075   1.4785649
 -38.3299866 -26.2937832   2.4036558 -37.7040825 -27.3657055   0.6377959
 -38.0615234 -28.1952305   0.0092681 -37.7918968 -26.4494209   0.0786704
 -36.2695541 -27.6304321   1.0001072 -36.1893387 -28.5589218   1.4036907
 -35.6422348 -27.5390282   0.2039264 -35.9916725 -26.8703442   1.6284360
 -38.2637711 -29.1153545   5.6633668 -37.4651947 -30.0016193   5.4014611
 -37.9230957 -28.1699295   6.4792247 -38.6595459 -27.4804325   6.6175747
 -36.6993217 -28.1156254   7.2842512 -35.8102188 -28.1608219   6.6428990
 -36.6724243 -26.7647572   8.0259819 -36.6500168 -25.9484177   7.3272300
 -37.5987549 -26.7534428   8.6083088 -35.5368690 -26.5472965   9.0494614
 -34.2536964 -26.6951008   8.7072334 -33.8316574 -26.9385509   7.7235613
 -33.5215111 -26.5375977   9.8702374 -32.5143700 -26.5547009   9.9295244
 -34.2842598 -26.2247868  10.9840250 -33.9908562 -26.0727711  12.3603735
 -32.9904099 -26.0753422  12.6943541 -35.0577011 -25.8196430  13.2564440
 -34.8453636 -25.5765190  14.3040552 -36.3618774 -25.9113522  12.7894773
 -37.1658745 -25.7586594  13.5043850 -36.6560516 -26.1092739  11.4243803
 -37.7016296 -26.1430244  11.0817995 -35.6183701 -26.2901306  10.4860697
 -36.5421982 -29.2837238   8.2199898 -35.4770966 -29.9386501   8.2453423
 -37.5785789 -29.6477985   8.9769287 -38.4469833 -29.1383724   8.8476925
 -37.4941940 -30.8936729   9.7876797 -36.5770302 -30.8125305  10.4104567
 -38.7690201 -31.0081081  10.6391039 -38.7757416 -30.1591702  11.3196526
 -39.6210861 -31.0278873   9.9456501 -38.8111801 -32.3615799  11.4363375
 -37.7764435 -32.5847473  11.8389454 -39.3646393 -32.1000862  12.3236456
 -39.5140305 -33.5556221  10.7703590 -40.0886002 -33.4719696   9.7122345
 -39.5369072 -34.7022743  11.4539862 -40.1261749 -35.3923111  10.9919825
 -39.0860825 -34.7687912  12.3215637 -37.2669563 -32.1992531   8.9532022
 -36.4137802 -33.0189667   9.3486929 -37.9113045 -32.3095284   7.7362752
 -38.6706390 -31.6230030   7.5193605 -37.5353928 -33.3094559   6.7260237
 -37.6644211 -34.2520866   7.2143312 -38.5892906 -33.3265877   5.5590611
 -39.5554428 -33.6898346   5.9075317 -38.7448196 -32.2719727   5.2485151
 -38.2485161 -34.1204605   4.3210120 -37.2617073 -33.8814163   3.9624343
 -38.2708817 -35.1533928   4.5929928 -39.2650909 -33.9253616   3.1621265
 -40.4929199 -34.1542816   3.3850303 -38.8468399 -33.6186905   2.0123920
 -36.0370178 -33.1832733   6.2742143 -35.3723068 -34.2188225   6.3074951
 -35.5801430 -31.9835186   5.9164405 -36.2134628 -31.2272949   5.9719367
 -34.1586647 -31.7683907   5.5061984 -33.9514961 -32.4090042   4.6393795
 -33.8022652 -30.2372532   5.3132768 -34.0437164 -29.7056961   6.2224360
 -32.7445831 -30.1856537   5.1025701 -34.4584579 -29.4467659   4.1713023
 -35.4994888 -29.2412357   4.4444137 -33.9535294 -28.4595280   4.0824294
 -34.3620911 -30.1391335   2.8145943 -33.3745956 -30.8859673   2.5765433
 -35.3124924 -29.8997879   2.0069809 -33.2221832 -32.3830986   6.5566359
 -32.3015404 -33.0886879   6.2216096 -33.4315033 -31.9802189   7.8243947
 -34.2755127 -31.4387817   8.0316086 -32.6452255 -32.2899094   9.0004454
 -31.6486530 -31.9205265   8.8185501 -33.2084045 -31.5944118  10.2398310
 -34.3246880 -31.7483177  10.2454290 -32.7989197 -32.0865479  11.1418009
 -32.7800102 -30.1073914  10.2511082 -31.8248177 -30.0490303   9.7306833
 -33.4530182 -29.4786186   9.6715240 -32.6127510 -29.3945103  11.9828739
 -34.3050613 -29.8161030  12.5658655 -34.4359550 -30.9116726  12.6425467
 -34.4543495 -29.3389225  13.5244322 -35.0654449 -29.4464703  11.9021406
 -32.5905533 -33.8155975   9.2175474 -31.4992561 -34.3919525   9.1887684
 -33.7137337 -34.5149956   9.4284420 -34.6023483 -34.0144653   9.4008865
 -33.7532845 -35.9813004   9.4991693 -33.1174736 -36.2976646  10.2812853
 -35.1725616 -36.4420357   9.9330559 -35.9067383 -36.1259613   9.1820326
 -35.2164612 -37.5538139   9.8997154 -35.6110992 -35.9605865  11.3415775
 -35.8893204 -34.8892097  11.1942148 -36.4768486 -36.5713425  11.6482792
 -34.4764290 -36.0592232  12.4019833 -33.8827400 -37.1580048  12.5550652
 -34.1718178 -35.0753441  13.0659676 -33.2258339 -36.7234077   8.2601671
 -32.5382385 -37.7616959   8.3641863 -33.4775734 -36.2114792   7.0716686
 -33.9482994 -35.3385620   6.9793200 -32.9738846 -36.8708115   5.8484468
 -33.3681412 -37.8788414   5.8125763 -33.6159210 -36.0529938   4.6052833
 -34.7178993 -36.1730804   4.6892114 -33.3820496 -34.9839249   4.7068648
 -33.2050018 -36.5064316   3.1903505 -32.1231804 -36.4635239   3.1290784
 -33.7933197 -37.9260216   2.9198685 -34.8813896 -37.9462814   3.0576384
 -33.6463394 -38.1437645   1.8568135 -33.2430725 -38.6666794   3.5207944
 -33.7978706 -35.4753227   2.2449539 -33.3310661 -34.5059547   2.4635558
 -33.4875908 -35.7398758   1.2309608 -34.8560791 -35.4328766   2.2968657
 -31.4233780 -36.9231071   5.8484654 -30.7938862 -37.9685974   5.6148176
 -30.7847061 -35.8036385   6.1500692 -31.2683315 -34.9056702   6.2044501
 -29.3270988 -35.7637138   6.2057586 -28.9029102 -36.3632889   5.4336214
 -28.7857838 -34.3504105   6.0000448 -28.9792290 -33.7137718   6.8540783
 -27.7296486 -34.4768867   5.8993649 -29.3490486 -33.6506920   4.7988815
 -29.8558216 -32.3433571   4.8807182 -29.8081188 -31.8888893   5.8998690
 -30.5407944 -31.7621536   3.8057861 -30.9843159 -30.7693024   3.7715032
 -30.6552868 -32.4646759   2.6072786 -31.2298412 -31.8756084   1.5583694
 -31.9071102 -31.2663097   1.8425037 -30.1202660 -33.7649574   2.4470487
 -30.2101307 -34.3325691   1.5095980 -29.4882412 -34.3618622   3.5703275
 -29.0980511 -35.3992462   3.5234058 -28.7458973 -36.4788322   7.4629779
 -27.6716080 -37.0758324   7.3745775 -29.4500561 -36.4950790   8.6103144
 -30.3510323 -35.9614487   8.6154604 -29.0491791 -37.1830215   9.8005428
 -28.0981636 -36.8905067  10.0933704 -30.0090637 -36.9063377  10.9827757
 -31.0644150 -36.8368492  10.6129398 -29.9583054 -37.6869240  11.6987324
 -29.6053009 -35.5533371  11.6094389 -28.7013168 -35.6132698  12.2283258
 -29.4044113 -34.8176003  10.8176317 -30.7737999 -35.0660057  12.5049706
 -31.7592716 -35.1079750  12.0085373 -30.9184341 -35.6872406  13.3366308
 -30.4862423 -33.6814461  12.9331055 -29.6233540 -33.2642670  12.5865803
 -31.3094921 -32.8191910  13.5008535 -30.8046322 -31.6903000  13.8965340
 -29.8309155 -31.5745907  13.8042393 -31.4259949 -31.0420017  14.2970648
 -32.5561371 -33.0116882  13.7691488 -32.9459419 -33.8780670  13.4577932
 -33.1077614 -32.3295631  14.2752781 -28.9851036 -38.6908760   9.5017567
 -28.0583553 -39.3619041   9.9616613 -29.9615078 -39.2060814   8.7189178
 -30.7218971 -38.5616112   8.4655771 -29.9704571 -40.6027260   8.3007498
 -29.8542404 -41.2474403   9.1856422 -31.3842621 -40.9003639   7.7232976
 -32.1551437 -40.7328758   8.5304813 -31.5795994 -40.2294388   6.8889642
 -31.5269127 -42.3607292   7.2621393 -30.9479923 -42.5814018   6.3688178
 -31.1143036 -43.0176544   8.0393848 -32.9615555 -42.7005844   6.9382281
 -33.6926422 -41.9303513   6.3092976 -33.4638252 -43.8164368   7.3811240
 -34.3849411 -44.1331635   7.0696158 -32.8489265 -44.5192032   7.7512484
 -28.8678284 -40.9476433   7.2349763 -28.4324741 -42.0910034   7.1463060
 -28.4401150 -39.9562988   6.4303951 -28.8917770 -39.0500870   6.5109487
 -27.4437695 -40.0956573   5.3114362 -27.4386578 -41.1257515   4.9857745
 -27.8653450 -39.2169762   4.1171336 -28.9831581 -39.2886314   3.9679000
 -27.5555458 -38.2169800   4.3338399 -27.2983532 -39.6723137   2.7901742
 -26.2408295 -39.8488350   2.8378699 -27.7844086 -40.6028786   2.6697111
 -27.6023865 -38.7536011   1.5968449 -27.4140434 -39.3173027   0.6680009
 -28.6801453 -38.5488548   1.5431659 -26.7326717 -37.4966888   1.6455935
 -27.0554066 -36.9061432   2.4734654 -25.6781693 -37.7761230   1.8512206
 -26.7974453 -36.8201981   0.3798068 -27.7749176 -36.7745667   0.0150276
 -26.4407387 -35.8804550   0.4055507 -26.2395668 -37.3764076  -0.3169879
 -26.0112095 -39.9010696   5.7654023 -25.1162338 -40.5334435   5.2262621
 -25.7771206 -39.0174065   6.7159719 -26.5832920 -38.5330734   7.0594139
 -24.4267273 -38.5987282   7.1700239 -23.9121361 -38.4820786   6.2636108
 -24.4749641 -37.1971130   7.7453728 -25.0983543 -36.5146332   7.1183424
 -25.0964851 -37.1808357   9.1385908 -24.3759727 -37.4380569   9.8968010
 -25.4474144 -36.1142006   9.2489996 -25.9623222 -37.8342514   9.2558918
 -23.0678673 -36.6923294   7.8395028 -22.5229092 -36.8309860   6.9093781
 -23.0345383 -35.6210747   8.0397072 -22.5792866 -37.1744270   8.6351423
 -23.7055607 -39.6114502   8.0846996 -22.6475124 -40.1127968   7.6994400
 -24.2856998 -40.0812111   9.1912403 -25.1479130 -39.6235733   9.4572821
 -23.7200432 -41.1169395  10.0806999 -22.8489704 -40.6033096  10.5052605
 -24.6712971 -41.3394356  11.3331890 -25.2130108 -40.3987274  11.5684090
 -25.5214424 -42.0158348  11.1396980 -23.8980942 -41.8788490  12.5549335
 -24.6296425 -42.2405014  13.2302999 -23.2512665 -42.7175217  12.2455750
 -23.0134754 -40.8254280  13.2468815 -22.3324509 -41.1754799  14.2660093
 -22.8864765 -39.7177925  12.7498589 -23.1856155 -42.4818497   9.4424496
 -22.0675068 -42.8938751   9.8055067 -23.9604359 -43.2200050   8.6053219
 -25.3276615 -42.9725227   8.2117167 -25.5307102 -41.9554863   8.0001650
 -26.0397167 -43.3104515   8.9590387 -25.6346111 -43.9014778   7.0368252
 -25.2663250 -43.4591904   6.1461711 -26.6950417 -44.1896248   6.9551296
 -24.7205257 -45.0702324   7.2944498 -24.4314861 -45.6277313   6.3900251
 -25.1507015 -45.8290443   7.9211540 -23.4744682 -44.4422531   7.9292245
 -23.1089191 -45.1835632   8.6766596 -22.3461800 -44.1626549   6.8982501
 -21.4298935 -44.9915466   6.7915511 -22.3718147 -43.0488281   6.1262150
 -23.1696339 -42.4355316   6.1564121 -21.3044338 -42.6508179   5.1779203
 -21.0526352 -43.5050354   4.4851599 -21.8248482 -41.4881096   4.2734666
 -22.7286930 -41.8408394   3.7669585 -22.2162075 -40.7000504   4.9227891
 -20.7789974 -40.9239006   3.2417514 -19.9733257 -40.4368172   3.8255253
 -20.2395992 -42.0228996   2.2785506 -20.9892673 -42.8078918   2.0847533
 -19.9477158 -41.5965881   1.3581264 -19.4870605 -42.6590118   2.7291110
 -21.4856319 -39.8974686   2.3518972 -22.0417290 -39.1992531   2.9668620
 -20.8073807 -39.3906364   1.6574931 -22.2389832 -40.3832245   1.7136359
 -20.0076313 -42.2372665   5.9710531 -18.8995781 -42.4781647   5.5004497
 -20.1250839 -41.6160622   7.1930885 -21.0834122 -41.3367310   7.4814205
 -19.0489578 -41.3052902   8.1872330 -18.2929440 -40.7005348   7.6624913
 -19.6633606 -40.3845558   9.3086472 -20.0654392 -39.4771805   8.8380861
 -20.5255604 -40.8320770   9.8238735 -18.6370010 -40.0244484  10.4276104
 -18.3013725 -40.9258118  10.9632978 -17.8121853 -39.6123199   9.9219313
 -19.1565456 -39.0442238  11.5198698 -20.0530987 -39.4177551  11.9961796
 -18.4351845 -38.9731483  12.3371515 -19.4303398 -37.7198830  10.9544611
 -18.6477013 -37.2415428  10.5903282 -20.5755348 -37.0678787  10.9335756
 -20.6511669 -35.9188461  10.2882147 -19.7739143 -35.4765244   9.9524107
 -21.4723053 -35.3845367  10.2119055 -21.6471081 -37.4624977  11.4916172
 -21.6977310 -38.3159714  11.9955769 -22.4526615 -36.8083801  11.5942106
 -18.3868465 -42.5062561   8.7713852 -17.1723881 -42.5493965   8.7703781
 -19.1920414 -43.4968796   9.1291084 -20.1826668 -43.3624458   9.1149826
 -18.6538620 -44.8345566   9.5467653 -18.0175610 -44.6729355  10.4081450
 -19.8646832 -45.6412506  10.0148697 -20.6387310 -45.6686859   9.2222128
 -19.5981808 -46.6653061  10.2548847 -20.3015022 -45.1748848  10.8607693
 -17.8733597 -45.4914818   8.3815460 -16.7293320 -45.9022522   8.5928354
 -18.3529854 -45.4306488   7.1598396 -19.3033810 -45.1049118   7.0058107
 -17.6525459 -45.9039001   5.9991117 -17.4122734 -46.9597435   6.1626906
 -18.6556892 -45.9484253   4.8351145 -19.4497566 -46.5140495   5.2100701
 -19.0714989 -44.9584007   4.6446695 -18.0473766 -46.5086403   3.5293958
 -17.5068493 -45.6553116   3.0867462 -17.3409634 -47.2797356   3.7687433
 -19.0887909 -47.0715027   2.5172915 -18.7016602 -47.9400101   1.7096924
 -20.2644901 -46.6176796   2.4352639 -16.3103962 -45.1858902   5.7065248
 -15.2538204 -45.7855759   5.5529637 -16.2691517 -43.8245392   5.7739363
 -17.1455956 -43.3085709   5.9453912 -15.0231876 -43.0079231   5.7578783
 -14.5467558 -43.2306252   4.7974892 -15.3801842 -41.5140495   5.8581038
 -16.0597076 -41.4263153   6.6691551 -14.4593801 -40.9818459   6.0977621
 -16.0386105 -40.9562263   4.6172967 -16.8243160 -41.6426048   4.3110752
 -16.7247257 -39.6453819   5.0041585 -16.0002155 -38.9543762   5.3838468
 -17.2454147 -39.2005043   4.1654825 -17.3933907 -39.8894081   5.8243461
 -15.0818634 -40.7008553   3.4331870 -14.5235815 -41.6049423   3.1660175
 -15.6845055 -40.4789696   2.5362418 -14.3921890 -39.8778343   3.6532054
 -14.0346336 -43.4669075   6.8248997 -12.8866873 -43.6880455   6.5523095
 -14.4777527 -43.4714088   8.0695133 -15.4353819 -43.1460609   8.1493416
 -13.7170048 -43.8044205   9.2996035 -12.9328575 -43.0670357   9.5001278
 -14.6757021 -43.7658272  10.4948330 -15.0936785 -42.7587700  10.5839357
 -15.4509068 -44.4969559  10.2715311 -14.0448465 -44.2293205  11.8157949
 -13.4232178 -45.0951080  11.6304159 -13.3910456 -43.4562836  12.2059784
 -15.1375380 -44.5123100  12.7949905 -15.8330355 -43.6321106  13.2636108
 -15.3931293 -45.7576408  13.1422043 -16.1613617 -45.8962975  13.7620344
 -14.9344435 -46.4927292  12.6479359 -12.9897499 -45.1271095   9.1798401
 -11.7630901 -45.1474838   9.3043661 -13.6959028 -46.2132263   8.8797941
 -14.7046127 -46.1032448   8.6850424 -13.0155706 -47.4983444   8.6271629
 -12.4237967 -47.6942024   9.5274982 -13.9955225 -48.6732140   8.5595007
 -14.5742693 -48.7220955   7.6090870 -13.3626003 -49.5829468   8.4328394
 -14.9434242 -48.9514122   9.7572441 -15.7419071 -48.1933784   9.8194323
 -15.4463816 -49.8949623   9.6885567 -14.1762371 -48.9146080  11.0933828
 -13.4083261 -49.8725090  11.3933697 -14.1819372 -47.8742561  11.8053293
 -12.0441618 -47.4080238   7.4154735 -10.9621830 -47.9251518   7.4805374
 -12.4600210 -46.7541161   6.3102922 -13.3636017 -46.3287048   6.3480215
 -11.6474733 -46.5933609   5.1281810 -11.4921198 -47.5893593   4.6624198
 -12.1268559 -45.9652138   4.3942494 -10.3094997 -45.9042015   5.4321451
  -9.2788296 -46.4332619   5.0890827 -10.3485537 -44.8147736   6.1417694
 -11.2506008 -44.3420258   6.3194985  -9.1193352 -44.1168747   6.5850015
  -8.4879007 -43.7768555   5.7223568  -9.5710897 -42.8852921   7.3426013
 -10.2706900 -43.1425667   8.1345024  -8.7073860 -42.4200134   7.8130012
 -10.0643263 -42.2221909   6.5918427  -8.2118855 -45.0167503   7.5028772
  -7.0098901 -45.1244698   7.3104472  -8.7903423 -45.7864914   8.4491034
  -9.7933712 -45.6532249   8.5313425  -8.0273800 -46.7506180   9.2465429
  -7.2684717 -46.2181473   9.8468971  -9.0041952 -47.4271812  10.2415428
  -9.9626951 -47.7357674   9.7023687  -8.5739660 -48.3492622  10.6684532
  -9.3211975 -46.5155220  11.4496851  -8.3886719 -46.3209343  11.9870520
  -9.7396030 -45.5650330  11.1441917 -10.2721014 -47.2138939  12.4706669
 -11.1944504 -47.4607086  11.9579420  -9.7883682 -48.0793762  12.9059734
 -10.6140337 -46.2876358  13.5454216  -9.9228172 -45.6105270  13.7933912
 -11.6658030 -46.2018929  14.2917538 -11.7532434 -45.2565575  15.2018251
 -11.0287590 -44.5886955  15.2805815 -12.6523409 -45.2182808  15.6620970
 -12.6855001 -47.0252037  14.1479702 -12.6920414 -47.6553574  13.3547268
 -13.5844707 -46.9104729  14.6061335  -7.3262758 -47.8347931   8.4176502
  -6.1490579 -48.1307983   8.5879078  -8.0257111 -48.2714500   7.3940144
  -8.9773006 -47.9237976   7.2795033  -7.5419836 -49.2096939   6.3796949
  -7.2153482 -50.1182518   6.8441391  -8.7147827 -49.6755943   5.4637785
  -9.4463139 -50.1695099   6.1213512  -9.1577215 -48.8189926   5.0270982
  -8.2217617 -50.7248001   4.4296961  -7.3756881 -51.2227859   4.9339757
  -8.9560070 -51.5401688   4.2140102  -7.6989455 -50.1371536   3.1370482
  -8.3676319 -49.3061028   2.5367260  -6.5556316 -50.5199089   2.6277831
  -6.1347513 -50.0026779   1.8319117  -6.0499792 -51.2615356   3.1406245
  -6.3683996 -48.6480751   5.5373735  -5.2784944 -49.2365990   5.4830103
  -6.6202431 -47.4628639   4.9647570  -7.5358148 -47.1308327   5.0843043
  -5.6840992 -46.7023239   4.1584959  -5.2914624 -47.3965492   3.4049778
  -6.3805003 -45.5105057   3.5041726  -7.2818494 -45.8102417   3.0376790
  -6.6958308 -44.8127708   4.2310581  -5.5494618 -44.7789078   2.4530067
  -6.1269946 -43.9392815   2.2160974  -4.6227784 -44.4217377   2.8975737
  -5.3320475 -45.6862068   1.2413584  -4.7330036 -46.5172653   1.5562223
  -6.2679915 -46.1261215   0.8774620  -4.5351009 -45.0243950   0.0876724
  -5.0349326 -44.0588074  -0.2260349  -3.5591345 -44.7261772   0.5794033
  -4.3814950 -45.9720192  -1.0488954  -5.1954088 -46.1846695  -1.6090978
  -3.6448398 -45.6385956  -1.6713315  -3.9945045 -46.8661079  -0.7198513
  -4.4129963 -46.3907585   4.9614410  -3.2781422 -46.5883598   4.4939322
  -4.4931011 -45.8010712   6.1440334  -5.3577290 -45.5650520   6.5604348
  -3.3252201 -45.6494713   7.0175862  -2.5611460 -45.0680885   6.4519281
  -3.7028384 -44.9249992   8.2792645  -4.2780108 -44.0255394   8.0829659
  -4.4061270 -45.5924301   8.8102732  -2.5460448 -44.5856323   9.2738867
  -2.0144186 -45.5090141   9.5547924  -1.5117799 -43.5882912   8.7302389
  -1.9773744 -42.5603561   8.5993881  -0.6004165 -43.5323906   9.3638525
  -1.1226557 -43.8556137   7.7605052  -3.2016184 -43.9954071  10.5017624
  -3.7199821 -44.7964859  11.0056486  -2.4259539 -43.6859894  11.2624655
  -3.8083842 -43.1078720  10.3250017  -2.5882604 -47.0147400   7.4099016
  -1.3624005 -47.0856514   7.4190326  -3.2974479 -48.1129036   7.6224446
  -4.3205032 -48.1084061   7.6782484  -2.6196005 -49.3560028   7.8910923
  -1.8741996 -49.1798363   8.6616383  -3.6547923 -50.4309273   8.4032240
  -4.0190516 -50.0693207   9.3468361  -4.4954581 -50.5409203   7.6538558
  -3.0062699 -51.7588768   8.6244640  -2.9135969 -52.7365150   7.6797671
  -3.0632255 -52.6339569   6.6688843  -2.1957333 -53.7204208   8.2388935
  -1.8915255 -54.6153831   7.6969929  -1.8812276 -53.4627495   9.5187035
  -2.3456066 -52.1678734   9.7395830  -2.2657852 -51.5950546  10.6202116
  -1.8467127 -49.8817787   6.7029629  -0.7001781 -50.2211380   6.8230066
  -2.4799807 -49.8962097   5.5122089  -3.4264348 -49.5316277   5.4900498
  -1.9285240 -50.0485840   4.1912966  -1.6978533 -51.0840302   3.9929867
  -2.9861288 -49.7254791   3.1408896  -3.8904886 -50.3256798   3.3973405
  -3.3270230 -48.7050972   3.2597635  -2.6104407 -49.9655113   1.6552711
  -1.5798010 -49.6560326   1.5524762  -2.6658175 -50.9958992   1.3730161
  -3.5456336 -49.2402725   0.6587359  -4.7802997 -49.3973503   0.7154726
  -3.0105619 -48.5557976  -0.2409683  -0.6393774 -49.1364822   3.9364851
   0.4236070 -49.6793365   3.7111971  -0.7685906 -47.8304749   4.1879187
  -1.7099638 -47.4399185   4.3000064   0.3428838 -46.8211517   4.0367250
   0.7161721 -46.8814468   2.9819264  -0.2003393 -45.3902283   4.2121534
  -0.7425629 -45.3849602   5.1576204   0.6419712 -44.7224770   4.2392583
  -1.0826517 -44.8360596   3.0926917  -1.7780644 -45.6172714   2.7571080
  -1.8699684 -43.6507797   3.6033659  -1.2850631 -42.8379402   3.9299262
  -2.4810987 -43.2533035   2.7800236  -2.5655854 -43.9079666   4.3910537
  -0.2639679 -44.3751106   1.8640594   0.3405111 -45.1794853   1.4523332
  -0.9274572 -43.9504967   1.0916950   0.3491016 -43.5292435   2.1741781
   1.5450115 -47.2196159   4.9392219   2.6615212 -47.3773613   4.4847379
   1.2602400 -47.5055771   6.2373548   0.2860857 -47.3142052   6.5676875
   2.2429967 -48.1258240   7.1661944   3.0956509 -47.4678764   7.2396955
   1.7272042 -48.2016754   8.6101904   0.8720030 -48.8902817   8.6209974
   2.4269881 -48.7492714   9.2158089   1.4321740 -46.9200478   9.3802786
   0.6747895 -46.3302231   8.9548702   1.1315936 -47.1260910  10.3878651
   2.6272151 -46.0005379   9.5436420   2.4647763 -44.7937355   9.4069443
   3.7707093 -46.4643326   9.9589472   4.5020037 -45.7778893  10.2464409
   3.8662591 -47.4763451  10.0842495   2.8347776 -49.4250336   6.6765118
   4.0526505 -49.6195412   6.8572764   2.0568798 -50.3310165   6.1068029
   1.0368724 -50.1576996   6.1170716   2.6261413 -51.6292343   5.6727457
   3.3398259 -51.9817200   6.4274530   1.5481173 -52.7203331   5.5237775
   1.2114365 -52.9175720   6.5055614   0.7256501 -52.3503838   4.9620905
   1.9324387 -54.0387878   4.8708243   0.9966476 -54.5844116   4.9846997
   2.0924573 -53.8269043   3.8203435   3.1572797 -54.8709106   5.4012685
   3.8269475 -54.4654617   6.3628507   3.2697022 -55.9610710   4.8329039
   3.5102561 -51.5073738   4.4465184   4.6131792 -52.0730438   4.4211431
   3.0603144 -50.7188263   3.4412596   2.1094348 -50.3837166   3.5757554
   3.7440035 -50.3971062   2.2105589   4.0255694 -51.2788849   1.6396968
   2.8632751 -49.5755730   1.3042657   2.3496332 -48.8169441   1.9237274
   3.5280707 -49.1335258   0.4930744   1.8662360 -50.5213585   0.5648319
   2.4365318 -51.2989960  -0.0123897   1.2244636 -51.0183182   1.2608899
   1.1121894 -49.5456161  -0.3840595   0.6753209 -48.7413368   0.2165320
   1.7366278 -49.1595993  -1.1606016  -0.0504296 -50.3614197  -1.0194057
   0.3994671 -51.1268005  -1.6231190  -0.6368836 -50.8277359  -0.2051141
  -0.9707358 -49.4928207  -1.8229063  -0.5442103 -48.6786995  -2.2468171
  -1.2982107 -50.0051346  -2.6290820  -1.7745662 -49.1836624  -1.3255219
   5.0485492 -49.6716080   2.4758549   6.0532527 -49.9837189   1.8265049
   5.0280900 -48.7974892   3.4859111   4.1352792 -48.5587006   3.8873527
   6.1702533 -48.1384087   4.0902033   6.6741176 -47.6089935   3.2839463
   5.7206674 -47.0106659   5.1245646   5.0245423 -46.2942657   4.5398488
   5.2062459 -47.5794945   5.9078388   6.8147063 -46.1157188   5.7106109
   7.4955297 -46.7350731   6.3124485   7.6194448 -45.4660645   4.5897512
   6.9503808 -44.9856720   3.8548443   8.3375854 -44.7184410   5.0183482
   8.2222118 -46.2112122   4.0532146   6.2863121 -45.0724182   6.6772084
   5.8001661 -45.4945335   7.5303102   7.1022983 -44.5141220   7.0989823
   5.6880264 -44.4268188   6.1142588   7.2412200 -49.0612564   4.7186298
   8.4268265 -48.8886452   4.4896522   6.7779489 -49.9890518   5.5816722
   5.7932086 -50.0992393   5.6688933   7.6333351 -50.6739273   6.5379233
   7.9148984 -49.9655495   7.2252703   6.9162273 -51.7572365   7.3308992
   6.4650545 -52.4862480   6.6559601   7.6258807 -52.2492371   8.0040722
   5.9492440 -51.1954079   8.1720839   5.2880025 -50.7051468   7.6677513
   8.9047432 -51.2846069   5.9406896   9.9539003 -51.0846901   6.5571017
   8.8905258 -51.9375572   4.7354398   7.7306232 -52.5721321   4.0405984
   7.2315083 -51.9313889   3.4002552   7.0123310 -52.9597816   4.7790332
   8.3220577 -53.6583290   3.1705883   7.7461529 -53.7516212   2.2172954
   8.3926210 -54.5846710   3.7279811   9.7385445 -53.1625938   2.8638651
   9.6648560 -52.6195335   1.9082332  10.4247561 -53.9975052   2.7471755
  10.1539955 -52.2578087   4.0390534  10.7388420 -52.8676567   4.7050738
  10.9849072 -51.0351906   3.5789564  12.1948156 -50.9734573   3.8787744
  10.4136982 -50.0329056   2.9254704   9.4213657 -49.9683380   2.8281262
  11.1647148 -48.8585472   2.4611714  11.9818106 -49.2152481   1.8532480
  10.2193394 -48.0268135   1.5358260   9.7272987 -48.7002602   0.7696431
   9.4104109 -47.6253471   2.1634018  10.9623709 -46.8542442   0.7645702
  11.2666712 -46.1672363   1.4922987  12.1741829 -47.2758255  -0.0493477
  11.8499479 -48.0230713  -0.7673251  12.5990238 -46.3633003  -0.5041797
  12.8822031 -47.6385880   0.6715677   9.9207315 -46.1832428  -0.1446164
   8.9713440 -46.0796585   0.3742430  10.2352161 -45.1748428  -0.4214050
   9.7206049 -46.7713242  -1.0369786  11.7547503 -48.0080566   3.5586252
  12.7374763 -47.2855339   3.3704033  11.1038704 -48.0570755   4.7607408
  10.1699562 -48.4801712   4.7810574  11.5226326 -47.3920517   5.9736085
  11.5795174 -46.3176880   5.7157249  10.7584200 -47.5359116   6.7679977
  12.8241301 -47.8736343   6.5160985  13.5290995 -47.1075058   7.1646028
  13.1385221 -49.1572151   6.3156171  12.4188604 -49.7346649   5.9269519
  14.4767418 -49.7666512   6.5471482  14.9214315 -49.3432007   7.4172778
  14.3385067 -51.2531509   6.8284268  13.8898382 -51.4046173   7.7802777
  13.6954079 -51.6297874   6.0731287  15.5492010 -52.2119713   6.7723236
  15.2483931 -53.2317963   7.1036787  15.8565416 -52.2391739   5.7165718
  16.7474575 -51.8131256   7.6147418  16.6101131 -51.1118355   8.6229696
  17.8968124 -52.0328941   7.1994448  15.5034485 -49.5552673   5.4089651
  16.6938877 -49.3410530   5.7278137  15.0429907 -49.6491013   4.1705170
  14.0643301 -49.9342728   4.0542617  15.9401512 -49.4471207   3.0194867
  16.7913036 -50.1447830   3.0894148  15.1868200 -49.8403206   1.7128183
  14.2073936 -49.3190918   1.6330482  15.8154192 -49.5073395   0.8989755
  15.0593586 -51.3834724   1.5551771  16.0338612 -51.7397728   1.5595125
  14.4643869 -51.8195343   2.3503835  14.3809214 -51.6748238   0.1792409
  14.2201796 -50.7761612  -0.6567943  14.0625134 -52.8880310  -0.1162790
  16.4950218 -48.0073586   2.9849687  17.6424332 -47.7786980   2.6035678
  15.6660404 -47.0047722   3.3450546  14.7081299 -47.1787720   3.4425189
  16.0956745 -45.6047783   3.5305426  16.7515221 -45.3177338   2.6854799
  14.8842325 -44.6586952   3.4883320  14.3205156 -45.0390587   2.6125515
  14.2215862 -44.8396683   4.3499365  15.2222214 -43.1775513   3.3907173
  14.2674437 -42.7146988   3.3401814  15.7351742 -42.9136429   4.3057628
  16.0837650 -42.5767326   1.8429577  14.9587545 -41.2010612   1.4779948
  15.2128448 -40.3814011   2.1914275  15.1509438 -40.8660583   0.4665604
  13.8788042 -41.3968849   1.5292348  16.9350204 -45.4252090   4.7941637
  17.7519894 -44.5043983   4.9026856  16.8054638 -46.3271904   5.7610531
  16.1321735 -47.0792618   5.6235933  17.6943779 -46.3475380   6.9802814
  17.9057579 -45.3140717   7.3133903  16.9768810 -47.0686378   8.1169252
  15.9254065 -47.3168221   7.8369927  17.3909645 -48.0411530   8.2737913
  16.9112988 -46.3196907   9.4390230  16.4808025 -46.9811974  10.2022734
  17.9789505 -46.1903076   9.7180738  16.2101955 -44.9762688   9.3829546
  16.3064175 -44.6066704  10.4033899  16.6657372 -44.2497978   8.7420063
  14.7826109 -45.1201477   9.0862474  14.5172262 -45.8512344   8.4689007
  13.7978592 -44.3800049   9.5286446  12.5648117 -44.7277222   9.3876581
  12.3713350 -45.5733681   8.8789740  11.8733301 -44.0358391   9.6748304
  13.9544344 -43.2224236  10.1559467  14.9445686 -42.9218712  10.2370539
  13.2484198 -42.5890198  10.5543518  19.0519390 -46.9609833   6.6641197
  20.0441818 -46.4548073   7.1895785  19.2132168 -47.8552818   5.7022572
  18.4350243 -48.3818398   5.3269358  20.5469036 -48.2197647   5.1291966
  21.1848907 -48.5961876   5.9477005  20.5113773 -49.4246254   4.1252894
  20.0283089 -50.3515968   4.5230103  19.9508247 -49.1269264   3.2475173
  21.9288940 -49.7559929   3.5723557  22.6381912 -50.4500923   4.3455291
  22.3784943 -49.3260956   2.4935398  21.2216663 -46.9436340   4.5237083
  22.4695892 -46.8073730   4.6789770  20.4447842 -46.0280190   3.9303625
  19.4425602 -46.1536446   3.9626977  20.9283810 -44.7273445   3.4802532
  21.8547726 -44.8798714   2.9390585  19.9223824 -44.1007996   2.5193808
  18.9250088 -44.0473595   2.9740760  20.2686195 -43.0761681   2.2530386
  19.7947464 -44.8902512   1.2179359  19.3659782 -45.8486977   1.4209129
  19.1162663 -44.2441750   0.6229015  21.1201382 -45.0078621   0.4581076
  20.8172073 -45.0796967  -0.5939152  21.6508694 -44.0677452   0.6053304
  21.9347115 -46.1557808   0.8393561  21.4677067 -46.8735466   1.3814873
  23.2016792 -46.3432693   0.5102459  23.8134232 -47.4095192   0.8583275
  23.3377438 -48.0730438   1.5186517  24.7738628 -47.4891129   0.6057694
  23.8690224 -45.4919205  -0.2003344  23.3675022 -44.7094154  -0.6489411
  24.8071461 -45.7113991  -0.4684967  21.2699165 -43.8032684   4.5970335
  22.3115711 -43.1480179   4.4675808  20.5792618 -43.8402939   5.7529430
  19.7881279 -44.4545326   5.8050299  21.0174580 -43.1485176   7.0168090
  21.1335926 -42.0872459   6.8305011  19.9197254 -43.3163033   8.0707130
  19.9834633 -44.2709045   8.5399523  20.0230427 -42.5249557   8.7846985
  19.0073414 -43.2655754   7.5126977  22.3505898 -43.6080208   7.5483556
  23.1945305 -42.7607307   7.8863811  22.6135483 -44.9584923   7.5269980
  21.7942696 -45.5234146   7.2043562  23.8237648 -45.5852661   8.0294561
  24.0296345 -45.2617416   9.0290213  23.6306076 -47.1270561   8.1466589
  23.2710476 -47.4655724   7.1704779  24.6128540 -47.6498451   8.3288527
  22.6041889 -47.4872055   9.2589226  23.0277996 -47.2339020  10.2313042
  21.6729431 -46.8723679   9.1272917  22.2258835 -49.0001907   9.1218243
  22.1959000 -49.1616020   8.0324564  22.9723854 -49.6879272   9.6167269
  20.9627323 -49.2930412   9.7795553  20.8923893 -49.1204414  10.7901440
  19.8912659 -49.8743668   9.2611494  18.8222008 -50.1071205   9.9242744
  18.8001232 -49.7515144  10.8697224  18.1458282 -50.6312218   9.4298811
  19.8512383 -50.2628860   8.0658998  20.5659389 -50.1189651   7.3670397
  19.0034561 -50.6833076   7.6873450  25.0031261 -45.1779137   7.1498404
  26.0415058 -44.7842484   7.6358981  24.8161907 -45.2866364   5.8313174
  23.8760567 -45.5033951   5.5543108  25.7717724 -44.8896217   4.7975845
  26.6847591 -45.4636459   4.8223300  25.1086216 -45.0599518   3.4359469
  24.1194553 -44.5370941   3.3759129  25.7858887 -44.6150017   2.7178125
  24.9653549 -46.1248627   3.2394114  26.1103439 -43.4206047   5.0830369
  27.2760124 -43.0410194   5.1650200  25.1229324 -42.5580673   5.2854595
  24.1852551 -42.9462013   5.1130843  25.2475815 -41.1154556   5.5545831
  25.8436604 -40.7334862   4.7454777  23.8580170 -40.4533615   5.5097656
  23.5550499 -40.3827667   4.4953303  23.2017326 -41.1029434   6.1479783
  23.8499737 -39.0600815   6.1651144  24.1778412 -37.8716507   5.5723376
  24.6696835 -37.7595444   4.7212844  23.9106178 -36.9299812   6.4827595
  24.0555668 -35.8850632   6.2540560  23.4759808 -37.4708862   7.6385875
  23.4774208 -38.8415985   7.4706597  23.2289009 -39.6118889   8.1994619
  26.0518742 -40.8661270   6.8133311  26.9857597 -40.0893860   6.7913733
  25.8318920 -41.6753845   7.8775744  25.1297283 -42.4173737   7.7496586
  26.6135960 -41.5615997   9.1251221  26.6061420 -40.5175476   9.4381504
  25.9150505 -42.3499908  10.2160587  25.5792789 -43.2902718   9.8009996
  26.7853394 -42.6913605  11.4217873  27.1340466 -41.7871819  11.9290848
  26.2053223 -43.3399925  12.0767975  27.5962372 -43.3600655  11.1381330
  24.7115746 -41.5153275  10.7203016  23.9806252 -41.4337120   9.9333715
  24.2295094 -41.9613037  11.5969753  25.0071793 -40.5000916  11.0181942
  28.0900459 -41.9225464   8.7768688  29.0312195 -41.1694756   8.9932594
  28.3297329 -43.0812988   8.1407919  27.5662613 -43.7540283   8.0561895
  29.6297455 -43.5512238   7.6376719  30.3106594 -43.6787376   8.4700222
  29.5042152 -44.8763885   6.8817110  28.9372940 -44.7658691   5.9727473
  30.5091267 -45.1591568   6.5391712  29.0506649 -46.0635185   7.7451425
  28.5971832 -47.0386696   7.0916538  29.1887646 -46.0143356   8.9979572
  30.3453617 -42.4821548   6.8060918  31.5516968 -42.2448120   7.0233483
  29.6291809 -41.8815575   5.9082484  28.6488628 -42.1208611   5.8289299
  30.1598473 -40.8194580   5.0390553  31.0441093 -41.2605286   4.5341482
  29.2395039 -40.6540527   3.8234723  28.2417336 -40.2793350   4.1681967
  29.6755447 -39.9605446   3.1216245  29.1222954 -41.6045609   3.2782555
  30.5476685 -39.5364799   5.7657604  31.5768051 -38.9157906   5.5230122
  29.7601242 -39.1087036   6.8082266  28.8749962 -39.6130142   6.9767184
  30.1117229 -37.9747963   7.7193255  30.3364925 -37.1287880   7.0280724
  28.9145737 -37.5543556   8.6054316  28.0892544 -37.1810722   7.9663701
  28.5636711 -38.5046730   9.0103283  29.2036171 -36.6761703   9.7761192
  29.8303394 -37.2357445  10.4261866  29.9042988 -35.3683434   9.4376602
  29.1945248 -34.7117081   8.9552040  30.2915192 -34.9235039  10.3701773
  30.6995945 -35.5179367   8.7400923  27.9178429 -36.4230614  10.5342674
  27.5403862 -37.3580627  10.9272776  28.0052395 -35.7385712  11.3723564
  27.1872215 -36.0610962   9.8223295  31.4179592 -38.2289658   8.4795628
  32.3469467 -37.4326057   8.4320269  31.5189590 -39.4104309   9.0954676
  30.7414436 -40.0877953   8.9592257  32.7905502 -39.9305000   9.7094193
  32.9587708 -39.3739471  10.6054554  32.5166168 -41.4111938  10.1742125
  31.4726543 -41.4772568  10.4233303  32.6944427 -42.0663872   9.3561726
  33.3336067 -41.8524132  11.3906908  34.4036713 -41.5669403  11.2321377
  32.9377403 -41.3053856  12.2550287  33.3615532 -43.3418083  11.7814198
  33.7363586 -43.9873924  10.9745598  33.9905853 -43.4472122  12.6770020
  32.0301437 -43.7807693  12.1809387  31.6798859 -43.2935677  13.0107689
  31.2631245 -44.6182022  11.4929714  30.0571651 -44.9455872  11.8612881
  29.6775169 -44.4841919  12.6385832  29.3846703 -45.3936577  11.2606325
  31.6199608 -45.2869644  10.4571953  32.4943733 -45.0603180  10.0405273
  30.9329891 -45.9262543  10.0286093  34.0232544 -39.7824974   8.7798014
  35.0554352 -39.2767448   9.1540833  33.8153496 -40.1234207   7.4937515
  32.8431625 -40.3257599   7.2564678  34.8198814 -40.0108414   6.4391513
  35.7373085 -40.4772987   6.8239326  34.3902550 -40.8150101   5.1636410
  33.4278069 -40.5013237   4.7481990  35.5104370 -40.8543587   4.0858469
  36.3599243 -41.3525047   4.5243578  35.1677475 -41.4137611   3.2028153
  35.8550911 -39.8804626   3.7142220  34.0710220 -42.1589088   5.5324454
  33.2525024 -42.1050491   6.0561042  35.1318016 -38.5406799   6.0347648
  36.3048553 -38.1532059   5.8524656  34.1192055 -37.6790352   6.0501380
  33.2523804 -38.0522919   6.4054203  34.1420746 -36.2594528   5.6510668
  34.7259636 -36.1259613   4.7535715  32.7205200 -35.6840553   5.4340458
  32.0016823 -36.3719788   5.0448174  32.2054977 -35.4266434   6.3148160
  32.7120819 -34.4776726   4.4670596  33.5303421 -33.3598366   4.5259376
  34.2623291 -33.1743431   5.2197132  33.3237953 -32.6330681   3.4222999
  33.8528366 -31.7553215   3.1497505  32.3311691 -33.2150192   2.6658716
  32.0245590 -34.3883667   3.3077619  31.3656597 -35.1391525   2.8887186
  34.9151039 -35.4235916   6.7115045  35.5831261 -34.4280777   6.4154358
  34.7478409 -35.8505592   7.9982376  34.1315498 -36.6283798   8.1125727
  35.3008461 -35.1875572   9.1341362  35.0245972 -34.1710167   9.1291065
  34.6774483 -35.7012253  10.4353619  34.6211281 -36.7685318  10.2580214
  35.3954735 -35.5459900  11.2364864  33.2737007 -35.2697487  10.8341455
  32.5374222 -35.5406227  10.1138067  32.8518906 -35.9442101  12.0907297
  33.2963715 -35.4403648  12.9724836  31.7623425 -35.8536301  12.1750059
  33.1937294 -36.9843979  12.1101971  33.2187767 -33.7585106  11.1132050
  33.4436188 -33.2062378  10.2012978  32.2210426 -33.4393730  11.4225855
  33.9349594 -33.4801140  11.9448566  36.8695030 -35.1448593   9.1110659
  37.4464874 -34.3475952   9.8281403  37.5739822 -36.0303078   8.3913670
  37.0419197 -36.6224136   7.7323413  39.0187111 -35.8966904   8.1234350
  39.5356216 -35.6218262   9.0420704  39.5640411 -37.2990456   7.7709351
  38.7584190 -37.9561043   7.3763614  40.3286972 -37.2172127   7.0214515
  40.0011864 -37.7796822   8.6282482  39.3888550 -34.7670326   7.1905446
  40.0802956 -33.8837090   7.6667781  38.8812637 -34.6590843   5.9412522
  38.2912979 -35.6758461   5.0525455  37.2681656 -35.8531876   5.3031297
  38.8247833 -36.5976677   5.1204691  38.3039551 -35.0946350   3.6693649
  37.5094757 -35.4550247   3.0497072  39.2806396 -35.2356949   3.2105825
  38.1331825 -33.6036224   3.9576283  37.1097603 -33.3845978   4.1460428
  38.5245438 -32.9855232   3.1271627  38.9849930 -33.3986816   5.1640139
  40.0419693 -33.2149544   4.9288588  38.5175629 -32.1654472   5.9504743
  39.1721764 -31.1363678   5.8694859  37.3791275 -32.2538300   6.6243911
  36.7986488 -33.0997124   6.5774369  36.9621658 -31.1065884   7.4608703
  36.8288879 -30.2396240   6.8934584  35.5465279 -31.3747673   7.9793358
  34.9065323 -31.5286236   7.0904965  35.5823822 -32.3084869   8.5463152
  35.0084839 -30.2926102   8.9136591  34.2186699 -29.2826462   8.3808632
  34.0309753 -29.1994171   7.3477931  33.6259613 -28.3175297   9.2578583
  33.0736008 -27.4315338   8.8489571  33.8549690 -28.4286594  10.6433287
  33.3967781 -27.4301910  11.4673176  33.2892075 -26.6007462  11.0103693
  34.6492805 -29.4323387  11.1364508  34.8519936 -29.4305687  12.2008562
  35.2214851 -30.3867054  10.2919903  35.8770370 -31.1624508  10.6677828
  37.9703178 -30.7257576   8.5784397  38.1681023 -29.5427723   8.8586979
  38.6549339 -31.6635971   9.2314749  38.5906525 -32.6016350   8.8899851
  39.7495613 -31.3637142  10.1859751  39.3432693 -30.8088570  11.0130138
  40.3365860 -32.7126923  10.7908573  39.5805473 -33.2935066  11.2529316
  40.8632240 -33.2155533   9.9845734  41.2745514 -32.4214935  11.8190536
  41.5573196 -33.2733345  12.1462879  40.8216629 -30.4149513   9.5284805
  41.5139008 -29.6543617  10.2070322  41.0585594 -30.4905338   8.2151661
  40.5067787 -31.1297703   7.6338410  41.9044876 -29.5310879   7.4813313
  42.7344208 -29.1398335   8.0817461  42.5475082 -30.1908016   6.2267737
  41.7834892 -30.5238380   5.5343051  43.1159210 -29.3923664   5.6198502
  43.5770760 -31.2957230   6.5075974  44.3151627 -31.1956768   7.5167661
  43.6774635 -32.2138977   5.6591682  41.1160431 -28.2656269   7.1292396
  41.6199303 -27.1695156   7.4376783  39.9010162 -28.3694534   6.5459089
  39.6250229 -29.2621975   6.1911163  39.1200790 -27.1798344   6.2333655
  39.6232719 -26.6166115   5.4507732  37.6377945 -27.5034313   5.8330173
  37.1990700 -28.0270119   6.6755319  37.1856308 -26.5456505   5.5930853
  37.3254852 -28.3921661   4.6450672  37.6506882 -27.8670349   3.7702134
  37.8718262 -29.3017597   4.7223363  35.8281364 -28.6797638   4.5329037
  35.4566116 -29.8584194   4.2070518  34.9931030 -27.7201443   4.6682210
  39.0694885 -26.2024670   7.4303694  39.2474403 -25.0178947   7.2552590
  38.8397903 -26.6662407   8.6692085  38.6083260 -27.6505852   8.7577133
  38.7192955 -25.8016033   9.8513517  38.0604286 -24.9590569   9.6275311
  38.1090698 -26.5990429  11.0063543  37.2042999 -27.0177650  10.5840683
  38.6978683 -27.5226402  11.1751738  37.8081589 -25.7969685  12.2789774
  38.7352028 -25.5181484  12.7465477  36.8713455 -24.5777931  12.0738783
  35.9636917 -24.9024105  11.5264378  36.6253128 -24.1904449  13.0668917
  37.3387299 -23.7623138  11.5284967  37.0477333 -26.7379208  13.2286463
  37.6954117 -27.5510769  13.4994755  36.7423630 -26.1960011  14.1094007
  36.1800156 -27.2277832  12.7140331  40.0123024 -25.1023502  10.2501774
  40.0476036 -23.9453735  10.5929432  41.1161880 -25.8206215  10.1736174
  41.0430565 -26.6911488   9.6940947  42.4542809 -25.2265816  10.2965679
  42.5136185 -24.7823887  11.2991037  43.5221252 -26.3926487  10.3727093
  43.2826843 -27.0835476  11.1873531  43.4906960 -26.9174366   9.4396009
  44.8641930 -25.8573914  10.7388735  45.2136002 -25.1269455   9.9959526
  44.9461327 -25.4946995  11.7784042  45.9452209 -26.9202137  10.7351990
  46.8554726 -26.5444355  11.1974535  45.6265831 -27.7049999  11.4529886
  46.2904778 -27.4549770   9.3812037  46.9674873 -27.0063629   8.8118801
  45.8640327 -28.6264896   8.9106541  46.2471466 -29.0650063   7.7389221
  46.7187958 -28.4805775   7.0188198  45.7766914 -29.9141502   7.4694543
  45.0599632 -29.3821239   9.5956144  44.6844673 -29.1473236  10.5040398
  44.7126350 -30.2387218   9.0955372  42.7707100 -24.2222691   9.1662827
  43.2727776 -23.0971985   9.4171219  42.5197601 -24.5129128   7.9185553
  42.0949554 -25.4197540   7.8498740  42.6319160 -23.5694504   6.7607398
  43.6507759 -23.2114010   6.7178984  42.2657242 -24.3078899   5.4849381
  41.4250984 -24.9586849   5.6699920  42.1010017 -23.6086864   4.7235532
  43.4396362 -25.2152519   5.0165133  44.3270912 -24.5908623   4.8486586
  43.5971870 -25.9630013   5.7425160  43.0570030 -25.9040051   3.6831748
  42.5870094 -27.0317478   3.6136832  43.1011391 -25.1892452   2.5704429
  42.7960434 -25.6589165   1.6960945  43.3863106 -24.2300968   2.5887871
  41.7138863 -22.3668652   6.8694396  42.1197891 -21.2307568   6.6501660
  40.4342804 -22.5400848   7.2843294  40.1901703 -23.5248852   7.3126273
  39.4594116 -21.4424038   7.4683566  39.3079681 -20.9869804   6.4969249
  38.0877838 -21.9693966   7.9081655  38.1911812 -22.7670650   8.6340322
  37.5406189 -21.2075596   8.4457245  37.2096100 -22.4722137   6.7367673
  37.0914230 -21.6342182   6.0325527  37.7143326 -23.2465954   6.1887689
  35.7490158 -22.8723545   7.2304463  35.8264160 -23.6455994   7.9998283
  35.1920586 -22.0342808   7.6556916  35.0264854 -23.3502560   6.0740099
  34.5699501 -22.6076870   5.5034275  34.8100052 -24.5704460   5.6324749
  34.4593315 -24.7359924   4.3807650  34.1271324 -24.0087395   3.7907400
  34.5348587 -25.7196732   4.0322752  34.9342995 -25.6147499   6.3596482
  35.2821045 -25.5683632   7.2992177  34.8040695 -26.5379257   5.8776302
  39.9771614 -20.3960514   8.4136276  39.9100456 -19.2271004   8.1075592
  40.4620705 -20.8941631   9.5680370  40.4408607 -21.8789272   9.8142757
  41.0430107 -20.0640850  10.6039991  40.3230705 -19.3171768  10.7991695
  41.1562386 -20.9413528  11.8634844  40.1999092 -21.4026089  12.1001377
  41.9192314 -21.7054100  11.7458344  41.5799675 -20.2013416  13.0966768
  42.5962143 -19.8317013  13.0960932  40.6728783 -19.0622711  13.5009680
  39.6772842 -19.4393902  13.6582193  41.1488380 -18.5233727  14.3644638
  40.5795250 -18.3164196  12.6983728  41.6048279 -21.2054138  14.2034492
  42.4350929 -21.8521290  14.0558109  41.7493973 -20.6613426  15.1685352
  40.6359825 -21.7381935  14.2257042  42.3904381 -19.4215469  10.1191244
  42.5789490 -18.1844845  10.2495232  43.3476105 -20.1991634   9.6108093
  43.1905594 -21.1969414   9.3916759  44.6725426 -19.7527351   9.2221880
  45.1574364 -19.2181320  10.0811329  45.5070534 -20.9889584   8.9302168
  45.2096519 -21.5241032   8.0372658  46.5668144 -20.7074909   8.7695398
  45.4618912 -21.7113132   9.7469673  44.7148285 -18.7328873   8.0129204
  45.3748741 -17.6915035   8.0138922  43.8709793 -18.9760532   6.9932170
  43.4033394 -19.8823185   6.9401450  43.6460075 -18.0771408   5.8349380
  44.6422729 -17.7767467   5.4329653  42.9256058 -18.7912598   4.7194653
  41.9381866 -19.1088715   5.1001215  42.8562012 -18.1242962   3.8609719
  43.4481010 -19.7221966   4.5039859  42.9253845 -16.7548103   6.1805210
  43.0961304 -15.7616806   5.4828029  42.2061310 -16.6875668   7.3071599
  42.1207237 -17.5622787   7.8314419  41.6659584 -15.4298687   7.8891253
  41.0186348 -15.0209541   7.0804687  40.7907448 -15.7884798   9.1443806
  40.5136185 -16.8326817   9.1198683  41.3871803 -15.5133953  10.0322771
  39.5185776 -14.9531641   9.1765442  38.9650421 -15.0789347  10.1019564
  39.7665253 -13.9102020   9.2346869  38.5878906 -15.0940666   7.9356647
  37.5545387 -14.9873114   8.2474957  38.7941132 -14.2882776   7.1901946
  38.7399216 -16.4177914   7.2804174  38.6752090 -17.2224579   7.9278655
  39.0131149 -16.6544743   6.0375366  39.4700279 -17.8134613   5.6507349
  39.6971169 -18.5202618   6.2906146  39.7518959 -17.8596725   4.6717687
  38.9988976 -15.6929216   5.1495671  38.6864815 -14.7771034   5.3044777
  39.3869858 -15.9522905   4.2598791  42.7367859 -14.3457813   8.1645851
  42.4931793 -13.1699362   7.8900108  43.8710861 -14.7604103   8.7149820
  43.9727592 -15.7600460   8.8525257  44.9851799 -13.8818884   8.9812775
  44.6510277 -12.9652214   9.4615288  46.0438499 -14.6103659   9.8819952
  46.5070953 -15.4520178   9.3698606  46.8761787 -13.9429560  10.0549240
  45.4369431 -15.0859566  11.2295017  44.5827484 -15.7195463  11.0961866
  46.5341721 -15.8440924  12.0165529  47.4519577 -15.2190361  12.0978451
  46.2137756 -16.1225338  13.0218878  46.7590561 -16.7970772  11.5008488
  44.9815025 -13.9204493  12.1060791  44.0121498 -13.5280085  11.7494440
  44.8050842 -14.2246017  13.1832418  45.7177505 -13.0940781  12.1013641
  45.6753883 -13.4089413   7.7153978  46.0802879 -12.2424088   7.6364465
  45.8076248 -14.2071304   6.6614556  45.4400215 -15.1347752   6.7259173
  46.2801132 -13.6504164   5.3636789  47.1962128 -13.0800257   5.5659266
  46.7970428 -14.7992668   4.4934368  45.9568176 -15.4860106   4.2684240
  47.0320740 -14.3782902   3.5137985  47.9811821 -15.5361834   5.1361713
  47.7094345 -15.9972086   6.0782766  48.2036819 -16.3844109   4.5238404
  49.2248116 -14.6514568   5.3264470  49.5643196 -13.9245224   4.3841567
  49.9046516 -14.7968349   6.3895345  45.2791672 -12.7786369   4.6118765
  45.6779175 -11.8428326   3.9201567  44.0054398 -13.0025864   4.9072390
  43.7581062 -13.8606129   5.3663592  42.9480133 -12.0975580   4.4667158
  43.0654907 -12.0122194   3.3638499  41.5673256 -12.7651796   4.6735425
  41.5213928 -13.0557270   5.7110381  40.7867966 -12.0300789   4.6822386
  41.3233528 -13.6157427   4.0086560  43.1506729 -10.6734142   5.0673876
  43.0467224  -9.6864815   4.3760052  43.4059181 -10.6232347   6.3642273
  43.5197906 -11.5019464   6.8225298  43.8007317  -9.4006376   7.1194324
  43.0404625  -8.6621227   6.8838835  43.9088593  -9.6686687   8.6292629
  42.9168472  -9.9801044   8.9591160  44.6391487 -10.4529581   8.7674971
  44.3158798  -8.4763813   9.4909811  45.3356781  -8.1743994   9.2842245
  43.4356689  -7.2490602   9.3568125  42.4427223  -7.5962896   9.6049156
  43.7812767  -6.4575539  10.0450802  43.2931480  -6.9282312   8.3532343
  44.3075142  -8.9214706  10.9757318  45.0236359  -9.7187214  11.1530867
  44.5697861  -8.0365677  11.5186062  43.3721695  -9.3542404  11.3150902
  45.0696907  -8.7432718   6.5449100  45.0054321  -7.5752497   6.1983023
  46.1214409  -9.5199623   6.2174726  46.1337280 -10.4045258   6.7429647
  47.4015503  -9.0495720   5.5854626  47.8171120  -8.3137579   6.2362094
  48.3816528 -10.2335777   5.5349789  48.5243454 -10.5876017   6.5426068
  47.9705009 -11.0591784   4.9654341  49.7919807  -9.9804926   4.9395218
  50.2190971  -9.1332779   5.4034810  50.4236679 -10.8330622   5.2823014
  50.0754128  -9.7964258   3.4152761  49.6553383  -8.8339014   3.0600486
  51.1914520  -9.7822485   3.1918988  49.3796120 -10.8003416   2.4455934
  48.3449631 -10.8994999   2.7850583  49.4351425 -10.2954865   1.4710548
  50.0672188 -12.1249866   2.3209748  51.0671196 -11.9427729   2.2436388
  49.8855934 -12.7872839   3.1139252  49.8307648 -12.5614347   1.4360799
  47.2365036  -8.4259148   4.1840129  47.7385902  -7.3254199   3.9465919
  46.5957489  -9.1164436   3.2441263  46.2887650 -10.0570860   3.4431601
  46.2735901  -8.4953403   1.9579797  47.2045288  -8.0723343   1.5466343
  45.7615852  -9.6248016   1.0295976  46.3365326 -10.5031719   1.0824063
  44.7597160  -9.8932104   1.3701458  45.5953789  -9.2659416  -0.4789845
  45.0082092 -10.0703812  -0.9516201  45.0705681  -8.3098717  -0.5194462
  46.9744682  -9.1450510  -1.2042309  48.0060921  -9.6143808  -0.6475478
  46.9740257  -8.5126829  -2.2910502  45.2971268  -7.2920876   2.0377586
  45.5223923  -6.2797909   1.3356876  44.3314209  -7.3383493   3.0000763
  44.2271118  -8.2116728   3.5284247  43.4668732  -6.1549091   3.2017395
  43.1500778  -5.7536559   2.2558537  42.2278252  -6.5275383   4.0659714
  41.5103683  -7.1741395   3.5333838  42.6765442  -7.1529598   4.8625126
  41.4493713  -5.3998399   4.7196913  41.8203049  -4.8236361   5.7310076
  40.3511047  -5.0809364   4.1211357  39.7401772  -4.3737779   4.5604401
  40.0241547  -5.6088572   3.2788241  44.2468262  -4.9503832   3.7629106
  44.0918961  -3.8391380   3.2893035  45.1355743  -5.1614828   4.7534337
  45.1307869  -6.0601993   5.2643375  46.0646400  -4.1629448   5.3049064
  45.5050240  -3.4407184   5.9565825  46.7878876  -4.6236544   5.9322605
  46.8918953  -3.4008482   4.2793446  47.0043144  -2.1790819   4.3475800
  47.4775276  -4.1123667   3.3369157  47.4701271  -5.1157236   3.4412024
  48.2755241  -3.4910796   2.2730019  49.0284042  -2.9452219   2.8034189
  48.7715530  -4.2375622   1.6889454  47.4877510  -2.4844859   1.4256485
  47.9162636  -1.3583112   1.2316189  46.3517570  -2.9380727   0.9270048
  46.0486259  -3.8749352   1.0933075  45.4347191  -2.0849595   0.1237202
  46.0354195  -1.6659861  -0.7164842  44.3279343  -2.9575822  -0.4481047
  44.7567177  -3.7572365  -1.0235037  43.7937622  -3.2898018   0.4123793
  43.5871315  -2.4232972  -1.0690292  44.9030266  -0.8794422   0.9872016
  44.8005257   0.2727942   0.5021908  44.5220985  -1.1406804   2.2527008
  44.5825005  -2.0711672   2.6083348  44.1051292  -0.0747551   3.2114456
  43.2405052   0.4680451   2.7852511  43.5456467  -0.7783088   4.4912405
  42.7539825  -1.4395250   4.2298121  44.3269043  -1.4113623   4.8672681
  42.9907265   0.1650597   5.5720778  43.8200951   0.4078387   6.2504649
  42.5637817   1.0518787   5.1047368  41.8800888  -0.4926287   6.3945694
  41.6306534   0.1089715   7.3029990  41.0289001  -0.5761220   5.7031655
  42.2573853  -1.8799287   6.8194389  41.9470673  -2.6734684   6.2221508
  42.9840508  -2.2303181   7.8794961  43.1728325  -3.5115066   8.0254889
  42.6732254  -4.1871691   7.4505115  43.7352524  -3.8372684   8.8150463
  43.4424553  -1.3430848   8.7236824  43.2216339  -0.3727703   8.5629730
  44.1330109  -1.6481472   9.3807344  45.1993942   1.0061362   3.3749723
  44.9537468   2.2043798   3.2259691  46.4315109   0.6012247   3.5529640
  46.5600929  -0.3905608   3.5728395  47.5885963   1.4897352   3.6568248
  47.3643150   2.1612060   4.4191227  48.7891235   0.6407105   4.0211029
  48.5335541   0.1776451   4.9590511  48.8494644  -0.1375862   3.2967448
  50.1706657   1.3180429   4.1523690  50.4150848   1.6671859   3.0955491
  50.3256683   2.5302360   5.0673051  49.8692856   2.3872707   6.0497336
  51.3813210   2.8281651   5.2184920  49.8621826   3.3601007   4.5777888
  51.1722145   0.2450342   4.5174179  51.0070114  -0.6467977   3.9010928
  52.1816826   0.6235762   4.3642883  50.9743309  -0.0139917   5.5802398
  47.8773727   2.2471018   2.3599463  48.2343369   3.4170032   2.4696102
  47.6583824   1.6418815   1.1882119  47.5114098   0.6590106   1.2027309
  47.6315880   2.3709369  -0.0841227  48.5602608   2.9621456  -0.1459661
  47.6076279   1.3998019  -1.2773548  46.6757011   0.8123317  -1.2320933
  47.6325951   1.9780104  -2.1687274  48.4667053   0.7601789  -1.2586106
  46.4833603   3.4374862  -0.1303720  46.7281342   4.6056972  -0.5255582
  45.2655602   3.1297591   0.3102989  45.0957489   2.1808412   0.6254026
  44.2290840   4.1887312   0.5395811  44.0711975   4.7114153  -0.4231800
  42.7982292   3.5471640   0.8210123  42.6377068   2.6946330   0.1349015
  42.7342949   3.1975935   1.8491691  41.6691818   4.5890651   0.5950952
  41.8324242   5.1283212  -0.3032174  40.7454262   4.0643983   0.3158895
  41.4130249   5.5983734   1.7415555  41.6862183   5.3148313   2.9345920
  40.9073601   6.7173934   1.4437659  44.6815910   5.2806501   1.4848919
  44.4367790   6.4579101   1.2054675  45.2786789   4.9558778   2.6651158
  45.4324112   3.9931819   2.8699338  45.9229660   5.9864564   3.5343072
  45.1287231   6.7161245   3.7601748  46.4309502   5.4278369   4.8540931
  47.2985497   4.8399725   4.6391220  46.6608467   6.2880378   5.4737134
  45.5388718   4.5487080   5.7074928  44.1367188   4.5688934   5.6037741
  43.6481667   5.1495962   4.8395319  43.2591591   3.9224765   6.4774427
  42.1889496   4.0116482   6.4464574  43.8274422   3.1407058   7.4931746
  43.0151978   2.4932625   8.3838711  42.0862427   2.7620940   8.1829386
  45.2615356   3.0532944   7.5610967  45.7661858   2.3672342   8.2716665
  46.1249161   3.7533591   6.7114649  47.1951103   3.7026629   6.8856840
  47.0131493   6.8057079   2.8995869  47.1658669   7.9906507   3.2363772
  47.7960358   6.2709818   1.9917574  47.7496681   5.2648683   1.8119569
  48.8307915   6.9670801   1.2741266  49.3910561   7.5057883   2.0730510
  49.8603401   6.0428104   0.5835251  49.3167725   5.2705212   0.0401033
  50.3537025   6.5905390  -0.1785732  50.9240761   5.3959990   1.3866245
  51.8640099   4.4905038   0.9351322  52.1347580   4.2958598  -0.0175388
  52.5891838   4.1083660   2.0319419  53.4749069   3.4891298   1.9948034
  52.1448669   4.7176285   3.1596594  51.0433159   5.4877138   2.7207303
  50.3643036   6.0281105   3.3748903  48.2614937   8.0415039   0.2787532
  48.8800850   9.0671034  -0.0530367  46.9667282   7.8842278  -0.1191119
  46.4754257   7.0115566   0.0873264  46.2104416   8.9520922  -0.8110424
  46.8335953   9.2973251  -1.5818083  45.0702095   8.3403740  -1.6432025
  44.4181404   7.8077130  -0.9764254  44.5265961   9.2001858  -2.0439508
  45.4680099   7.7337260  -2.4520853  45.8478241  10.0787916   0.1438315
  45.9166908  11.2405243  -0.2615836  45.4701004   9.8536797   1.3970950
  45.3499947   8.8787718   1.6411816  45.1682243  10.9256592   2.3730590
  44.4004402  11.5671434   1.9736503  44.6615982  10.2845020   3.6788607
  45.5466309   9.7211714   4.1427650  44.3553925  11.1515703   4.2928128
  43.4753418   9.3514986   3.4641104  42.6646576   9.8085871   2.8838470
  43.8852501   8.4573479   2.9385867  42.9585991   8.8995447   4.8315668
  43.8351021   8.6153860   5.4261250  42.4776688   9.7556820   5.3132625
  42.0151329   7.6442723   4.8937387  42.5967407   6.7577929   4.6003585
  41.6925507   7.4226589   5.9279399  40.7903099   7.7954574   4.0781584
  40.9438667   7.6868010   3.0835154  40.2163124   6.9510803   4.2494974
  40.2417412   8.5846195   4.3623848  46.4472160  11.7880535   2.6232708
  46.3796043  13.0447531   2.6151328  47.6072540  11.1223373   2.6977944
  47.5987091  10.0962677   2.6940513  48.8913536  11.8292246   2.9226460
  48.7260094  12.5316706   3.7319138  50.0129471  10.8066893   3.2448854
  50.2773819  10.2319136   2.3214746  50.8624649  11.3500032   3.5805738
  49.6869736  10.1271648   4.0046730  49.2618141  12.7747927   1.7301761
  49.8070755  13.8645258   1.9122602  48.8955116  12.2967377   0.5164034
  48.3873711  11.3964415   0.4862918  49.0431671  13.0745926  -0.7367593
  50.0475349  13.5307846  -0.8060760  48.8642197  12.1659079  -1.9463878
  47.8902626  11.6651354  -1.9463717  48.9515533  12.8948259  -3.2925031
  49.8903732  13.4217119  -3.3635049  48.8107262  12.1991596  -4.1066251
  48.1361351  13.6723461  -3.3850405  49.9263344  11.2267313  -1.9252807
  49.7047958  10.5779095  -1.2545466  48.0495987  14.2338409  -0.7812678
  48.4266319  15.2481260  -1.3466794  46.8473282  14.1192627  -0.2194844
  46.5404510  13.2355986   0.1592297  45.8058510  15.1739635  -0.2385558
  45.8776131  15.7897911  -1.1388018  44.3990860  14.5182953  -0.1689262
  44.2006531  14.0828705  -1.1237720  44.4290161  13.7568398   0.6429591
  43.2347832  15.4758348   0.1868651  43.3172607  15.8661642   1.2109621
  43.3216057  16.3056030  -0.5451124  41.8750000  14.8244667   0.0055235
  41.7609825  13.5700245   0.0334725  40.8890953  15.5983391  -0.0819568
  46.0555038  16.2231312   0.9051133  45.7256508  17.3920269   0.6944548
  46.7032967  15.8611631   2.0026250  46.8296776  14.8204241   2.1368141
  47.0269203  16.7962570   3.0117354  46.1204605  17.2073536   3.4198427
  47.7001190  16.0911674   4.2326865  48.4550819  15.3586216   3.9451530
  48.3017387  16.8424320   4.7600589  46.7671738  15.4737940   5.2516932
  45.7632065  14.5586767   5.0683265  45.5964432  14.0484486   4.2165413
  44.9954262  14.5109711   6.1317134  44.0707245  13.9468145   6.2293148
  45.4519463  15.3816519   7.0521979  46.5478172  15.9957142   6.4921360
  47.1475563  16.8149242   6.8936758  47.9586449  17.9206123   2.5698149
  47.7258072  19.0293140   2.9839063  48.8382187  17.6466866   1.5814025
  48.9154510  16.6933270   1.3114743  49.7433319  18.6441288   0.9600335
  50.4314461  19.0146160   1.7276447  50.5438766  17.9685078  -0.1789885
  51.1501122  17.1603603   0.2620270  49.8290215  17.5258560  -0.8663061
  51.5211334  18.9101334  -0.9214955  50.9426079  19.6746998  -1.4600633
  52.6270332  19.6351147  -0.0758768  53.2364883  18.8603954   0.3805608
  53.1485710  20.3440838  -0.7137328  52.1706543  20.1920872   0.7630151
  52.2604599  18.0231972  -1.9231238  51.5086441  17.5242081  -2.5607512
  52.8150330  18.6625614  -2.5656424  52.8828011  17.2310219  -1.4710202
  48.9679565  19.8528862   0.4238018  49.2383804  21.0467701   0.7755252
  47.8806534  19.6247559  -0.3372645  47.6597595  18.6640053  -0.6177965
  46.9153290  20.6681252  -0.7603071  47.5919952  21.4244289  -1.0653771
  46.0919914  20.2695160  -1.9871544  45.4892960  19.4139938  -1.6590892
  45.4406204  21.1529236  -2.2676983  46.9104385  19.8097763  -3.0827854
  47.3169518  20.5528641  -3.5167148  46.0391083  21.2864189   0.3561163
  45.7635269  22.5043850   0.3175696  45.6393776  20.5195045   1.3488334
  45.9963951  19.5296059   1.3780512  44.7378883  20.8887901   2.4727323
  43.8359032  21.2797337   1.9760298  44.3705368  19.6118584   3.2679734
  45.2423134  19.2071457   3.7194059  43.4781876  19.8810024   4.4662294
  42.5147820  20.3544731   4.2382503  43.3765182  18.9007950   4.9853745
  43.9690399  20.5721569   5.1818557  43.6684418  18.6335869   2.5204155
  44.2549515  18.1970234   1.9092172  45.2885971  22.0142059   3.3910971
  44.4761276  22.7911110   3.9033780  46.5864983  22.1942596   3.4136157
  47.1757317  21.5129776   2.8980544  47.2152939  23.3695068   4.0798478
  47.0980225  23.2911797   5.1191335  48.7457237  23.2695999   3.8937817
  48.9349747  23.3658962   2.8068929  49.1133461  24.1405888   4.3814659
  49.4264374  21.9947357   4.4515815  49.0263367  21.1143684   3.9974532
  50.8974037  22.1018581   4.1614385  51.2362251  23.0192852   4.6606836
  51.4229927  21.1800938   4.4533386  51.1137772  22.2674007   3.0893817
  49.3744431  21.9493275   5.9862480  48.3363152  21.6808872   6.2686796
  50.0960503  21.2058430   6.4436059  49.5156174  22.9964428   6.3442130
  46.7270813  24.7046185   3.5063090  46.8855057  25.7219963   4.1587224
  46.2776260  24.7279396   2.2775488  46.4368629  23.8671589   1.7413532
  45.7810020  25.9305267   1.6233783  45.7606201  26.8062763   2.2733054
  46.7011414  26.2828236   0.4571138  47.7107468  26.1510582   0.7779267
  46.5400505  25.5706329  -0.4064873  46.6117630  27.6507282  -0.0026078
  45.8768501  27.6739731  -0.6316122  44.3220901  25.7690086   1.3071491
  43.5222397  26.6165543   1.7034971  43.9841232  24.7115593   0.5449275
  44.7143250  24.0809288   0.1970217  42.6026306  24.4310455   0.0541482
  42.4147987  25.1581554  -0.7599836  42.6626549  23.0434437  -0.5945913
  43.3384285  23.0900612  -1.4498419  43.0359230  22.2937012   0.1225746
  41.3321533  22.5598755  -1.0961859  40.5348282  22.8649979  -0.3895985
  41.1142197  23.0542469  -2.0018663  41.3473206  20.9963627  -1.2160096
  40.5043564  20.3633385  -0.5370283  42.2235184  20.3926468  -1.9013565
  41.4738998  24.5925369   1.0519265  40.4530296  25.2070236   0.7396432
  41.6491737  24.0510464   2.2914648  42.4179039  23.4441833   2.4391401
  40.6432495  24.1326752   3.4000623  39.6780052  24.3838787   2.9026442
  40.4514313  22.6898022   4.0191488  40.8921623  21.9111671   3.4017277
  41.0094910  22.7207680   4.9643979  38.9990234  22.2587891   4.2866998
  38.9969559  21.2598629   4.7244296  38.5923386  22.9352970   5.0697131
  38.0444984  22.2349644   3.1067135  37.1834793  21.6000023   3.3822129
  37.6105156  23.2483196   3.0390236  38.6315994  21.7820377   1.7403625
  37.9052124  21.9874306   0.9775529  39.5587845  22.3266239   1.5619187
  38.9140015  20.3024578   1.7592918  38.0766602  19.7765656   1.9396825
  39.2950783  20.0311966   0.8518835  39.6862602  20.1000404   2.4067430
  40.8351212  25.2929668   4.4278541  39.9541550  25.5304127   5.2370386
  41.9785271  25.9632988   4.2417564  42.6107216  25.6691856   3.5115352
  42.3095016  27.1030025   5.0469217  41.8902969  27.0203514   6.0351400
  43.8144722  27.0943489   5.2832131  44.2947922  26.8716278   4.3255472
  44.1967621  28.0043430   5.6494246  44.0456085  26.3208847   5.9651690
  41.8088150  28.4156055   4.4634018  41.2367592  29.2403107   5.2227015
  41.8397293  28.6309090   3.1188915  42.0674858  27.7912254   2.5771785
  41.3352776  29.8442822   2.4481635  41.8032799  30.7103081   2.8933530
  41.7993317  29.7935295   0.9749855  42.8656731  29.8569145   0.8835768
  41.6061745  28.7958336   0.5850843  41.1916389  30.7926941  -0.0129859
  41.5491180  30.5331898  -1.0043057  40.1222382  30.6309910  -0.0909334
  41.3916855  32.2772751   0.2542075  40.8269119  32.6557007   1.1222956
  42.4616585  32.5450325   0.4245025  40.7802734  32.9134369  -1.0194336
  41.3311081  32.4664345  -1.8691354  39.7401352  32.5782700  -1.0033168
  40.7554054  34.3997116  -1.0884597  41.6384659  34.8152237  -0.8343076
  40.5539665  34.7760811  -2.0438480  40.0495491  34.7309036  -0.4396829
  39.7900352  30.0860481   2.6021507  39.4651489  31.2330647   2.7750516
  38.8819008  29.0906620   2.6629150  39.0337296  27.7968788   2.0684772
  39.5722809  27.1740818   2.7630661  39.5256386  27.8508835   1.1043193
  37.6311493  27.1819286   1.9011774  37.5568008  26.1219997   2.1009114
  37.2885971  27.5090389   0.9533635  36.8497238  27.9368305   2.9202700
  36.9635735  27.4493523   3.8794475  35.8528442  28.0140915   2.5738893
  37.4672928  29.3071384   3.0071249  37.0510979  29.9782410   2.1871040
  37.2523689  29.9681187   4.3863993  36.5787430  30.9711552   4.5099969
  37.8527489  29.4109135   5.4817915  38.3668594  28.5446148   5.3712583
  37.7599297  29.8652668   6.8522649  36.6975365  30.0158405   7.1164160
  38.2724152  28.7556648   7.7545543  39.3472633  28.5984917   7.6281066
  38.0878601  28.9921417   8.8208542  37.8020248  27.8000622   7.5054736
  38.5016365  31.1612206   7.0694017  38.0336304  31.9564056   7.8790817
  39.5773659  31.4342022   6.3493342  39.9819870  30.6645775   5.8001113
  40.2728653  32.7329788   6.3766484  40.4693794  32.9764824   7.4376540
  41.6365471  32.7151031   5.6640301  42.2773399  32.0225334   6.2255282
  41.4734650  32.2870522   4.6754298  42.2851257  34.0804672   5.4860539
  41.5973701  34.7213173   4.9837060  42.5827179  34.8153648   6.8102522
  43.1445885  34.1437798   7.4648213  43.0965195  35.7413330   6.6349888
  41.6280899  35.0245895   7.2847958  43.5695992  33.9497566   4.6116982
  43.2856903  33.7319794   3.6038878  44.0941467  34.8853607   4.6241689
  44.2647629  33.1815071   5.0104074  39.3107872  33.8429909   5.7080183
  39.1135178  34.9214554   6.2767215  38.6891975  33.4610176   4.5939498
  38.8380661  32.5274429   4.1891446  37.7283592  34.3023148   3.8643575
  38.2367821  35.2544708   3.7395880  37.3700218  33.6811142   2.5041857
  38.2662849  33.2810936   1.9654484  36.7665100  32.8032417   2.6464643
  36.6745834  34.7181129   1.5710729  36.1958046  34.2342529   0.7109863
  35.8328400  35.2208977   2.0763338  37.7108345  35.7742844   1.1088403
  37.5695915  36.9733429   1.4949954  38.7340508  35.3859558   0.4761627
  36.4704437  34.5354767   4.6782637  36.0439720  35.6685677   4.7839065
  35.8546867  33.4972916   5.2995396  36.3779869  32.6268425   5.1860294
  34.7693977  33.6208344   6.2481828  33.9709854  34.1208267   5.7357497
  34.2308807  32.3093376   6.7463918  34.0821304  31.5949039   5.9431171
  34.9771957  31.8433571   7.3937602  32.9027710  32.4742966   7.5653229
  32.7084846  31.8014336   8.6008787  32.0862160  33.3276901   7.1410294
  35.1015930  34.5702171   7.4241252  34.2587128  35.3427315   7.8694582
  36.3081398  34.4601517   7.9548526  36.9197617  33.6927185   7.7081590
  36.7939072  35.3226280   9.0651779  36.0849800  35.2037086   9.8645325
  38.1286697  34.7710533   9.5694122  37.9507408  33.8118286  10.0489321
  38.8369255  34.5329208   8.7821150  38.9126892  35.6881561  10.5672159
  39.1308289  36.6298599  10.1199102  38.2381592  35.9675980  11.8965397
  37.8407822  35.0799370  12.3585024  38.8750305  36.4138069  12.6473989
  37.3396568  36.5508423  11.7360554  40.2362785  34.9990616  10.8922882
  40.9245644  34.9779167   9.9981050  40.7355080  35.5838547  11.6357622
  40.0755653  33.9788094  11.2827778  36.9110832  36.8687973   8.7308874
  36.4277954  37.6937447   9.5086088  37.4157257  37.1750145   7.5028939
  37.6846695  36.3738899   6.9873772  37.5105705  38.4956017   6.8463035
  37.9442558  39.1984215   7.5907941  38.5036812  38.3314857   5.6777530
  39.5205078  38.1440582   6.0580215  38.1800766  37.5015411   5.0318007
  38.5533943  39.5300064   4.7442756  37.5829353  39.5864983   4.2174501
  38.8623772  40.4472961   5.2692471  39.7033615  39.2778740   3.7195232
  40.6594543  39.0768509   4.2402964  39.4340744  38.3999214   3.1464744
  39.8525314  40.4367867   2.8156734  40.4292259  41.2284317   3.0207744
  39.1759682  40.5950737   1.6577506  39.3130264  41.6983757   0.9428394
  40.0244904  42.4046707   1.1555829  38.9319916  41.7616615   0.0219640
  38.2863960  39.7565727   1.2005296  38.1885529  38.8359756   1.6026269
  37.8032036  39.8636589   0.3235154  36.1503181  39.0790443   6.3893414
  35.9191704  40.3172073   6.4546604  35.2809143  38.2065582   5.8298774
  35.5843964  37.2589035   5.6964884  33.9798355  38.5113869   5.2367835
  34.1021843  39.3359985   4.5439463  33.4055367  37.2847595   4.4597797
  34.1153603  36.9290123   3.7493756  33.2338028  36.4298439   5.1235318
  32.0038757  37.3995247   3.7599876  31.4603214  36.5122147   3.8922999
  31.4377670  38.2270966   4.1653004  32.1418724  37.6489944   2.2493186
  32.6829605  38.6642532   1.8004249  31.7244263  36.7834320   1.3695979
  31.8526077  36.9914970   0.3985976  31.3694363  35.8536606   1.5078976
  32.9081535  38.9295044   6.2915773  32.1281395  39.8516426   6.0688467
  32.8486481  38.2015076   7.4504943  33.5596428  37.4837646   7.6603518
  31.5704517  38.0251160   8.2010002  30.8781624  37.5242043   7.5545716
  31.7306824  37.3918724   9.0258808  30.7713890  39.2873802   8.7578440
  29.5761204  39.1320496   8.9848633  31.3564148  40.4375038   9.0186615
  32.3707161  40.4731407   8.9017305  30.6780128  41.7046700   9.3622122
  29.9487667  41.5150414  10.1847897  31.7748928  42.6447639   9.9488544
  32.2440262  42.1127014  10.8199110  32.5166473  42.7500381   9.1796608
  31.2838745  44.0918694  10.4278088  30.7225151  44.5482216   9.6458473
  30.3637409  44.0839462  11.6387424  30.9497566  43.7121811  12.5264788
  30.1055832  45.0884094  11.9336452  29.4667511  43.4779968  11.3616333
  32.4621201  45.0324402  10.7626171  33.2450600  44.9108925   9.9831657
  32.1323166  46.0943794  10.7986689  32.8918419  44.7043686  11.7193623
  29.8624973  42.2920189   8.2202616  28.7297859  42.7477036   8.4356518
  30.3877678  42.2034874   7.0159769  31.3182926  41.7647552   6.9376373
  29.7894859  42.7659760   5.8022494  29.6334343  43.8166466   5.9905434
  30.8382111  42.6799355   4.6304107  31.7117901  43.2391319   4.9934254
  31.0272522  41.6405487   4.4913092  30.3277054  43.2978020   3.3166316
  29.3643265  42.8499374   3.0778339  30.1396732  44.8026123   3.5185089
  30.9760742  45.3024101   4.0150862  29.9699879  45.2623062   2.5577598
  29.2033787  44.9241333   4.0905805  31.3152599  43.0041924   2.1620770
  31.7785816  42.0225334   2.2695460  30.8678722  43.0589828   1.2071636
  32.2011986  43.6945038   2.3209908  28.3665848  42.2738228   5.4264016
  27.5550632  43.1560516   5.1192636  27.9706478  40.9966049   5.4176836
  28.7635975  39.8378067   5.8035846  29.2735100  39.9987488   6.7109103
  29.4108181  39.6284180   4.9883552  27.8137970  38.6622658   5.9909768
  27.5610561  38.5597153   7.0732975  28.2472248  37.7390900   5.5999684
  26.5859833  39.0390930   5.1877079  25.7020016  38.5183792   5.5517683
  26.7779560  38.7967224   4.1365767  26.5694904  40.5396233   5.3054161
  26.2289734  40.9617653   4.3526597  25.6595268  41.0121193   6.4141226
  24.4956951  41.2104759   6.1341996  26.1494255  41.1873055   7.6150470
  27.1457272  41.0100975   7.7813621  25.3072968  41.6626778   8.7504349
  24.3465214  41.1774254   8.6410170  25.8762627  41.2345963  10.1364508
  26.8423862  41.7915154  10.2496834  24.9927711  41.7566528  11.3038654
  23.9064960  41.5272980  11.1197186  25.2552071  41.2751198  12.2305336
  25.2032127  42.8488998  11.3872480  26.0871906  39.7446747  10.3017702
  26.8742104  39.3952408   9.5663061  26.4378548  39.5475426  11.2665186
  25.1086693  39.1833534  10.1270294  25.0132790  43.2045898   8.6013136
  23.8767548  43.6833534   8.7073812  25.9598331  43.9652023   8.1153936
  26.8442631  43.4824409   8.0401764  25.8045311  45.3939018   7.6141353
  25.3713512  45.9876480   8.3869410  27.1722965  45.9814262   7.2743044
  27.6667957  45.3037262   6.5410299  27.0179672  46.9379883   6.8004818
  28.0659847  46.1984596   8.5318394  28.1193714  45.3294411   9.1560421
  29.4860630  46.5530472   8.0387154  29.4227123  47.4712372   7.3818121
  30.1243382  46.7044525   8.8610868  29.9657097  45.7960854   7.4324756
  27.4946251  47.4054146   9.3621120  26.4340439  47.1646080   9.5670042
  28.0768585  47.4571686  10.2883148  27.4577351  48.3526955   8.8093185
  24.8297482  45.4926109   6.4666491  23.8898659  46.3379364   6.4994197
  24.9853745  44.5915604   5.4722090  25.7408142  43.9563713   5.4927378
  24.0330505  44.3941917   4.3847990  24.0323906  45.3708115   3.7778263
  24.5323277  43.2758865   3.4257338  25.5970554  43.3350449   3.2817934
  24.3805523  42.3411903   4.0066266  23.7907219  43.1274376   2.1077266
  24.2465401  42.3562241   1.5205114  22.7976456  42.7974167   2.3476417
  23.8178463  44.5134544   1.3701636  24.9187317  45.0407600   1.0628200
  22.7166576  45.0793037   1.1220007  22.5975838  44.1586647   4.8226366
  21.6633453  44.7913780   4.3531771  22.4579735  43.2245026   5.7887654
  23.3238773  42.8869667   6.2115402  21.1631565  42.8422127   6.4029436
  20.5446053  42.3985062   5.6458063  21.3406925  41.7050247   7.3878584
  22.0248890  42.0334854   8.1934366  20.3477688  41.6001167   7.8286982
  21.8813019  40.5164680   6.7761397  22.7983284  40.6966782   6.4586329
  20.4340343  44.0738373   7.0604448  19.2367706  44.2795143   6.9138122
  21.1628323  44.8742523   7.8479810  22.1528797  44.6125259   8.0465183
  20.6912651  46.1999664   8.3327465  19.8120251  45.9741669   8.9498825
  21.8299274  46.7647209   9.2050266  22.7839565  46.5695190   8.8043022
  21.6766815  47.7955666   9.3029375  21.9288845  46.3072052  10.6111813
  21.4445477  45.0457954  11.0216990  21.0535660  44.2641487  10.3280077
  21.5105858  44.7425232  12.4319782  21.0752792  43.8128624  12.8042173
  22.1155910  45.6260376  13.3267069  22.0584278  45.3733978  14.3988037
  22.7053165  46.8365059  12.9043064  23.1140881  47.5313148  13.5756493
  22.6137142  47.1592369  11.5459299  22.9810791  48.0962601  11.1937733
  20.3363113  47.1993408   7.1994810  19.2383308  47.7214394   7.2312889
  21.2120667  47.4293594   6.2238932  22.1001225  46.9420013   6.1897612
  20.9801502  48.2639771   5.0733309  20.6983547  49.3007240   5.3916082
  22.3340130  48.3624229   4.3211360  23.0774517  48.9138260   4.9363117
  22.6798649  47.3685417   4.0644398  22.1494331  49.1485825   3.0338635
  21.5958958  48.5238838   2.3082163  21.6220741  50.0820160   3.2265913
  23.4693317  49.5484772   2.4049933  23.3060074  50.1756248   1.5145435
  24.0630913  50.0918961   3.1278250  24.3395405  48.3055840   1.9757714
  25.3345127  48.6314774   1.6549997  24.5107822  47.6031914   2.7732694
  23.7130756  47.6475487   0.8006387  23.6508274  48.2365456  -0.0096226
  24.2301178  46.8299828   0.5532772  22.7975693  47.3185158   0.9941616
  19.7654171  47.8580818   4.2400103  18.9801235  48.7639236   3.8865945
  19.5315151  46.5083504   4.0678277  20.3116779  45.9491310   4.4020638
  18.2707863  45.8810043   3.5744393  18.0633297  46.2626343   2.5778875
  18.5710888  44.3932381   3.4329269  19.0933208  44.0563927   4.3154325
  17.3076668  43.5141220   3.1903694  16.7490692  43.9115143   2.3601868
  17.6475105  42.4797287   2.9813673  16.7601700  43.4398232   4.1068926
  19.3864288  44.2423706   2.1489599  20.3604317  44.7721901   2.3455906
  19.5536842  43.1572533   1.9797963  18.8381519  44.5925598   1.2876271
  17.0699863  46.1412277   4.5215507  16.0320415  46.6557693   4.0600581
  17.1943531  45.9179497   5.8341227  18.0396481  45.4619560   6.1542006
  16.1568871  45.9720078   6.9164319  15.3322639  45.3467407   6.6037865
  16.5988960  45.5730095   8.2681723  17.5352650  46.0592117   8.5793514
  15.8001366  45.7590561   9.0118542  16.7820950  44.1604767   8.2363043
  17.5265770  43.8555870   7.6785803  15.5117750  47.3567429   6.9631267
  14.2823648  47.5444489   7.1708555  16.3621178  48.3619270   6.6707273
  17.3569126  48.1873474   6.5089555  15.9689798  49.7475891   6.6371293
  15.4856005  49.9412498   7.5660748  17.2359829  50.5740814   6.5398750
  17.7906666  50.5266571   7.4738574  17.8370304  50.1647034   5.7428236
  16.9688969  52.0483475   6.2625690  16.3675861  52.8329124   7.2478032
  16.0883865  52.4728165   8.1920424  16.0264091  54.1793213   6.9644933
  15.5648470  54.8181915   7.7574010  16.3297176  54.7153053   5.6981320
  16.0489254  55.7480316   5.5020981  16.8859901  53.9144554   4.7312579
  17.0666809  54.2751350   3.7007449  17.2170715  52.6025467   5.0059757
  17.7027130  52.0265045   4.2224021  14.9613714  50.0406647   5.5185056
  13.8354578  50.5501747   5.7424622  15.3116646  49.7143173   4.2713780
  16.1505814  49.1750336   4.1738744  14.4063749  49.8051796   3.0906687
  14.1663990  50.9115601   2.9427412  15.1648731  49.2137756   1.9030297
  15.3285208  48.1629524   2.1773376  14.4664707  49.1937218   1.0397861
  16.4457626  49.9099693   1.4700664  17.0812225  50.0336609   2.3456957
  17.1253471  48.9710808   0.4448287  16.4865532  48.8515434  -0.4211684
  18.0435753  49.4104614   0.0878713  17.3172340  48.0634842   0.9778765
  16.2171841  51.2404480   0.8072508  15.6892672  51.8756256   1.5837229
  17.1486359  51.7189751   0.5597580  15.5972919  51.1659775  -0.0706529
  13.0463638  49.0681992   3.2913923  12.0203257  49.5561409   2.8639636
  13.0796995  47.9100418   3.9511585  13.9809122  47.6257095   4.2182136
  11.9392290  47.1670570   4.3480320  11.2460051  47.0930939   3.4753263
  12.3127308  45.7186089   4.7525902  12.9117765  45.8135262   5.6711507
  11.3946333  45.1510391   4.9631233  13.0900249  45.0736809   3.7650430
  12.7217302  45.3219948   2.8989217  11.0231867  47.8345528   5.4381008
   9.7849579  47.8660049   5.2215967  11.6241570  48.3916626   6.5164022
  12.6397238  48.3261185   6.5402551  10.9207144  49.2845306   7.4888973
  10.0965586  48.7035561   7.9109073  11.8599424  49.6259727   8.6570377
  12.6693239  50.1792183   8.2052479  11.3707447  50.2672424   9.4122171
  12.1974840  48.7404289   9.0918293  10.2612400  50.5529747   6.8256998
   9.0972681  50.7928810   7.0044017  10.9861460  51.3442421   6.0491009
  11.9771824  51.1475182   5.9956360  10.4446926  52.3861351   5.1565642
   9.9564123  53.1558266   5.8144436  11.6418276  53.0397491   4.3772707
  12.4642324  53.1573448   5.0672584  12.0042505  52.3300934   3.6213992
  11.3296375  54.4427452   3.7807641  10.7548132  55.0720749   4.4918137
  12.6061640  55.2857361   3.5093520  13.1508627  54.9270325   2.6665931
  12.3088398  56.3528976   3.3306382  13.2224131  55.3037033   4.4064140
  10.4843712  54.3854599   2.5259671   9.5337658  53.8294220   2.6140814
  10.3623686  55.4511986   2.1798425  11.0535231  53.8958397   1.7583337
   9.2107973  51.9093513   4.3539963   8.1550140  52.5188255   4.4185181
   9.2905083  50.7350883   3.6483243  10.2072477  50.3151321   3.5943203
   8.2175379  50.1897812   2.8087103   7.9236393  50.9166794   2.0942471
   8.6939125  49.0092621   1.9839597   9.7634373  49.1273499   1.7944835
   8.6048994  48.1117973   2.5298474   7.9586596  48.9195213   0.6285114
   7.9093366  49.9152603   0.1909898   8.7269306  48.4481049  -0.0069562
   6.6167374  48.1007576   0.6360189   5.5136151  48.6828232   0.5450371
   6.6490722  46.8222771   0.7624186   6.9558916  49.8513985   3.6085331
   5.8414435  50.2973366   3.3092217   7.0845633  49.1949234   4.7825117
   8.0149097  48.8530350   5.0022087   6.0645733  48.9524231   5.7781749
   5.2465444  48.3607826   5.2873654   6.4823289  48.0573463   6.9905906
   7.4121709  48.3997955   7.3777580   5.8070588  48.1457672   7.8293223
   6.5671024  46.5816650   6.6684175   7.3429852  46.3583374   5.9848742
   6.8471413  45.9921799   7.5123806   5.2155933  46.0912895   6.0304732
   5.2864714  45.3260422   5.0228496   4.1893554  46.5056190   6.5447259
   5.3732877  50.2625237   6.2814660   4.1659975  50.2811890   6.2129922
   6.0980220  51.3101616   6.6984487   7.1219711  51.2677917   6.7165570
   5.5262470  52.5514946   7.1121316   4.8089590  52.3307877   7.9241781
   6.5860939  53.5105591   7.6831064   7.2369571  53.7767487   6.8173761
   6.1805272  54.4318237   8.0624666   7.5165172  52.9109154   8.7095299
   7.0965600  51.8944397   9.5593386   6.0706739  51.4804039   9.5108232
   7.9763026  51.4213219  10.5597582   7.6852303  50.5658875  11.1949692
   9.2511854  51.9979897  10.6902647  10.1440964  51.5555763  11.5999184
   9.9159155  50.6638908  11.8953171   9.6436224  53.0593491   9.8368282
  10.5729008  53.6078606  10.0181494   8.7911072  53.5002861   8.8069324
   9.1461620  54.2948914   8.1106586   4.7119017  53.2028389   5.9501481
   3.6808298  53.8140297   6.2227736   5.2590857  53.1634865   4.7005777
   6.1410112  52.6456413   4.6178565   4.5893111  53.5410767   3.4282610
   4.3809919  54.6021118   3.5697379   5.5389853  53.3631516   2.2023313
   5.5317540  52.2757683   1.9325887   5.0879354  54.2527199   1.0541251
   5.5032425  55.2885017   1.0989052   5.4011636  53.7987862   0.0925917
   4.0204806  54.3746910   1.0693685   6.8413048  53.8818588   2.4319694
   7.2431941  53.3617744   3.1888900   3.2921109  52.7106552   3.2316744
   2.2590594  53.3200607   2.9589555   3.3238652  51.4217758   3.4538338
   4.1973505  51.0505257   3.6926196   2.2056999  50.4489174   3.3024888
   1.7488928  50.6448708   2.3239689   2.8049734  49.0368233   3.3518836
   3.6193619  48.9296417   2.6502686   3.1383214  48.8669014   4.3722029
   1.7724252  47.9701195   3.0653086   1.0212126  48.0404625   3.8699958
   1.3922940  48.1056938   2.0516393   2.4030712  46.5969048   3.1095207
   2.8609471  46.4735985   4.0953188   1.6051434  45.8759155   3.0606995
   3.4589820  46.3595200   2.0000796   2.9405737  46.0636673   1.0602177
   3.8844564  47.3762932   1.8709196   4.6005964  45.5266228   2.3225143
   4.5272770  44.5609665   2.1747806   5.4004407  45.7935143   1.7028989
   4.9293919  45.6406975   3.3026526   1.1020972  50.6355438   4.3308415
  -0.0392126  50.6600914   3.9457443   1.4274588  50.7965088   5.5885797
   2.4651406  50.8039284   5.7650065   0.4761152  51.0785637   6.7282863
  -0.3065744  50.2982140   6.6574664   1.1231591  51.0426292   8.1102552
   2.1769347  51.2017670   7.9668927   0.7506043  51.9075966   8.6574221
   0.8941853  49.7918892   9.0000858   1.2475046  50.1059799  10.0273514
  -0.1731993  49.5480003   9.0609732   1.6645175  48.5130539   8.6100302
   2.6706014  48.8299255   8.3466997   1.6484241  47.8702621   9.4770851
   0.9235072  47.7551727   7.5079198  -0.0578991  47.5245323   7.8637691
   0.8312262  48.4656296   6.6673260   1.6434456  46.4880333   7.2034402
   1.6952970  45.8669243   8.0212603   1.1313894  45.9336510   6.5032558
   2.5965896  46.6878510   6.9145579  -0.4076016  52.2980270   6.5029883
  -1.6067475  52.2315559   6.6487985   0.1829862  53.3567772   5.9504323
   1.1760778  53.4596100   5.8966994  -0.4726775  54.5757484   5.4641767
  -1.1141263  54.8909340   6.2804265   0.6873444  55.6301689   5.2340860
   1.2187476  55.8019409   6.1644583   1.3003920  55.1569405   4.4776144
   0.2354001  57.0209122   4.7045712  -0.2637930  56.8838959   3.7356660
  -0.6876206  57.8128662   5.7021213  -0.2753493  57.8978882   6.6884236
  -0.7904691  58.8192444   5.2901721  -1.6789575  57.3729706   5.8197885
   1.4739023  57.9087143   4.4764957   2.1912889  57.3434296   3.8304143
   1.1481411  58.8558159   4.0134082   1.9699135  58.1497536   5.4492855
  -1.3698800  54.3695145   4.2330041  -2.4530640  54.9456749   4.1198502
  -1.0238602  53.4643326   3.3062439  -0.1655011  52.9396477   3.4097016
  -1.8962651  53.0417824   2.2029152  -2.4910772  53.9052429   1.8448668
  -1.0274364  52.5031357   1.0655010  -0.2647163  51.7971001   1.4279654
  -1.6215528  51.8373070   0.4808394  -0.3607684  53.6407280   0.2521662
  -1.0178112  54.2106209  -0.6032073   0.8728517  53.9746552   0.4540302
   1.2765156  54.6448860  -0.1462149   1.4245682  53.5338440   1.1418930
  -3.0172265  52.0598946   2.6358578  -4.0799360  51.9738960   1.9792104
  -2.8599894  51.3320503   3.7386158  -2.0202589  51.4875641   4.3541803
  -3.7415526  50.2145004   4.1348319  -4.6494370  50.2287254   3.4876218
  -3.0392561  48.8087502   4.0173149  -3.6912684  48.0414543   4.4188504
  -2.6620839  48.4390793   2.5614491  -2.0832105  49.2242966   2.0290194
  -2.2010460  47.4619331   2.5111463  -3.6222122  48.3158569   2.0076120
  -1.8660234  48.8124809   4.7874684  -1.2594345  49.4318619   4.3332663
  -4.3358498  50.3625336   5.5700407  -4.4015794  49.4546738   6.4194069
  -4.7685866  51.6093025   5.8553801  -4.5397558  52.3324280   5.1388721
  -5.6908827  51.9644318   6.9493079  -5.1257272  51.8330040   7.8909740
  -6.1628122  53.4191093   6.7633867  -6.5723329  53.4979439   5.7760339
  -6.9780393  53.6200676   7.4745889  -5.1113062  54.5062599   6.7639952
  -4.4366636  54.3308220   5.9586692  -5.5871387  55.4804039   6.6590528
  -4.3179450  54.5903587   8.0608587  -4.7863712  55.0308037   9.0925560
  -3.0848849  54.2649994   8.0485086  -2.6165020  54.3595886   8.9581413
  -2.6442242  53.7846718   7.2982545  -6.8905220  50.9921303   6.9869924
  -7.1959839  50.4053459   8.0521393  -7.6716137  50.9317360   6.0113044
  28.5624428  42.7334671  -5.9952497  28.2943840  43.3940163  -5.2912960
  28.2434483  41.8127975  -5.7827387  28.1172600  43.0469284  -6.8536801
  30.0523643  42.7598915  -6.1437221  30.2658272  42.0653725  -6.9537234
  30.5968208  44.1303596  -6.6716027  29.8957939  44.4988708  -7.4379849
  30.6364250  44.7689590  -5.8258986  31.9502735  44.1006432  -7.3591042
  32.7580185  43.7331429  -6.7068887  31.9938393  43.2211304  -8.6636076
  31.3656158  43.5851746  -9.4516869  33.0545692  43.1657257  -9.0401039
  31.7316647  42.1967278  -8.3236446  32.3528976  45.5673561  -7.7991438
  32.2477646  46.2899933  -6.9412498  33.3882675  45.5635033  -8.1024971
  31.7170544  45.8468208  -8.6574068  30.8973026  42.2518120  -4.9414616
  31.4418392  41.1836281  -5.0399423  30.8632069  42.9196777  -3.7565556
  30.2637863  43.7276993  -3.7055137  31.8366032  42.7773628  -2.6057820
  32.7988586  42.5132141  -3.0573616  31.9937687  44.0958557  -1.9412940
  30.9694138  44.2640648  -1.5265371  32.5915413  44.0209923  -1.0316800
  32.4878235  45.2566566  -2.7573719  31.7611618  45.5934525  -3.5233812
  32.6109734  46.0735855  -1.9838012  33.8390198  45.0295982  -3.4679625
  33.7328262  44.1741142  -4.1923485  34.0635185  45.9438362  -4.0030460
  35.0613327  44.8741112  -2.5507452  35.8886757  45.1048660  -3.2575521
  35.0505180  45.5885773  -1.7405887  35.2227707  43.4889221  -2.0863163
  35.2965088  42.8934937  -2.9184542  36.0763359  43.3543930  -1.5794636
  34.4789085  43.1820297  -1.4708464  31.6252632  41.6463432  -1.5625538
  32.5384789  41.3821411  -0.7662773  30.5018311  40.8930931  -1.6728275
  29.9193611  41.1734428  -2.3919210  30.2205353  39.5528603  -1.0403206
  30.7773056  39.4546547  -0.1419276  28.7472820  39.5035896  -0.7213289
  28.1864738  39.7832222  -1.5822227  28.5409718  38.4774933  -0.4413615
  28.4521713  40.5195312   0.3972712  28.9985542  41.4334831   0.2358382
  26.9613571  40.9844017   0.4133296  26.3056679  40.1392326   0.6262639
  26.8070526  41.7952499   1.0643061  26.6744804  41.4628181  -0.5052488
  28.8978577  40.0907669   1.8170561  29.9425507  40.1087761   1.9196795
  28.4959602  40.7667885   2.5878873  28.5307884  39.0752258   2.0174494
  30.5662136  38.3925972  -1.9893842  31.2469959  37.4596672  -1.5159220
  30.2176590  38.4561234  -3.2647917  29.7076015  39.2935257  -3.6122727
  30.3738689  37.3585930  -4.2626281  30.1539516  36.3941879  -3.7739775
  29.4227600  37.5217476  -5.4417372  29.4507980  38.5609474  -5.8063788
  29.6679859  36.8665352  -6.2628837  27.9347992  37.1743927  -5.1957521
  27.5963097  37.7024879  -4.3257670  27.0278015  37.6376114  -6.3675327
  27.2116127  37.2349243  -7.3266101  25.9530621  37.5210495  -6.1089630
  27.1335316  38.7117348  -6.3943253  27.7469807  35.6970940  -4.9691238
  28.3604603  35.4614487  -4.1322904  26.7013397  35.4487762  -4.7524538
  28.0835190  35.1977959  -5.8115559  31.8414230  37.2942009  -4.6929469
  32.3463058  36.1786118  -4.7848563  32.5488663  38.4278946  -4.8519106
  32.0521011  39.3160210  -4.8696666  33.9298820  38.4348869  -5.3825073
  33.9009018  37.8365707  -6.3103733  34.4359016  39.8727341  -5.6704855
  35.4428253  39.7664108  -6.0615325  33.8097687  40.3864899  -6.3755584
  34.5665054  40.8013992  -4.4808269  35.0801010  41.9307556  -4.5787754
  34.1880341  40.4117050  -3.3744478  34.9294510  37.6127052  -4.4274487
  35.8399734  36.9796371  -4.9201922  34.6765823  37.5923843  -3.0899475
  33.9763794  38.2202072  -2.7411366  35.3635635  36.8583069  -2.0604060
  36.4210930  37.0504150  -2.2578897  34.9202003  37.4981384  -0.7345892
  33.8431473  37.7200928  -0.7104319  35.1133194  36.8268890   0.0885719
  35.5737152  38.7520370  -0.3819219  36.5207977  39.2045479  -1.0344077
  35.0541382  39.5056572   0.5615625  35.3189392  40.4223976   0.6715152
  34.2178879  39.1223488   1.0376050  35.0958557  35.3507538  -2.1303489
  36.0281792  34.5600662  -2.2571154  33.8440208  34.9237785  -2.2168527
  33.0949631  35.6266632  -2.2336867  33.4270096  33.5319099  -2.4859176
  33.8911743  32.8978004  -1.7752509  31.9176292  33.3991394  -2.3458719
  31.4441605  34.0059052  -3.1440425  31.6155834  32.3742371  -2.5471518
  31.2137051  33.6962280  -1.0668085  29.9050121  33.7674751  -0.9701103
  29.2659836  33.7250023  -1.8539268  29.5009689  33.8692703   0.3391590
  28.5188503  33.7555695   0.5957378  30.5828209  33.9327850   1.1773405
  30.7412033  33.9493408   2.5777149  29.8743439  34.0491791   3.1857190
  32.0502510  33.9383163   3.0928504  32.2630997  33.9635391   4.1718450
  33.1881905  33.8240852   2.2723179  34.1301498  33.8569298   2.7646070
  32.9946098  33.8065224   0.8670294  33.8708954  33.7066498   0.2110358
  31.7106438  33.8512917   0.2786768  33.9063950  32.9925995  -3.8226078
  34.3637505  31.8511391  -3.9718235  33.9531517  33.8569031  -4.8644624
  33.6652527  34.8358459  -4.6989527  34.6177902  33.5954590  -6.1503286
  34.1828918  32.6454849  -6.5055013  34.3713036  34.7615891  -7.0968075
  33.3360977  34.8674736  -7.1776395  34.8150558  35.6811256  -6.7731948
  34.9500465  34.5068130  -8.5326777  35.5204468  35.4568062  -9.1299706
  34.7231178  33.4060516  -9.1242514  36.1604156  33.3306046  -5.9856582
  36.7352524  32.3426743  -6.4616175  36.7750130  34.2163582  -5.1966095
  36.3075790  34.9664764  -4.8060331  38.1843109  34.0430946  -4.8219147
  38.6819611  34.0554962  -5.8075619  38.7243919  35.2151527  -4.0241160
  38.4348450  36.1623268  -4.4413619  38.2250938  35.2080956  -3.0289640
  40.1201782  35.1654053  -3.8900850  40.4263268  35.6354904  -4.6909585
  38.5705070  32.6840248  -4.2896233  39.5877533  32.0715752  -4.6352568
  37.6643143  32.1165924  -3.5188248  36.8725090  32.6874199  -3.2161620
  37.7303886  30.7988377  -2.8819382  38.7321701  30.5716877  -2.6001070
  36.7173691  30.7347984  -1.7356122  35.7350693  30.9906178  -2.1253579
  36.5591125  29.3304939  -1.1699221  37.4956131  28.9367008  -0.7816312
  35.7990723  29.2655296  -0.3910762  36.2427940  28.6250286  -1.9830264
  37.0356102  31.7313366  -0.6410047  36.9586601  32.7480354  -1.0132091
  36.2402420  31.6718369   0.1780065  37.9896355  31.5311470  -0.1440471
  37.4556389  29.7549744  -3.9524233  38.1990700  28.8113976  -4.0580826
  36.3675232  29.9160957  -4.6874113  35.8210411  30.7036324  -4.4036789
  35.9283600  29.0771599  -5.8116107  35.6154404  28.1232834  -5.3875408
  34.6621361  29.5983295  -6.5010667  34.8776741  30.5514259  -6.9750829
  34.2390518  28.6056023  -7.5813541  34.3426094  27.5811195  -7.2716551
  33.1339569  28.6160851  -7.8802757  34.8900833  28.8931866  -8.3772478
  33.6466637  29.6962585  -5.5494618  33.9016647  30.4166393  -4.9478717
  37.1025734  28.7939453  -6.7705851  37.4047508  27.6565266  -7.1116428
  37.6947250  29.8496342  -7.2857437  37.3219719  30.7357883  -6.9952655
  38.8996429  29.9228878  -8.1254578  38.6961250  29.3709278  -9.0344467
  39.1048470  31.3573093  -8.5638008  38.1561279  31.7220592  -8.9256611
  39.3938446  31.9880867  -7.7557659  40.1099739  31.4846630  -9.5344753
  40.3783379  32.4443970  -9.5673342  40.1067314  29.2844963  -7.4497089
  40.6493568  28.3510590  -8.0805988  40.5014839  29.7457676  -6.2464337
  39.9260445  30.3907318  -5.7252808  41.6515007  29.1222363  -5.6188793
  42.5940857  29.2522507  -6.1971784  42.0401993  29.7937889  -4.2712755
  41.2330322  29.7797184  -3.5544434  43.2426147  29.1597290  -3.6264181
  44.0341415  28.9840717  -4.3462081  43.7021980  29.7785358  -2.8567123
  42.9119339  28.2442284  -3.1354973  42.3482132  31.1863499  -4.4677315
  41.4906082  31.6599751  -4.6718020  41.4935493  27.5963516  -5.5053325
  42.4375000  26.8857193  -5.8973765  40.4117737  27.0525570  -4.9167852
  39.6477432  27.6893997  -4.6428990  40.1241875  25.6117287  -4.7130847
  40.8542824  25.1904221  -4.0621505  38.6977386  25.4625874  -4.1260390
  38.6363449  25.9687405  -3.1112657  38.0107117  25.9569721  -4.7985430
  38.3234634  24.0342827  -3.9843955  37.7231522  23.3671455  -5.0559235
  37.5714607  23.8733501  -5.9784789  37.2643127  22.0420647  -4.9227338
  36.8524857  21.5482941  -5.7713127  37.3788605  21.3540440  -3.7070987
  37.0668373  20.3285580  -3.6603169  38.0401459  21.9841557  -2.6182458
  38.1100807  21.5199680  -1.6470777  38.4512444  23.3234711  -2.7687798
  38.9182625  23.8076572  -1.9155245  40.2047920  24.9036388  -6.0466318
  40.8201370  23.8401871  -6.1226726  39.5289154  25.4438782  -7.0879846
  39.0597763  26.3249626  -6.9532590  39.4644089  24.8010559  -8.4175367
  38.9829140  23.8525581  -8.3838654  38.6381302  25.6789379  -9.4279051
  38.9929237  26.7294235  -9.4905710  38.7285843  25.2250004 -10.3948603
  37.2919159  25.7804585  -9.0511074  37.2857323  26.3877983  -8.3159180
  40.8980522  24.5240517  -8.9857788  41.0575333  23.4674244  -9.5163965
  41.8737946  25.4623241  -8.8893566  41.6898689  26.2976093  -8.3067646
  43.2541885  25.3457165  -9.3539324  43.2636642  24.9407558 -10.3271904
  43.9380074  26.7080307  -9.4741926  43.2577324  27.5316067  -9.2333755
  44.7434998  26.7318707  -8.7316189  44.4120560  27.0660419 -10.9100046
  43.5342789  26.9537716 -11.5110836  44.7584724  28.0779305 -10.9238586
  45.5374222  26.0700207 -11.3260193  46.3826523  26.3304119 -10.6388292
  45.2474594  25.0697365 -11.1209288  46.0678673  26.2699909 -12.7527103
  46.3639488  27.3126068 -12.8732872  46.9579277  25.6374378 -12.8116426
  45.0463448  25.9456806 -13.8101015  44.2786369  26.5706139 -13.6754236
  45.4010353  26.0679092 -14.7445107  44.6387100  25.0283985 -13.7888002
  44.0450630  24.3628235  -8.4937134  44.5707321  23.4276314  -9.0710850
  44.0072289  24.3874836  -7.1637731  43.5614738  25.1690960  -6.7080002
  44.5327988  23.2988148  -6.2544389  45.6391869  23.1778927  -6.3739781
  44.3217812  23.6996078  -4.7835345  43.2144775  23.7455482  -4.6183100
  44.6298561  22.8923016  -4.1385808  45.0414467  25.0294113  -4.4405475
  44.7663727  25.8490753  -5.1202006  44.5680695  25.4739361  -3.0659881
  44.8253593  24.7629471  -2.3416600  45.0110970  26.4593925  -2.8621294
  43.4300003  25.4842834  -3.0789030  46.5416946  24.8992729  -4.4061322
  46.9342651  24.8103046  -5.3834100  46.9591331  25.7971458  -3.9124629
  46.8738899  24.0731468  -3.7849782  43.9958267  21.8790073  -6.5791106
  44.7522202  20.9074383  -6.6765041  42.6737175  21.7235088  -6.6286855
  42.0998001  22.5966721  -6.5193968  41.9775734  20.4468746  -6.8460364
  42.4675217  19.7526150  -6.1881633  40.4583321  20.4944458  -6.5338969
  40.2398300  21.3010712  -5.8244104  39.9568291  20.8225727  -7.4383044
  39.8176994  19.1751156  -5.9383259  38.7589073  19.3270035  -5.8327336
  39.9624481  18.3504410  -6.6152382  40.4164467  18.9223881  -4.5832987
  41.4993057  18.8951550  -4.6758757  40.1240005  19.6864777  -3.8843896
  39.9664726  17.6260777  -4.1030431  39.4869232  16.9934158  -4.7420969
  40.1069489  17.1813316  -2.8882136  39.6129303  15.9885740  -2.5495198
  39.1090927  15.3569326  -3.1579118  39.7719345  15.6430969  -1.5590976
  40.7404671  17.7193737  -1.9014182  41.0688210  18.6956959  -1.9402505
  40.8608398  17.2226028  -1.0330187  42.2711983  19.9383507  -8.2729044
  42.4433136  18.7222939  -8.4316244  42.3777847  20.8371525  -9.2642250
  42.2468948  21.8329906  -9.0041742  42.8142891  20.4081898 -10.6396189
  42.2368240  19.5988731 -10.9792633  42.7733231  21.5934849 -11.6384592
  41.7722168  21.9843369 -11.6309252  43.3887901  22.4345760 -11.2671614
  43.1583366  21.2907009 -13.0854120  44.1657600  20.9369640 -13.1204815
  42.4951630  20.5290203 -13.6070070  42.9839668  22.6163082 -13.8699331
  41.8792191  22.8227310 -14.4573298  43.9178314  23.4111862 -13.9592590
  44.2293625  19.7927284 -10.5600157  44.5179749  18.8465233 -11.3046083
  45.1600075  20.3570099  -9.7667961  44.9146271  21.1031742  -9.1716900
  46.5757217  19.9650745  -9.7881165  46.8540916  19.8067608 -10.8179483
  47.5218620  21.0349770  -9.2573690  47.2990799  21.9354038  -9.8319778
  47.3533249  21.2161274  -8.2216539  49.0346985  20.7953053  -9.4533558
  49.3748932  20.0569515  -8.6892004  49.1838799  20.4021149 -10.4171181
  49.8989182  22.0641632  -9.3405514  49.4068108  23.1199093  -9.0921888
  51.1442909  22.0107479  -9.7569456  51.6903648  22.8905983  -9.7219524
  51.5444221  21.1467075 -10.0401392  46.7727242  18.6485615  -9.0285254
  47.5576935  17.8151474  -9.4911776  46.1023369  18.4394245  -7.8729749
  45.6424561  19.2660332  -7.4759126  45.9373856  17.2535076  -7.0672936
  46.9541245  16.8976498  -6.8058558  45.2345619  17.5850201  -5.7351966
  45.8306503  18.3200741  -5.2380466  44.3200302  18.0707970  -5.9101496
  45.1333046  16.4735012  -4.7141757  44.5503082  15.6449909  -5.1003165
  46.5154839  15.9532728  -4.2221551  47.2092514  16.7581482  -3.8830874
  46.3610458  15.2503119  -3.3817055  46.9969902  15.3798790  -5.0125861
  44.3386803  17.0811348  -3.5084298  43.5469971  17.6904449  -3.8429091
  43.9352570  16.3015213  -2.8606665  44.9802170  17.6808147  -2.9005525
  45.2348022  16.0704918  -7.7555656  45.6614723  14.9696159  -7.4982095
  44.2443314  16.2912979  -8.6087627  43.9392433  17.2554665  -8.6631289
  43.4778061  15.2356358  -9.3387947  42.7516403  14.7830315  -8.7068033
  42.8854828  15.7479115 -10.0868940  44.3965530  14.1923161 -10.0271988
  44.4916382  13.0372047  -9.5766392  45.1993179  14.5534153 -10.9982634
  45.0678291  15.8068104 -11.7256632  45.7546654  16.5587769 -11.3643084
  44.0788498  16.2293262 -11.6907682  45.4090881  15.5293074 -13.1427898
  45.7439003  16.4647560 -13.6081142  44.5398293  15.1660070 -13.6517515
  46.4603767  14.4326925 -13.0511913  47.4136810  14.9205685 -12.9783840
  46.3166504  13.7823315 -13.9097109  46.0716820  13.6688824 -11.7202492
  45.4052963  12.8140926 -12.0605936  47.2794800  13.0823660 -10.9355202
  47.7103996  11.9373121 -11.2020512  47.7793884  13.8229189  -9.9438934
  47.3583031  14.7488632  -9.8198738  48.7317467  13.3830919  -8.8937025
  49.6401062  12.9452991  -9.3335190  49.1911011  14.5804262  -8.0527391
  48.2522774  15.1375961  -7.8443904  49.9463882  14.2208242  -6.8057661
  50.8645592  13.7007437  -7.1139693  50.2052269  15.0956631  -6.2066598
  49.3405228  13.6393728  -6.1295919  50.0390854  15.5083227  -8.8948660
  49.4906464  15.8221378  -9.8258791  50.3456917  16.3961487  -8.3644257
  50.8992958  14.8800516  -9.1832218  48.1490784  12.3061647  -8.0200634
  48.8194466  11.3450518  -7.6943822  46.8681374  12.4169865  -7.6198010
  46.3747025  13.2784166  -7.8686590  46.2022438  11.3684120  -6.7833657
  46.9281464  10.9381285  -6.1125760  45.1261673  11.9630013  -5.8346148
  44.2711334  12.2537251  -6.4367194  44.5901451  10.9425659  -4.7832899
  45.4010353  10.4453096  -4.2217522  44.0492706  11.4764080  -4.0283117
  44.0528488  10.1257668  -5.2302985  45.6009293  13.0220146  -5.0806308
  45.5199509  13.7808466  -5.6706972  45.6459389  10.1388607  -7.5898380
  45.6938972   8.9713917  -7.1483760  45.2808342  10.3796482  -8.8165560
  45.0967865  11.3195667  -9.0930586  44.7812233   9.3494005  -9.7225485
  44.0144119   8.8177872  -9.1464252  44.0908012  10.0668230 -10.8793249
  43.3531990  10.7263422 -10.4472303  44.8471222  10.6297035 -11.4409933
  43.3063126   9.1336155 -11.8227777  44.0416298   8.6350479 -12.4628639
  42.9139519   8.3345089 -11.2216959  42.2907600   9.8078337 -12.8081818
  42.3408127  11.0036745 -12.9415884  41.4411125   9.0957813 -13.5571375
  40.6399879   9.5568829 -13.9557600  41.4199295   8.1264124 -13.4328175
  45.8435020   8.3223505 -10.1071568  45.4483452   7.1674151 -10.3452158
  47.1253586   8.6876392 -10.1620426  47.3669395   9.7028751 -10.0900192
  48.2268944   7.7437644 -10.2383814  48.1932297   7.3356891 -11.2749052
  49.5395699   8.5025682 -10.1645193  49.5421944   9.3317823 -10.8680239
  49.7104111   8.8309803  -9.1352386  50.7525711   7.6095076 -10.3831253
  51.5265694   8.1282291  -9.8180895  50.6734848   6.6697450  -9.7981434
  51.1599579   7.4402266 -11.8581724  50.4229126   6.7019820 -12.5536022
  52.0549355   8.1542473 -12.3464537  48.1931343   6.6573930  -9.1280651
  48.2719803   5.4561186  -9.4318781  48.0979767   7.0696301  -7.8524060
  47.9775467   8.0645370  -7.6617074  47.9807472   6.2138915  -6.7192073
  48.8111572   5.4896221  -6.6412520  48.1719246   7.0123253  -5.4299541
  47.3235855   7.7241516  -5.2987938  48.1145248   6.2791901  -4.6515927
  49.5024300   7.7312732  -5.2758164  50.6879387   6.9781184  -5.3434634
  50.6826363   5.8943319  -5.4729176  51.9416771   7.6452899  -5.1689429
  52.8765144   7.1154380  -5.2836761  51.9855080   9.0449562  -5.0604744
  52.9231224   9.5569010  -5.1291013  50.8051720   9.7869368  -5.0633793
  50.8078613  10.8497276  -4.9455843  49.5509338   9.1246223  -5.1459026
  48.6112404   9.6798048  -5.1807127  46.6865387   5.3987055  -6.7106361
  46.7485771   4.1988201  -6.3375101  45.6042824   5.9918671  -7.2029743
  45.6956635   6.9816232  -7.4260864  44.2378197   5.3524761  -7.2659583
  44.0217209   5.0024242  -6.2557182  43.1300697   6.3936100  -7.6512442
  43.4445381   7.4006081  -7.3839860  43.0123177   6.3910980  -8.7442408
  41.7807350   6.0831208  -7.0064445  40.7723274   5.3722854  -7.4790092
  40.8328323   4.8279767  -8.4515371  39.7011070   5.3485756  -6.6073637
  38.8443069   4.8015685  -6.8316894  39.9698524   6.0185480  -5.4440660
  39.2694969   6.2323956  -4.2625618  38.2751083   5.8597159  -4.1391325
  39.8595428   6.9184661  -3.1902447  39.3256683   7.1227999  -2.2959807
  41.1915817   7.3232040  -3.3047466  41.6488228   7.8146119  -2.4736450
  41.8832474   7.0508342  -4.4719973  42.9212227   7.3839688  -4.5438981
  41.3247643   6.4600778  -5.6208763  44.2344322   4.1389084  -8.1968679
  43.6919746   3.1135533  -7.8418255  44.8904991   4.2359686  -9.3171320
  45.2443848   5.1480193  -9.4993811  45.0545654   3.1443012 -10.3225536
  44.0757179   2.7197635 -10.6233425  45.8180656   3.6228266 -11.5870180
  45.2340469   4.3811841 -12.1418047  46.7689552   4.1060758 -11.3685617
  46.0514412   2.4682007 -12.5590649  45.0664177   1.7290726 -12.8074255
  47.1677742   2.3574338 -13.1645908  45.7860260   1.9996476  -9.6731977
  45.2819443   0.9036011  -9.5882645  46.9709587   2.2606864  -9.0700626
  47.3954010   3.1382279  -9.2019272  47.7975540   1.2864459  -8.3529310
  47.9714661   0.4247119  -9.0280867  49.1256714   1.9292297  -8.0369120
  48.9004898   2.8208945  -7.4713893  49.6064339   1.1720955  -7.4384127
  50.0148010   2.0723608  -9.2534876  50.7556381   1.1403871  -9.5728827
  50.0513916   3.2081392  -9.9434719  50.5053711   3.1295540 -10.8102121
  49.5767212   4.0712218  -9.7208881  47.0602989   0.6363655  -7.1351581
  47.0895844  -0.5949324  -7.0703993  46.3945045   1.4010209  -6.3176775
  46.4656105   2.3940344  -6.4556212  45.4572296   0.9236509  -5.3206453
  46.0020599   0.4013188  -4.5628719  44.9221230   2.1699352  -4.6348596
  45.7572556   2.6102254  -4.0470347  44.6551933   2.8611708  -5.4078507
  43.7073898   2.0679560  -3.6858568  42.8623009   1.6833414  -4.2663450
  43.9310875   1.0539968  -2.5682201  44.6181107   1.4850956  -1.8200374
  43.0017166   0.9771889  -2.1000810  44.3163071   0.1020075  -2.9090691
  43.3231735   3.4212055  -3.0678606  42.7865295   4.1005487  -3.7251678
  42.7120552   3.2315354  -2.1928611  44.1988411   4.0376987  -2.7617860
  44.2703209   0.0621519  -5.8647947  43.9578285  -0.9747165  -5.2871628
  43.5708199   0.4709311  -6.9193106  43.8701477   1.3113010  -7.3712978
  42.5290070  -0.3257436  -7.5441265  41.7841873  -0.4924284  -6.7715330
  41.8660812   0.4411095  -8.6520462  41.2488899   1.2326351  -8.2599373
  42.6111069   0.9996480  -9.1457043  41.0472298  -0.2620241  -9.7515192
  40.6650162   0.5273451 -10.4551306  41.7374001  -0.7871586 -10.4160681
  40.0417099  -1.3139455  -9.2753401  39.6989594  -2.2561526 -10.0413809
  39.5931854  -1.2013518  -8.1107960  43.0571327  -1.6840435  -7.9719853
  42.5443993  -2.7676544  -7.6374655  44.2051353  -1.7002858  -8.6257925
  44.5671616  -0.7899017  -8.8074665  44.9122391  -2.9201679  -9.0464144
  44.2344131  -3.5773897  -9.5948734  46.0217056  -2.5280950 -10.0030413
  46.6316299  -1.7755936  -9.5359526  46.6861877  -3.3457611 -10.1811981
  45.5112877  -2.0794604 -11.3780451  44.9759293  -2.9113510 -11.8468857
  44.8928032  -1.2184740 -11.2520027  46.7256584  -1.6406922 -12.2810135
  47.1175842  -0.6605132 -11.9255533  47.5323715  -2.3867173 -12.2196159
  46.3241920  -1.6166586 -13.7794685  47.2136078  -1.3711646 -14.3583689
  46.1238708  -2.6266096 -14.1263151  45.1794395  -0.6979418 -14.0260754
  45.3015976   0.1896241 -13.5343924  44.9670372  -0.6644661 -14.9838924
  44.3671265  -1.0585667 -13.6110344  45.4999771  -3.7090302  -7.8379631
  45.2867928  -4.9125290  -7.8819056  45.8839378  -3.1061254  -6.6837306
  45.9542542  -2.1200418  -6.6078053  46.1722794  -3.7932894  -5.3925753
  46.8636093  -4.5909672  -5.6823688  46.9888840  -2.8780656  -4.4028988
  46.5547981  -1.8930291  -4.5259485  46.9041595  -3.1875596  -3.4110980
  48.4847031  -2.8358505  -4.7845287  48.8392220  -3.8705828  -4.8824654
  48.6026192  -2.4181223  -5.7771087  49.3276215  -2.0535266  -3.7668052
  49.1837158  -2.3342829  -2.5653622  50.1832047  -1.2044325  -4.1507459
  44.8709335  -4.3936849  -4.7563720  44.9781494  -5.4412837  -4.1404347
  43.7383080  -3.7177024  -4.9367132  43.8107300  -2.8316023  -5.4080462
  42.4598274  -4.1071277  -4.4666147  42.5750313  -4.4338040  -3.4663401
  41.4659081  -2.9787705  -4.4679503  41.1796417  -2.7183785  -5.4858165
  40.1547813  -3.2992485  -3.6922491  40.3476562  -3.6651578  -2.7345920
  39.5904922  -2.3933229  -3.6567144  39.5588570  -4.0377231  -4.2736397
  42.0184402  -1.9004388  -3.7905142  42.7270927  -1.4921250  -4.2548385
  41.8926430  -5.2877145  -5.2327151  41.2537041  -6.1684303  -4.6541481
  42.1253548  -5.3272886  -6.5433555  42.6192055  -4.5369945  -6.9645004
  41.8837318  -6.5251689  -7.3998737  40.8325958  -6.7979021  -7.2654147
  42.2459450  -6.1632991  -8.8741379  41.6197166  -5.3922968  -9.3092041
  43.3221512  -5.9267192  -8.9064226  42.0631371  -7.4046416  -9.8334446
  42.4814262  -7.2259851 -10.8050489  42.6716194  -8.1798506  -9.4182215
  40.6267319  -7.8941541  -9.9763374  40.3843117  -8.8999681 -10.6879625
  39.7445831  -7.1312518  -9.5318108  42.7145157  -7.7270098  -6.9641161
  42.2353973  -8.8244524  -7.0459695  43.9533424  -7.5054688  -6.5676360
  44.2933044  -6.5729899  -6.7604232  44.7831345  -8.4047203  -5.8094378
  45.1388741  -9.1918306  -6.4232540  45.6435928  -7.8124642  -5.4919863
  44.0135574  -9.0281038  -4.6412606  43.7915459 -10.2087727  -4.6233735
  43.4728699  -8.2637367  -3.6936865  43.5815620  -7.2226138  -3.7228057
  42.5369606  -8.7635956  -2.6382515  43.1161499  -9.4554405  -2.0392594
  42.1313896  -7.5626140  -1.6787516  43.0160522  -7.0740647  -1.3345288
  41.5075264  -6.8843393  -2.2686472  41.3623085  -7.9647632  -0.4181727
  40.5114326  -8.5715313  -0.6764477  42.2411957  -8.7618389   0.5643756
  43.0178413  -8.1099253   0.8374854  41.6198120  -9.0158043   1.4208293
  42.5876846  -9.7045822   0.1405545  40.8430290  -6.6798115   0.2503661
  40.2148628  -6.1992030  -0.4584160  40.2328529  -6.9368954   1.1356081
  41.7271500  -6.1123652   0.4695932  41.2830048  -9.5172110  -3.1598759
  40.9599533 -10.5668182  -2.5990739  40.5880394  -9.0744886  -4.1545753
  40.8785019  -8.1660070  -4.4666343  39.4460144  -9.7708807  -4.7995753
  38.6152611  -9.9925003  -4.1229067  38.8716660  -8.8790283  -5.9645648
  39.6677513  -8.4759779  -6.5436645  38.3151436  -9.5344725  -6.6003084
  37.7706642  -7.8035684  -5.5070744  36.8141327  -7.8807693  -5.9853859
  37.6821594  -7.9864736  -4.4137664  38.1648331  -6.3329339  -5.6984615
  37.3125496  -5.7577939  -5.3756123  39.0276871  -6.0912156  -5.0419707
  38.5132523  -5.8960171  -7.0682425  38.7459488  -6.6628180  -7.6776142
  38.5747490  -4.7093506  -7.5906034  38.8128128  -4.6699481  -8.8807316
  39.0261307  -5.5770445  -9.3157310  39.1076775  -3.7354279  -9.2795238
  38.5269737  -3.5892522  -6.9552374  38.4339218  -3.6547315  -5.9626932
  38.8008690  -2.7254186  -7.4086924  39.8194466 -11.1431751  -5.3908949
  39.0264778 -12.0972681  -5.3364248  41.0176849 -11.2820168  -5.9761629
  41.6081276 -10.4632282  -6.0786557  41.5613022 -12.5871477  -6.4694796
  40.7680473 -13.1784649  -6.7909713  42.4356651 -12.4285460  -7.7431450
  42.4904594 -13.4296980  -8.2556047  41.9269371 -11.7269716  -8.3960066
  43.8613319 -11.8632622  -7.5458841  43.7776527 -10.7859125  -7.3834963
  44.3226471 -12.3543186  -6.6913695  44.6689987 -12.0832272  -8.8283873
  44.6529999 -13.0887146  -9.4759159  45.3857384 -11.0678101  -9.3403425
  45.9305229 -11.1066809 -10.1550589  45.3706779 -10.2143087  -8.8031549
  42.1401939 -13.4132910  -5.3460388  41.9725761 -14.6524105  -5.3496714
  42.7551117 -12.8521347  -4.3107824  43.0176964 -11.8940630  -4.3247490
  43.2176361 -13.6040392  -3.1696811  43.6972389 -14.4672146  -3.5287395
  44.2929420 -12.9021826  -2.4387426  43.9526596 -11.8845272  -2.2734144
  44.4014549 -13.3729315  -1.4587981  45.6665497 -12.8341188  -3.0970254
  45.5240631 -12.4408665  -4.1113386  46.2803421 -12.1208811  -2.5562241
  46.3290596 -14.2116213  -3.1188998  46.9021568 -14.7139378  -4.1302013
  46.2421951 -14.9427795  -2.1017411  42.1158562 -14.1516895  -2.2241316
  42.1762505 -15.2988329  -1.7735107  41.0419159 -13.4146032  -2.0886893
  41.0622025 -12.4184332  -2.4750810  39.8671417 -13.9141273  -1.3843721
  40.1400604 -14.2973328  -0.4081990  38.9198151 -12.7235613  -1.0868739
  38.7400856 -12.2023954  -2.0139484  37.9607697 -13.0790319  -0.8007076
  39.3357010 -11.7168064  -0.0269729  40.3925285 -11.4475269  -0.1038909
  38.7203178 -10.7924480  -0.2175290  38.9669952 -12.2505655   1.6487986
  39.5287399 -10.7854548   2.5535989  39.1342506  -9.8777809   2.0441899
  39.0852661 -10.7950697   3.5601351  40.6000977 -10.7938480   2.6102507
  39.1592941 -15.0616064  -2.1601224  38.8234558 -16.1200752  -1.6058398
  38.9882507 -14.9252119  -3.4731059  39.2928276 -14.0667715  -3.9028180
  38.5512619 -15.9721270  -4.4238653  37.5227318 -16.2624454  -4.1449742
  38.5986862 -15.4279156  -5.8699679  39.5583115 -15.0567045  -6.2025738
  38.2556953 -16.1897621  -6.5225153  37.6760902 -14.3488111  -5.9279342
  38.2067070 -13.5519781  -5.7350488  39.4694748 -17.2231407  -4.3469033
  38.9472046 -18.3697033  -4.3664465  40.7726822 -16.9856472  -4.1932473
  41.0866966 -16.0275879  -4.3254714  41.7863045 -18.0115719  -3.9740775
  41.5674782 -18.7911530  -4.7117300  43.2014923 -17.4571075  -4.4598942
  42.9739380 -17.0305214  -5.4407930  43.3874321 -16.6825848  -3.7600372
  44.3823967 -18.4330959  -4.5317216  44.7679672 -18.6192989  -3.5373878
  44.1290283 -19.4107208  -4.9980555  45.4460373 -17.7021484  -5.4389520
  45.1833687 -17.8319569  -6.5077829  45.4597855 -16.6227798  -5.2276897
  46.8973999 -18.2071686  -5.2475400  46.8469238 -19.3205814  -5.2241974
  47.4978638 -17.9578476  -6.1503863  47.5655708 -17.6933804  -3.9928648
  47.1724129 -18.1095905  -3.1688011  48.5573578 -17.9195747  -3.9215546
  47.5802383 -16.6716690  -3.8998678  41.7617760 -18.7155113  -2.5721650
  41.9934235 -19.9375458  -2.5494740  41.3806610 -17.9992161  -1.4920683
  41.0943184 -17.0715046  -1.5690030  41.1158524 -18.5827465  -0.1919527
  42.0118179 -19.0949326   0.1970757  40.7317581 -17.4927406   0.8063397
  41.4048538 -16.6494026   0.7372833  39.8603325 -17.0120697   0.4092894
  40.4223442 -17.8593330   2.2563677  40.2733307 -19.0264549   2.6875076
  40.2392540 -16.9019547   3.0160306  39.9906158 -19.5843544  -0.2732763
  40.1860619 -20.7365837   0.1338205  38.8543434 -19.2501736  -0.9601507
  38.8027191 -18.3736362  -1.3854866  37.7365303 -20.1798649  -1.1246634
  37.3883133 -20.5588360  -0.1341489  36.5870247 -19.4372635  -1.7648274
  36.2794533 -18.5982685  -1.1294140  36.8130722 -18.9861889  -2.7268312
  35.3051224 -20.1904087  -2.1129363  35.5786819 -21.0046043  -2.8200879
  34.6046524 -20.7712002  -0.8684250  34.6197548 -20.0988178   0.0204035
  33.5881004 -21.0949726  -1.1652017  35.1210823 -21.6998272  -0.5613585
  34.2817421 -19.1957455  -2.7037129  34.5925484 -18.8639851  -3.6705706
  33.3714752 -19.7219143  -2.8095803  34.1815262 -18.3825130  -2.0411258
  38.1926041 -21.4339619  -1.9844657  37.8087196 -22.5479603  -1.6796781
  39.0279617 -21.1900139  -3.0030539  39.3182487 -20.2126141  -3.2145205
  39.5983047 -22.2811604  -3.7701092  38.7582359 -22.8583527  -4.1949325
  40.4587517 -21.7606163  -4.9749031  39.9229202 -20.9776669  -5.5209398
  41.3638077 -21.2866211  -4.5825205  40.8101082 -22.8987160  -5.9907956
  41.3417664 -22.3910637  -6.8317127  41.5289497 -23.5807590  -5.5335813
  39.5771637 -23.6692600  -6.5767012  38.6156158 -23.0110283  -7.0389266
  39.6081314 -24.9175663  -6.5724559  40.5361023 -23.2027817  -2.9226265
  40.4534607 -24.4287224  -3.0180573  41.3985023 -22.6358147  -2.0813816
  41.5690002 -21.6498985  -2.2655520  42.3838844 -23.3562469  -1.2192581
  42.9359779 -23.9843922  -1.8850803  43.4331665 -22.3841400  -0.6887490
  43.9520226 -21.8748856  -1.4436891  42.9880486 -21.6285229  -0.0536262
  44.6010971 -23.0796223   0.0541350  44.3384018 -24.0853138   0.2546768
  45.5462723 -23.0304432  -0.5102496  44.8046837 -22.3939896   1.3974608
  44.0314674 -22.6656322   2.3554411  45.7312775 -21.5986614   1.5249698
  41.6636047 -24.2061157  -0.1736638  41.9786491 -25.3705025   0.0241906
  40.5966759 -23.6958427   0.4195380  40.3575974 -22.6885796   0.2499723
  39.7429199 -24.4876785   1.2765415  40.3191719 -24.8692684   2.0929825
  38.6168251 -23.5446262   1.8285967  38.1595230 -23.0470753   0.9977177
  37.6133385 -24.2775230   2.7563381  38.1059570 -24.5489407   3.6820886
  36.7083893 -23.6625271   2.8792212  37.3077698 -25.2018566   2.2501745
  39.1610107 -22.4649410   2.7407627  40.0060997 -22.0000458   2.2600443
  38.3862991 -21.7548790   2.8273189  39.5190086 -22.8704090   3.7229447
  39.1097183 -25.7048244   0.5995195  39.1646233 -26.8136482   1.1786233
  38.5349579 -25.5732193  -0.6010605  38.4880600 -24.6434250  -1.0110812
  37.9241829 -26.7017250  -1.3340919  37.3692932 -27.2264900  -0.5613943
  36.8676147 -26.2774296  -2.3484309  36.1800613 -27.0701103  -2.4407101
  36.3002396 -25.4394703  -1.9622421  37.3131752 -26.0000782  -3.7759850
  38.0090485 -25.1703911  -3.8235676  37.7492447 -26.8949127  -4.2217607
  36.0393677 -25.6716995  -4.5681305  35.4297638 -26.6307449  -4.6543665
  35.4428444 -24.8974266  -3.9415898  36.1560745 -25.1182346  -5.9957290
  35.1312752 -24.9668598  -6.3346000  36.6486435 -24.1381931  -5.9422297
  36.9832344 -26.0097771  -6.8977327  36.7433319 -27.0060177  -6.8380399
  36.8561592 -25.7702236  -7.8741126  37.9730911 -25.8894615  -6.6653509
  38.8592148 -27.7118111  -2.0188582  38.4414520 -28.8246040  -2.2835367
  40.0853157 -27.2779312  -2.3935466  40.2819405 -26.3069897  -2.2649260
  41.0558777 -28.0584049  -3.1714845  40.7027855 -28.1331997  -4.2168865
  42.4277878 -27.3675709  -3.1228831  42.9022827 -27.3485985  -2.1798520
  43.1570435 -27.9314461  -3.7312148  42.2832146 -26.3656406  -3.4811869
  41.2433090 -29.4930096  -2.5949049  41.4097557 -30.4446201  -3.3393826
  41.2580528 -29.6291904  -1.2437682  41.1579742 -28.7770691  -0.7245666
  41.4319839 -30.8859653  -0.5003603  42.0450668 -31.5201683  -1.1271625
  42.2231865 -30.6492653   0.7972399  42.9049644 -29.8063946   0.6181803
  41.5987015 -30.3149700   1.5942811  43.1504669 -31.7769718   1.2313619
  42.5677147 -32.5453758   1.6986750  43.6621628 -32.2168427   0.3724569
  44.2744408 -31.3377075   2.2336791  44.7974052 -30.4582825   1.8859123
  43.7950211 -30.9983521   3.1056788  45.2954483 -32.4249725   2.5733578
  45.6849823 -32.8509560   1.6739790  46.0845642 -31.9281750   3.1045704
  44.7029686 -33.5043259   3.4751921  43.9585724 -34.0335503   3.0087662
  45.4541473 -34.1568527   3.6878774  44.3315735 -33.1296310   4.3543987
  40.1367645 -31.6965942  -0.2711601  40.2085457 -32.7958260   0.3104954
  39.0043297 -31.1701622  -0.6921732  39.0542412 -30.2390842  -1.1182063
  37.6953087 -31.8277187  -0.6053045  37.7760735 -32.7487068  -0.0080526
  36.6336441 -30.9005661   0.0284113  36.3156128 -30.1365776  -0.6467617
  35.3815918 -31.6984253   0.4671262  35.6961632 -32.6333580   0.9408340
  34.8014870 -31.0885792   1.1677065  34.8211899 -31.8950539  -0.4401523
  37.2119141 -30.2106647   1.2569200  38.0489006 -29.5423355   0.9556094
  36.4729729 -29.5153542   1.6304326  37.4558792 -30.9218960   2.0327654
  37.1834412 -32.2910347  -1.9430834  36.5314903 -33.3032455  -2.0160058
  37.4836044 -31.5711632  -3.0261419  37.9680634 -30.6536083  -2.8300390
  36.9993515 -31.8960171  -4.4043221  35.9591980 -31.5574169  -4.4035730
  37.7718010 -30.9870605  -5.3703613  37.7712555 -30.0082245  -4.9016805
  38.8138275 -31.3263397  -5.3705549  37.1033134 -30.9680653  -6.8135810
  37.8196907 -30.5635624  -7.4882245  36.8423691 -31.9633465  -7.1313004
  35.9667053 -29.9663353  -6.8963451  36.0881882 -28.7584515  -6.6907144
  34.8461876 -30.4081135  -7.3671050  34.0433159 -29.8183899  -7.5111876
  34.6750107 -31.3998146  -7.5445671  36.9722519 -33.3981857  -4.8088713
  35.9213676 -33.8590012  -5.2216439  38.0588341 -34.1749039  -4.7183514
  39.4365273 -33.8908043  -4.3232517  39.4880753 -33.2062492  -3.4310606
  39.9678726 -33.5160599  -5.2186494  40.0648193 -35.2109375  -3.9511304
  39.7495575 -35.4935226  -2.9361663  41.1688805 -35.2039299  -4.0947094
  39.3698235 -36.1810837  -4.9204779  39.3688736 -37.2089539  -4.4447727
  39.9095001 -36.2364159  -5.8801026  37.9780998 -35.6222305  -5.1350241
  37.7497253 -35.5927925  -6.2206454  36.9343224 -36.4450378  -4.3911390
  36.2357407 -37.2928009  -4.9853759  36.7983475 -36.2377625  -3.0461814
  37.4304276 -35.5491486  -2.5819409  35.7714233 -36.8984299  -2.3169365
  35.8586845 -37.9822121  -2.5570860  35.9978676 -36.6682205  -0.8146156
  37.0283546 -36.9833832  -0.6087036  36.0560532 -35.5986710  -0.6133580
  35.0384293 -37.3984146   0.1510895  34.1957130 -36.7059479   1.0563183
  34.1650238 -35.6066666   1.0762643  33.3593445 -37.4341049   1.9338375
  32.7161751 -36.9185753   2.6023700  33.2804947 -38.8222771   1.8313998
  32.3363838 -39.4466629   2.6213670  31.7899361 -38.7911644   3.0830536
  34.1844254 -39.5288925   0.9244280  34.2027168 -40.6500320   0.9507161
  35.0568962 -38.8120499   0.1145215  35.7387009 -39.3418579  -0.5871593
  34.3711128 -36.4692497  -2.7359083  33.4997025 -37.2918777  -2.8786230
  34.1924248 -35.1647987  -2.9675004  34.9816628 -34.5252380  -2.7765098
  32.9545364 -34.5935898  -3.4512737  32.1791153 -34.8729744  -2.7381339
  33.0303497 -33.0354843  -3.4073112  33.6830864 -32.7641220  -2.5483391
  33.5686722 -32.7397385  -4.3094215  31.6862850 -32.3366699  -3.3702397
  31.0853977 -32.7543335  -4.1941757  31.0144653 -32.6055069  -2.0502081
  31.5863972 -32.2222748  -1.1901609  30.0273418 -32.1051521  -2.0090480
  30.7350903 -33.6418877  -1.8720728  31.8974972 -30.7840633  -3.3593359
  32.1576843 -30.4842396  -4.3680902  30.9615345 -30.2774258  -3.0949917
  32.7041931 -30.5540924  -2.6318727  32.5240631 -35.0922890  -4.8008056
  31.3612347 -35.2949486  -5.0350404  33.4910545 -35.2444611  -5.7036953
  34.4402542 -34.9783630  -5.4660873  33.2633553 -35.8265724  -7.0455093
  32.4253120 -35.3331375  -7.5279288  34.4584160 -35.6231155  -7.9921861
  35.2895203 -36.1730652  -7.6139264  34.1375618 -36.0141678  -8.9757214
  34.8156624 -34.1255531  -8.1988678  35.9089355 -33.8307495  -8.6843462
  33.9686317 -33.2228241  -7.9116063  32.8265915 -37.3036919  -7.0667915
  31.8269711 -37.7307510  -7.6825423  33.5004501 -38.0975113  -6.2205882
  34.3247719 -37.7346840  -5.7756310  33.2268486 -39.5167542  -5.9550400
  33.2367401 -39.9631157  -6.9192152  34.2383537 -40.1419296  -4.9804759
  35.2469406 -39.7695618  -5.1939445  34.0307465 -39.7819443  -3.9482980
  34.3741760 -41.6639862  -5.0589805  34.9043083 -42.2279320  -4.0584793
  33.9790802 -42.2743645  -6.0830350  31.7813568 -39.7070465  -5.4352956
  31.0375805 -40.5065536  -5.9732389  31.3825722 -38.8649750  -4.4720941
  32.0776520 -38.2379837  -4.1322160  30.0273781 -38.7001762  -3.9661739
  29.6735191 -39.6697464  -3.6232433  30.0924969 -37.7746925  -2.7279184
  30.7346325 -38.2145386  -1.9520016  30.4829140 -36.7715912  -3.0316255
  28.6976547 -37.5204239  -2.1033220  28.1657963 -38.3991966  -1.1667814
  28.7422733 -39.2098427  -0.8566966  26.8386345 -38.2608910  -0.6943865
  26.4323063 -38.9550362   0.0078033  26.0923786 -37.1918373  -1.1928555
  25.0586872 -37.0339928  -0.8172419  26.6542244 -36.3077049  -2.1226327
  26.0791626 -35.4803123  -2.5140641  27.9499741 -36.4661484  -2.6116548
  28.3946514 -35.7709427  -3.3267837  28.9585476 -38.1813812  -4.9853129
  27.8236427 -38.6650963  -4.9797840  29.2778625 -37.2392578  -5.8423529
  30.2072220 -36.9094925  -5.8600426  28.3738689 -36.8498955  -6.9948077
  27.4649639 -36.4613495  -6.5848298  29.0644436 -35.8009872  -7.8623610
  30.1481895 -35.9785233  -7.8129206  28.8577843 -35.9622078  -8.9601631
  28.8981419 -34.3535652  -7.4533672  27.9970722 -34.0056839  -7.9364805
  28.7484550 -34.2216301  -6.3677092  30.0395775 -33.5246696  -7.9926877
  30.0754547 -33.1646423  -9.1467228  31.0258408 -33.3209381  -7.1688347
  31.8588276 -32.8508606  -7.5203462  31.0426311 -33.8464775  -6.3063555
  28.0306263 -38.1096573  -7.8310566  26.8773460 -38.3373413  -8.1326303
  29.0292149 -38.8788948  -8.2280140  29.9284286 -38.6312447  -7.9101820
  28.8765411 -40.0896034  -9.0261068  28.2268562 -39.7926750  -9.8787079
  30.2799454 -40.4092369  -9.6623478  30.5358486 -39.4952164 -10.2292652
  31.0329723 -40.6372452  -8.8515301  30.3729839 -41.6405525 -10.6282158
  31.3785629 -41.7135010 -11.0391998  30.2428513 -42.5490532 -10.0936403
  29.3399601 -41.6442337 -11.8222609  28.2772141 -41.8845940 -11.5218019
  29.2237549 -40.6419411 -12.2693577  29.7258682 -42.5656929 -13.0431795
  30.6848621 -42.1883163 -13.4635458  29.8566608 -43.6029129 -12.6795721
  28.6830730 -42.4620018 -14.1346741  28.4769802 -41.4519730 -14.2904558
  29.0527077 -42.8923492 -14.9610090  27.8531742 -42.9139900 -13.8386049
  28.2097263 -41.2023735  -8.2578974  27.2878151 -41.7963753  -8.8166819
  28.4848003 -41.3953476  -6.9699202  29.3263664 -40.9547005  -6.5878339
  27.7486591 -42.3341522  -6.1057758  27.8911133 -43.2610359  -6.6336303
  28.3227444 -42.3516617  -4.6691365  29.0077953 -41.5224419  -4.5418701
  27.4840012 -42.3357849  -3.9664555  29.1345577 -43.6701241  -4.3558893
  29.2276173 -43.6144409  -3.2921073  28.5647373 -44.5673714  -4.6497340
  30.5916386 -43.6990204  -4.8676939  31.1089306 -42.7749672  -4.5547152
  31.0104656 -44.5822563  -4.3165641  30.6732540 -43.9272690  -6.3768816
  29.9212837 -44.6530151  -6.6641293  30.3890152 -43.0301895  -6.9041777
  32.0484352 -44.3032837  -6.7590814  32.2810211 -45.2783928  -6.5058370
  32.1923676 -44.2447433  -7.7609463  32.7605553 -43.6558189  -6.3241763
  26.2802391 -42.0195351  -6.0941381  25.4445114 -42.9131165  -6.2583447
  25.9334354 -40.7414284  -5.9844089  26.6218739 -40.0145683  -5.8399849
  24.5422592 -40.2094040  -6.0832601  23.8866901 -40.6971397  -5.3719587
  24.4079418 -38.7232437  -5.6400580  24.6846962 -38.6649933  -4.5739551
  25.0770798 -38.1436996  -6.2480350  22.9637547 -38.2294121  -5.7292552
  22.0331554 -38.3172379  -4.7358437  22.2722931 -38.7326355  -3.8053193
  20.8684082 -37.6637344  -5.1061792  20.0433140 -37.5408745  -4.4983525
  20.9467678 -37.2481918  -6.4424796  20.0198364 -36.6508179  -7.3311100
  18.9989262 -36.4393654  -7.0189338  20.3985119 -36.3597450  -8.6410122
  19.6847172 -35.9206429  -9.3040047  21.7078571 -36.7118607  -9.0518608
  21.9558372 -36.5715904 -10.0769196  22.6130371 -37.4135208  -8.2158012
  23.6214676 -37.6320305  -8.5666962  22.2640820 -37.6183739  -6.8562217
  23.9244289 -40.4915810  -7.5326881  22.7842560 -40.9900818  -7.5539346
  24.6340847 -40.1290932  -8.6295738  25.5897331 -39.7525787  -8.4911337
  24.1902351 -40.5094223  -9.9619961  23.3212070 -39.8892021 -10.1421585
  25.3204250 -40.1488876 -10.9784746  25.7388535 -39.2029953 -10.7054911
  26.0932655 -40.9228592 -10.9349976  24.8652573 -40.0021935 -12.3995991
  24.4319134 -40.9629784 -12.8035822  24.0369053 -39.3121490 -12.4320412
  25.9475365 -39.4552574 -13.3177509  27.1306591 -39.7871132 -13.1865969
  25.6541996 -38.5511703 -14.2333813  26.3872948 -38.0884476 -14.6809568
  24.7111778 -38.2396431 -14.3460960  23.8073559 -41.9955902 -10.0794706
  22.6968269 -42.3740005 -10.4848757  24.7193947 -42.9558525  -9.7622890
  25.5804367 -42.6894341  -9.3574133  24.5341663 -44.3976059  -9.9299793
  24.2423668 -44.6086693 -10.9579000  25.8665962 -45.1725426  -9.7669973
  26.2409058 -45.0201874  -8.7159481  25.7112713 -46.2729225  -9.8378391
  26.9668999 -44.7564888 -10.7932510  27.4165707 -43.7377739 -10.5826893
  27.7897186 -45.5048141 -10.7726135  26.5624027 -44.8438492 -12.2632017
  26.4143486 -45.9847336 -12.7633324  26.4692993 -43.7494049 -12.9253788
  23.4481983 -44.9552116  -9.0012360  22.7332706 -45.8642006  -9.3474417
  23.3177586 -44.4099045  -7.7652702  23.9855080 -43.6235008  -7.5117455
  22.2538643 -44.7778168  -6.7767925  22.2585030 -45.8485031  -6.6469722
  22.5038528 -44.1541481  -5.4014449  23.4249325 -44.6223412  -5.0301847
  22.6287117 -43.0705605  -5.5070477  21.3877277 -44.3892097  -4.3435106
  20.4381294 -43.9485512  -4.6972408  21.2621231 -45.4945564  -4.2488017
  21.7699718 -43.8235245  -2.9059207  22.9411507 -43.8447151  -2.4888618
  20.8966808 -43.2965660  -2.1802309  20.8410244 -44.4804802  -7.2432971
  19.9213371 -45.2738533  -7.1334310  20.6459713 -43.2827530  -7.7512226
  21.4326591 -42.6954498  -7.8422399  19.3328686 -42.8634987  -8.2527132
  18.5629730 -43.0889473  -7.5037141  19.3960743 -41.3666992  -8.5833187
  20.3239422 -41.1279716  -9.1558571  18.5142441 -41.1289444  -9.1421995
  19.4103317 -40.6173515  -7.2775455  20.0157661 -41.1543846  -6.5175586
  19.8582325 -39.6373253  -7.4708533  17.7475128 -40.2403679  -6.5725894
  17.2493134 -38.9773560  -7.7732987  17.1672611 -39.3800163  -8.7923040
  16.2676773 -38.6109009  -7.4762101  17.9517860 -38.0966339  -7.7858109
  18.9668922 -43.6850739  -9.5319414  17.8231831 -43.9359360  -9.8156910
  19.9695072 -44.0573730 -10.3435097  20.8807926 -43.8248863 -10.1082039
  19.7930546 -44.8568153 -11.5680332  19.0891876 -44.2977982 -12.2024908
  21.1342525 -44.9812088 -12.3169250  21.6410751 -44.0690575 -12.3836908
  21.7348747 -45.7021713 -11.7148886  20.9580307 -45.5995636 -13.7257519
  21.9242191 -45.6357574 -14.2052164  20.5443420 -46.6093903 -13.7163782
  19.9689083 -44.7177124 -14.6165094  19.3474312 -45.3047142 -15.5481043
  19.8143311 -43.4574471 -14.4965353  19.1366806 -46.2798767 -11.3829517
  18.3628101 -46.7161255 -12.1755018  19.4708214 -46.9606056 -10.2907457
  20.2361679 -46.6697655  -9.7088394  18.6375256 -48.0373535  -9.7046556
  18.5725765 -48.8256416 -10.4167747  19.3660011 -48.6194305  -8.4915648
  20.3731556 -48.8650513  -8.7730732  19.4154339 -47.7824593  -7.7891469
  18.7471924 -49.8410950  -7.8461833  17.6844330 -49.6457291  -7.6334057
  18.7942009 -51.0534859  -8.7779732  19.8632565 -51.3950043  -8.8761272
  18.1740360 -51.8544044  -8.3898602  18.3182297 -50.8513031  -9.7641926
  19.4822292 -50.1355782  -6.5189743  19.3336201 -49.2784462  -5.8294659
  19.0291424 -51.0304604  -6.0875440  20.5056229 -50.3356514  -6.6718025
  17.2395611 -47.5405083  -9.3867407  16.2332764 -48.0854759  -9.8366890
  17.1153526 -46.5458908  -8.4953289  17.9513054 -46.2420311  -8.0868797
  15.8068514 -46.1109734  -7.9434395  15.3688183 -46.8633614  -7.3549633
  16.0248795 -44.8869667  -7.0210600  16.3139496 -44.0329895  -7.6306629
  15.0534725 -44.6504936  -6.6748099  16.8692665 -45.0144806  -5.7279997
  17.2318935 -43.8438187  -5.0626335  16.8998680 -42.8952484  -5.4538579
  17.9655972 -43.8810539  -3.8404322  18.2017746 -42.9643211  -3.3129575
  18.3242664 -45.1730347  -3.3336892  19.0293484 -45.2461586  -2.1956542
  19.4977036 -44.3967056  -2.1209147  18.0827579 -46.3754082  -4.0639729
  18.5594501 -47.2695923  -3.6657887  17.2851772 -46.2967262  -5.2064795
  17.0669460 -47.1684113  -5.7826543  14.7617579 -45.8044662  -8.9678679
  13.5805759 -46.1741714  -8.7537603  15.1676073 -45.1712761 -10.1002941
  16.1462517 -44.8495560 -10.0751247  14.3084040 -44.7148857 -11.2036762
  13.6024370 -43.9686546 -10.8572531  15.2146664 -44.1812515 -12.3530807
  16.0516796 -44.9086761 -12.4338331  14.6651783 -44.0904045 -13.3169088
  15.7207127 -42.8161850 -11.9750347  14.8796225 -42.1321526 -11.7555256
  16.2493496 -42.8592262 -11.0181465  16.6711445 -42.1791801 -13.0308104
  17.4759827 -42.8791885 -13.2736769  16.1159306 -41.9849548 -13.9542828
  17.1812782 -40.8364067 -12.5926867  16.4374943 -40.1475372 -12.3717546
  18.4719334 -40.4546318 -12.4699898  18.7674694 -39.2349472 -12.0588503
  18.0490322 -38.5051193 -12.0793762  19.7321930 -39.0261497 -11.9050493
  19.4287758 -41.3140068 -12.5977697  19.2610054 -42.2078857 -13.0724535
  20.3448792 -41.0549393 -12.3447990  13.4593735 -45.8522873 -11.7970428
  12.3073282 -45.5418396 -12.0983133  13.9850912 -47.0702324 -11.8888512
  14.9064627 -47.2360191 -11.5567732  13.2326136 -48.2285690 -12.3742046
  12.3026142 -47.8949699 -12.8331051  14.1053009 -48.9580231 -13.4232445
  14.4977398 -48.2295456 -14.1721153  14.9750414 -49.3707695 -12.9017916
  13.4649525 -50.1790619 -14.1464987  14.2659197 -50.5547867 -14.8209181
  13.2960052 -51.0372543 -13.4607658  12.1879435 -49.9376450 -14.9514408
  11.9943371 -48.8351822 -15.4248047  11.2844038 -50.9054146 -15.1668596
  10.4386845 -50.6900749 -15.6592226  11.3801870 -51.7934837 -14.6895018
  12.7515116 -49.1813469 -11.2231846  11.6280699 -49.7245445 -11.2499771
  13.5765352 -49.3836403 -10.1613388  14.5034838 -48.9666519 -10.2767363
  13.2973576 -50.1727715  -8.9887800  13.2521782 -51.1972580  -9.2864685
  14.4409132 -49.9553261  -7.9946065  15.3137445 -50.4929428  -8.3289700
  14.8005667 -48.9382133  -8.0475864  14.0544319 -50.3560104  -6.5387578
  13.4471884 -49.6012077  -6.0764570  13.5850067 -51.3832512  -6.4759021
  15.3147268 -50.4104309  -5.6524234  15.9984436 -51.0606384  -6.1052108
  15.8953562 -49.4601479  -5.7230835  15.0189886 -50.8038864  -4.2016439
  14.4729862 -51.7671585  -4.2989154  15.9867592 -50.9403954  -3.7161448
  14.1953049 -49.8648491  -3.4203718  13.2193518 -49.9061546  -3.6873016
  14.2148170 -50.1367378  -2.4388280  14.6178522 -48.9145241  -3.4260643
  11.8728752 -49.9645004  -8.4000101  11.1326351 -50.9122429  -8.1203785
  11.4683590 -48.6953430  -8.1879559  12.0366631 -47.9727974  -8.5073719
  10.1356335 -48.2690773  -7.6680861   9.7587605 -49.0145493  -6.9968657
  10.2397118 -46.9595757  -6.7886763  10.1496305 -46.1306076  -7.5152845
   9.1188583 -46.8185883  -5.7513447   9.0369110 -47.7347031  -5.1803756
   9.3387690 -46.0015640  -5.0955534   8.1703529 -46.5244446  -6.2197189
  11.5159712 -46.7425919  -5.9738855  12.3952808 -46.7001190  -6.5626431
  11.4884949 -45.7923088  -5.5101452  11.6943512 -47.4894485  -5.1794682
   9.0273180 -48.0187187  -8.7094688   7.9181786 -47.7378082  -8.3863430
   9.3010025 -48.1837425 -10.0038090  10.2502337 -48.3075943 -10.3869820
   8.2438765 -48.1621971 -11.0397062   7.8367276 -47.1090889 -11.0739937
   8.9043407 -48.3711700 -12.4338522   9.7665615 -47.6818848 -12.5673208
   9.2373228 -49.4249420 -12.5011778   7.9405336 -48.2139549 -13.6322870
   8.4256725 -48.3644905 -14.6101303   7.1227741 -48.9614296 -13.4927320
   7.2815533 -46.8154755 -13.6497517   6.1411238 -46.6888390 -14.2229357
   7.9938226 -45.8477592 -13.3519650   6.9477081 -49.0043221 -10.8229675
   5.8890624 -48.4830894 -11.1754818   6.9870620 -50.2564621 -10.3766546
   8.1260643 -51.1825256 -10.2851734   8.8998671 -50.7499657  -9.7057381
   8.4607067 -51.4692459 -11.2567854   7.6166654 -52.4024353  -9.5315657
   7.8884726 -52.2439156  -8.4928913   8.0198517 -53.2648697 -10.0000496
   6.0595036 -52.3910294  -9.8312302   5.4717870 -52.7460060  -8.9762554
   5.9472318 -53.0742874 -10.7026711   5.7331486 -50.9583626 -10.1253080
   5.1613231 -50.8968811 -11.0202999   4.8696914 -50.3278046  -9.0122995
   3.6720691 -50.2314987  -9.1910763   5.5207901 -49.8297195  -7.9784484
   6.5230651 -50.0536880  -7.8959088   4.8701067 -49.1552773  -6.8423562
   4.0404067 -49.7736435  -6.4787555   5.9074349 -49.0830803  -5.6693082
   5.9553318 -50.1352539  -5.3298068   6.8849778 -48.7561798  -6.0255046
   5.5121498 -48.2645607  -4.4619694   5.4230318 -47.2029076  -4.7602844
   4.2392058 -48.8234787  -3.7526670   4.2073159 -49.9099007  -3.5868149
   4.1681156 -48.2885323  -2.7909708   3.4019949 -48.5859451  -4.4059896
   6.6246634 -48.3258781  -3.4162548   7.5919561 -47.9327354  -3.8005762
   6.3212962 -47.7103081  -2.5858781   6.8164539 -49.3424263  -3.0808830
   4.3038449 -47.7906265  -7.2874427   3.1327984 -47.4473190  -7.1051283
   5.1605439 -47.0150909  -7.9848933   6.1194949 -47.3270645  -8.0334778
   4.8307829 -45.7533340  -8.6741362   4.6555443 -44.9459152  -7.9074979
   6.0433621 -45.2634888  -9.5236549   6.9872980 -45.2252159  -8.9604826
   6.1761837 -45.9901009 -10.3205624   5.7942629 -43.8738594 -10.1012316
   4.9441900 -43.9563026 -10.6851759   5.7227421 -43.1483498  -9.2998152
   6.9487934 -43.4464722 -11.0448780   7.0640917 -44.2030373 -11.8425674
   6.7022796 -42.5100021 -11.6175032   8.2212696 -43.1790390 -10.3303137
   8.2153282 -42.4950752  -9.5873432   9.3791323 -43.7409286 -10.5006781
  10.4467354 -43.2934914  -9.8610172  10.4009399 -42.5556412  -9.1641760
  11.3604784 -43.6942253 -10.0140200   9.5842237 -44.7142754 -11.3598909
   8.7705021 -45.0599709 -11.9143620  10.5331125 -45.0250969 -11.5759182
   3.6139820 -45.9143143  -9.6131067   2.7230833 -45.0721512  -9.5524035
   3.6172125 -46.9422188 -10.4355154   4.4095631 -47.5474243 -10.4584045
   2.4219451 -47.2489510 -11.1590290   2.1615109 -46.3704681 -11.7304993
   2.6759126 -48.3964958 -12.1001997   2.7684309 -49.3124962 -11.5580864
   1.8249435 -48.4421234 -12.7408180   3.6467710 -48.2283859 -12.5934258
   1.2065682 -47.5707588 -10.2736845   0.1510599 -46.9887390 -10.5099764
   1.3535542 -48.3929253  -9.2205725   2.2658551 -48.7221336  -8.9635963
   0.2040113 -48.8819084  -8.4005480  -0.4546453 -49.4127617  -9.0709352
   0.6216214 -49.8991814  -7.3400760   1.1480309 -50.6981316  -7.8900857
   1.3475323 -49.4481850  -6.6919289  -0.5273659 -50.5193672  -6.5469618
  -1.3539082 -50.6459007  -7.2188721  -0.1359353 -51.5193138  -6.3095551
  -0.9372904 -49.7728729  -5.2433252  -1.9158436 -50.1665077  -4.5809669
  -0.1358347 -48.8958321  -4.7893219  -0.4829994 -47.6389160  -7.8033361
  -1.7027794 -47.5531578  -7.8892941   0.2693920 -46.7055283  -7.2319221
   1.2522267 -46.8941078  -7.1396990  -0.1664527 -45.4402885  -6.6760807
  -0.6914889 -45.7464256  -5.7633204   1.1003189 -44.6401024  -6.2492189
   1.6789126 -45.1994667  -5.5275774   1.6822933 -44.4505844  -7.1416450
   0.7903873 -43.2649689  -5.6070237   0.2395617 -42.7125206  -6.3427753
  -0.0203950 -43.4624252  -4.3005323   0.5647693 -44.1807518  -3.7300279
  -0.0657298 -42.5131187  -3.8105571  -1.0439931 -43.8355980  -4.5552554
   2.0659988 -42.4275284  -5.1971645   2.6456571 -42.2335014  -6.0605907
   1.6985948 -41.4572906  -4.8781152   2.5996888 -42.9637947  -4.4534531
  -1.1239731 -44.6513519  -7.5702434  -2.1031313 -44.1065559  -7.0568867
  -0.9560030 -44.7897186  -8.8883572  -0.3062266 -45.5152664  -9.1496973
  -1.7652647 -44.1672974  -9.9806376  -2.0257382 -43.1241226  -9.7245865
  -0.9531333 -44.0771561 -11.2643824  -0.7809830 -45.0638657 -11.6931963
  -1.5231755 -43.5684280 -12.0568943   0.3274472 -43.2800140 -11.0670471
   0.1158719 -42.2425423 -10.7825699   0.8863819 -43.6327400 -10.1681423
   1.2874603 -43.1871872 -12.2136421   0.9675267 -43.3201180 -13.4009924
   2.5327036 -42.8105164 -11.9464102   3.1337891 -42.6331520 -12.7332897
   2.7839148 -42.7493248 -10.9793940  -3.0182908 -45.0220451 -10.2203283
  -4.1397200 -44.4755783 -10.2036285  -2.8721108 -46.3097610 -10.5183945
  -1.9156517 -46.7103004 -10.5764780  -3.9595864 -47.1966171 -10.8550787
  -4.5400219 -46.7293892 -11.7035789  -3.5739949 -48.6346626 -11.2585936
  -3.1105261 -49.1983261 -10.4691877  -4.4861608 -49.1723442 -11.4546976
  -2.6806726 -48.6847458 -12.5403109  -1.6879177 -48.3275948 -12.2812929
  -2.5059927 -49.7250404 -12.8152771  -3.2448933 -47.9875374 -13.7675524
  -2.9737852 -46.7685509 -13.9617777  -4.0624299 -48.6905670 -14.4357700
  -4.9635034 -47.2965584  -9.7389374  -6.1622663 -47.3733864  -9.9976339
  -4.6005101 -47.1722603  -8.4732399  -3.6262112 -47.1406517  -8.2279148
  -5.5124660 -47.1871948  -7.3594661  -6.1919236 -47.9798965  -7.3443837
  -4.8815851 -47.2301102  -6.4073572  -6.3010607 -45.8846703  -7.2597718
  -7.5029635 -45.8790016  -7.0364914  -5.6876087 -44.6899185  -7.5290318
  -4.7496557 -44.6820526  -7.8597922  -6.4606471 -43.4591637  -7.5424004
  -6.9681044 -43.3629379  -6.5974689  -5.4701514 -42.2773933  -7.6162033
  -4.8109193 -42.3688850  -8.5166178  -6.0132623 -41.3116112  -7.6216369
  -4.7959237 -42.3344841  -6.7273722  -7.4783688 -43.3919868  -8.6606207
  -8.5790844 -42.9247284  -8.4686117  -7.0590210 -43.8095894  -9.8215828
  -6.1034675 -44.1883430  -9.9185276  -7.9504657 -43.9637604 -11.0198116
  -8.4071417 -42.9898415 -11.2543669  -7.0263367 -44.3924942 -12.2256527
  -6.4899235 -45.2760925 -11.9150829  -7.6912904 -44.6377144 -13.0700932
  -6.0729132 -43.2858086 -12.6867666  -6.6643672 -42.5172272 -13.2167759
  -5.5776954 -42.8106384 -11.8321190  -5.0944691 -43.8793526 -13.6318407
  -4.4218774 -44.4955864 -13.0515757  -5.5442963 -44.4486046 -14.4233656
  -4.3062901 -42.8139648 -14.2142401  -4.6464710 -41.8919792 -14.1757736
  -3.0970595 -42.9795799 -14.7006092  -2.4890747 -41.9560471 -15.1946983
  -2.8131187 -41.0525093 -15.0001421  -1.6058452 -42.0743637 -15.6956949
  -2.5156713 -44.1499939 -14.8337641  -2.8488708 -45.0453911 -14.4071045
  -1.6540236 -44.1633415 -15.3718100  -9.0455503 -45.0184097 -10.7811985
 -10.1884069 -44.8485718 -11.2341127  -8.7256584 -46.1122856 -10.0675383
  -7.7412958 -46.2468300  -9.7650661  -9.7507343 -47.0570755  -9.6027145
 -10.3025351 -47.4004707 -10.4813490  -9.0516949 -48.3464432  -9.0096874
  -8.4654732 -48.8294182  -9.8350925  -8.3699884 -48.0972481  -8.1741962
 -10.0355015 -49.3922386  -8.4250622 -10.9433270 -49.5448265  -9.0570879
  -9.5541658 -50.3964958  -8.3660002 -10.5653000 -49.0173302  -7.0280814
  -9.9124622 -48.4449615  -6.2062721 -11.7872467 -49.3336105  -6.6764116
 -12.1553955 -48.9627533  -5.8195348 -12.4162121 -49.9109230  -7.2447295
 -10.7261314 -46.4026413  -8.6495361 -11.9163151 -46.4343033  -8.9096842
 -10.2309704 -45.6413116  -7.6667738  -9.2210331 -45.5671158  -7.5455151
 -11.0735722 -44.9677124  -6.6465707 -11.8445053 -45.7298698  -6.3790035
 -10.2616396 -44.6703300  -5.3584361  -9.5441942 -45.5095901  -5.2816591
  -9.6413403 -43.7648354  -5.3895802 -11.1675253 -44.7086868  -4.1047010
 -11.6160049 -43.7245903  -4.0585651 -11.9249392 -45.4619179  -4.2599730
 -10.4444399 -44.9442291  -2.7861814  -9.8580141 -44.1088829  -2.5221491
 -11.1536427 -44.9823990  -2.0122190  -9.6164103 -46.2472687  -2.7092502
  -8.8962688 -46.2438164  -3.5102906  -8.9872465 -46.3655090  -1.8412231
 -10.4038448 -47.5300407  -2.7449882 -11.1287928 -47.4931145  -3.4766912
  -9.8716888 -48.3908806  -2.8230524 -10.9296312 -47.6186981  -1.8857956
 -11.8770027 -43.7670860  -7.1499825 -12.8906431 -43.3652687  -6.5156484
 -11.5226088 -43.2431374  -8.3310299 -10.6020889 -43.4805145  -8.6858482
 -12.2644901 -42.2450218  -9.0854902 -12.5282917 -41.4103088  -8.4059553
 -11.4142551 -41.6969109 -10.2605019 -10.5171108 -41.2393150  -9.8094473
 -11.0990248 -42.5521889 -10.8673115 -12.1349621 -40.7306366 -11.2808886
 -13.1188955 -41.1166344 -11.5219965 -12.3289490 -39.3522491 -10.6969204
 -11.4305687 -38.9329185 -10.2943048 -12.7287960 -38.7033958 -11.4759312
 -13.1067572 -39.3954506  -9.9407949 -11.2377682 -40.6479301 -12.5313034
 -11.2953873 -41.5631638 -13.1430111 -11.5639210 -39.8900223 -13.2042656
 -10.1669302 -40.4413986 -12.2796478 -13.6056986 -42.8822708  -9.5918961
 -14.6669006 -42.2429695  -9.4886503 -13.5637808 -44.0957451 -10.0859375
 -12.7026882 -44.5701828 -10.0053110 -14.7757425 -44.8633423 -10.4327765
 -15.4036989 -44.2719345 -11.1124182 -14.3317547 -46.1035156 -11.1996193
 -13.8871918 -45.6992874 -12.1188736 -13.5643215 -46.6770172 -10.6698561
 -15.4056215 -47.0657005 -11.5663242 -15.9545994 -48.0350151 -10.7570066
 -15.6706829 -48.2089691  -9.7517462 -16.8974514 -48.7262917 -11.4714518
 -17.4534016 -49.5750999 -11.0593567 -17.0051823 -48.2173767 -12.7162657
 -16.0867081 -47.1578789 -12.7113638 -16.0251694 -46.5193977 -13.5548267
 -15.5874672 -45.2801208  -9.1512165 -16.8418465 -45.2784386  -9.0331402
 -14.9107704 -45.5385437  -8.0403824 -13.9443979 -45.5175591  -8.1246176
 -15.5327568 -45.9259033  -6.7896466 -16.2405548 -46.7233849  -7.0160604
 -14.4669142 -46.3736687  -5.8076072 -13.6515799 -46.9191742  -6.3414793
 -13.9814949 -45.4935455  -5.3951368 -14.8548594 -47.2883759  -4.6211262
 -15.5964909 -46.7328644  -4.0844073 -15.3518000 -48.1777153  -5.0093598
 -13.6409397 -47.6621475  -3.7751505 -13.7143154 -47.4804649  -2.5370181
 -12.5999918 -48.1598511  -4.2624493 -16.4580612 -44.7904282  -6.1439896
 -17.5248699 -45.0362358  -5.5610342 -16.0556469 -43.5197830  -6.4260063
 -15.1475468 -43.4150543  -6.9550114 -16.8564720 -42.3296928  -6.0952621
 -16.9877129 -42.3243523  -5.0146194 -16.1458035 -41.0671959  -6.5408092
 -15.1696148 -41.0210419  -6.0026712 -15.9351292 -41.1348038  -7.5872278
 -16.8457241 -39.7416992  -6.3240728 -17.7118111 -39.7609825  -7.0194573
 -17.3036785 -39.5058556  -4.9031835 -16.4559956 -39.3826180  -4.2749653
 -17.9604168 -38.6288223  -4.8241982 -17.9066429 -40.3415260  -4.5939488
 -15.9532919 -38.5760345  -6.7002673 -15.6007633 -38.7923470  -7.7014041
 -16.5235977 -37.6705513  -6.6390476 -15.1636467 -38.4729614  -6.0104251
 -18.2256088 -42.3435555  -6.8053889 -19.2060013 -41.8965988  -6.2009735
 -18.2857742 -42.7527199  -8.0762072 -17.3999519 -43.1300545  -8.3984985
 -19.5061340 -42.6577835  -8.9154358 -19.7768993 -41.6325150  -8.8487864
 -19.2280693 -43.0056763 -10.4029846 -19.0140762 -44.0572128 -10.5388012
 -20.0826626 -42.6556053 -10.9636641 -18.0184650 -42.2451363 -10.9726381
 -17.1719551 -42.6821098 -10.4987040 -17.9165077 -42.3088875 -12.0573511
 -17.9382133 -40.7597733 -10.6368866 -18.8461113 -39.9826088 -10.7598104
 -16.8081779 -40.3616714 -10.1069984 -16.6823254 -39.3915100  -9.8858881
 -16.1082115 -41.0535889  -9.8983717 -20.6976776 -43.4294281  -8.2386198
 -21.8161621 -42.9270210  -8.2964001 -20.3964252 -44.5714798  -7.5623846
 -19.4282761 -44.8836288  -7.6461315 -21.3079185 -45.3881035  -6.7770452
 -22.0971661 -45.8105850  -7.4045463 -20.5249233 -46.5570641  -6.1543465
 -20.0384884 -47.0706177  -6.9563937 -19.7766132 -46.0881844  -5.5288053
 -21.3316536 -47.6152115  -5.3402100 -22.3371696 -47.8461113  -5.7684731
 -20.7584572 -48.5519943  -5.5176253 -21.4097672 -47.5375595  -3.8151779
 -20.4922581 -47.0110283  -3.1661105 -22.4618607 -48.0344009  -3.3128562
 -22.0391178 -44.5620804  -5.7064338 -23.2157631 -44.8061562  -5.4279661
 -21.3269501 -43.6275826  -5.0807662 -20.3630943 -43.5632286  -5.3664680
 -21.8703537 -42.7854118  -4.0077009 -22.7688332 -43.2604675  -3.6249831
 -20.9089298 -42.6354218  -2.8426051 -20.0349979 -42.0541763  -3.1505773
 -21.4389324 -42.0399895  -2.0962343 -20.4646034 -43.9750099  -2.2726622
 -21.3643494 -44.5683517  -2.1041081 -19.8409538 -44.4442940  -3.0282393
 -19.6082077 -43.9037170  -1.0138798 -18.8229694 -43.1944733  -1.2128342
 -20.2355099 -43.4965363  -0.2188231 -18.8088875 -45.1747169  -0.6362933
 -18.0424976 -45.3895950  -1.4039810 -18.3894463 -44.9962578   0.3768018
 -19.7236214 -46.3328171  -0.6215944 -20.1955776 -46.4035759  -1.5146582
 -19.2388000 -47.1779442  -0.3822472 -20.4529743 -46.2684975   0.0856867
 -22.3341389 -41.4422035  -4.5260105 -23.3662128 -40.9310226  -4.0724401
 -21.6880207 -40.8672409  -5.5732322 -20.8087330 -41.2607155  -5.7910852
 -21.9961262 -39.5698128  -6.1909175 -22.0568886 -38.8515587  -5.3608699
 -20.7939568 -39.1673965  -7.0525985 -19.8758774 -39.3000488  -6.4199324
 -20.6392078 -39.8549538  -7.8538556 -20.9391766 -37.6954193  -7.5455422
 -21.5095158 -37.1592522  -6.8634439 -19.5542336 -37.0386086  -7.5171466
 -18.8731956 -37.5032616  -8.2430782 -19.6186295 -35.9428329  -7.6693749
 -19.1219387 -37.0730286  -6.5717897 -21.4134121 -37.5288200  -9.0285835
 -22.4257317 -37.9469337  -9.1377697 -21.4147301 -36.4482841  -9.2583199
 -20.7753105 -38.0978928  -9.6855507 -23.3355045 -39.5669250  -7.0212026
 -24.1098061 -38.5842934  -6.9910078 -23.6494904 -40.6636505  -7.6754622
 -22.9498749 -41.4235077  -7.6786132 -24.8462296 -40.8300934  -8.4431343
 -24.8909931 -39.9652557  -9.1479082 -24.8319893 -41.9858589  -9.4283514
 -24.9082546 -42.9564857  -8.9812269 -25.7096691 -41.8639145 -10.0267420
 -23.6689377 -41.9098663 -10.2960529 -22.8920975 -42.2877655  -9.7842846
 -26.1697044 -40.7324600  -7.6000223 -27.0807743 -39.9852943  -7.9191709
 -26.2294197 -41.4134178  -6.4505405 -25.5412865 -42.6962433  -6.1420116
 -24.5797062 -42.5270042  -5.6766005 -25.4893513 -43.3257866  -7.0323367
 -26.5159416 -43.4019165  -5.1275964 -26.0505180 -44.2146378  -4.5223794
 -27.3632412 -43.8100243  -5.6799192 -27.1092701 -42.2363625  -4.3521156
 -26.4288425 -41.8861351  -3.6056733 -28.1007214 -42.4878159  -3.9302018
 -27.3303013 -41.2523079  -5.4980907 -28.2304745 -41.4773369  -6.0504293
 -27.5144043 -39.8644676  -4.9693089 -28.6865234 -39.4109879  -4.8492680
 -26.4617653 -39.1472397  -4.6762476 -25.5565453 -39.5520706  -4.7200212
 -26.5091515 -37.7206192  -4.4163108 -27.1751633 -37.5897827  -3.5571921
 -25.1279354 -37.2175102  -3.9660444 -24.9182301 -37.6057625  -2.9514062
 -24.3591709 -37.5871773  -4.6991210 -25.0043774 -35.6784782  -3.9504635
 -25.1154022 -35.3417015  -4.9992375 -25.9179993 -34.9423790  -2.9330752
 -25.5681629 -35.0485992  -1.8786846 -26.0260658 -33.8543549  -3.2491400
 -26.9264984 -35.3535767  -3.0445490 -23.5239983 -35.3507919  -3.5662019
 -22.8499813 -35.7635574  -4.2839003 -23.4474545 -34.2203865  -3.5056758
 -23.2747669 -35.7939110  -2.6295898 -27.0995922 -36.9338684  -5.5731626
 -27.9738884 -36.0793533  -5.3081508 -26.7946987 -37.2425652  -6.8166776
 -26.0297241 -37.8648186  -6.9579225 -27.4123383 -36.6093979  -7.9488773
 -27.1998711 -35.5321198  -7.9243875 -26.9842319 -37.0815353  -8.8009291
 -28.9077644 -36.7438126  -8.1056843 -29.5793381 -35.7876244  -8.5270672
 -29.4994774 -37.9032135  -7.8707695 -28.9626160 -38.7002411  -7.5754256
 -30.9863644 -38.0947571  -7.7051854 -31.4892292 -37.6513710  -8.5925512
 -31.4020958 -39.6040192  -7.6575685 -31.0507431 -40.0898438  -8.5832806
 -30.8670216 -40.1210365  -6.8145905 -32.9662628 -39.7777596  -7.5306349
 -33.1881790 -40.8148537  -7.5714946 -33.2603149 -39.3936234  -6.5747147
 -33.6765747 -39.1082001  -8.7184849 -33.2400818 -39.2328339  -9.9024687
 -34.7501831 -38.5019836  -8.5194302 -31.5505295 -37.2575569  -6.5584249
 -32.5883369 -36.5641937  -6.7386765 -30.9107704 -37.1352959  -5.3793292
 -30.0809498 -37.7294502  -5.2486463 -31.4025707 -36.3224297  -4.2812247
 -32.4331779 -36.5816193  -4.1008644 -30.5995007 -36.6901741  -3.0141661
 -30.5079651 -37.7996979  -2.9540305 -29.6183624 -36.2915344  -3.0338583
 -31.3042183 -36.1726837  -1.7067879 -31.3684158 -35.0835724  -1.8281727
 -32.3052826 -36.5569801  -1.7003399 -30.5644684 -36.5997314  -0.4350677
 -31.2055702 -37.3361816   0.3507432 -29.3525105 -36.3338890  -0.3386999
 -31.3200417 -34.8415871  -4.5483141 -32.1915894 -34.0703773  -4.1335840
 -30.3699131 -34.3416023  -5.3398108 -29.6515293 -34.9729576  -5.6403017
 -30.3165798 -32.9128418  -5.7526226 -30.3787136 -32.2840576  -4.8837180
 -29.0305042 -32.6456032  -6.5650349 -28.1753731 -32.8472061  -5.9234333
 -28.9898987 -33.3051414  -7.4173446 -28.9661102 -31.1718292  -7.0239949
 -29.7485561 -30.9470005  -7.7717156 -29.1319675 -30.5174274  -6.1526389
 -27.3573017 -30.7155399  -7.7541442 -27.4582844 -31.5407543  -9.3657312
 -28.4205723 -31.2794380  -9.8938475 -26.5823669 -31.2649345  -9.9814396
 -27.3888092 -32.5952950  -9.2087603 -31.5589180 -32.5708923  -6.5786319
 -32.3408470 -31.6508675  -6.2882376 -31.7963314 -33.4135323  -7.5944500
 -31.0683708 -34.1215172  -7.8041177 -32.9450912 -33.3606682  -8.4995356
 -33.0608063 -32.3889046  -8.9359035 -32.6941338 -34.2588615  -9.7692432
 -32.3417282 -35.2354126  -9.4350624 -33.6052666 -34.3599281 -10.3830519
 -31.6147709 -33.5735397 -10.6268272 -31.9832516 -32.6447449 -11.0625467
 -30.7537308 -33.2505875  -9.9897423 -31.0535984 -34.4136848 -11.7972393
 -30.5286007 -33.7377853 -12.4726725 -30.2317810 -35.0166550 -11.3987560
 -32.0606155 -35.2187271 -12.5346489 -32.5265045 -34.7937889 -13.3431349
 -32.3626137 -36.4877090 -12.2509470 -33.2119598 -37.0539551 -12.9789886
 -33.7237091 -36.5529289 -13.6704674 -33.4675179 -38.0065002 -12.7723227
 -31.8017464 -37.1785622 -11.2859812 -31.0933113 -36.7339821 -10.7491722
 -32.1392441 -38.0722198 -11.0344048 -34.2926331 -33.6586075  -7.7786040
 -35.2547836 -32.9406967  -8.1186285 -34.3282242 -34.4666595  -6.7345433
 -33.4950409 -35.0227928  -6.5729723 -35.4765930 -34.6275978  -5.8658552
 -36.3406448 -34.8831253  -6.4357538 -35.2436218 -35.7662659  -4.8864193
 -35.0928955 -36.7327156  -5.3838634 -34.3738861 -35.5332909  -4.3318644
 -36.3838043 -35.8456688  -3.8276789 -37.4931679 -36.2347565  -4.2223902
 -36.1804504 -35.3798676  -2.6531670 -35.7725830 -33.3905067  -5.0141950
 -36.9212570 -32.9568405  -5.0069008 -34.7698212 -32.7051849  -4.4080892
 -33.8334961 -33.0813751  -4.3481727 -34.9884262 -31.3974171  -3.7837415
 -35.8598595 -31.4551525  -3.1534860 -33.6988831 -31.0269203  -3.0066478
 -32.8017387 -30.9678669  -3.6760042 -33.8212128 -30.0267010  -2.6281145
 -33.2851334 -31.8624592  -1.8528991 -33.0756531 -32.8589668  -2.1804705
 -32.3580513 -31.4362698  -1.5153767 -34.2510033 -31.8238297  -0.7299521
 -33.7437782 -32.0357437   0.1821920 -34.6250725 -30.8074608  -0.5837052
 -35.3338547 -32.8613701  -0.8702826 -35.3705292 -33.4122086  -1.7598246
 -36.3385735 -33.0887184   0.0075200 -37.1487770 -34.0303001  -0.1922407
 -37.0069084 -34.6240730  -1.0035845 -37.8810844 -34.1415749   0.4278742
 -36.5597191 -32.3840561   1.0444620 -35.9510384 -31.6024857   1.2893842
 -37.3648605 -32.5868378   1.6206275 -35.2658005 -30.2410698  -4.7986836
 -36.0168495 -29.3077469  -4.5673261 -34.7212830 -30.3558064  -6.0098858
 -34.2785797 -31.2165108  -6.3146186 -34.9116364 -29.3941860  -7.1193051
 -34.6880112 -28.4045773  -6.6909466 -33.9963570 -29.7194672  -8.3086319
 -34.1987610 -30.6957703  -8.7457008 -34.0596924 -28.9254665  -9.0194407
 -32.9780083 -29.7392769  -7.9324560 -36.3936958 -29.3224812  -7.5287814
 -36.9704514 -28.2404881  -7.5945578 -37.0853577 -30.4520206  -7.5634093
 -36.6278648 -31.3500290  -7.4098511 -38.5357666 -30.5166054  -7.7283340
 -38.7116241 -30.0778427  -8.7058477 -38.9815941 -31.9694691  -7.7547526
 -38.6721153 -32.3953972  -6.7936716 -40.0642052 -32.0159912  -7.7918239
 -38.4357300 -32.8563957  -8.9595518 -39.1185341 -32.6563759  -9.8254471
 -37.4474564 -32.5138359  -9.2446938 -38.4301186 -34.3762245  -8.6303625
 -38.1850433 -34.4970093  -7.5846605 -39.3997765 -34.7827225  -8.7270813
 -37.4842529 -35.0634003  -9.4722137 -37.1926689 -34.5886917 -10.3643312
 -36.8384781 -36.1948471  -9.2646360 -35.8857422 -36.6049004 -10.0486269
 -35.6039009 -35.9319305 -10.7448473 -35.2679749 -37.3371277  -9.7128830
 -36.9957199 -36.9003258  -8.2140455 -37.8272667 -36.7694359  -7.6363797
 -36.2735062 -37.6293144  -8.0550518 -39.3392525 -29.6907921  -6.7431827
 -40.0225906 -28.6968441  -7.0091434 -39.0779190 -29.9880295  -5.4654555
 -38.4509010 -30.7511158  -5.2815990 -39.6938553 -29.2566662  -4.3730059
 -40.7482300 -29.3352814  -4.4967909 -39.3694077 -29.9666386  -3.0358255
 -38.2912788 -29.9017410  -2.8555813 -39.8792801 -29.3905811  -2.2340534
 -39.6155472 -31.0259037  -3.0010819 -39.3200417 -27.7506828  -4.2701063
 -40.2018394 -27.0250149  -3.8691173 -38.0784683 -27.3018723  -4.5895057
 -37.3788414 -27.9605293  -4.9328623 -37.7329636 -25.8584671  -4.6625047
 -38.1403236 -25.4551392  -3.7820981 -36.2059097 -25.6486874  -4.6426516
 -35.7605820 -26.0848637  -5.5500965 -36.0553055 -24.5400505  -4.7121878
 -35.3973160 -26.0938435  -3.4494500 -34.1959343 -25.6483936  -3.0131814
 -33.6619530 -24.8859310  -3.4255860 -33.8286858 -26.2901478  -1.9011836
 -32.9307899 -26.0931568  -1.3664328 -34.8180733 -27.1224976  -1.5785712
 -35.8103981 -27.0641994  -2.5719476 -36.7260437 -27.6819038  -2.5923953
 -38.4451752 -25.2386875  -5.8694315 -38.9448814 -24.1237259  -5.7661448
 -38.5383835 -25.8633518  -7.0580955 -38.0201950 -26.7147617  -7.1501756
 -39.2282639 -25.3174629  -8.2337589 -38.9955521 -24.2760658  -8.3651695
 -38.8701286 -26.0133400  -9.5881405 -38.8290710 -27.0774822  -9.4480829
 -39.8480911 -25.7489281 -10.7337570 -39.9298096 -24.6854877 -10.8383465
 -39.4282227 -26.1963196 -11.5934172 -40.8156967 -26.1883755 -10.5242100
 -37.5324936 -25.5200024 -10.0174665 -36.7574234 -25.7404118  -9.3150158
 -37.2663536 -26.0588741 -10.9678707 -37.5613632 -24.4483490 -10.1964579
 -40.7298698 -25.2759666  -7.9855895 -41.4060631 -24.3643284  -8.4072723
 -41.2943077 -26.2257290  -7.2336721 -40.7440529 -27.0738220  -7.1050415
 -42.6490631 -26.1377411  -6.8002009 -43.2916641 -26.0369282  -7.6680632
 -43.0707512 -27.5142937  -6.2068558 -42.3851738 -27.7658195  -5.3552537
 -44.0989723 -27.4037857  -5.8025274 -43.0986748 -28.7469101  -7.1477313
 -42.8711014 -29.8640270  -6.6074586 -43.3741531 -28.6236801  -8.3707542
 -42.8850899 -24.9500885  -5.8307457 -43.8346329 -24.1957283  -5.9583993
 -42.0162392 -24.7475548  -4.8577838 -41.2821045 -25.4070187  -4.7978597
 -42.1001587 -23.6724567  -3.8913274 -43.0838165 -23.6696663  -3.4051623
 -41.0795784 -24.0067215  -2.8196371 -40.1310692 -24.1772747  -3.3097105
 -40.9027138 -23.1436062  -2.1402569 -41.3427315 -24.9547768  -2.2939947
 -41.8837585 -22.2789803  -4.5322909 -42.5737000 -21.3063164  -4.1415510
 -41.1424484 -22.2081757  -5.6124253 -40.5704460 -23.0251999  -5.7831292
 -40.8802261 -21.0641651  -6.4580960 -40.5254974 -20.2214928  -5.7718492
 -39.7051468 -21.3441467  -7.4102092 -38.7600861 -21.2942543  -6.8417377
 -39.7367134 -22.3803024  -7.7975564 -39.6573524 -20.3634930  -8.5682526
 -40.5302963 -20.5060406  -9.2118511 -39.5962219 -18.8668652  -8.2020359
 -38.7799492 -18.7095604  -7.4831772 -39.4015846 -18.2304783  -9.0712814
 -40.5670166 -18.5337048  -7.8414149 -38.5309181 -20.6512928  -9.5337934
 -38.7075768 -21.6033859  -9.9921236 -38.4095535 -19.9033127 -10.3413715
 -37.5912704 -20.7270355  -9.0143356 -42.2338638 -20.6414146  -7.0940800
 -42.7511826 -19.6058655  -6.7317038 -42.8270340 -21.4476566  -7.9665370
 -42.3877106 -22.3155212  -8.1801500 -44.0855408 -21.0055237  -8.5879412
 -43.8906441 -20.0206108  -8.9863987 -44.3463898 -21.9511127  -9.7677975
 -45.0769043 -21.5438442 -10.4188480 -43.4430885 -22.0073318 -10.3516312
 -44.7740555 -23.4156780  -9.4756708 -44.0552597 -24.0024071  -8.8663206
 -45.7017517 -23.3891678  -8.9042978 -45.0241699 -24.0819530 -10.8377190
 -45.7386398 -23.4273701 -11.3869619 -44.1597977 -24.0703373 -11.4371004
 -45.5669365 -25.4185371 -10.6070824 -46.5462570 -25.4806538 -10.4265690
 -44.8682480 -26.4792614 -10.2334461 -45.4778290 -27.5133629  -9.8097458
 -46.4714775 -27.5173874  -9.8564587 -44.8302917 -28.2357597  -9.4634056
 -43.5863304 -26.4489441 -10.2442636 -43.1405983 -25.6247501 -10.6011438
 -43.1144791 -27.2134285  -9.7261848 -45.3293571 -20.8984356  -7.6974349
 -46.2921753 -20.2316456  -8.0888071 -45.3291664 -21.5862694  -6.5524364
 -44.5939980 -22.2847843  -6.4741898 -46.3000717 -21.3987637  -5.4831486
 -47.2923355 -21.5306187  -5.8862162 -46.0762253 -22.3922768  -4.3500261
 -45.1042747 -22.2128849  -3.9415815 -47.0271912 -22.1392078  -3.1610534
 -48.0693092 -22.1477871  -3.4806707 -46.8218651 -22.8653831  -2.3892841
 -46.7218742 -21.2556000  -2.6720362 -46.1702347 -23.7533283  -4.7948246
 -45.3242340 -24.0141487  -5.2465248 -46.1891403 -19.9582272  -5.0014043
 -47.1823082 -19.2299919  -5.1106005 -44.9770012 -19.5285301  -4.5929375
 -44.2275009 -20.1806717  -4.5740900 -44.7686768 -18.2089062  -3.9713547
 -45.5624733 -18.0000839  -3.2536337 -43.4490356 -18.0969830  -3.1649456
 -43.1935883 -19.0560989  -2.6874793 -42.5947227 -18.0263119  -3.8418322
 -43.4694633 -17.0531788  -2.1230052 -43.8853989 -17.2058220  -0.8503560
 -44.1261253 -18.0716362  -0.4281007 -43.7079086 -16.0321445  -0.2204696
 -43.8847771 -15.9240284   0.8555449 -43.1795197 -15.1613092  -1.0222631
 -43.1369591 -15.7588663  -2.2460384 -42.7556801 -15.2970991  -3.1529250
 -44.7972069 -17.0526924  -4.9964037 -45.0079308 -15.8978262  -4.6196790
 -44.5584488 -17.3623180  -6.2580247 -44.1944580 -18.2768860  -6.4299436
 -44.4981041 -16.3616333  -7.3216414 -43.7157669 -15.6627645  -7.0450454
 -44.0263443 -17.0161419  -8.5913963 -43.0713501 -17.4570160  -8.4137669
 -44.6949921 -17.7953873  -8.8401585 -43.9261818 -16.0270424  -9.7865086
 -44.9085579 -15.5482025  -9.9180870 -42.8529510 -14.9907694  -9.5361176
 -41.8904915 -15.3700676  -9.2799101 -42.6916733 -14.4035482 -10.4514456
 -43.1679497 -14.3247786  -8.7301235 -43.6806946 -16.7723427 -11.0639658
 -44.5398903 -17.4554653 -11.2004900 -43.6626472 -16.0740967 -11.9183245
 -42.7625885 -17.3717251 -10.9444189 -45.8128510 -15.5951891  -7.5246663
 -45.8205757 -14.3702135  -7.7143431 -46.9522095 -16.2699280  -7.4218702
 -46.8599358 -17.2360077  -7.1098471 -48.2850647 -15.6007528  -7.4237642
 -48.3927879 -15.0018024  -8.3635988 -49.3107262 -16.6865273  -7.5232801
 -49.1884575 -17.5132675  -6.8556423 -50.1927338 -16.2220173  -7.3172302
 -49.3236008 -17.0746517  -8.5674620 -48.5219269 -14.6074543  -6.2404680
 -48.7449875 -13.3860540  -6.4640470 -48.3577690 -15.0262394  -4.9633508
 -48.4546700 -16.3993797  -4.3764129 -47.5893822 -17.0049248  -4.6086650
 -49.3597832 -16.9220695  -4.7430553 -48.5542107 -16.1961975  -2.8636096
 -48.0198097 -16.9664974  -2.3075783 -49.6248589 -16.1153069  -2.5532410
 -47.7730408 -14.9005308  -2.6772044 -46.7095184 -15.1357546  -2.6327894
 -48.0188560 -14.4174404  -1.7099264 -48.2174683 -14.0721598  -3.8734434
 -49.1620064 -13.6101618  -3.6667135 -47.2616158 -12.8976622  -4.0827065
 -47.6549301 -11.7827263  -3.9380648 -46.0193214 -13.1800938  -4.5465732
 -45.7373772 -14.1651716  -4.5780067 -45.0099983 -12.1266222  -4.7826715
 -44.9141541 -11.5585136  -3.8736727 -43.6696625 -12.8136730  -5.0512915
 -43.3544884 -13.3527327  -4.1775317 -43.8882141 -13.5595903  -5.8212514
 -42.5988808 -11.8631763  -5.4566283 -41.9531326 -11.0079088  -4.5175881
 -42.1720200 -11.0755749  -3.4346089 -40.9858513 -10.1083908  -4.9737520
 -40.4808235  -9.4946442  -4.2381854 -40.7332458  -9.9249058  -6.3433356
 -39.8740578  -8.9714069  -6.6717362 -39.7710724  -8.3300867  -5.9591799
 -41.3895988 -10.7501354  -7.2948432 -41.2527122 -10.6620541  -8.3574018
 -42.3441849 -11.7032852  -6.8373342 -42.8762398 -12.3254700  -7.5219197
 -45.4058609 -11.1372185  -5.8976073 -45.1810417  -9.9530735  -5.8225560
 -46.0021667 -11.6697121  -6.9962363 -46.1224747 -12.6741209  -7.0007534
 -46.6526184 -10.8936539  -8.0821037 -45.9417381 -10.2347651  -8.5864439
 -47.1871605 -11.9121408  -9.1066837 -46.3962173 -12.4364300  -9.6660004
 -47.7572594 -12.6936493  -8.5803528 -47.9665146 -11.1871433 -10.0014324
 -47.3524704 -10.7573214 -10.5985870 -47.7104416  -9.9387054  -7.5476227
 -47.7954521  -8.7790747  -7.9587502 -48.5372887 -10.4118404  -6.6249318
 -48.4105072 -11.3534412  -6.2914796 -49.6125641  -9.6119099  -6.0095067
 -50.2548828  -9.1795044  -6.7832894 -50.5480804 -10.5451164  -5.2525263
 -50.9721832 -11.2287102  -6.0241003 -49.9723778 -11.1006260  -4.4884644
 -51.7235146  -9.8191681  -4.6027908 -52.2380104  -8.8178082  -5.1749301
 -52.0547829 -10.2374945  -3.4749019 -48.9975166  -8.4928141  -5.1627154
 -49.2237282  -7.3177810  -5.4763966 -48.1411438  -8.8737497  -4.2367992
 -47.8480949  -9.8644323  -4.2666712 -47.3293266  -7.9555917  -3.4209669
 -47.9709473  -7.4847794  -2.6975160 -46.2987175  -8.8000507  -2.6605892
 -46.6620827  -9.4835587  -1.8877327 -45.6852760  -9.4380083  -3.3551571
 -45.2686768  -7.9133425  -1.8799849 -45.1452255  -6.9306278  -2.3287971
 -45.5726204  -7.8117232  -0.8479744 -43.8733368  -8.5529680  -1.9306492
 -43.7666130  -9.7459564  -1.6094249 -42.9203568  -7.7835188  -2.1564832
 -46.6487083  -6.8365531  -4.2757998 -46.6617050  -5.6453776  -3.9444242
 -45.9572945  -7.2790093  -5.3471756 -45.8215942  -8.2914686  -5.5480905
 -45.3859863  -6.3173480  -6.2725873 -44.5985870  -5.7546577  -5.7877069
 -44.7536621  -7.0700784  -7.4111962 -44.0377846  -7.7547531  -6.9767332
 -45.5452690  -7.6020904  -7.9070086 -44.0985909  -6.2579489  -8.5090446
 -44.8338890  -5.4842420  -8.8198080 -42.8322182  -5.5645280  -7.9564056
 -42.0797882  -6.3344836  -7.8503890 -42.5210381  -4.8209515  -8.6606960
 -43.0633507  -4.9168978  -7.1060205 -43.8064041  -7.1957998  -9.6536169
 -44.7692719  -7.5803232  -9.9791212 -43.3285713  -6.6045194 -10.4322615
 -43.0840111  -7.9401374  -9.2938356 -46.4490700  -5.3460212  -6.8494606
 -46.1589622  -4.1629910  -6.8161254 -47.5981331  -5.7601209  -7.3654199
 -47.7945023  -6.7361016  -7.4078507 -48.5951424  -4.8097062  -7.8823190
 -48.2069740  -4.1495433  -8.6048946 -49.7570457  -5.5786057  -8.5115023
 -49.9747276  -6.4115314  -7.9353576 -50.6317978  -4.9093876  -8.6839056
 -49.3182182  -6.1477060  -9.8664656 -49.2541695  -5.3201103 -10.5732870
 -48.3245125  -6.5467639  -9.7467241 -50.2596092  -7.1762633 -10.4683800
 -51.2595825  -6.7685504 -10.4673090 -49.8940125  -7.4566898 -11.4596357
 -50.2900848  -8.5130920  -9.7903175 -49.4629250  -8.9026108  -9.4624205
 -51.2354889  -9.4280529  -9.6740503 -51.0389519 -10.6054220  -9.1174879
 -50.1194229 -10.9089289  -8.9147291 -51.7818604 -11.2325678  -9.0855618
 -52.4638214  -9.1777697 -10.0703640 -52.6993370  -8.3016357 -10.4758415
 -53.2084465  -9.8005638  -9.9202766 -49.1081200  -3.8508499  -6.7856050
 -49.3571129  -2.7103343  -7.1151257 -49.1792297  -4.2771840  -5.5025620
 -48.9426842  -5.2519393  -5.2859664 -49.4989929  -3.3894172  -4.3967395
 -50.3802452  -2.7775095  -4.6577158 -49.7053871  -4.1418982  -3.0632248
 -48.7278214  -4.4071622  -2.5954869 -50.1615868  -3.4431913  -2.3963475
 -50.6490135  -5.3526731  -3.0099738 -50.1642952  -6.1540265  -3.5060906
 -50.8199883  -5.6507487  -1.9988422 -51.9449654  -5.1084380  -3.6858275
 -52.5378647  -4.0428920  -3.5705142 -52.5021019  -6.0598831  -4.4194903
 -53.4526787  -5.9752421  -4.7362795 -52.0692062  -6.9606762  -4.4234624
 -48.4024391  -2.3331573  -4.2366385 -48.7054138  -1.1635245  -4.0763254
 -47.1246185  -2.7582345  -4.2921362 -46.9332085  -3.7320924  -4.3247690
 -45.9703789  -1.8648138  -4.2448468 -46.0058784  -1.2297425  -3.3633387
 -44.6418991  -2.6647351  -4.1072235 -44.7471313  -3.2321882  -3.1980264
 -44.5594215  -3.4591806  -4.8673239 -43.4252930  -1.7624360  -4.0682926
 -43.2475739  -1.2749460  -5.0429063 -43.5891380  -0.9784471  -3.3086846
 -42.1184731  -2.4806132  -3.7619770 -41.7113914  -3.0442085  -4.6416073
 -41.3871193  -1.6902364  -3.4981165 -42.2948036  -3.3201985  -2.5468218
 -42.5928459  -2.8481565  -1.6865958 -42.3153114  -4.6334352  -2.4358728
 -42.7690353  -5.1284213  -1.3522547 -43.1563225  -4.4339495  -0.6805026
 -42.9145660  -6.1156607  -1.2750684 -42.0618668  -5.4933219  -3.3653257
 -41.9852066  -5.1475544  -4.2786431 -42.2481995  -6.4791989  -3.2029176
 -45.9681129  -0.9424534  -5.4665813 -45.6767731   0.2355233  -5.2941971
 -46.2352219  -1.3567975  -6.6603379 -46.4091339  -2.3537314  -6.7380328
 -46.3599014  -0.5087349  -7.8305507 -45.3736191  -0.0470484  -7.8633690
 -46.5837173  -1.4559259  -9.0532961 -47.5181160  -2.1175361  -8.9577236
 -46.8856392  -0.8001798  -9.8866978 -45.4410133  -2.3210509  -9.5760403
 -45.1451073  -2.9620566  -8.7839231 -45.9357529  -3.0458031 -10.8161488
 -46.1273232  -2.3247993 -11.6360846 -45.2266846  -3.7608659 -11.1893167
 -46.8176231  -3.7183440 -10.6281900 -44.2109261  -1.5352761  -9.8973064
 -43.7912521  -1.0328145  -9.0422306 -43.3892784  -2.1464946 -10.3526611
 -44.4723740  -0.7962793 -10.6361475 -47.4251366   0.6510278  -7.7567129
 -47.1953163   1.7161273  -8.3306293 -48.5332718   0.4314981  -7.0417652
 -48.5636482  -0.4776815  -6.5663595 -49.5574341   1.4551964  -6.8113070
 -49.5357323   2.0939140  -7.6615767 -50.9564590   0.8350340  -6.5544410
 -50.9756813   0.4223341  -5.5865741 -51.6434059   1.6744859  -6.6584725
 -51.1660728   0.0877559  -7.3242955 -49.0399170   2.3717632  -5.6484823
 -49.0434799   3.6296773  -5.6996460 -48.2636261   1.8196137  -4.6831131
 -48.1977310   0.7839090  -4.6429820 -47.6313248   2.6565077  -3.5801256
 -48.3160973   3.4204390  -3.2477844 -47.3015175   1.7807740  -2.3799856
 -46.6710091   0.9103405  -2.6009057 -46.8860207   2.3305802  -1.5769256
 -48.2978401   1.4939215  -1.9794172 -46.3527260   3.3998001  -4.0840588
 -45.9574203   4.3831077  -3.4347603 -45.6848221   2.9688301  -5.1658244
 -45.8625221   2.0176437  -5.5199618 -44.6534119   3.7047722  -5.8830314
 -43.8655930   4.0990562  -5.2193952 -43.9913139   2.7934659  -6.9098978
 -43.5782814   1.9405484  -6.3976951 -44.7335777   2.4022088  -7.6079445
 -42.8380814   3.5519946  -7.6545482 -43.2226334   4.4943638  -8.0547495
 -42.0141640   3.7006066  -6.9403963 -42.3566399   2.6898947  -8.8384075
 -41.3874207   3.0849802  -9.0781889 -42.1924400   1.6694708  -8.4490280
 -43.2732849   2.7084665  -9.9821920 -43.9931908   3.4050589 -10.0414047
 -43.2112923   1.8126667 -11.0168571 -43.9284859   1.9731723 -12.0771780
 -44.5464096   2.8042641 -12.0846024 -43.7417183   1.4160489 -12.9063377
 -42.3542366   0.7948425 -11.0360994 -41.7512665   0.6362990 -10.2436829
 -42.3001938   0.2318662 -11.8498602 -45.3181496   4.9256463  -6.5508318
 -44.8049355   5.9942288  -6.5719647 -46.4699516   4.7841101  -7.1917925
 -46.9123459   3.8621955  -7.1646047 -47.1073952   5.9052224  -7.8450251
 -46.3570213   6.3961573  -8.4927530 -48.2228928   5.3386407  -8.7346306
 -47.7693176   4.6847110  -9.4882975 -48.8208923   4.6236901  -8.1745129
 -49.1221275   6.3561130  -9.4690142 -49.4849052   7.0081873  -8.6871080
 -48.3365326   7.1835523 -10.4667711 -47.8338966   6.4969311 -11.2181435
 -48.9862518   7.9347200 -10.8905716 -47.5273590   7.6461835  -9.8866434
 -50.2799187   5.6888676 -10.2449179 -50.9578781   5.2982140  -9.5065746
 -50.7623444   6.4970565 -10.8458385 -49.9723244   4.8867517 -10.9214401
 -47.5968513   6.9073529  -6.8354754 -47.4594955   8.1136456  -7.0036321
 -48.1220207   6.4093876  -5.6875801 -48.2504616   5.4017305  -5.7059236
 -48.4077415   7.1887398  -4.4685750 -49.0759888   7.9409962  -4.7732692
 -49.1195259   6.3669472  -3.3675382 -50.0778046   6.0195928  -3.8180759
 -48.4850502   5.5143433  -3.0808330 -49.3465996   7.1919580  -2.0991676
 -49.4375229   6.4086823  -1.2919651 -48.4519234   7.7960401  -1.8919808
 -50.5809784   8.1349878  -2.1715608 -51.2262039   8.3398170  -3.2501392
 -50.8937302   8.7220163  -1.1056955 -47.1343079   7.9262791  -3.9838002
 -47.1710281   9.1374855  -3.8550923 -45.9947205   7.2363324  -3.7718680
 -45.9654312   6.2340002  -3.8379202 -44.7175217   7.8828025  -3.4120297
 -44.9252281   8.4454918  -2.5177586 -43.7312775   6.7673583  -3.2128477
 -43.5626373   6.3933153  -4.1861377 -42.9071770   7.2149444  -2.7808616
 -44.1065369   5.9441004  -2.5651460 -44.2223511   8.9138393  -4.4134922
 -43.7838020   9.9691277  -3.9971242 -44.2203674   8.6381617  -5.7337599
 -44.5447121   7.7069306  -6.0427713 -43.9117432   9.6053848  -6.7618918
 -42.8991699  10.0003614  -6.7040949 -44.0628510   8.9453268  -8.1390209
 -45.0389290   8.4204283  -8.1338606 -44.1717110   9.6865377  -8.9323606
 -42.9417191   8.0167952  -8.5049429 -42.6588058   7.3547988  -7.7136574
 -43.4392204   7.0840974  -9.6187201 -43.8811150   7.6619682 -10.4359646
 -42.5636292   6.5051908  -9.9606638 -44.2546806   6.4539957  -9.2781153
 -41.7853317   8.8379307  -9.0508156 -41.3839874   9.5255108  -8.3610001
 -40.9981613   8.1250677  -9.2842827 -41.9896278   9.3604126  -9.9745197
 -44.8569336  10.8486004  -6.6048498 -44.3753777  11.9748325  -6.7405267
 -46.1367760  10.7215300  -6.3128424 -46.4035835   9.7452936  -6.1765003
 -47.1142235  11.8287230  -6.2191634 -47.0904541  12.4420748  -7.1263523
 -48.5042191  11.1773596  -6.1044736 -48.7042656  10.6475983  -6.9863553
 -48.5250168  10.4355631  -5.3090806 -49.6292191  12.2194281  -5.9612665
 -49.3233452  13.1920071  -6.3773727 -50.4277420  11.8108854  -6.5636230
 -50.1339340  12.4222031  -4.5239496 -49.2690048  12.5868464  -3.8387880
 -50.7994690  13.2872238  -4.4600191 -50.9457741  11.1715879  -4.0254488
 -51.8663177  11.0274410  -4.6605344 -50.3104744  10.2469101  -4.1715975
 -51.2970047  11.3395538  -2.5819478 -52.1087227  11.9146070  -2.5269339
 -51.5727768  10.4523096  -2.1543286 -50.5579796  11.6926575  -1.9859825
 -46.8096237  12.7011108  -5.0147419 -46.8583260  13.9313745  -5.0684834
 -46.3740234  12.0647573  -3.8822792 -46.4494743  11.0355463  -3.8992727
 -45.8059654  12.7935600  -2.6908252 -46.5032425  13.5798788  -2.4168396
 -45.5309906  11.8514299  -1.5088254 -44.9033699  11.0148573  -1.9029062
 -44.9743271  12.3899422  -0.7673849 -46.7902794  11.2422276  -0.8593246
 -47.1698189  10.4674339  -1.5622880 -46.5332069  10.7321215   0.0498523
 -47.8685188  12.3144388  -0.5112813 -47.6719093  13.1717834   0.4119195
 -48.9376793  12.2431078  -1.1616609 -44.5433807  13.5626020  -3.0415802
 -44.3871536  14.6856728  -2.5735805 -43.6224709  12.9722872  -3.7823391
 -43.8368683  12.0472422  -4.1011233 -42.4102478  13.6067209  -4.2248206
 -41.8876648  14.0765953  -3.3778570 -41.4503136  12.4783154  -4.7148566
 -41.9519958  11.7037001  -5.2630768 -40.6781616  12.8533878  -5.3796148
 -40.7654915  11.8976021  -3.5073078 -39.7784653  12.4010124  -3.0378344
 -41.3212547  10.8941364  -2.9628050 -40.9425697  10.4651260  -2.1093879
 -42.1904831  10.5402842  -3.3014500 -42.6334000  14.8006926  -5.1985717
 -42.1097145  15.9043303  -4.9580865 -43.5087929  14.6806536  -6.1964731
 -43.8815460  13.7432909  -6.4099221 -44.1388283  15.7847605  -6.9451880
 -43.3634148  16.1951504  -7.6094337 -44.9376106  15.3945103  -7.5574398
 -44.6505814  16.9010010  -6.0163507 -44.4650879  18.1051731  -6.2348700
 -45.3740273  16.4980621  -4.9853063 -45.6551018  15.5287924  -5.0141282
 -45.9333763  17.4043484  -3.9866984 -46.5052643  18.1883545  -4.4848614
 -46.6461143  16.8829708  -3.3723423 -44.9063530  18.1835136  -3.1051061
 -45.0266609  19.3976269  -2.9149768 -43.8321114  17.5418625  -2.7533832
 -43.8089828  16.5497856  -2.8478155 -42.6669731  18.1553822  -2.1489997
 -43.0115662  18.6165924  -1.2429962 -41.6923981  17.0341415  -1.8243455
 -41.3031998  16.5012779  -2.7188756 -40.8390427  17.4333420  -1.2401888
 -42.1596527  16.3181629  -1.1666744 -41.9998016  19.0889530  -3.0687678
 -41.5727234  20.1546307  -2.6808450 -41.8409729  18.7249126  -4.3693395
 -41.9942055  17.7749901  -4.6069722 -41.3562012  19.6050129  -5.4438124
 -40.4038277  19.9761200  -5.2090740 -41.2326469  18.7899895  -6.7459888
 -40.3931618  18.2122974  -6.7813449 -42.0804062  18.0847969  -6.7580152
 -41.2045097  19.6140976  -8.0322800 -42.0781860  20.3099747  -8.1809006
 -40.3306961  20.2036743  -7.9889259 -41.1072922  18.7986565  -9.3144217
 -40.8862724  19.4217625 -10.1757956 -40.2820015  18.0658226  -9.2467442
 -42.3524628  18.0266495  -9.6334801 -43.1504059  18.2792130  -9.0786228
 -42.4893990  17.1540184 -10.6040764 -43.6199379  16.5149555 -10.8510590
 -44.4715958  16.6929169 -10.3105402 -43.6849556  15.8167753 -11.5655270
 -41.5030861  16.9085140 -11.4550533 -40.6011238  17.2966290 -11.2689934
 -41.7079124  16.3439274 -12.2788105 -42.2079086  20.8580761  -5.6014848
 -41.6810837  21.9930668  -5.6829100 -43.5037041  20.6900311  -5.6691523
 -43.8092003  19.7335854  -5.5042620 -44.4732742  21.7822437  -5.6694746
 -44.0975761  22.3777599  -6.5116744 -45.9320602  21.2797928  -5.9695320
 -45.9064522  20.6665211  -6.8563752 -46.2092171  20.5571003  -5.1801009
 -47.0241890  22.3760967  -6.0471792 -46.9403648  23.0415459  -5.1571922
 -46.8716583  23.1889706  -7.3330946 -46.8981705  22.5072269  -8.2244759
 -47.6853333  23.9254932  -7.4259529 -45.9095345  23.8066196  -7.3110018
 -48.3832359  21.7283421  -6.0940070 -48.4363747  20.9569149  -5.3127985
 -49.1662178  22.4575043  -6.0178852 -48.5728493  21.1614208  -6.9592481
 -44.3853226  22.6837044  -4.4023223 -44.4145927  23.8814850  -4.6032457
 -44.2011986  22.1453934  -3.1832218 -44.3005753  21.1403446  -3.0801847
 -43.9597015  22.9642220  -1.9348429 -44.8361359  23.6384945  -1.8366243
 -43.8995972  21.9820518  -0.7238882 -43.0700874  21.2948513  -0.7682144
 -43.8243637  22.5798264   0.1793057 -44.8410263  21.4666080  -0.6918657
 -42.6546669  23.8145351  -2.1460304 -42.6629295  24.9682274  -1.8010778
 -41.5825310  23.2621098  -2.6808441 -41.5127144  22.2851830  -2.9179025
 -40.3392639  24.0063591  -2.9781880 -40.0576744  24.5389576  -2.0667739
 -39.3096008  22.9296703  -3.3019254 -39.4203339  22.1638565  -2.5388765
 -39.4486656  22.5286865  -4.2511668 -37.8543549  23.4474754  -3.0274961
 -37.9128952  24.1678734  -2.2026625 -37.2460594  22.6061096  -2.7455261
 -37.2465973  24.1164436  -4.2728763 -37.6250038  23.8219376  -5.4198170
 -36.3876457  25.0241871  -4.1341162 -40.5508499  25.0594902  -4.0490408
 -40.1523666  26.2322788  -3.8557258 -41.3140526  24.8230152  -5.1066589
 -41.5457611  23.8443985  -5.3366990 -41.7921448  25.8155079  -6.0378475
 -40.9505997  26.2582951  -6.4936948 -42.5013199  25.1038742  -7.2472296
 -41.7893600  24.4947662  -7.7515230 -43.2824936  24.4424534  -6.8610697
 -43.1845627  26.0707664  -8.1972427 -44.5159340  26.3729115  -8.0369701
 -45.0924263  25.9760876  -7.1796174 -45.1129494  27.2849102  -8.8724432
 -46.1800003  27.4646072  -8.7227945 -44.4243317  27.9386826  -9.9319897
 -45.0554314  28.8387280 -10.7183609 -46.0168495  28.8811569 -10.5513115
 -43.0692329  27.6203461 -10.1219006 -42.4867287  28.0948524 -10.9020901
 -42.4745522  26.6427441  -9.2613583 -41.4767075  26.2884216  -9.4822426
 -42.6614723  26.8989601  -5.4343009 -42.4555626  28.0890923  -5.7714992
 -43.6135178  26.6436596  -4.5368385 -43.7986794  25.6513290  -4.2452469
 -44.3698540  27.7051525  -3.8024762 -44.7900925  28.4078770  -4.4800258
 -45.5007019  27.1262836  -2.9844561 -45.0899925  26.3931103  -2.2944894
 -45.9672127  27.8118401  -2.3105545 -46.6340790  26.4663677  -3.7328312
 -47.4735680  27.1105976  -4.6601624 -47.3969650  28.1035824  -5.0195837
 -48.4847031  26.2379932  -4.9173884 -49.3407974  26.4342289  -5.5702114
 -48.3584785  25.1093082  -4.2058654 -47.1995392  25.2547550  -3.4470282
 -46.7906609  24.5069046  -2.7374575 -43.4233055  28.5192566  -2.8836868
 -43.5127258  29.7670956  -2.7153947 -42.4073753  27.8847485  -2.3259015
 -42.3447876  26.8951130  -2.4805915 -41.4571762  28.4705715  -1.3795327
 -42.0505486  28.9952965  -0.5876026 -40.6307411  27.3907471  -0.6749266
 -39.9564362  26.8341484  -1.3484805 -39.9753838  27.8948326   0.0314552
 -41.2507820  26.6440315  -0.1338338 -40.5545044  29.5497913  -2.0634625
 -40.1483154  30.4785919  -1.4093952 -40.3940163  29.5317173  -3.4098461
 -40.8644180  28.7795944  -3.9234715 -39.6710625  30.5854721  -4.1522379
 -38.6930428  30.7012291  -3.6776326 -39.4588623  30.1387997  -5.6116133
 -40.4351425  30.1690178  -6.2190700 -38.7501869  30.8260651  -6.1053104
 -38.8218727  28.7245159  -5.9226713 -39.4975319  27.9337101  -5.5479126
 -38.7986336  28.6792679  -7.0186148 -37.4246674  28.4162941  -5.3940792
 -37.0913734  27.5321560  -5.9062142 -36.7806282  29.1984253  -5.6401119
 -37.5240898  28.1296349  -3.8546910 -37.7806015  29.0243320  -3.3141615
 -38.3125496  27.3796349  -3.6983123 -36.2241096  27.6408577  -3.3440619
 -35.5178528  28.2505779  -3.7260249 -36.2228165  27.6735802  -2.3441377
 -36.1105652  26.6878586  -3.6842978 -40.3392982  31.9921036  -4.0881305
 -39.6750603  32.9706612  -4.3619680 -41.6556244  32.0827484  -3.7876010
 -42.2046089  31.2495079  -3.6683939 -42.3361931  33.3342705  -3.4654067
 -42.0635796  34.0497246  -4.2385540 -43.8418159  33.0897217  -3.5828331
 -44.1566811  32.3190384  -2.8999612 -44.4130325  33.9876976  -3.3044336
 -44.0152016  32.7967873  -4.6384034 -41.9342194  33.9341583  -2.1156266
 -42.1332893  35.1307335  -1.8621881 -41.3097954  33.1503830  -1.2321320
 -41.1372795  32.1846046  -1.4720623 -41.1556435  33.5054436   0.1815530
 -41.3385735  34.5972939   0.3113354 -42.1071205  32.6148758   1.0647396
 -41.6574059  31.6007614   1.1615334 -42.3463631  33.2519379   2.4365468
 -42.9645233  34.1138496   2.2786500 -42.9025993  32.6236420   3.1683125
 -41.3984680  33.5827980   2.9087374 -43.3514595  32.4016533   0.4187531
 -43.9102707  31.8763447   1.0017869 -39.6889839  33.4017143   0.6527709
 -39.0762062  34.3997993   1.0153788 -39.1692200  32.1618462   0.7154132
 -39.7464256  31.4101696   0.3636731 -37.7302513  31.8659496   0.9730512
 -37.4923630  32.3144646   1.9261979 -37.4465942  30.3646278   1.0537223
 -37.7753754  30.0118103   2.0360928 -38.0838432  29.8794556   0.3327512
 -35.9866180  29.8280792   0.8788189 -35.2475624  30.6106472   1.0060269
 -35.8030052  29.1194057   1.7087723 -35.7580795  29.1669559  -0.4985463
 -35.3188744  29.8760872  -1.4504147 -36.0726585  27.9816418  -0.6020423
 -36.7897644  32.5018616  -0.0935723 -35.8799667  33.2490883   0.2741489
 -37.0686302  32.2608147  -1.3867146 -37.8536224  31.6779881  -1.5838768
 -36.1548538  32.7152290  -2.4328175 -35.1784515  32.5298729  -2.0187960
 -36.1557083  31.9015579  -3.7439713 -36.5714684  30.8885231  -3.5389230
 -36.8320465  32.3905106  -4.4572697 -34.7171936  31.7584267  -4.1869564
 -33.7433777  30.9660149  -3.6653242 -33.8630028  30.3312721  -2.8434265
 -32.6157074  31.0862007  -4.3771272 -31.7307739  30.4688816  -4.2312069
 -32.7891693  31.9522381  -5.3939290 -34.1067924  32.4488220  -5.2069826
 -34.5312500  33.1935043  -5.8843231 -36.3189850  34.2189636  -2.7437739
 -35.2691498  34.8463173  -2.9134111 -37.4826012  34.8585358  -2.5186734
 -38.2957535  34.2798080  -2.3333523 -37.6237831  36.2986412  -2.5332751
 -37.3312683  36.7055931  -3.4898701 -39.1041908  36.6003799  -2.2838457
 -39.7222786  36.0157738  -2.9761705 -39.3856010  36.2867508  -1.2706020
 -39.4285355  38.0940857  -2.4311416 -38.7067795  38.6662216  -1.8548380
 -39.3622284  38.5305595  -3.8939307 -40.1344757  38.0066338  -4.4156761
 -39.5290833  39.5692406  -4.0704560 -38.4007263  38.2949524  -4.3587847
 -40.8036118  38.4131775  -1.8482721 -40.8613396  38.2612762  -0.7940751
 -41.0151825  39.4493408  -2.0980928 -41.5668488  37.7738113  -2.3159070
 -36.6784058  36.9889183  -1.4735066 -35.9495392  37.9301338  -1.7659150
 -36.6197548  36.4334068  -0.2566664 -37.2603264  35.7120285  -0.0186038
 -35.6303940  36.8299904   0.7593924 -35.6623421  37.8786507   0.9404922
 -36.0287018  36.1014099   2.1135323 -37.0036736  36.3773384   2.3996685
 -35.9176483  35.0060616   2.0086672 -35.1337624  36.6075478   3.1294539
 -35.6659164  36.6297493   3.9370463 -34.1982765  36.4562378   0.3615483
 -33.2700081  37.2704735   0.5194045 -33.9880028  35.2903137  -0.2296964
 -34.7618599  34.6151009  -0.2962587 -32.6469078  34.7705498  -0.5841238
 -31.9849701  34.8540344   0.3238412 -32.6987457  33.2755165  -0.9125780
 -33.3334656  33.0590401  -1.7459908 -31.3397770  32.7619209  -1.3311130
 -30.5935020  33.0838776  -0.6238649 -31.3108654  31.6566010  -1.3139811
 -31.1108761  33.0777588  -2.3233166 -33.1820602  32.5393295   0.1841920
 -34.1283913  32.7181664   0.2837006 -32.0184555  35.6287346  -1.7354505
 -30.7800846  35.6601143  -1.9051986 -32.8011627  36.3552589  -2.5308833
 -33.7948570  36.1814423  -2.4938889 -32.3040886  37.3261299  -3.5022724
 -31.7012787  36.8766022  -4.2921457 -33.5305595  37.9695473  -4.2283993
 -34.4832458  37.6085358  -3.8505528 -33.5795517  39.0841713  -4.0798407
 -33.5167923  37.6452599  -5.7670207 -32.6099510  38.0908890  -6.1395473
 -33.4462967  36.1612778  -6.1475134 -34.1940613  35.6373787  -5.6518435
 -33.4957085  36.0706291  -7.2324438 -32.5353851  35.7079659  -5.7806849
 -34.6850281  38.3032913  -6.5091271 -34.7755203  39.3569489  -6.3032508
 -34.5670471  38.1209526  -7.5783520 -35.6370697  37.8673401  -6.1974783
 -31.4391537  38.3873405  -2.8641593 -30.3394241  38.6714058  -3.3543215
 -31.8300838  38.8434639  -1.6838284 -32.7306786  38.5470314  -1.3535684
 -31.0596485  39.7693825  -0.8804304 -30.7628632  40.5741119  -1.5542566
 -31.9164352  40.4006386   0.2382787 -32.6857910  41.0051041  -0.2028583
 -32.3942413  39.6130600   0.8021886 -31.0816975  41.1301651   1.1057056
 -30.8830433  41.8865738   0.6558446 -29.7932930  39.1720505  -0.2890573
 -28.7278194  39.6984024  -0.6062467 -29.9406548  38.0349884   0.3787901
 -30.8749886  37.7138100   0.5785156 -28.7570114  37.1561317   0.7650045
 -28.2592239  37.6130371   1.5896045 -29.2711258  35.7922096   1.3099712
 -30.0168896  36.0851822   2.0694525 -29.7831554  35.2181625   0.5110462
 -28.2152596  34.9063416   1.9488050 -27.4271488  34.6777153   1.2108229
 -27.8009968  35.4752579   2.7896481 -28.7940197  33.5322189   2.4234912
 -28.6496277  32.5359077   1.6995848 -29.3264179  33.5669022   3.5660079
 -27.7072983  36.9253235  -0.3494140 -26.5400696  37.2518501  -0.2056248
 -28.1473923  36.5252419  -1.5259432 -29.1253853  36.3429794  -1.5878462
 -27.3036556  36.2364502  -2.6788151 -26.3962955  35.6751480  -2.2952123
 -28.0447617  35.4422455  -3.7701206 -28.4147625  34.5536957  -3.2699142
 -28.8959217  35.9853058  -4.1573114 -27.1360569  34.9859390  -4.9360385
 -26.9726276  35.8114700  -5.6158471 -26.2402058  34.6006584  -4.4620028
 -27.7540874  33.8144875  -5.7535958 -26.9972229  33.4765167  -6.5003319
 -28.0006199  32.9648743  -5.0223083 -29.0985184  34.1695938  -6.4344668
 -29.7807159  34.6852264  -5.7095504 -28.8907604  34.9410553  -7.2197552
 -29.7052784  32.9723473  -7.0197101 -30.0275230  32.3218575  -6.2989326
 -30.4460258  33.1870003  -7.6328726 -28.9956112  32.4208641  -7.5205283
 -26.5961666  37.5287819  -3.1773787 -25.4072609  37.5272217  -3.5143664
 -27.3577213  38.6374626  -3.3333836 -28.3499222  38.5604897  -3.0597947
 -26.8673916  39.9126587  -3.8509917 -26.2366371  39.7795410  -4.7410803
 -28.0731678  40.7726250  -4.0830545 -28.6503792  40.8862267  -3.1493979
 -27.7369480  41.8018379  -4.3890152 -28.7459736  40.3169632  -4.8012671
 -25.8861370  40.6295357  -2.8541968 -24.9241371  41.2651024  -3.3276083
 -26.0387058  40.4880104  -1.5208231 -26.7835217  39.9163246  -1.1506636
 -25.3253365  41.3370972  -0.4881789 -25.5364456  42.3477898  -0.6878996
 -25.8977776  41.1824951   0.9430254 -26.9371071  41.4134941   0.8816996
 -25.7714062  40.0862694   1.2163892 -25.2911549  42.0886040   2.0106087
 -25.7426453  41.8090897   2.9398251 -24.2779560  41.8332901   2.0151861
 -25.4292202  43.6358223   1.8769575 -25.0757484  44.0044479   0.9344100
 -26.5018196  43.9523697   1.8878653 -24.7762413  44.2831116   3.1170921
 -25.1841202  43.8503647   4.0252714 -23.6795254  44.1172371   3.1338904
 -25.0932693  45.7543755   3.1190803 -26.1164551  45.8504486   3.2285790
 -24.6394348  46.2200508   3.8938544 -24.6696587  46.2440681   2.2883830
 -23.7853985  41.3564110  -0.5834039 -23.2751064  42.4392700  -0.6184724
 -23.0764313  40.2127151  -0.5978475 -23.4975510  38.8235703  -0.1841711
 -24.0685825  38.3213196  -0.9480467 -24.0747471  38.8065758   0.7605469
 -22.1859341  38.0755386   0.1041811 -22.2149086  37.0534554  -0.2446496
 -21.9697800  38.1591492   1.1322895 -21.1146355  38.8281784  -0.7003295
 -21.0320663  38.4471359  -1.7220758 -20.1565533  38.7659454  -0.2059811
 -21.6483765  40.2482834  -0.7130033 -21.2382240  40.7628822   0.1710370
 -21.1855965  40.9370613  -2.0231183 -20.0656872  41.4417229  -2.0795305
 -21.9943218  40.9383469  -3.1015015 -22.9075127  40.5208168  -3.0182676
 -21.6381569  41.7426071  -4.3109088 -20.5434017  41.6415596  -4.5572891
 -22.3095016  41.1130867  -5.4885907 -23.3524799  41.0585556  -5.4073901
 -22.0482635  41.7071762  -6.3164325 -21.9428234  40.1008568  -5.6203241
 -22.0014286  43.2595596  -4.1821294 -21.2444801  44.1041145  -4.6093245
 -23.0809307  43.6167755  -3.4635494 -23.7717476  42.8909264  -3.2729044
 -23.3531170  44.9946976  -3.0693424 -23.3137684  45.6099129  -3.9594569
 -24.7344990  45.1094398  -2.4173551 -25.4863815  44.7851982  -3.1909397
 -24.8536491  44.4070091  -1.6161027 -25.0985317  46.5081825  -1.9241388
 -24.5342350  46.7414551  -1.0274942 -24.8662758  47.6874619  -2.8906164
 -25.4149342  47.5149345  -3.8117707 -25.2515240  48.5506020  -2.3554130
 -23.8240604  47.7551231  -3.1931891 -26.6438770  46.5800171  -1.6796488
 -26.8867474  45.9156227  -0.8228278 -26.9012051  47.6180878  -1.3801275
 -27.2568722  46.2856750  -2.5667963 -22.2640533  45.5076790  -2.0740695
 -21.7371483  46.6319237  -2.1874640 -21.8004208  44.7235641  -1.0724013
 -22.2199459  43.8190651  -0.9460885 -20.7309895  45.0594673  -0.0400143
 -20.9858246  45.9967041   0.4557705 -20.5896740  44.0262642   1.0798240
 -21.6059856  43.7183189   1.4140041 -20.0634174  43.1719246   0.7261169
 -19.7978191  44.5768318   2.3025749 -19.7092476  43.8152084   3.1035163
 -18.8400669  44.8697472   1.9538672 -20.4995823  45.7989883   2.9240084
 -19.8885040  46.8649902   3.1123719 -21.7269497  45.7020645   3.1552482
 -19.3741455  45.2462196  -0.6573796 -18.6441212  46.2172394  -0.3848711
 -18.9623642  44.3551598  -1.5333921 -19.5966873  43.6136856  -1.7421151
 -17.8498440  44.5320168  -2.4992826 -16.9052296  44.4358292  -1.9626076
 -17.9754734  43.4475136  -3.5414352 -17.8076172  42.4610558  -3.0097902
 -18.9666824  43.4150658  -3.9539001 -16.9212246  43.5630112  -4.6296682
 -17.2583694  43.6479568  -5.8237982 -15.7653990  43.4192619  -4.2327843
 -17.9004688  45.8691978  -3.2122865 -16.9104042  46.5931282  -3.3169115
 -19.0816135  46.2090874  -3.7662020 -19.7899570  45.5234680  -3.6690354
 -19.2485924  47.3636398  -4.6539912 -18.3929710  47.3917847  -5.3463802
 -20.4714851  47.2159424  -5.5182309 -20.3592319  46.2520981  -6.0729151
 -21.3644619  47.0546570  -4.8997102 -20.7774391  48.3796883  -6.4599299
 -20.8298206  49.3145218  -5.8863063 -19.7305012  48.5131836  -7.5809536
 -19.6568089  47.6074944  -8.1692333 -20.0169754  49.3594017  -8.2366266
 -18.7595215  48.7419205  -7.2029738 -22.1543617  48.1934700  -7.1133785
 -22.8955364  48.2007256  -6.2924366 -22.3059750  49.0023766  -7.8479586
 -22.1509190  47.2566605  -7.5745482 -19.2407818  48.7775650  -3.9090900
 -18.6866722  49.7363243  -4.3819561 -19.8113136  48.8665924  -2.6937401
 -20.3303070  48.0659828  -2.3355734 -19.6321869  49.9931526  -1.7752504
 -20.0704803  50.9036064  -2.2416172 -20.4642887  49.7025375  -0.5647855
 -21.4964581  49.4562759  -0.8734144 -20.1099110  48.7420731  -0.1490534
 -20.5651760  50.8245316   0.4790261 -19.6041088  51.1656418   0.7514492
 -21.1542721  51.6204147   0.0707350 -21.2946320  50.4240379   1.7847079
 -21.5992622  51.3192787   2.2847118 -22.1660900  49.8304214   1.5577377
 -20.3545856  49.6048508   2.6170149 -20.5866508  48.6304817   2.7079794
 -19.3907146  49.9959183   3.4082272 -18.6396770  49.1073570   4.0000410
 -18.9457951  48.1470947   3.8671813 -17.8444633  49.4373131   4.5431533
 -19.1681004  51.2464752   3.6930730 -19.8740158  51.8659935   3.3398328
 -18.4538937  51.5308800   4.3618450 -18.1348019  50.2562408  -1.3594269
 -17.6703281  51.3801575  -1.1811291 -17.4585762  49.1913185  -0.9598795
 -17.9199867  48.3511581  -1.0670888 -16.1415215  49.2440834  -0.2213579
 -15.5807266  50.1112938  -0.6329876 -16.4361935  49.4916496   1.3211476
 -16.9911938  50.4666214   1.4259089 -17.0883331  48.6627197   1.5982999
 -15.2091618  49.5724525   2.2950368 -15.5688047  49.7739792   3.2901349
 -14.5494452  48.6660805   2.2471066 -14.3837023  50.7994995   1.9221674
 -14.4526577  51.8532982   2.5945878 -13.5703239  50.7482986   0.8677841
 -12.8641710  51.4881134   0.7194024 -13.4710140  49.8622513   0.3347371
 -15.2540531  47.9613342  -0.3618145 -14.0706644  48.1033325  -0.6075907
 -15.8067083  46.7331390  -0.2442952 -16.8080807  46.6760597  -0.2303713
 -15.0379553  45.4621086  -0.1382670 -14.4041576  45.5979195   0.6920618
 -15.7095642  44.6071396   0.0736066 -14.1622305  45.0845795  -1.3351752
 -13.2012787  44.3172226  -1.1650293 -14.3176556  45.6500969  -2.5244830
 -15.2157612  46.1644707  -2.6835289 -13.3743372  45.6070137  -3.6594007
 -13.1859388  44.5240593  -3.8207521 -14.0670958  46.2298393  -4.8988690
 -15.0155268  45.7649307  -5.0502248 -14.2633638  47.3045349  -4.6642261
 -13.1446133  46.2097626  -6.1114626 -12.2940531  46.8539085  -5.8531113
 -12.7018347  44.8475227  -6.6239161 -13.5190296  44.1560059  -6.8667550
 -12.1851358  45.0423012  -7.5190096 -12.1603603  44.3263626  -5.8903146
 -13.9288006  46.8157768  -7.3086700 -13.9696426  47.8715477  -7.1949630
 -13.3661766  46.7106018  -8.2179270 -14.8888988  46.3258133  -7.3667436
 -12.0325174  46.2687912  -3.3753550 -11.0106049  45.7601509  -3.8797281
 -12.0027161  47.3995171  -2.6942267 -12.8003998  47.7178764  -2.1531327
 -10.8262100  48.2575378  -2.6080940 -10.5678806  48.5010490  -3.6558387
 -11.2566490  49.5706406  -1.8931936 -11.8783770  50.0578651  -2.6455579
 -11.8224354  49.3827209  -0.9947806 -10.1407242  50.5639610  -1.5733753
  -9.3380442  50.5167007  -2.3413043 -10.7278452  51.9972610  -1.6025305
 -11.6026678  52.0527992  -0.9625578 -10.0057526  52.7290573  -1.2135539
 -10.9985914  52.2444115  -2.5983582  -9.5564575  50.3885422  -0.1675789
  -9.1954536  49.3666687  -0.0187516  -8.7054281  51.0759392  -0.0340998
 -10.2847776  50.6546249   0.5929822  -9.5377026  47.5675201  -2.1100662
  -8.5658159  47.7378616  -2.7828801  -9.5587234  46.7234993  -1.0670179
 -10.6532688  46.4424362  -0.1793353 -11.2735891  45.6183014  -0.5513839
 -11.2496223  47.3535957   0.0757156 -10.0155878  45.9477959   1.0670696
 -10.6727047  45.2551994   1.5979551  -9.7335138  46.7697220   1.6997594
  -8.8322620  45.1724205   0.6418001  -9.2160854  44.2898331   0.2491382
  -8.0685415  45.0828629   1.4335798  -8.3592911  46.0397758  -0.4946604
  -7.7175784  46.8481026  -0.1227874  -7.6185637  45.2262650  -1.5574055
  -6.3862753  45.2744637  -1.6486335  -8.3583393  44.5797424  -2.4338210
  -9.3534012  44.5616722  -2.3218937  -7.8334265  43.8953743  -3.6350279
  -7.1692152  43.1294975  -3.2545259  -8.9305525  43.2270432  -4.4876537
  -9.6046171  43.9280853  -4.9191179  -8.3231621  42.4728584  -5.7051892
  -7.6398683  41.6455688  -5.3455992  -9.1223106  42.0675812  -6.2783117
  -7.7415013  43.1551704  -6.3213391  -9.7784986  42.3103333  -3.6257782
 -10.4431486  42.8585396  -3.0214071 -10.4520798  41.6604080  -4.2133446
  -9.1829243  41.6355095  -2.9919415  -7.0992522  44.8703156  -4.5324125
  -5.9337163  44.6974716  -4.7554107  -7.7731185  45.9157181  -5.0055342
  -8.7829609  45.9899521  -4.8931332  -7.1023841  46.8453979  -5.9249787
  -6.7035604  46.3278809  -6.7684765  -8.1327362  47.8932152  -6.4758010
  -8.3182945  48.6653099  -5.7501516  -7.6322393  48.3389740  -7.3225398
  -9.4851694  47.3250542  -6.9276257 -10.0069561  46.8994522  -6.0696764
 -10.3940115  48.5029030  -7.3383088  -9.9273787  49.0489159  -8.1640148
 -11.3853188  48.1806259  -7.6130686 -10.4551687  49.1829071  -6.4849467
  -9.3470755  46.3509178  -8.1024914  -8.8633871  45.4564629  -7.7765856
 -10.3712454  46.1079826  -8.4207201  -8.8430395  46.9023857  -8.9203854
  -5.9320841  47.6389275  -5.2748699  -4.8853774  47.9117928  -5.8584123
  -6.1283994  48.0886078  -4.0190034  -6.9286795  47.7586060  -3.5418153
  -5.0830169  48.7002029  -3.1968784  -4.7871580  49.6641769  -3.6941075
  -5.6464014  49.1756401  -1.8321346  -6.4995241  49.8115616  -2.0403855
  -6.0055823  48.2921181  -1.2940186  -4.7117872  49.9469376  -0.8711660
  -5.3033600  50.1672707   0.0965947  -3.9090178  49.2406807  -0.5627677
  -4.2727375  51.2437477  -1.6080704  -5.0449252  52.2109947  -1.7274140
  -3.1145291  51.3001976  -2.0691762  -3.8390992  47.8290596  -3.0357695
  -2.7233315  48.2296906  -3.3470652  -4.0223641  46.5513000  -2.6726441
  -4.9008756  46.2155151  -2.2805147  -2.9148362  45.5995369  -2.7337801
  -2.1692667  45.8635941  -1.9643325  -3.4284558  44.2201424  -2.3431740
  -4.2243266  43.8821259  -2.9683640  -2.5975106  43.5057678  -2.4398842
  -3.8894095  44.1235695  -0.9972181  -4.7980394  44.4653397  -0.9471155
  -2.1674933  45.5350075  -4.0774636  -0.9491125  45.3259239  -4.0841589
  -2.8389595  45.7126808  -5.2529025  -3.7948582  45.8979950  -5.2359910
  -2.1649270  45.7565346  -6.5883942  -1.4514529  44.9305305  -6.7309456
  -3.1242142  45.5306244  -7.7671175  -3.4612331  44.5154610  -7.7626095
  -4.0644336  46.0800247  -7.5749311  -2.6603212  45.8592567  -9.1924829
  -2.0576091  44.8020592  -9.9404783  -1.9409003  43.7986374  -9.5014887
  -1.5014544  45.0502739 -11.1850939  -0.9603261  44.2966690 -11.7451572
  -1.6727306  46.3293419 -11.7609539  -1.2282991  46.5449753 -12.7364912
  -2.3295321  47.3490372 -11.0481272  -2.3315384  48.3514862 -11.4210520
  -2.8433657  47.1290359  -9.7552023  -3.2441664  47.8966904  -9.1354523
  -1.2265315  46.9896660  -6.7932520  -0.1357773  46.8876228  -7.3000908
  -1.6966265  48.1033478  -6.3179646  -2.6599596  48.0535316  -5.9915690
  -0.9593608  49.3808212  -6.2490129  -0.4776031  49.5834694  -7.2222881
  -1.9688597  50.5325165  -5.9804177  -2.7703044  50.4753304  -6.6869998
  -2.4088092  50.4521027  -4.9781537  -1.3633345  51.9602776  -5.9776211
  -0.8971372  52.1670341  -5.0018005  -0.6299775  52.0049248  -6.8140621
  -2.4409044  53.0155182  -6.2649088  -2.0945761  53.9998665  -6.3458705
  -2.7081904  52.7030525  -7.2744603  -3.7329028  53.0243111  -5.3700824
  -4.3884616  53.7777901  -5.8024116  -4.3033571  52.0883522  -5.4353757
  -3.4333849  53.3598900  -3.9459596  -4.3252249  53.4362869  -3.4444559
  -2.8694334  52.7102127  -3.4023750  -3.0267096  54.3317490  -3.8836613
   0.1554258  49.3085136  -5.1803217   1.2527366  49.7573433  -5.4789119
  -0.1276719  48.7765083  -3.9943871  -1.0844665  48.5178185  -3.7602160
   0.9234425  48.4392509  -3.0178714   1.3473917  49.3945351  -2.7138939
   0.3310445  47.6964798  -1.8342847  -0.4094471  46.9729576  -2.0827525
   1.3784708  46.9179993  -1.0590450   2.2722161  47.4765549  -0.9362575
   1.0532238  46.4830551  -0.1101951   1.5659362  46.0434799  -1.6646199
  -0.2821057  48.6766472  -0.8764161  -1.0165526  49.2972755  -1.3880707
  -0.7193649  48.0536728  -0.0745604   0.4886529  49.3791924  -0.5348693
   1.9616212  47.6205406  -3.7805483   3.1154201  47.9845009  -3.7736940
   1.5741192  46.6033020  -4.5412812   0.6349469  46.2436256  -4.4234467
   2.5240741  45.7396698  -5.2338858   3.1660366  45.3471336  -4.4032855
   1.7526715  44.6364403  -6.0037727   0.9565555  44.2099724  -5.3835440
   1.3379658  44.9808273  -6.9723268   2.7015855  43.6184311  -6.3363166
   2.4795895  42.8315163  -5.8500075   3.5088575  46.4901047  -6.1809740
   4.6813993  46.1535454  -6.2361808   3.0251083  47.5169716  -6.8606477
   2.0181725  47.6823044  -6.8597775   3.8747847  48.4374580  -7.6981945
   4.3848948  47.7996979  -8.4232168   2.9973867  49.4225693  -8.4138422
   2.4261048  48.9349022  -9.2257805   2.2531857  49.8069801  -7.7747540
   3.7982302  50.5137863  -9.1444511   4.4502649  50.2208366 -10.3547716
   4.3996415  49.2317810 -10.7056274   5.2091646  51.2543449 -11.0257874
   5.7217836  51.0399971 -11.9662714   5.2304549  52.5674820 -10.4740477
   5.7681522  53.3616066 -10.9996567   4.6174078  52.8450813  -9.2360859
   4.6307921  53.8843880  -8.8699732   3.9330056  51.8201637  -8.5184965
   3.4526727  51.9872627  -7.5530696   4.9642482  49.0942841  -6.8164406
   6.1579800  48.9864769  -7.0402679   4.5458479  49.7083282  -5.6905851
   3.5806224  49.6326294  -5.4088016   5.4508471  50.4936943  -4.7926106
   6.0514827  51.1449013  -5.4133077   4.6666207  51.4092979  -3.8241017
   4.0325108  50.7823524  -3.1922913   5.4210515  51.8868103  -3.1235468
   3.7463500  52.4400406  -4.4534903   3.1946816  51.9391708  -5.2996640
   2.7597520  52.9921913  -3.4224532   3.3222744  53.3333206  -2.5219679
   2.1708226  53.8312492  -3.8558290   2.0773346  52.1809425  -3.1315305
   4.5485778  53.5851250  -5.0563478   5.3338714  53.1743660  -5.7274384
   3.9121745  54.2913971  -5.6356173   5.0978069  54.1747856  -4.3150349
   6.3947802  49.5610199  -3.9897511   7.5503855  49.9134102  -3.7239485
   5.9953828  48.3460999  -3.6382592   5.0081110  48.0894852  -3.8186584
   6.7825623  47.3162613  -2.9455426   7.4010925  47.7358017  -2.1738770
   5.8030634  46.3226280  -2.3185763   4.9645224  46.8221283  -1.8355333
   5.3418088  45.6561089  -3.0704918   6.3962278  45.4297791  -1.3616275
   6.4358816  45.9701996  -0.5280473   7.8039975  46.5888939  -3.8613143
   8.9023361  46.2805328  -3.4088614   7.5202608  46.4180031  -5.2021165
   6.6344185  46.7068939  -5.5284362   8.4885445  45.9639130  -6.2043104
   8.8739767  44.9622917  -5.9203286   7.8287964  45.7959137  -7.5976224
   7.4871011  46.7615891  -7.8831525   8.5891094  45.3871956  -8.2614079
   7.0030546  45.1265182  -7.5332351   9.7118263  46.8951569  -6.2912602
  10.8215923  46.4273071  -6.6029887   9.5492344  48.2120209  -6.0710835
   8.6007996  48.5748253  -5.8489947  10.6170893  49.1927910  -6.0509105
  11.0877218  49.0644150  -6.9551177  10.1189995  50.6405258  -6.0044546
   9.7257729  50.8276901  -5.0291586  10.9634676  51.3967476  -6.0608912
   9.0567503  50.9956131  -7.0304308   8.1982813  50.3603821  -6.9184451
   8.5235825  52.4006424  -6.7995806   9.3355036  53.0751991  -6.8028278
   7.7727838  52.6824226  -7.5553703   7.9746699  52.4966278  -5.8477407
   9.5574942  50.9848366  -8.4507389  10.0085258  50.0094566  -8.6157084
   8.7571564  51.1920776  -9.1467037  10.3358994  51.6992569  -8.5664539
  11.6970863  48.8908195  -4.9659891  12.8677521  49.2028008  -5.1634383
  11.3461227  48.3136749  -3.8109760  10.3435001  48.2009125  -3.6617589
  12.3115549  47.9141083  -2.7917013  12.8912554  48.7722969  -2.4558468
  11.4889345  47.4426231  -1.5912949  10.6257238  48.0794525  -1.4063584
  11.1381683  46.4428406  -1.8232424  12.3849688  47.2666893  -0.3429240
  13.3432217  46.8183975  -0.6210795  12.5822315  48.2841454   0.1015871
  11.7093315  46.3166847   0.7297044  12.3597050  45.4241180   1.2555574
  10.5313797  46.5485725   1.1157833  13.2968044  46.8056946  -3.2061853
  14.5227337  46.9610062  -3.0183091  12.8194714  45.6860313  -3.8045940
  11.8045378  45.5578804  -3.8720515  13.6716213  44.6671448  -4.4304523
  14.3983517  44.3805656  -3.6689129  12.8493013  43.4067001  -4.8102212
  11.9508076  43.6633110  -5.3695483  13.3591452  42.6986694  -5.4593210
  12.3780966  42.6773682  -3.5325625  11.8411970  43.4101448  -2.9967735
  11.8812027  41.7753830  -3.8440356  13.5863590  42.1209145  -2.7275016
  13.5667658  42.2593117  -1.4992645  14.5395002  41.6274452  -3.3735275
  14.4424629  45.1537285  -5.6776400  15.5828276  44.7610054  -5.8324409
  13.8679886  46.0764084  -6.4670367  12.8977776  46.3000832  -6.2822323
  14.5611954  46.7808876  -7.5945950  15.0191784  46.0185051  -8.2469215
  13.5425034  47.5915298  -8.4042749  13.2040606  48.4143066  -7.7992649
  14.1136932  48.0312958  -9.1792097  12.3949089  46.8320465  -9.0182314
  12.4076042  45.4338493  -9.2206879  13.2359457  44.8531723  -8.8648968
  11.4435215  44.8118362 -10.0410643  11.5232668  43.7382965 -10.2864161
  10.3720236  45.5740585 -10.5021667   9.4701605  44.9673233 -11.3302221
   9.7001944  44.0343132 -11.4172077  10.3100739  46.9658699 -10.2574682
   9.5050583  47.5282135 -10.6833353  11.3688803  47.6134682  -9.5693045
  11.4111652  48.6803017  -9.4793348  15.7073603  47.6592674  -7.0519094
  16.7883415  47.7763939  -7.6772146  15.4932423  48.2508049  -5.8652687
  14.6293440  48.1625328  -5.3730392  16.5050583  49.0619469  -5.1540575
  16.8249054  49.7708168  -5.9062028  15.9777851  49.8440514  -3.9367845
  15.4988241  49.1820755  -3.1537919  17.1181221  50.6420174  -3.2375643
  17.5915546  51.2776642  -4.0329418  16.6747017  51.2828979  -2.5495911
  17.7662430  49.9170837  -2.7637050  14.9702835  50.7665977  -4.3566012
  14.3195724  50.1954422  -4.7952328  17.6938419  48.1851006  -4.7479358
  18.8103333  48.5544243  -5.1094179  17.4381065  47.1191368  -4.0131183
  16.4632244  47.1062546  -3.6809256  18.4249134  46.1184921  -3.6389103
  19.1054134  46.6819077  -2.9880431  17.7482204  45.0118294  -2.7945046
  17.0376549  44.5441856  -3.4538021  18.4259033  44.2378197  -2.5048230
  17.0245285  45.5084419  -1.5251535  17.7358723  45.7949486  -0.7540828
  16.3337631  46.3054237  -1.7690723  16.1894073  44.3091545  -0.9258273
  15.6047058  43.9327202  -1.7816287  16.8324966  43.4921684  -0.5252296
  15.2313957  44.7968254   0.1066752  15.8038855  45.2386246   0.9113186
  14.6094341  45.4966545  -0.3352031  14.3764801  43.6951447   0.6466311
  14.9027653  43.1357918   1.3200945  13.5651865  44.1317596   1.0363059
  14.0336027  43.0313835  -0.0760479  19.2415314  45.5767593  -4.7952061
  20.4685574  45.4697227  -4.6682482  18.5407143  45.2208900  -5.8786678
  17.5615654  45.2412834  -5.9067945  19.2411671  44.6293793  -6.9961138
  19.7877636  43.7987747  -6.5618415  18.2366848  44.1150665  -8.0120010
  17.4839706  43.5339775  -7.4908490  17.7568722  44.9417076  -8.4652443
  18.8894577  43.1140327  -9.0515299  19.7974243  43.5611115  -9.5252981
  19.2052383  42.2179794  -8.5463037  17.8739185  42.7190933 -10.1579866
  18.1520844  41.7652664 -10.5532637  16.8672333  42.5946274  -9.6602211
  17.8240376  43.7391319 -11.3906956  16.7837963  43.5889244 -11.8563232
  17.8559475  44.7658577 -11.0378923  18.9123211  43.4530983 -12.3655643
  18.8929214  42.5473022 -12.8631010  18.9436493  44.1463814 -13.0625553
  19.8222408  43.4648552 -11.9215059  20.2906818  45.6242943  -7.5169048
  21.4877357  45.3178635  -7.5871177  19.8922443  46.8617973  -7.9098897
  18.9207993  47.0914040  -7.8564906  20.7997150  47.8449326  -8.4631948
  21.3762569  47.3844223  -9.2097626  20.0051022  49.0250854  -9.1126804
  19.4339409  49.5060043  -8.3285236  20.6308975  49.7251511  -9.5960808
  18.9574757  48.6244431 -10.2191486  18.1533089  48.0470886  -9.7575493
  18.3324585  49.9060631 -10.7830343  19.0771198  50.5278816 -11.2598343
  17.4913998  49.6254883 -11.4280186  18.0323639  50.4879951  -9.9232492
  19.6426468  47.8520546 -11.3341103  19.7346001  46.7716599 -10.9742565
  19.0352154  47.9486122 -12.1900835  20.5834560  48.3660507 -11.5982113
  21.8656139  48.3654022  -7.4478097  23.0101948  48.6823654  -7.9112825
  21.5333080  48.4449730  -6.1413546  20.5581360  48.4457436  -5.8402581
  22.5235977  48.7181549  -5.1028781  23.0778332  49.5495186  -5.4302950
  21.7652397  48.9102707  -3.7709544  20.9611053  49.6592293  -3.9970086
  21.3151264  47.9579163  -3.4888103  22.6668587  49.4541931  -2.6268082
  22.8998108  48.8395348  -1.5689900  23.0769081  50.7026443  -2.8240337
  23.6021824  51.1880341  -2.1112854  22.8840618  51.1348915  -3.7036393
  23.5600300  47.5850716  -4.8971486  24.6335583  47.8939247  -4.3249912
  23.3158855  46.3264503  -5.3300114  22.4303532  46.0926399  -5.7623158
  24.1286755  45.1234131  -4.9463768  25.0557823  45.4760208  -4.4986691
  23.4626694  44.3050423  -3.8247440  24.1859074  43.4607697  -3.5194981
  23.1864338  45.1443176  -2.5992320  22.4332447  45.8987389  -2.7169011
  22.6908340  44.4667625  -1.9239627  24.1386013  45.5092964  -2.1871502
  22.3394394  43.5988197  -4.2593999  21.6151237  44.2371025  -4.2703242
  24.5884781  44.1829681  -6.0589857  25.4094715  43.3238449  -5.7249022
  24.1321602  44.2949677  -7.3055644  23.4006672  44.9451790  -7.5130410
  24.6414776  43.5314407  -8.4663963  24.7544575  42.4615707  -8.1786404
  23.6152935  43.5041275  -9.6250343  22.6337738  43.1344223  -9.3264008
  23.5145454  44.5217094  -9.9867554  24.1268272  42.6792946 -10.8100977
  25.1885586  43.0537376 -10.9952726  24.0057087  41.6287422 -10.5675306
  23.2600574  42.9434662 -12.0222626  22.0071049  42.9591331 -12.0143642
  23.8260822  43.2558289 -13.1683559  23.2434959  43.3971405 -13.9567652
  24.8066311  43.3643303 -13.2355700  26.0237522  44.1617813  -8.9148254
  26.0513000  45.2903824  -9.4291039  27.0987415  43.5447464  -8.6747723
   3.0478129 -33.1990547  -0.4905090   3.3489349 -32.2109947  -0.7763087
   1.9940280 -33.1703606  -0.0557899   3.0346825 -33.8449249  -1.3959005
   4.0810199 -33.6793098   0.5150568   4.0897079 -32.9551392   1.3160722
   5.0531316 -33.6553993   0.0868429   3.7904952 -35.0759735   1.0815723
   4.6887355 -35.3516312   1.6655015   3.7017977 -35.7067184   0.2049926
   2.4651785 -35.2514305   1.8768395   1.5722762 -35.2452965   1.2171744
   2.3439481 -34.3786774   2.5389602   2.2949030 -36.5800743   2.6261020
   2.2262714 -37.3416939   1.8396800   1.2830737 -36.5873032   3.0506752
   3.3003352 -36.9790688   3.7610176   4.3352513 -36.8668327   3.4725211
   3.1601551 -38.0313644   3.9793994   3.0349312 -36.1420135   5.0201106
   2.0348456 -36.3238068   5.3723736   3.0829382 -35.0822792   4.7584243
   4.0421810 -36.4699821   6.1279688   5.0664659 -36.4107475   5.7179780
   3.8867068 -37.5303879   6.3448544   3.9921603 -35.5995598   7.4131207
   3.6955342 -34.5763893   7.2370334   4.9838552 -35.4876366   7.9113493
   3.0072145 -36.2366714   8.4153833   3.3440897 -37.2774048   8.6467094
   2.0231576 -36.3700142   7.9444175   2.8788493 -35.3464432   9.6774187
   2.5185201 -34.3097458   9.4923458   3.8418720 -35.1162605  10.1447153
   1.9654970 -35.9922562  10.7486916   1.0234101 -36.1773987  10.2851686
   1.8275641 -35.2726822  11.5739689   2.4862621 -37.2788086  11.3774118
   3.5662589 -37.1927338  11.6168394   2.3972147 -38.0777473  10.6782112
   1.6753366 -37.7997665  12.5728788   0.6087934 -37.9359741  12.3292847
   1.6619582 -37.0422897  13.3377829   2.1722941 -39.1328087  13.1897793
   1.6939468 -39.2339096  14.1734743   3.2021663 -39.0015869  13.3765564
   1.9054499 -40.3531303  12.3914804   1.5412455 -40.3992157  11.2268629
   2.0205495 -41.4457664  13.1478176   1.9192470 -42.7620277  12.5253954
   1.3040895 -42.7401390  11.6409817   1.3405544 -43.4273338  13.1296816
   3.3359363 -43.3536301  12.2849865   3.1202686 -44.2951546  11.7194595
   4.1054678 -43.8675690  13.5678864   5.1648564 -44.0702629  13.3426895
   3.6464729 -44.8357964  13.8071451   4.0177708 -42.9334412  14.7336378
   3.3716509 -43.3937683  16.1553879   1.8216128 -43.1244431  15.9161139
   1.2417047 -41.8744812  16.3130913   1.9855869 -41.1504593  15.9472933
   1.1033125 -41.7184601  17.3674564  -0.0705586 -41.7347527  15.5290222
   0.1282429 -42.0353699  14.4878244  -0.3828976 -40.6649246  15.4769049
  -1.3118917 -42.4900017  15.9727945  -1.1441065 -44.0081787  15.8620491
  -1.0623063 -44.1659546  14.8040428  -1.9688934 -44.5295563  16.2831287
  -0.2346838 -44.2668343  16.3620548  -1.5993451 -42.1593285  17.3826542
  -1.8325483 -41.0625114  17.4815025  -0.7282515 -42.4744644  17.9684277
  -2.4590518 -42.7346497  17.7197247  -2.3944345 -42.1115532  15.0322742
  -2.6598718 -41.0674133  15.1591244  -3.3021407 -42.7587471  15.2537069
  -2.0249708 -42.2018967  13.9903889   3.6274745 -44.8691902  16.3642902
   3.8764319 -42.3985863  17.1771584   4.0975409 -42.4771881  11.4554348
   5.0158982 -43.0296745  10.6914721   5.4492497 -44.1812096  10.8366766
   5.5630302 -42.1186829   9.6070518   5.6362195 -41.1510849  10.0920286
   6.5660233 -42.4614105   9.3668671   4.6043205 -41.9702377   8.4384642
   4.4392099 -42.9204216   8.0067530   3.6253536 -41.5491905   8.7607946
   5.1101470 -40.9387817   7.4092245   5.3409624 -39.9848328   7.8954549
   6.0576558 -41.2889290   6.9736252   4.0646486 -40.6506119   6.3164573
   3.2174895 -40.3840256   6.9226069   4.3080549 -39.7117691   5.7891660
   3.7758136 -41.8344536   5.3989406   4.4488196 -41.7839470   4.4962583
   3.9539311 -42.8057518   5.9328346   2.3592627 -41.8475685   4.9907718
   2.2202888 -42.5867119   4.2126775   1.7176254 -42.1544075   5.7902551
   1.8240975 -40.4790268   4.4883022   1.8049330 -39.7359657   5.2505727
   2.4670024 -40.1371384   3.6534522   0.4129485 -40.6798019   3.8926601
   0.3702380 -41.2982521   3.0093050  -0.7065029 -40.2088547   4.4671946
  -1.6301842 -40.5157814   4.0052729  -0.8904863 -39.3879128   5.7051468
  -1.8693500 -39.5739708   6.1279745  -0.1793976 -39.6819649   6.4705472
  -0.5483731 -37.9054031   5.3645878  -0.1876573 -37.4292679   6.2314053
   0.3614269 -37.7680054   4.6961246  -1.6777661 -37.0621071   4.7722092
  -2.3878999 -36.7628441   5.5653853  -1.1699872 -36.1311874   4.4697037
  -2.3838482 -37.7299156   3.5681140  -1.6002434 -37.9986115   2.8711593
  -2.8942611 -38.6425667   3.8363800  -3.3777003 -36.7266159   2.9160903
  -4.0387859 -36.3590202   3.6844800  -2.8295968 -35.8762512   2.5273154
  -4.1425366 -37.3993263   1.7854679  -4.8658190 -38.0715675   2.2310848
  -4.8098550 -36.6193924   1.3234478  -3.2983434 -38.0846863   0.6885170
  -2.7286325 -37.3363914   0.1317989  -2.6056550 -38.7554245   1.2132548
  -4.3529439 -38.7932472  -0.1439798  -3.8431787 -39.4277115  -0.8662411
  -4.9387469 -38.1003876  -0.7483552  -5.0708241 -39.3640556   0.4713111
  19.6462364  37.0771561  -0.6582782  20.3480263  37.8224487  -1.0587873
  20.0796547  36.1254044  -1.1045135  19.6970348  37.0295372   0.4287024
  18.2143059  37.1989479  -1.2316892  17.6817741  36.3304214  -0.8974724
  18.3031673  37.0688744  -2.3049412  17.4290905  38.4767838  -0.9174847
  16.5390358  38.4301949  -1.5310497  18.0788994  39.3166771  -1.2042054
  17.0538254  38.6187859   0.5765215  17.8644390  38.8912392   1.1930532
  16.7753696  37.5998993   0.8800313  15.8621130  39.5532379   0.8691588
  15.0024929  39.2056351   0.2343919  16.1597786  40.5409431   0.5263888
  15.3734207  39.5934334   2.3201864  14.5401297  40.3150558   2.3354557
  16.1250896  40.0111732   3.0168164  14.9083347  38.2688370   2.9402492
  14.6633282  38.3942070   4.0056472  15.6672525  37.4715347   2.8515980
  13.6461449  37.6815605   2.2731576  13.7231731  37.7391281   1.1787148
  12.8367863  38.3949165   2.5594692  13.2931948  36.2749748   2.6648591
  14.0657177  35.5782547   2.3480399  12.3647556  36.0984802   2.1228437
  13.0266562  36.1134033   4.1926198  12.1013775  36.6676178   4.4998112
  13.8809004  36.5305634   4.6660089  12.9929790  34.6188965   4.5848937
  13.9700813  34.1991005   4.3020039  12.2152157  34.0908508   4.0083756
  12.7556715  34.5133743   6.0849786  13.3733263  35.2570686   6.6187377
  13.1380262  33.5603294   6.4060073  11.2516203  34.6057167   6.4179192
  10.6641397  33.9801292   5.7909470  10.9549770  35.6486206   6.2479811
  10.9274855  34.1923218   7.8922324   9.8645449  34.3453140   7.9533076
  11.4002886  34.8971596   8.5748997  11.2790833  32.7573929   8.3311682
  12.3379650  32.5328255   8.2573595  10.7658854  31.9917679   7.6707058
  10.9681282  32.4794540   9.7709856   9.8844223  32.1769638  10.2725973
  12.0350161  32.6921921  10.5758810  11.9758024  32.4105873  12.0286674
  11.0882301  32.8949585  12.4461117  12.8428068  32.8822632  12.5425158
  12.0434084  30.8731060  12.2452173  11.3785210  30.3959770  11.5850725
  11.7274113  30.3991299  13.6581898  11.9259787  29.3547478  13.7563286
  10.6391277  30.5185814  13.8769646  12.5013313  31.1560936  14.6468058
  13.2597599  30.4008408  15.8698769  12.0814362  30.0413399  16.8815212
  11.4575310  31.0196190  17.6701298  11.1698666  31.9147282  17.0596542
  12.1769161  31.3722591  18.4499073  10.1895609  30.4311981  18.3131409
   9.7717581  31.1864395  18.9815083  10.4540844  29.5485897  18.9011440
   9.1601391  30.0443630  17.3408718   8.8236008  31.0523987  16.2651558
   8.4464436  31.9879990  16.7457466   8.0153790  30.6959133  15.6569624
   9.6988430  31.2508564  15.6594477   9.4168987  28.7553635  16.6649609
   9.6688976  27.9451847  17.3495560  10.3426256  28.9458828  16.0397453
   8.6090565  28.4318943  15.9861946   7.9392729  29.7727680  18.0920086
   8.1493006  29.0005417  18.8228397   7.1512032  29.3730469  17.4097996
   7.5564713  30.7151642  18.5495739  13.7557468  29.1416588  15.2758560
  14.1650124  31.3493519  16.5588665  13.3805857  30.4309578  11.8434925
  13.4634171  29.2180805  11.2449265  12.5939274  28.4195366  11.1939421
  14.7612391  29.0554028  10.4808340  15.2919531  30.0139332  10.4256487
  15.4264355  28.3873348  11.0359669  14.6073389  28.3775177   9.0875092
  15.6245279  28.3039856   8.6404467  14.1797028  27.3853874   9.2409077
  13.6310310  29.1438522   8.1577911  12.6463499  29.3833809   8.5489445
  14.1092720  30.1009560   7.9083929  13.3700771  28.3276157   6.8588042
  14.3084278  28.2285042   6.3799596  12.9320326  27.3754349   7.1024756
  12.4137726  29.0522499   5.8687921  12.0079794  28.3688774   5.1289272
  11.5719738  29.4297199   6.5080543  13.0010834  30.2973747   5.0797009
  12.2578039  30.7593136   4.4629931  13.4308681  31.0747375   5.7464085
  14.1510973  29.8502388   4.1989570  15.0995388  29.6573048   4.7444897
  13.7978096  28.9356041   3.7556245  14.3591518  30.8774738   3.1089284
  14.2813225  31.9636154   3.3517597  14.4145823  30.5918674   1.8199648
  14.5070639  31.4293175   1.1904063  14.5355330  29.2862797   1.0309268
  15.3106174  29.3263435   0.2690212  14.8882713  28.5214329   1.7475371
  13.1669798  28.8894825   0.4431837  12.8941097  29.6890278  -0.2980517
  13.2555819  27.9746799  -0.1332575  11.9899931  28.7561226   1.4351319
  12.3261166  28.2153435   2.3674946  11.6375208  29.7480221   1.7587203
  10.7775354  27.9378166   0.9740668  11.0708618  26.8732662   0.8884207
  10.0876865  28.0422955   1.7792132  10.1848068  28.5340996  -0.2981071
   9.6181622  29.4259949  -0.0018645  10.9563313  28.8756599  -1.0444651
   9.2644396  27.5870018  -1.0705662   9.9003363  26.7733994  -1.3332958
   8.4889021  27.1684074  -0.3976831   8.6264210  28.1801109  -2.3608711
   7.9380751  29.0051365  -2.0873091   9.3690071  28.6282654  -2.9763651
   7.8437490  27.1112671  -3.2174728   7.6403618  27.4841690  -4.2139254
   6.8731160  26.8004131  -2.7665076   8.4711237  26.1945000  -3.3168623
   2.2648995 -13.0342627   1.4700332   2.5244224 -11.9857655   1.5482885
   1.9860004 -13.4577312   2.4333074   1.3502352 -13.1401825   0.8830329
   3.4602582 -13.7898550   0.9384167   4.3434649 -13.4441748   1.4347653
   3.6176226 -13.5124102  -0.1115929   3.2829881 -15.3314972   0.9683729
   3.9394026 -15.7878256   0.2139521   2.2531238 -15.4853115   0.6768305
   3.4878616 -15.8722601   2.3767872   2.8813555 -15.2415552   3.1071143
   4.5287399 -15.7884026   2.6136386   3.0869989 -17.3346500   2.4817209
   3.6575530 -17.8613396   1.7268622   2.0278854 -17.4595680   2.1560230
   3.3647597 -17.9362164   3.8711927   4.3814478 -17.8452568   4.2027602
   3.2012739 -19.0084457   3.7405107   2.4057155 -17.4324799   5.0003142
   1.3439481 -17.5337372   4.6556764   2.5572255 -16.3690033   5.0302978
   2.5824723 -18.0865726   6.3779259   3.6688063 -18.1207180   6.6043811
   2.2631154 -19.1670341   6.2325020   1.8462529 -17.4299030   7.5225549
   0.8186739 -17.2037640   7.2839828   2.3715990 -16.4873524   7.7431326
   1.9247280 -18.3091335   8.7941551   2.8866639 -18.7739792   8.8988743
   1.1656537 -19.1177731   8.6982050   1.7006146 -17.5175343  10.0863266
   0.6361524 -17.2533035  10.1955433   2.2910299 -16.5962086  10.0581350
   2.0622354 -18.3858261  11.3515463   3.1635385 -18.3496304  11.4952755
   1.8845118 -19.4520912  11.1931953   1.3873671 -17.9995651  12.6452484
   1.3102196 -16.8945293  12.7452421   1.9752162 -18.3669930  13.4329596
  -0.0691774 -18.5377331  12.8770838  -0.0520963 -19.6306973  12.7383432
  -0.7747556 -18.1273613  12.1024151  -0.4782530 -18.1905746  14.3516073
  -0.5903752 -17.0690517  14.3808708   0.3007877 -18.5394707  15.0447502
  -1.7256032 -18.9073982  14.8319712  -2.7765248 -18.3493690  15.1335449
  -1.5289850 -20.2180595  15.0162373  -2.5870657 -21.1219883  15.4513540
  -3.3615396 -21.1439610  14.6943493  -3.0181980 -20.8182602  16.3768501
  -2.0180831 -22.5344200  15.5451479  -2.7451715 -23.1326962  16.0583458
  -0.6143162 -22.6148396  16.3124771  -0.0800466 -21.6654701  16.2178001
   0.0049996 -23.4844513  15.9551849  -0.8507431 -22.8841209  17.7350559
  -0.9413548 -24.4305210  18.3001289   0.5494810 -25.0234699  18.1440887
   1.6190530 -24.6360111  18.9972706   1.3335551 -23.7299709  19.6050606
   2.5487635 -24.3543415  18.4672241   1.8908114 -25.7034512  20.0569172
   1.0418434 -25.7998924  20.7359295   2.6957297 -25.3600349  20.6882744
   2.3448799 -27.0746784  19.6450939   1.2146161 -27.8351498  19.1489067
   0.4178305 -27.8616524  19.9283314   1.5970004 -28.8315678  18.9714928
   0.9225146 -27.2979774  18.2366924   3.4410846 -27.1757355  18.6313019
   4.3802805 -26.7410889  18.9923382   3.0953896 -26.6839790  17.7278099
   3.6057005 -28.1424522  18.2806091   2.7566805 -27.8171520  20.8711414
   3.4965870 -27.2554474  21.4606400   3.1244197 -28.7734718  20.5456753
   1.8689734 -28.0080395  21.4716606  -1.2725008 -24.3692951  19.7542057
  -1.8514290 -25.2252083  17.4420433  -1.9445812 -23.2481213  14.2835236
  -0.9614819 -22.9952526  13.3449545  -0.1631960 -22.0579700  13.3186455
  -1.0984247 -23.9747982  12.1885071  -0.3969370 -23.8325310  11.3961554
  -0.7056015 -24.8971348  12.6445017  -2.5481522 -24.2579098  11.7062702
  -3.1815434 -24.5043926  12.5623322  -2.9878199 -23.3180027  11.3471375
  -2.6138334 -25.3186264  10.6317139  -2.3347263 -24.9507694   9.6569700
  -1.8942231 -26.0783787  10.8546267  -4.0026078 -25.9878712  10.5221024
  -3.8759103 -26.8623772   9.8931580  -4.2916460 -26.4079952  11.5208921
  -5.0645876 -25.0149841  10.0011024  -5.0587792 -24.1309910  10.5938301
  -4.7721167 -24.6371365   9.0222473  -6.4269028 -25.7422810  10.0632095
  -6.3480968 -26.6895370   9.4651289  -6.6818438 -25.9425812  11.1101341
  -7.6835785 -24.9519901   9.5929890  -8.5765066 -25.5455685   9.8450098
  -7.8398757 -23.9672356  10.1275148  -7.6210647 -24.6337929   8.1045523
  -7.2454505 -25.3762856   7.4043713  -8.1417809 -23.5223122   7.5742507
  -8.5547152 -22.8202362   8.2766380  -8.3383923 -23.1983089   6.1126733
  -7.7130313 -23.8885479   5.5421882  -9.3834095 -23.3868237   5.8323402
  -8.0139656 -21.7754974   5.7602592  -8.4206867 -21.5627079   4.7810988
  -8.5317249 -21.1121216   6.4710088  -6.4572382 -21.5143414   5.8217669
  -6.1422043 -21.6158695   6.8056960  -5.9246798 -22.2446728   5.1700544
  -6.2252531 -20.0634937   5.3123503  -6.7341928 -19.9589939   4.3930631
  -6.6981359 -19.3391533   5.9707599  -4.7042198 -19.7722321   5.2441020
  -4.5268574 -18.7019691   5.0604196  -4.2773371 -19.9111767   6.2490983
  -4.0500979 -20.6212807   4.2245903  -3.8913965 -21.6091900   4.6978898
  -4.6896877 -20.6520061   3.3032656  -2.6617739 -20.0549145   3.7013464
  -2.8565562 -19.1788177   3.1588862  -2.0289171 -19.7429161   4.5498791
  -1.8881550 -21.0664368   2.8717840  -0.9923432 -20.4960899   2.5766382
  -2.4497697 -21.4084167   1.9867467  -1.5746849 -21.9448376   3.4585688
  -6.7425613 -26.4225578   3.8184392  -7.8098960 -26.3324451   3.6634722
  -6.2054167 -26.6115551   2.8920701  -6.2971492 -25.4533215   4.1446528
  -6.4081531 -27.4494343   4.8994775  -6.3553853 -28.4335690   4.5409303
  -7.1669221 -27.3732033   5.7212157  -5.0619392 -27.2230453   5.6260881
  -4.9167757 -28.0677891   6.2988515  -5.0826507 -26.3517380   6.2400055
  -3.8673687 -27.1339245   4.7213783  -3.8809774 -26.2235870   4.1534510
  -3.9920890 -27.9340649   3.9987483  -2.5228128 -27.2741680   5.4721875
  -1.7284353 -27.2541885   4.7857466  -2.4939718 -28.2885208   5.9113665
  -2.2363057 -26.1797714   6.5470600  -1.2831579 -26.4661789   7.0367889
  -3.0428932 -26.2163334   7.2690134  -2.1853135 -24.7665005   6.0196881
  -3.0494621 -24.6755390   5.4377804  -1.2541884 -24.6999149   5.3978376
  -2.1690030 -23.6719151   7.1097226  -1.5206062 -24.0407372   7.9385734
  -3.2225754 -23.5717773   7.4851952  -1.6230507 -22.3152447   6.6524982
  -1.9574677 -22.1431351   5.6552658  -0.5312876 -22.4403648   6.5782552
  -2.0020807 -21.1147976   7.5687237  -3.0842040 -21.0931606   7.6473804
  -1.6789745 -20.2736015   7.0046163  -1.3477896 -21.2549877   8.9728718
  -0.3377412 -21.5634842   8.9962587  -1.9479285 -21.9911938   9.5758858
  -1.4995487 -19.9469795   9.8249617  -0.6472228 -19.2831192   9.5907888
  -1.2565715 -20.2412033  10.8705034  -2.8315089 -19.1829700   9.6098013
  -2.8505037 -18.9532490   8.4874878  -2.7469113 -18.2490387  10.1853218
  -4.1392937 -19.8646374  10.0384436  -4.3756013 -20.6074371   9.2720470
  -4.9465866 -19.1321297   9.9044695  -4.1297483 -20.4710197  11.4606085
  -4.2094750 -19.6428795  12.1553993  -3.2457452 -21.0378284  11.6118517
  -5.1971073 -21.5125732  11.7513838  -5.9758658 -21.9273682  10.9463463
  -5.1073427 -21.8796635  13.0318470  -5.9330230 -22.9468575  13.5909615
  -5.4478655 -23.2297688  14.5514622  -5.8897715 -23.9355850  13.0086327
  -7.4474812 -22.5389786  13.9184036  -7.5077963 -21.5991287  14.3902988
  -8.1506672 -23.4970398  14.9206696  -8.2624359 -24.4895458  14.4962778
  -9.1234121 -23.1047745  15.1114225  -7.3450589 -23.4713192  16.1087265
  -7.3630066 -24.6995583  17.1675644  -6.4284782 -25.7252483  16.4548569
  -4.9822340 -25.7911911  16.6945572  -4.7754798 -25.5234127  17.7420311
  -4.5020480 -25.0364342  16.0940514  -4.4755468 -27.2258644  16.3229675
  -5.1259813 -27.9990292  16.7467480  -3.4865484 -27.3024940  16.7635231
  -4.3300896 -27.5346279  14.8368635  -3.6263571 -28.8921967  14.7550049
  -2.7175715 -28.8334179  15.3527155  -3.3968058 -29.1506481  13.6677494
  -4.2472477 -29.7355175  15.1612082  -5.6690459 -27.6165123  14.1208763
  -6.1807652 -26.6664238  14.1956329  -6.3070736 -28.4028530  14.5187750
  -5.4632101 -27.7241993  13.0877104  -3.3883333 -26.5933456  14.1849537
  -3.7083459 -25.5820656  14.3899927  -3.4231100 -26.7239475  13.1287279
  -2.4456050 -26.8129902  14.7053709  -6.8049092 -24.2014160  18.4139557
  -8.7060394 -25.3018169  17.2009468  -8.1925402 -22.5638771  12.6835146
  -9.0257273 -21.5817146  12.3542461  -9.4627962 -20.8336544  13.2170219
  -9.4128456 -21.5278339  10.8517170  -8.6048870 -21.0276489  10.2731724
  -9.5489388 -22.5152245  10.5133333 -10.7212868 -20.6798363  10.6353045
 -11.5799103 -21.1776543  11.1270466 -10.6762495 -19.7656422  11.1613998
 -11.0764351 -20.3184681   9.1816959 -10.2104092 -19.9157619   8.6711855
 -11.2708178 -21.2733631   8.6137934 -12.1747742 -19.3324547   9.0017242
 -13.0756083 -19.8444214   9.2770700 -12.0600462 -18.5282974   9.6730042
 -12.2514925 -18.8634472   7.5303168 -12.1948442 -19.7048149   6.8982978
 -13.2355356 -18.3690681   7.4375219 -11.1105337 -17.8941174   7.1819205
 -11.2649813 -16.9176464   7.6472006 -10.1241817 -18.2192116   7.5521812
 -10.9985027 -17.7200108   5.6741858 -10.0401993 -17.2521324   5.5437546
 -10.8196487 -18.7391281   5.2825446 -12.2138872 -17.0226784   5.1216102
 -13.1110849 -17.2350922   5.6397748 -12.1438274 -16.0317345   4.2723565
 -13.0695820 -15.5309572   3.9303312 -10.9193516 -15.6267023   3.4976563
 -10.5218801 -14.6471109   3.7743263 -10.1657877 -16.3311539   3.5434864
 -11.2687006 -15.4780579   2.0130143 -11.9155302 -14.6556759   1.9429963
 -10.3573904 -15.1710711   1.4890755 -11.8694353 -16.7332382   1.4023690
 -12.9020262 -16.8359108   1.7113029 -11.9108696 -16.5773468   0.3405572
 -11.1090040 -18.0883293   1.5791714 -11.0952654 -18.3479557   2.6433322
 -11.7500105 -18.8141136   1.0382112  -9.7006664 -18.0725155   0.9918088
  -9.6600533 -18.0459976  -0.1464294  -9.1657896 -17.1929779   1.2659174
  -8.9408131 -19.2776985   1.5017039  -7.8640180 -19.1419983   1.2489289
  -8.8897047 -19.2574997   2.5783656  -9.3972988 -20.6717968   0.9924555
 -10.4238625 -20.8267097   1.3156123  -9.3972750 -20.6054802  -0.0843539
  -8.4767294 -21.7362041   1.5056015  -8.6827259 -22.6172333   0.9315092
  -8.7399855 -21.9536419   2.5205328  -7.4582715 -21.4321308   1.4477010
  14.2378941   7.7224679  -1.0361792  14.7715378   8.2373104  -1.8294107
  13.4710932   8.4389477  -0.6386710  13.8311949   6.8724518  -1.5440185
  15.2197380   7.3195214   0.1136102  15.8857813   8.1850319   0.3237846
  15.9227600   6.5072021  -0.1973929  14.4158163   6.9630861   1.3922261
  13.7904739   7.8208995   1.6217449  15.0922318   6.6720104   2.1732230
  13.3814859   5.7892475   1.3304443  13.8671055   4.9101191   1.0075855
  12.6419792   5.9660845   0.6171707  12.5836420   5.4895096   2.6505973
  11.8619623   4.6761904   2.4503996  12.0148201   6.3830428   2.9117084
  13.4841204   5.1299090   3.8742483  14.2701092   5.8982334   4.0080862
  13.9665499   4.2090850   3.7044625  12.6291981   4.9910545   5.1668925
  11.9820938   4.1032052   5.0796709  11.9646502   5.9068537   5.3047762
  13.4193077   4.8330493   6.4820199  12.7269030   4.5660868   7.2914214
  13.8083162   5.8117132   6.7495804  14.5175838   3.7415686   6.4126248
  15.2527094   4.1115403   5.7604642  14.2425861   2.8441038   5.8642478
  15.0137367   3.3747103   7.8459334  15.7776375   2.6295209   7.6747179
  14.1986370   2.8795431   8.4394464  15.6712713   4.5235820   8.6413441
  14.9497213   5.2855568   8.8393574  16.3309498   5.0652642   7.9807377
  16.3559723   4.0831332   9.9329643  16.7338829   4.9633522  10.4919672
  17.2327404   3.5438058   9.5892286  15.4737482   3.2435534  10.9084234
  15.2672062   2.2568150  10.3868008  14.5847702   3.7987783  11.2183657
  16.1628819   2.8862998  12.2668562  17.1701851   2.4813313  12.1313009
  15.5875530   2.1009324  12.7326889  16.3593712   4.0706682  13.2015982
  15.4099855   4.5207729  13.3919964  16.9523163   4.8535175  12.6702347
  17.0290203   3.8064716  14.5733223  17.2955551   2.7139692  15.0845680
  17.2313538   5.0051589  15.1743650  17.4272957   5.0935893  16.6218739
  18.4794083   5.4186602  16.7859554  17.3793392   4.1144199  17.0849266
  16.4368076   6.0750194  17.1885242  16.6439457   7.0597000  16.8523712
  16.3112030   5.9474154  18.7483749  15.8374453   4.9902244  18.9561024
  15.7490816   6.7714782  19.2082558  17.6675167   5.9302039  19.3553047
  18.4699268   7.2996764  19.4570885  17.4636440   8.2731419  20.1945801
  16.9066734   9.4213266  19.5031013  15.9858217   9.7675533  19.9531631
  16.7177124   9.1129913  18.4767056  17.9812202  10.5823631  19.4528999
  17.7163277  11.2723341  18.6629543  18.8943310  10.1477957  19.1139412
  18.3391819  11.4023829  20.6525803  19.4958668  12.2943029  20.3421192
  20.4153461  11.7350826  20.0539799  19.7425671  12.7573509  21.2728138
  19.1887016  13.0392857  19.6172123  17.1672554  12.1926584  21.0987453
  16.3872147  11.6014242  21.5650444  16.6924191  12.7814398  20.2770977
  17.5280819  12.8978682  21.8275909  18.7414799  10.4940472  21.7623692
  17.8693333   9.8208866  21.9824505  18.9261875  11.1542749  22.6486225
  19.6384029   9.9164333  21.4434280  19.6527195   7.1496177  20.3582211
  18.7705307   7.8115377  18.0980053  15.1709852   5.5487437  16.6709919
  14.1458368   6.4128203  16.4607124  14.1998186   7.5530429  16.8879547
  13.0674219   5.8083482  15.6439877  13.2650290   4.7347012  15.6168356
  12.0576487   5.9846044  16.0913239  13.1016979   6.1726093  14.1609468
  12.5512781   7.0753345  14.0636835  14.1388597   6.2832971  13.8277912
  12.3631382   5.1748090  13.2386169  13.0492353   4.3404131  13.2010784
  11.3558064   4.8730249  13.6488781  12.0114050   5.7067976  11.8631258
  11.7186966   4.9200873  11.2096729  11.1793194   6.4231215  11.9600286
  13.1299458   6.5516877  11.2552729  13.2592888   7.4325762  11.8236732
  14.0860739   5.9897852  11.3221016  12.9463663   6.9645643   9.8065453
  13.8164148   7.5199671   9.4466000  12.8474054   6.0260868   9.2690744
  11.6494551   7.7735429   9.5422029  11.5355511   7.7617116   8.4148588
  10.8249655   7.1328406   9.9126987  11.6821947   9.1584005  10.2034302
  11.7247286   9.1082439  11.2800303  11.4788637  10.2908192   9.5573349
  11.4081535  11.1895037  10.0913992  11.4148607  10.5084820   8.0578928
  10.9234390   9.6905127   7.5810442  10.8506002  11.3880587   7.8175278
  12.7852335  10.6870737   7.3565130  12.5706539  10.8687515   6.2969060
  13.2927713  11.5864706   7.6773362  13.7298250   9.4882860   7.4889240
  13.9221020   9.3148422   8.5164156  13.1395264   8.6293488   7.1432371
  14.9628553   9.6423988   6.6345983  14.7510061  10.2093124   5.6977158
  15.6373777  10.2220907   7.2448645  15.5728283   8.2644072   6.3199992
  15.5880938   7.7002902   7.2857695  14.8523922   7.7389011   5.6386976
  16.9680767   8.3220882   5.6306124  17.5014668   8.9534531   6.2576604
  17.3731480   7.3061104   5.6160946  16.9045029   8.9674110   4.3113942
  16.3125687   8.3838148   3.6043191  16.4504166   9.9338188   4.4077153
  18.3563766   9.1011572   3.8414626  18.4258709   9.5327559   2.8293657
  18.9264927   8.1639872   3.7685618  18.9196186   9.7413111   4.5740767
 -20.5015278 -34.8661919   1.9717859 -21.1452751 -34.1380997   1.5122778
 -20.2307625 -35.6329079   1.3100524 -19.5622215 -34.3611069   2.1970067
 -21.1680393 -35.5609970   3.1766419 -22.1623268 -35.8916740   2.8512094
 -21.3586788 -34.9173584   3.9902067 -20.3476143 -36.6625748   3.7503862
 -20.1890087 -37.3072701   2.9083338 -21.0229416 -37.1614761   4.4543571
 -19.0408592 -36.1715775   4.4977188 -18.4327927 -35.4760590   3.8852944
 -18.4108257 -37.0416946   4.8258986 -19.3869419 -35.4258270   5.7577634
 -19.9343929 -36.0690842   6.4262867 -20.1315689 -34.6070099   5.5572376
 -18.1244087 -34.8101349   6.4910908 -17.6503754 -34.2169495   5.7478814
 -17.5415459 -35.6700897   6.8580489 -18.5100021 -33.9174995   7.6812000
 -19.1491241 -34.4787521   8.3610382 -19.0653076 -33.0104408   7.4144273
 -17.2838383 -33.4667358   8.5006323 -16.6854877 -32.7762451   7.9004931
 -16.6301861 -34.2975655   8.7356386 -17.6997681 -32.7123146   9.7752037
 -18.3356762 -33.3938446  10.4170551 -18.3393269 -31.8795090   9.4870319
 -16.5295887 -32.2369232  10.7029552 -16.9229031 -31.6246605  11.5221176
 -15.7736597 -31.5858269  10.1581087 -15.7719059 -33.4653320  11.2701530
 -15.3739176 -34.1187973  10.4624739 -16.4562492 -34.0769615  11.9214354
 -14.4888535 -33.1342010  12.0739317 -13.7782335 -32.5553818  11.4835024
 -13.9595785 -34.0545273  12.2771120 -14.7550011 -32.3226089  13.3595953
 -15.5925188 -32.7352409  13.9535608 -15.0980196 -31.3412647  13.1283493
 -13.4352264 -32.1660728  14.1441240 -12.6704016 -31.6459103  13.5158939
 -12.9873648 -33.1662979  14.3077202 -13.6177883 -31.3918705  15.4533968
 -12.7862644 -31.5838165  16.0914745 -14.5305195 -31.7991714  15.9407892
 -13.6802254 -29.9018307  15.1901855 -13.7767115 -29.4083309  14.0600204
 -13.7583294 -29.2429714  16.3396225 -14.0519352 -27.7888088  16.3207150
 -13.7081947 -27.3339863  15.3841400 -13.4576435 -27.3661785  17.1352539
 -15.5692768 -27.5008965  16.4412498 -15.6610603 -26.4264698  16.6405125
 -16.1598797 -28.3113461  17.6296349 -16.0630341 -29.3479710  17.3687744
 -17.2232838 -28.1064911  17.7782555 -15.4647980 -28.0952740  18.9118347
 -15.6627693 -28.9725342  20.2460480 -14.8615274 -30.3260708  19.9135590
 -15.3737411 -31.3986378  19.0587730 -14.8240757 -31.4101639  18.1377296
 -16.4461899 -31.2389393  18.8322296 -15.0530710 -32.7737923  19.6940823
 -14.0226994 -32.7849846  20.0962543 -15.2356529 -33.5073242  18.8996906
 -15.9261513 -33.2581863  20.8231564 -15.7865152 -32.4760284  22.0656414
 -14.7276783 -32.4842529  22.3123760 -16.3909512 -32.8675880  22.8861465
 -16.1225395 -31.4660091  21.7580891 -17.3442173 -33.2917709  20.3454762
 -17.4172955 -34.0373268  19.5700226 -17.6484833 -32.2933807  19.9686012
 -18.0291805 -33.5166168  21.1639404 -15.5608072 -34.6608429  21.1423321
 -15.6099911 -35.2760544  20.1996403 -16.2874928 -35.0627441  21.9265194
 -14.5245953 -34.6435890  21.4931297 -14.8630190 -28.3416653  21.3642864
 -17.0972157 -29.3029308  20.4938354 -16.3865223 -27.8073540  15.2691555
 -17.5714474 -27.1575012  15.0653067 -18.1940384 -26.5956287  15.9849634
 -17.9694176 -27.2166653  13.5954418 -18.9031677 -26.6101112  13.4208860
 -17.1887341 -26.6769695  13.0701313 -18.0704956 -28.6435814  12.9887190
 -17.2019672 -29.2485466  13.3320894 -18.9463577 -29.1805439  13.3986473
 -18.1366272 -28.6292534  11.4589834 -18.3151512 -29.6398430  11.1487789
 -19.0209980 -28.0761890  11.0859060 -16.8146915 -28.3238888  10.7370234
 -16.5664825 -27.2814064  10.9742060 -16.0542946 -29.0363503  11.1404467
 -16.8610725 -28.4798450   9.1789865 -15.8587189 -28.4205418   8.7557659
 -17.2594261 -29.4527893   8.8780708 -17.7773533 -27.3805275   8.6184196
 -18.7737274 -27.3269253   9.0680122 -17.2989445 -26.3878613   8.7362442
 -17.9496174 -27.6445618   7.0887923 -18.4581699 -26.6974621   6.7643218
 -16.9793301 -27.6200657   6.5884085 -18.8126602 -28.8221550   6.7278404
 -18.9769592 -29.4533176   7.5711641 -19.3026657 -29.1347771   5.5448060
 -19.9110394 -30.0348701   5.4324627 -18.9466553 -28.3608074   4.2808905
 -18.0583038 -27.7401562   4.5064111 -18.7115211 -28.9997101   3.4524429
 -20.1322842 -27.4271698   3.8740807 -21.0214596 -28.0065155   3.6959171
 -20.3161888 -26.7081108   4.6372104 -19.8017502 -26.7216301   2.5275805
 -19.8731785 -27.3990231   1.6808503 -20.6247501 -26.0474625   2.3389270
 -18.5470486 -25.7963772   2.5524979 -18.5457268 -25.1959419   3.4739826
 -17.6489296 -26.4254456   2.6482325 -18.2901440 -24.8289108   1.3273059
 -19.2426796 -24.5000191   0.8828017 -17.7922421 -23.9369373   1.6852261
 -17.4094276 -25.4102726   0.2136931 -17.1359196 -24.6004772  -0.4749740
 -16.4763718 -25.7975788   0.6991062 -18.1254921 -26.4401512  -0.6653115
 -17.3650017 -26.8711510  -1.3493936 -18.5298691 -27.3403187  -0.1457680
 -19.1659222 -25.7921963  -1.5623944 -19.5203342 -26.4930706  -2.3085289
 -18.7191620 -24.9923420  -2.0983706 -20.0046196 -25.4956226  -0.9690094
 -15.3355274  -3.6813018   2.1973298 -14.4262447  -4.1493611   1.7914455
 -16.1400719  -3.6183410   1.4441411 -15.7523546  -4.3141041   3.0232084
 -15.1030216  -2.2181139   2.6796675 -14.7356243  -1.6874670   1.8161278
 -14.2339506  -2.1486375   3.3146787 -16.2837849  -1.4930242   3.3107326
 -16.7153282  -2.1114783   4.0710144 -17.0215054  -1.3460230   2.5141122
 -15.9582567  -0.0979125   3.8727069 -16.8589821   0.5559027   3.8655877
 -15.2218733   0.4455490   3.3201721 -15.4975243  -0.2073711   5.3326488
 -14.6956491   0.4895998   5.5045414 -15.0825586  -1.2138299   5.5419617
 -16.5724773   0.0213302   6.3883791 -16.9409924   1.0395156   6.2622175
 -16.1269226   0.0243292   7.3665915 -17.7985878  -0.9246615   6.3772650
 -17.5541191  -1.9873630   6.3727760 -18.3061104  -0.8527315   5.4185295
 -18.7714024  -0.6358927   7.5322747 -19.6671104  -1.2270107   7.2893820
 -19.0718498   0.4056194   7.5599790 -18.2203522  -1.1111221   8.9094143
 -17.3474541  -0.4862477   9.0776405 -17.8625603  -2.1281624   8.8523045
 -19.2404881  -0.9125698  10.0012455 -19.8243160  -1.8478348   9.9207449
 -19.8604221  -0.0556459   9.7190418 -18.5989552  -0.8154660  11.4079370
 -18.0673943   0.1567055  11.4950981 -17.8739204  -1.6382324  11.4702406
 -19.7189617  -0.8863164  12.5267115 -20.1484947  -1.8718779  12.5258827
 -20.5480366  -0.1728328  12.2331419 -19.2282658  -0.5876303  13.9597025
 -18.1994419  -0.9968386  14.0643425 -19.7934551  -1.1647986  14.6498346
 -19.2150440   0.8906819  14.2692318 -20.1764851   1.3499509  14.0672073
 -18.5173626   1.3873364  13.6059322 -18.8259773   1.3084533  15.6819363
 -18.6765652   2.3931446  15.7197094 -17.9074268   0.7819744  15.9823942
 -19.8745022   0.9716565  16.6962833 -20.9801502   1.5142454  16.7293491
 -19.4634991   0.0110297  17.5422897 -20.2780056  -0.2552623  18.6814270
 -21.2655106  -0.4840675  18.3111172 -20.3362827   0.6190980  19.3412495
 -19.8971233  -1.4851995  19.4997540 -20.7552319  -1.6628636  20.1367168
 -18.5897026  -1.4460118  20.3349209 -18.4135990  -2.4309008  20.8456783
 -18.7254486  -0.7511359  21.1300659 -17.5164204  -1.0556163  19.4853306
 -16.1854134  -1.8151420  19.2549725 -16.5333958  -2.9503038  18.2485600
 -16.8419132  -2.5626085  16.9034042 -16.1764832  -1.7812194  16.5140133
 -17.8923817  -2.2524829  16.8794422 -16.7181854  -3.8007829  16.0081215
 -17.3290291  -3.7085783  15.0928917 -17.1293411  -4.5996008  16.5837498
 -15.4208298  -4.2628675  15.5156813 -15.0240421  -3.3793557  14.3565998
 -15.8575687  -3.4613492  13.6281986 -14.0636396  -3.7326310  13.9726248
 -14.8424244  -2.3471677  14.7493477 -14.3692694  -4.2898769  16.5816650
 -14.6053219  -5.0315065  17.2694511 -14.4277706  -3.3358572  17.0767727
 -13.3063803  -4.4320912  16.2521515 -15.7059212  -5.5752330  14.8759375
 -16.0450897  -6.2639384  15.6401691 -14.7982140  -5.9458666  14.4023561
 -16.5548725  -5.4570107  14.1556606 -15.2837658  -0.8857701  18.5912457
 -15.7774076  -2.3679633  20.5454426 -19.8039989  -2.6418793  18.6346664
 -20.8839817  -3.2416687  18.0604382 -22.0155735  -3.1898475  18.5240459
 -20.5389214  -3.7861705  16.7180290 -20.6005211  -3.0089536  15.9380426
 -19.4808254  -4.0697937  16.7630844 -21.2039490  -5.1027532  16.3467197
 -21.3893108  -5.7567811  17.2312756 -22.2003345  -4.8991642  15.9354029
 -20.4154186  -5.8144383  15.2558613 -19.4165764  -6.0227180  15.6658506
 -20.8537655  -6.7732000  14.9530849 -20.3787632  -4.8959932  13.9934454
 -21.4201355  -4.7568598  13.6687708 -19.9807281  -3.9116607  14.2269793
 -19.5402260  -5.4685402  12.7951536 -18.5797462  -5.7429795  13.1776896
 -20.0221825  -6.3943954  12.4830189 -19.4258747  -4.5269818  11.5604744
 -20.3879910  -4.4017935  11.1097832 -19.0067635  -3.6119187  11.9667282
 -18.4040489  -5.0911455  10.6025705 -18.1837521  -4.3690286   9.8161602
 -17.4601212  -5.2172332  11.1588287 -18.9533234  -6.3668399  10.0262871
 -19.6541405  -6.8559980  10.6833878 -18.6115017  -6.8825440   8.8339815
 -19.0044746  -7.8260422   8.5652027 -17.7083473  -6.2688184   7.8020525
 -17.2177219  -5.4312868   8.2321825 -17.0038910  -7.0946093   7.5396085
 -18.4714966  -5.9523220   6.5334792 -17.7894135  -5.6659794   5.7618065
 -18.9022961  -6.8551326   6.0927916 -19.5885143  -4.8903246   6.6178083
 -20.3057289  -5.0575447   7.4556570 -19.1189232  -3.9520409   6.7829223
 -20.3893299  -4.7161231   5.3066082 -20.9023666  -5.7234049   5.0944972
 -21.2130661  -3.9847884   5.4691992 -19.4587154  -4.2263107   4.1605644
 -19.1272774  -3.1933126   4.4849010 -18.6140862  -4.8508043   4.0793209
 -20.0807018  -4.1458220   2.8008840 -20.3057365  -5.1752524   2.4535933
 -20.9920864  -3.5626569   2.9439375 -19.2533340  -3.4308240   1.7397560
 -19.2805176  -2.3503115   1.9145930 -18.1929855  -3.7648609   1.8169487
 -19.5598278  -3.7527857   0.2745851 -20.4617481  -3.2007275  -0.0027187
 -19.7685966  -4.8156676   0.1640020 -18.6905422  -3.4364772  -0.2939398
   6.1784706 -39.0812416   2.8336980   5.3526158 -38.7004776   2.2413745
   7.0093865 -38.3701363   2.7074065   5.9622240 -39.1239967   3.8478706
   6.6454821 -40.4168015   2.3280368   6.8066792 -40.4167328   1.2483209
   5.8528657 -41.1893044   2.4279580   7.9648395 -40.8389740   3.0389688
   7.8668876 -40.8066788   4.0896320   8.7846575 -40.2204475   2.7091517
   8.2898750 -42.2927513   2.6841714   8.0876598 -42.4937019   1.6337262
   7.5171471 -42.9335594   3.1816399   9.7089729 -42.7954483   3.0426526
  10.4198799 -42.3929176   2.3158846   9.8071661 -43.8864861   2.8529458
  10.1920795 -42.4733696   4.4831700   9.5009212 -42.8928452   5.1661215
  10.1295052 -41.3501549   4.6118884  11.6452465 -42.9045525   4.6322255
  12.1747971 -42.8115311   3.7040651  11.6850948 -43.9833794   4.8207340
  12.4595556 -42.1538124   5.7187505  13.3155394 -42.8533363   5.9150405
  11.9366093 -42.2074280   6.6334443  12.9693470 -40.7196083   5.4642210
  12.2328806 -39.9620514   5.2754078  13.5083504 -40.8622513   4.4864841
  13.8753138 -40.1379089   6.5807934  14.2219553 -39.1365967   6.2434530
  14.7571602 -40.8224335   6.6714854  13.1822977 -39.8985977   7.9476404
  12.6218328 -40.8290138   8.2366333  12.5060711 -39.0729446   7.7436757
  14.2156334 -39.5922737   9.0901146  14.7708740 -38.7004700   8.8167839
  14.8521328 -40.4689445   9.1026049  13.5265436 -39.3525543  10.4763422
  14.2914438 -39.2265930  11.2569990  12.9870033 -40.2532196  10.7575598
  12.5165071 -38.1728516  10.4573622  11.5991259 -38.5425110   9.9696636
  13.0074644 -37.4194374   9.8372278  12.1874990 -37.5542870  11.8188667
  13.1267853 -37.3857498  12.4352560  11.5762081 -38.3193512  12.3449745
  11.4488459 -36.2127190  11.7995930  11.0202990 -35.6795654  10.7823887
  11.4460077 -35.6669502  13.0344191  10.6094074 -34.4691010  13.2676277
  10.3870020 -33.9987144  12.2910252  11.1360559 -33.7583122  13.8992586
   9.2915812 -34.8350296  13.9644136   8.7112961 -33.9303017  14.1706038
   9.6068258 -35.4522400  15.3531570  10.0659084 -34.6670761  15.8958282
  10.3947821 -36.2028389  15.1939144   8.4319944 -36.0347366  15.9965649
   8.3153839 -37.5917091  16.2725105   7.9047852 -38.2470398  14.8999681
   8.7986727 -39.0642548  14.0899239   9.7904348 -38.7161865  14.1578579
   8.4373274 -39.0011749  13.0748005   8.6623592 -40.5350533  14.6021233
   9.1314859 -40.5862427  15.5566015   9.3106728 -41.2021599  14.0356216
   7.3019261 -41.2448845  14.6507254   6.6093707 -41.0583954  13.3816824
   6.5201044 -39.9979744  13.1844759   5.6269712 -41.4965439  13.4853020
   7.1257977 -41.5678101  12.5590982   7.4102454 -42.6818085  14.9624557
   7.8893905 -42.7756119  15.9623289   8.0689831 -43.1848946  14.2278490
   6.3991904 -43.1251373  14.9330225   6.4553351 -40.6202774  15.7467899
   7.0117855 -40.5965080  16.6841183   5.6030746 -41.2716370  15.8371086
   6.1896319 -39.6230507  15.4078302   9.6807814 -38.0437431  16.6328068
   7.2200661 -37.8009415  17.2677460   8.5371742 -35.7223549  13.0931034
   7.2364731 -35.4134521  12.8752699   6.6795201 -34.3976669  13.2317724
   6.5766678 -36.5649338  12.1840820   7.0621367 -37.5002213  12.5764866
   5.5061812 -36.5817795  12.4518394   6.8383527 -36.3709717  10.6471167
   6.2985997 -35.5062408  10.2468338   7.9120970 -36.2242661  10.3946552
   6.3853049 -37.5745544   9.8670816   5.3994794 -38.0167313  10.2019491
   6.2779927 -37.2386284   8.8134756   7.4455571 -38.7026405   9.8895540
   7.8618975 -38.7761002  10.8951273   6.9554420 -39.6651039   9.6679230
   8.6628971 -38.5097809   8.9654932   9.0657835 -37.5376968   9.1930742
   9.3427181 -39.2483101   9.2893353   8.3273497 -38.6812248   7.5058980
   7.6201053 -39.5070534   7.3732781   7.7303791 -37.8336029   7.1745310
   9.5211639 -38.8759384   6.5429044  10.0573101 -39.7175941   6.9334846
   9.1426458 -39.1297989   5.5653791  10.4779768 -37.7132950   6.5052133
  10.7534208 -37.3054848   7.4645801  10.9664268 -37.1947899   5.3709364
  11.6079569 -36.3182907   5.3986669  10.8538046 -37.7528419   3.9770060
  11.1303892 -38.8104362   3.9314461   9.8287678 -37.6676216   3.5908041
  11.8041086 -36.9764595   3.0535676  11.5551376 -35.9215202   2.9127502
  12.8254261 -37.0007324   3.4837863  11.9991589 -37.6251984   1.6423919
  12.6006851 -36.8966751   1.0637797  12.5603294 -38.5894623   1.7360502
  10.6898823 -37.8356552   0.8694882  10.9367170 -38.2277298  -0.1330336
   9.9628077 -38.4748306   1.3968004   9.8274851 -36.5644913   0.6935399
   9.5830240 -36.0397034   1.6638353  10.3455439 -35.8687096   0.0488427
   8.4959965 -37.0165901  -0.0215607   8.7921476 -37.5123138  -0.9215698
   7.9466634 -37.7501755   0.5976632   7.5728064 -35.8396950  -0.3966655
   7.3061271 -35.2864761   0.5071956   8.1032705 -35.1288757  -1.0245755
   6.3360319 -36.2511215  -1.1312739   5.6160588 -35.4460831  -1.0673326
   5.8124394 -37.1037636  -0.6680447   6.5768905 -36.5025558  -2.1575651
  -6.7074485 -39.8947563   4.1628733  -6.2467384 -39.2664108   4.8843918
  -7.4743156 -39.3721275   3.6718307  -5.9439659 -40.0893440   3.3917823
  -7.1163077 -41.2336578   4.8654528  -7.7621312 -41.8549118   4.1943736
  -7.7823801 -40.8949890   5.6452842  -5.9357743 -42.1220856   5.4182396
  -5.3799052 -42.5859642   4.6138992  -6.4142389 -42.9146576   6.0031075
  -4.9524574 -41.3250923   6.2410827  -4.5442400 -40.5108223   5.6434817
  -4.1469193 -41.9692574   6.4769220  -5.5549746 -40.8283043   7.5817437
  -6.0003109 -41.6391525   8.0767078  -6.3481469 -40.1099091   7.3575778
  -4.5220318 -40.2142296   8.5489254  -4.0631099 -39.3184471   8.0614080
  -3.6556175 -40.8635902   8.5813560  -4.9995823 -39.9961891   9.9958811
  -4.1194162 -39.6734009  10.5120602  -5.4334064 -40.8839111  10.3569317
  -6.0672359 -38.9064102  10.0980558  -6.9507856 -39.2333832   9.5349035
  -5.7862592 -37.9695091   9.5908337  -6.5264125 -38.6462708  11.5710154
  -5.7524295 -38.1008453  12.0860090  -6.4565668 -39.6412926  12.0131454
  -7.8807421 -37.9554901  11.8261518  -8.6320038 -38.7364349  11.8377295
  -8.1306810 -37.2457161  11.0802927  -7.9555292 -37.1672287  13.1939850
  -8.9270334 -36.6556320  13.3209791  -7.2620511 -36.3453217  13.1493607
  -7.6172681 -38.0256958  14.3809462  -6.5738220 -38.3817520  14.2494974
  -8.1685114 -38.9669609  14.4294033  -7.7605157 -37.2616768  15.6879892
  -7.2584677 -36.2836533  15.6517448  -7.3839564 -37.9003525  16.5003357
  -9.2821550 -37.0349083  15.9766407  -9.6634045 -36.2558289  15.2968407
  -9.3945923 -36.5351334  16.9495373 -10.2516451 -38.2833138  15.8957376
 -10.4083529 -38.5697823  14.8450575 -11.2038717 -37.8922997  16.2298965
  -9.9179068 -39.4904442  16.7330666 -10.2015314 -39.6558685  17.9117947
  -9.2333374 -40.4177170  16.0390301  -8.7224379 -41.6555405  16.6220493
  -9.5097656 -42.4574471  16.5922947  -8.4362764 -41.4783325  17.6842327
  -7.4999771 -42.1362915  15.7825527  -7.3584886 -43.2199516  15.9650822
  -6.2577438 -41.3176804  16.0641365  -6.4862776 -40.3357658  16.4809723
  -5.7586355 -41.1653748  15.1308241  -5.3668985 -42.0692253  16.9448948
  -5.6170697 -42.2911415  18.5402794  -6.4812303 -43.6498489  18.5446243
  -5.8882313 -44.9321442  18.2576847  -5.0702496 -44.8655739  17.5816879
  -6.5805411 -45.5526009  17.7138729  -5.5090146 -45.6183586  19.5757008
  -4.8562155 -44.9066734  20.1493435  -4.9675865 -46.5543365  19.3655472
  -6.6336961 -46.1080208  20.5128212  -7.5002737 -47.1359673  19.8747845
  -8.0945587 -46.6851273  19.0585327  -8.2736578 -47.4979782  20.5967731
  -6.8593307 -47.9115372  19.4849567  -6.0926194 -46.8267403  21.6979523
  -5.4906316 -46.1463585  22.3095798  -5.4785724 -47.6632347  21.2743874
  -6.9321966 -47.2613678  22.2487183  -7.4452682 -45.0056496  21.0699730
  -6.8409162 -44.4760704  21.8200760  -8.3228197 -45.4131279  21.5565910
  -7.6574273 -44.3219719  20.2334251  -4.3202629 -42.5258408  19.2245312
  -6.5104175 -41.2300148  19.0792942  -7.7546530 -42.0040665  14.3919191
  -8.6891956 -42.7220116  13.7376299  -9.3380299 -43.6450806  14.2032194
  -8.7687216 -42.2608032  12.2583151  -7.8674507 -41.7789459  12.0212460
  -8.8690062 -43.2020798  11.6774368 -10.0408258 -41.3644371  12.1249886
 -10.9577217 -41.8542061  12.4740458  -9.9770813 -40.4298592  12.6969166
 -10.3300047 -41.0847816  10.6538286  -9.4752789 -40.6403770  10.1846418
 -10.4360619 -42.0737801  10.1860638 -11.7023411 -40.3043823  10.4048338
 -12.6139984 -40.8923912  10.6382408 -11.6922941 -39.4271545  10.9872589
 -11.8808794 -39.8881264   8.8942242 -11.0503092 -39.3361320   8.4763012
 -11.8803215 -40.8550224   8.3431091 -13.2869949 -39.1836586   8.6645489
 -13.5927334 -39.3211212   7.6354561 -14.0011301 -39.6583519   9.3045149
 -13.2519550 -37.6484489   8.9662542 -12.9662275 -37.4942856  10.0196495
 -12.3857040 -37.1580582   8.4174881 -14.5752325 -36.9803886   8.6230812
 -15.3476391 -37.1374359   9.3836899 -14.7999382 -36.3175621   7.4870420
 -15.7647133 -35.9286118   7.2657104 -13.7161264 -35.9957657   6.4338756
 -13.5754061 -34.9408073   6.4658861 -12.7302856 -36.4742584   6.6819344
 -14.0685558 -36.4515762   4.9991059 -13.2637167 -36.4000473   4.3085356
 -14.2251768 -37.4670448   4.9743643 -15.3307457 -35.8387146   4.3875446
 -15.4791012 -36.4161835   3.4807026 -16.1716061 -36.0789146   5.0134368
 -15.2549181 -34.3430786   4.1008086 -16.2621498 -34.0802307   3.7363670
 -15.1183376 -33.8508301   5.0407786 -14.1716785 -33.9183960   3.1215529
 -13.2920084 -33.6371193   3.6660173 -13.9456902 -34.8133659   2.4715679
 -14.7088051 -32.7110367   2.2791076 -15.6207848 -33.0286026   1.7426319
 -15.1213360 -31.9752426   2.9595339 -13.6375923 -32.0324402   1.4425900
 -12.9239378 -31.7338352   2.1026433 -13.2280684 -32.6757851   0.6642079
 -14.1314144 -30.7687206   0.7924408 -13.3571243 -30.4064484   0.0963573
 -14.3260565 -29.9642639   1.5396954 -14.9476862 -30.9347057   0.1309138
 -15.4141626 -20.6847458   0.3914716 -15.5382261 -19.6926346  -0.0510959
 -16.2866840 -20.7900352   1.0495559 -15.4304428 -21.4740009  -0.4274872
 -14.0976419 -20.7376022   1.1851047 -14.2237520 -20.2792454   2.1311691
 -13.4174204 -20.1361542   0.5786984 -13.5600557 -22.1543198   1.4078623
 -12.6182995 -22.0799541   1.9489088 -13.3517799 -22.6376762   0.4503340
 -14.4982376 -23.1551952   2.1873589 -14.0266333 -24.1525688   2.3217602
 -15.3585587 -23.2932644   1.5956010 -14.8352432 -22.6924496   3.6041427
 -15.5191317 -21.8658237   3.3951042 -13.9094057 -22.2605400   4.0629158
 -15.4534645 -23.8528271   4.4109521 -14.6165218 -24.4954395   4.6695905
 -16.1325970 -24.4861507   3.8312266 -16.0860844 -23.2328243   5.6446009
 -16.5187359 -24.0376663   6.2200189 -16.9649296 -22.6602535   5.2867503
 -15.1334810 -22.4736214   6.6501431 -14.5968962 -21.7454052   6.0748053
 -14.3646631 -23.1812267   7.0004363 -15.7960997 -21.7717247   7.8795381
 -15.0297499 -21.2782078   8.5136309 -16.1505909 -22.5825100   8.5556650
 -16.9116001 -20.7407112   7.5814004 -17.4457760 -21.1373444   6.7289906
 -16.4260311 -19.7998371   7.2488236 -17.8865929 -20.3346062   8.6998177
 -18.4730759 -21.2303905   8.9592686 -18.5896072 -19.6647606   8.1754951
 -17.2203617 -19.6812267   9.9720583 -16.5937500 -18.8444118   9.6215658
 -16.5689888 -20.3530102  10.4875698 -18.2838764 -19.1182880  10.8900223
 -18.9966316 -18.4976349  10.2972498 -18.8457336 -20.0078583  11.2728519
 -17.8106613 -18.2587509  12.0914421 -18.6162663 -17.8981361  12.6804495
 -17.2887096 -17.3507614  11.7440844 -16.7709408 -18.9800568  13.0362358
 -15.9176102 -19.1905117  12.4681873 -16.4891968 -18.3019409  13.8549767
 -17.3189468 -20.2874966  13.6631861 -17.6396389 -21.2333412  13.0273933
 -17.2975578 -20.3103714  15.0132418 -17.5808105 -21.5695362  15.6788588
 -18.4708958 -22.1169834  15.3043413 -17.9702911 -21.2146969  16.6470966
 -16.2837410 -22.4758892  15.8225288 -16.5655136 -23.5051727  16.0514050
 -15.4474630 -22.0090790  17.0417576 -15.6028194 -22.6357918  17.9478645
 -15.7207127 -20.9437008  17.3267155 -14.0284071 -22.0864754  16.7692451
 -13.2442284 -23.4975796  16.9573174 -12.5161829 -23.3025913  18.3773727
 -11.2698164 -22.6271477  18.5356865 -11.4917583 -21.5733814  18.4383774
 -10.6102076 -22.9394531  17.7666626 -10.5864258 -22.9908466  19.8296509
  -9.6204948 -22.4408646  19.8226814 -10.3611050 -24.0483837  19.8433151
 -11.2960825 -22.6824799  21.1604328 -12.2881842 -23.7837963  21.4021511
 -12.9186764 -23.8559189  20.5317917 -12.8541746 -23.5577984  22.3054409
 -11.7535868 -24.6987057  21.4517784 -10.3540249 -22.7976151  22.3082180
  -9.5672331 -22.1030540  22.1543674  -9.9133768 -23.8580551  22.3877506
 -10.9027338 -22.5391750  23.2148743 -12.0482244 -21.3781147  21.1898785
 -11.3947220 -20.6022167  20.7294865 -12.2712088 -21.1758156  22.2132511
 -13.0177536 -21.4169483  20.6608372 -14.2184677 -24.6181297  17.0592327
 -12.1912374 -23.5632114  15.8933058 -15.4868088 -22.4544163  14.5698061
 -15.5879393 -23.4948540  13.7306042 -16.3938923 -24.4244003  13.8484564
 -14.5894346 -23.3408051  12.5610695 -14.4619226 -22.2725945  12.4346199
 -13.6545858 -23.7686996  12.8601751 -15.0134554 -24.0345745  11.2312737
 -15.2789583 -25.0616379  11.4697561 -15.8998222 -23.5733910  10.8776684
 -13.9835596 -23.9458752  10.0753794 -14.4161263 -24.3522835   9.1473942
 -13.7826786 -22.8834610   9.8601227 -12.5698814 -24.5865040  10.3204584
 -11.9859838 -24.5552177   9.4149647 -11.9942875 -23.9759808  11.0516682
 -12.5688038 -26.0564041  10.8007231 -11.5330362 -26.3745480  10.8407688
 -12.9640503 -26.1071243  11.8423643 -13.4502525 -27.0686932  10.0267506
 -13.4596434 -28.0563850  10.5175018 -14.5030556 -26.7453232  10.0998392
 -13.1776571 -27.1813183   8.5393801 -13.7505627 -28.0364647   8.2317085
 -13.5831842 -26.3352566   8.0276756 -11.7188177 -27.3579693   8.1702957
 -11.2051058 -27.9651260   8.8707323 -11.0948648 -26.7162895   7.2028871
 -10.0461998 -26.9572811   7.0707197 -11.6396418 -25.7005730   6.2737517
 -12.7605820 -25.7728615   6.1693783 -11.4281511 -24.6930332   6.6861253
 -10.9940357 -25.9322243   4.8872886  -9.9555321 -25.6385593   4.9001465
 -10.9914455 -27.0172863   4.6913371 -11.8186665 -25.1950054   3.8493087
 -12.7157125 -25.7861118   3.6376739 -12.0898571 -24.2034435   4.1526842
 -10.9393988 -25.1011314   2.5287435 -11.5132132 -24.4531422   1.8182912
  -9.9885025 -24.5798893   2.7133093 -10.6302176 -26.4658966   1.9607365
 -10.2443600 -27.1614494   2.7471325 -11.5659475 -26.8558006   1.5053021
  -9.5063705 -26.3258057   0.8756489  -8.5670195 -25.9807186   1.3513147
  -9.3772621 -27.3183746   0.3985823  -9.8879280 -25.2955265  -0.2236797
 -10.8594456 -25.5769920  -0.6467690 -10.0707064 -24.2771034   0.1832291
  -8.8821907 -25.1715565  -1.3744503  -9.4065218 -24.7405643  -2.2273347
  -8.4095955 -26.0819168  -1.7634641  -8.0531616 -24.4791908  -1.0717766
   6.0485501 -12.9270124   4.5844307   5.4305549 -12.6104345   3.7490165
   6.3911686 -11.9788742   4.9652615   5.4785638 -13.5049686   5.3015423
   7.1815419 -13.8781128   3.9925301   7.6582489 -13.4625139   3.0783081
   6.7471886 -14.8077288   3.7200179   8.3229628 -14.1801653   4.9730358
   7.8259654 -14.4359312   5.9072189   8.8506927 -13.2549801   5.1965194
   9.2651262 -15.1936483   4.3399410   9.5609808 -14.8013868   3.3824680
   8.7789984 -16.1281090   4.0668836  10.5186119 -15.5948181   5.1085682
  11.2751341 -14.7703161   5.0554252  10.8936520 -16.5141563   4.5955763
  10.2371044 -15.8448830   6.5797958   9.9457054 -14.9101343   7.0422897
  11.1516628 -16.1272926   7.0632977   9.1503448 -16.9742756   6.7836905
   9.6302929 -17.9275398   6.9202023   8.4469700 -17.1141338   5.9672318
   8.2900438 -16.6086426   8.0056009   8.0366077 -15.5604515   7.9787617
   8.8791008 -16.6677437   8.9033298   6.9351501 -17.3886490   8.1175880
   7.2031188 -18.3902473   8.2328053   6.2771993 -17.2105618   7.2620182
   6.0885549 -16.9561310   9.3556461   6.7161345 -17.1393871  10.2206631
   5.1892900 -17.5789108   9.4947910   5.6407781 -15.4439545   9.3668575
   4.8908677 -15.3457584   8.6296492   6.4250679 -14.7199488   9.1050205
   4.9534745 -15.0527115  10.6847000   4.1221571 -15.6961193  10.8340635
   4.5705328 -13.9809761  10.5915737   5.8671236 -15.0345411  11.9766159
   6.7058034 -14.2785587  11.8586149   6.2560391 -16.0289955  12.1876040
   5.0802779 -14.5727787  13.2014675   4.6757822 -13.5917244  12.9719791
   5.7462792 -14.4861336  14.0625658   3.8932660 -15.4948511  13.5790148
   3.2255135 -15.0316038  14.3284855   3.2992702 -15.8124371  12.7338543
   4.3714471 -16.7890759  14.2490978   4.6397386 -17.7940845  13.6134338
   4.3183393 -16.7146072  15.6183386   4.8858209 -17.7995834  16.4208870
   4.5416522 -18.7749519  15.9817696   4.4925194 -17.7378941  17.4522305
   6.4069009 -17.8119678  16.5389233   6.7218208 -18.5212879  17.2752380
   6.8532133 -16.4069977  17.0761433   6.2831073 -16.1824532  17.9796906
   6.6442976 -15.6325483  16.3365688   8.2925587 -16.3366394  17.3722820
   8.9659567 -16.9588432  18.6926765   9.0926228 -18.5063972  18.3090572
  10.3029251 -19.0568180  17.7866955  11.1505814 -18.3333378  17.8057671
  10.1113720 -19.2874107  16.7516880  10.6839705 -20.3478050  18.5675163
  11.6215954 -20.7181740  18.1398411   9.8783741 -21.0643997  18.4164600
  10.9356747 -20.1539822  20.1046162   9.6559696 -20.1694603  20.7988434
   8.9803715 -19.4010353  20.3721809   9.7497225 -19.9860535  21.8760319
   9.2035503 -21.1315842  20.5934048  11.7822351 -21.2691956  20.5838699
  12.6918888 -21.2679787  20.0220757  11.2122583 -22.1873188  20.4686146
  11.9816303 -21.1317234  21.6502304  11.6985312 -18.8962669  20.4090214
  12.6739359 -18.9526138  19.9466705  11.8252668 -18.8749294  21.4567413
  11.1839857 -18.0191841  19.9899635  10.3198233 -16.3466892  18.8935986
   7.9526234 -16.9273071  19.8247547   7.0588393 -18.1022396  15.2976704
   7.3187680 -19.3683262  14.9203825   7.0910912 -20.3060265  15.6403732
   7.9669113 -19.5244102  13.5564060   7.6209922 -20.5112667  13.2218838
   7.6385355 -18.7989635  12.8456268   9.5440617 -19.4903717  13.6428185
   9.9136581 -20.3439140  14.3010674   9.9568386 -19.7337570  12.6529179
  10.1669416 -18.1849556  14.1160536  10.0190687 -18.0579529  15.2065849
  11.1992369 -18.3337250  14.0149393   9.7238264 -16.9493294  13.3304558
   8.5941048 -16.8908463  13.1691751   9.9894915 -16.0926666  13.8862143
  10.4652224 -16.7846889  11.9732046  11.5282240 -16.9148388  12.1215668
  10.1494303 -17.6526775  11.3976421  10.2199888 -15.4869366  11.2635651
   9.3071299 -15.5435047  10.6783667  10.1029577 -14.6393023  11.9241543
  11.4147892 -15.0719833  10.2812405  12.3165884 -15.0080051  10.8800116
  11.5708685 -15.9232512   9.5655384  11.0501900 -13.8589954   9.5143337
   9.9877243 -13.6060324   9.3666296  11.9259586 -12.9104033   9.2344685
  11.5844479 -11.9218817   8.8640461  13.4530153 -13.0776739   9.2917309
  13.8416729 -12.3666773  10.0466490  13.7994423 -14.0869331   9.5358171
  14.1857738 -12.6757812   7.9822845  13.9124622 -11.7015123   7.6291237
  15.2798233 -12.6137247   8.1657085  13.9368744 -13.6014709   6.7372365
  14.2076483 -14.6539059   6.9340286  12.8539696 -13.5917206   6.5843911
  14.6159477 -13.2029428   5.3398376  15.6673231 -13.2971048   5.4995418
  14.3173304 -13.9418087   4.5749435  14.1807375 -11.8214693   4.8136029
  13.0892458 -11.8223467   4.6598091  14.4326706 -11.0128155   5.5421171
  14.7369289 -11.4227476   3.4475124  14.2691441 -10.5065622   3.0812316
  15.8283157 -11.3485050   3.5313072  14.4802809 -12.4956121   2.3486640
  15.1972284 -13.2834473   2.4677742  13.5018311 -12.9568043   2.5033679
  14.6456184 -11.9556475   0.9229407  14.6470308 -12.7797260   0.1665600
  15.6283674 -11.4473858   0.7370988  13.8548985 -11.2356462   0.7437586
 -22.9502602 -32.2226753  -1.4922768 -22.5150204 -33.0898018  -0.9734228
 -22.3464680 -32.0829697  -2.3977022 -23.9406986 -32.5067749  -1.7691746
 -22.9704685 -30.9857407  -0.5726038 -21.9730873 -30.8553581  -0.1944544
 -23.6157818 -31.1625881   0.2993703 -23.4078426 -29.7094917  -1.3461560
 -24.5011368 -29.8164387  -1.5396653 -22.7751236 -29.6143703  -2.2498693
 -23.1286278 -28.4273796  -0.5537413 -23.4119263 -27.6297665  -1.2325230
 -22.0784492 -28.4074001  -0.3210208 -23.8981457 -28.2219791   0.7988870
 -23.5998764 -27.1770363   1.1907592 -23.6120453 -28.9977150   1.5187813
 -25.4197483 -28.2696056   0.6614003 -25.6463852 -29.2679958   0.2546329
 -25.8798981 -27.6031208  -0.0367122 -26.1266327 -28.1834984   2.0008750
 -26.0568352 -27.2069931   2.4675603 -25.6405430 -28.8962593   2.6473360
 -27.5831642 -28.5414982   1.8777947 -27.8008766 -29.3107586   1.1522717
 -28.1623631 -27.6291180   1.5112495 -28.1491261 -29.0191479   3.2347178
 -27.5013771 -29.7124214   3.6954632 -29.0886574 -29.4074326   3.0860720
 -28.4193707 -27.8434658   4.1846137 -29.0466862 -27.1873016   3.6772380
 -27.4541206 -27.3243999   4.3481393 -29.0390759 -28.2728615   5.5281377
 -29.9395542 -28.8889332   5.2520485 -29.2850914 -27.3783398   6.0747666
 -28.1064606 -29.1137123   6.4377923 -27.0753098 -28.7804222   6.3595386
 -28.0474319 -30.1944904   6.0189505 -28.4736252 -29.1566200   7.9311395
 -29.5627975 -29.2916412   7.9936786 -28.2515373 -28.2349815   8.4367018
 -27.8103275 -30.3292770   8.6876726 -26.7033997 -30.3469925   8.6118946
 -28.1595650 -31.2330475   8.1629000 -28.2760715 -30.3396130  10.1203718
 -29.3492050 -30.4217224  10.1991262 -28.0477238 -29.4056587  10.6050129
 -27.7415848 -31.5556641  10.8281527 -28.4429760 -32.4429131  11.2909784
 -26.3600712 -31.4861660  10.8228836 -25.6103802 -32.6720848  11.1081257
 -25.5927734 -33.2640686  10.1773071 -26.1629276 -33.2800484  11.8681774
 -24.2081432 -32.3813171  11.7200937 -23.8355255 -33.3394699  12.0558462
 -24.3442135 -31.5358257  12.9428816 -25.1470566 -31.8843060  13.5675831
 -24.5596237 -30.4765358  12.6843843 -23.1082993 -31.5830135  13.6848221
 -22.8752556 -32.4480095  15.0236883 -22.5561695 -31.2706490  16.1074238
 -23.5850353 -30.3156700  16.4554195 -24.2741985 -30.7247238  17.1745205
 -24.2239170 -30.0463791  15.5970526 -23.0733948 -28.9963264  17.0212250
 -22.5389194 -29.2963581  17.9451809 -23.8651257 -28.2952862  17.3285980
 -22.0713406 -28.1833687  16.1892967 -22.8148155 -27.5913029  15.0451508
 -23.0784016 -28.4785442  14.4880772 -22.1303368 -26.8951111  14.5715847
 -23.7000961 -27.0118141  15.3815737 -21.6280556 -27.0037060  16.9713364
 -21.1516666 -27.3153114  17.8619843 -22.5071907 -26.3781528  17.1551743
 -20.9788685 -26.3871212  16.2832928 -20.8327274 -28.8881683  15.6886663
 -20.4354458 -29.4434357  16.5478783 -20.1280861 -28.1461887  15.3171072
 -21.0431747 -29.6240997  14.8864326 -24.0913372 -33.1494293  15.4756460
 -21.6995831 -33.2208748  14.8721266 -23.2265587 -31.6943150  10.8428774
 -22.2157364 -32.4056587  10.2657509 -22.2510757 -33.6165581  10.1318302
 -21.1174393 -31.5417290   9.6882153 -20.5035763 -31.2309666  10.5014334
 -20.4854317 -32.1663933   9.0435686 -21.6750355 -30.3373547   8.9066496
 -22.1810818 -29.6556854   9.6299706 -20.8319206 -29.8006554   8.5751982
 -22.5978260 -30.7731514   7.7980995 -22.0723896 -31.5703125   7.2272153
 -23.5059547 -31.1971703   8.2940979 -23.0382061 -29.6517982   6.8077664
 -23.2660007 -28.7144470   7.3391256 -22.2218132 -29.4153500   6.1163087
 -24.3378353 -29.9227943   6.0161667 -25.1716919 -29.9107094   6.6770768
 -24.4413223 -29.0795174   5.3020144 -24.2685814 -31.2692566   5.2199154
 -24.1171570 -32.1046448   5.9163027 -25.2478199 -31.3908672   4.7009277
 -23.1683445 -31.3703556   4.1485128 -23.2868423 -30.6090965   3.3927248
 -22.1570377 -31.2520504   4.5916662 -23.1312580 -32.6967964   3.4267645
 -22.1461773 -32.8555984   2.9510925 -24.0107269 -33.6789513   3.3829432
 -23.7408733 -34.5684776   2.8191116 -25.4807072 -33.7191429   3.7872899
 -25.9273415 -34.7307472   3.7744830 -25.6157722 -33.4067001   4.7909107
 -26.3507652 -32.7915993   2.9038308 -27.3223953 -32.6955757   3.4040663
 -25.9660797 -31.8126392   2.7927613 -26.6112537 -33.2098694   1.4619806
 -25.6735210 -33.5099335   1.0333581 -27.3178596 -34.0448418   1.3973367
 -27.2682304 -32.0476494   0.6282196 -28.2498837 -31.8979683   1.0486779
 -26.7224598 -31.1482525   0.8644539 -27.3272438 -32.3625526  -0.8963466
 -26.3608379 -32.7772446  -1.2289289 -28.1278229 -33.0943985  -1.0693585
 -27.6280441 -31.1036415  -1.7182651 -28.6460476 -30.7059860  -1.5814399
 -26.9863777 -30.3254795  -1.3027893 -27.2132225 -31.1503391  -3.2267962
 -26.2008839 -31.4606647  -3.3408067 -27.8159561 -31.8490105  -3.7829459
 -27.2629452 -29.7932091  -3.8120961 -27.0633869 -29.7510052  -4.8826666
 -26.5885925 -29.0993671  -3.3751581 -28.2489471 -29.4173641  -3.6893198
 -29.4564037 -19.3785019   2.4707925 -30.3456135 -19.0196304   1.9397569
 -29.8145752 -20.1752853   3.1389928 -28.7640591 -19.7934017   1.7738925
 -28.8111992 -18.2370167   3.2090926 -29.5820599 -17.7147655   3.8019838
 -28.4262829 -17.5530834   2.4715273 -27.6339035 -18.6510715   4.0319624
 -27.3086777 -17.7958241   4.6565375 -26.8526821 -18.9290352   3.3546829
 -27.8839684 -19.8455105   4.9743266 -28.1794815 -20.6964417   4.3601966
 -28.7791424 -19.5671806   5.5808420 -26.7575436 -20.2695637   5.9063601
 -26.3376598 -19.3577175   6.2798882 -26.0237293 -20.8017635   5.3181286
 -27.2366123 -21.1696510   7.0213327 -26.3871555 -21.7428570   7.3628516
 -28.0007858 -21.8694038   6.5691466 -27.8771954 -20.3526020   8.1704674
 -28.7038422 -19.7199650   7.8145099 -27.1440926 -19.6893921   8.6477146
 -28.3331852 -21.3921623   9.2171316 -27.4776077 -21.9931507   9.6129208
 -29.0541725 -22.0585232   8.7078085 -28.9728909 -20.7471581  10.4529753
 -28.3966846 -19.8859787  10.7239351 -28.9756851 -21.4226704  11.3238277
 -30.3982372 -20.2918262  10.1058960 -30.4223995 -19.5762672   9.2755690
 -30.7126541 -19.7581501  10.9899035 -31.3947372 -21.4231014   9.7696276
 -31.2793713 -22.2110405  10.5615749 -31.1498547 -21.9174080   8.8370447
 -32.8558807 -21.0141449   9.7061443 -33.0771103 -20.6832428   8.6901474
 -32.9917603 -20.1657124  10.3855619 -33.8127289 -22.1583557  10.1855850
 -33.5163727 -23.0395050   9.6505222 -34.8154869 -21.8862896   9.9225664
 -33.6852036 -22.3906116  11.7102737 -32.7018585 -22.7880287  11.9023705
 -34.4051018 -23.1716423  12.0000353 -33.8546562 -21.2381649  12.7451553
 -34.8114281 -21.2659264  13.2619295 -33.8028793 -20.3341560  12.2199869
 -32.7753334 -21.2479897  13.8403931 -33.0629578 -21.3632965  14.9869452
 -31.5120525 -20.9943295  13.3838377 -30.5600662 -20.7966499  14.4745054
 -31.0045509 -20.1314640  15.2382755 -29.6860523 -20.2575512  14.1195345
 -30.1501503 -22.1283436  15.2068853 -31.0285950 -22.7439194  15.5358696
 -29.3926716 -21.7831059  16.5010967 -29.9654179 -21.0792351  17.1332378
 -28.4339752 -21.3559723  16.3075275 -29.0636749 -22.9654140  17.2559090
 -30.0170326 -23.6883430  18.2828770 -31.1093884 -24.4927883  17.4215412
 -30.6731491 -25.7283001  16.7586002 -30.1195698 -26.3777714  17.4280453
 -29.9933224 -25.4969635  15.9209576 -31.8347912 -26.5239124  16.1787052
 -31.4367275 -27.4724293  15.7578697 -32.2313995 -25.9358311  15.3502750
 -32.9531937 -26.9740982  17.0767899 -33.9736099 -25.9042664  17.4894848
 -33.4216461 -25.1137714  17.9632034 -34.7690277 -26.2892838  18.2132568
 -34.5045929 -25.5576706  16.6203003 -33.6125107 -28.0764389  16.3312130
 -32.9997482 -28.9347878  16.4069862 -33.7921753 -27.8899460  15.2522240
 -34.5498734 -28.3302593  16.7875404 -32.3700752 -27.5483494  18.3085327
 -31.6018467 -28.2371235  17.9858055 -33.1714821 -28.1000214  18.8198261
 -31.9823246 -26.7398052  18.9288788 -29.2398376 -24.6659069  19.0868740
 -30.7291107 -22.6435699  19.0734921 -29.2469807 -22.8945007  14.3470402
 -29.6493263 -23.8477306  13.4753513 -30.8232288 -24.2084484  13.3751001
 -28.4947300 -24.3320065  12.5990009 -28.0376987 -23.5289211  12.0564098
 -27.7637081 -24.6681805  13.2754717 -28.8838558 -25.4513664  11.6166868
 -27.9905109 -26.0407047  11.3290310 -29.5426750 -26.2035847  12.0952129
 -29.5977249 -24.9572792  10.3501530 -30.6233139 -24.7265453  10.5363264
 -29.1631546 -24.0632420  10.0049791 -29.5279789 -26.0559578   9.2558508
 -28.5242062 -26.2478256   8.8637896 -29.9096889 -26.9571972   9.7444935
 -30.4278584 -25.8229427   8.0127125 -30.5589314 -26.7257919   7.4636168
 -31.4144440 -25.5149384   8.3332777 -29.8622799 -24.6538620   7.1462679
 -29.6746559 -23.7151890   7.6583204 -28.8597031 -24.9099083   6.8195243
 -30.7842140 -24.2303753   5.9557877 -30.2674084 -23.6618443   5.2114434
 -31.0164146 -25.1161079   5.4014134 -32.1056824 -23.5274868   6.3542848
 -32.8878822 -24.1557350   6.6081867 -32.2857552 -22.1944599   6.3919258
 -33.2529907 -21.9580917   6.8200021 -31.4798164 -21.0342789   5.8946762
 -31.0273094 -20.5068417   6.7155123 -30.6233044 -21.3914509   5.2807164
 -32.2995644 -20.0957108   4.9587970 -33.0063934 -19.4993992   5.5791454
 -31.6489582 -19.4347019   4.4122586 -33.0892410 -20.7751484   3.8669658
 -33.9320984 -21.2509136   4.3082185 -33.4734955 -20.0211735   3.1266906
 -32.2506828 -21.8425159   3.1263587 -31.4761181 -21.2608700   2.6269186
 -31.6986446 -22.4952679   3.8242695 -33.0666389 -22.7184181   2.1850712
 -33.8572044 -23.1915684   2.7836571 -33.6052818 -22.0518036   1.5168579
 -32.3115883 -23.8134422   1.4111996 -32.9621048 -24.2703934   0.7010656
 -31.5352478 -23.3572750   0.8275183 -31.7466965 -24.9316616   2.3356822
 -30.7949047 -24.5712662   2.7158008 -32.3371201 -25.1864223   3.2335331
 -31.4157009 -26.1821270   1.6196244 -31.2365341 -26.9830742   2.3297675
 -30.7152557 -25.9854984   0.8625849 -32.2808990 -26.5023155   1.0805385
 -36.6346779   9.7610722  -3.3344307 -36.8122177   9.5229778  -4.3752933
 -35.6653709   9.2190104  -3.0652142 -36.4060783  10.8276167  -3.2785535
 -37.7439041   9.3061056  -2.4482536 -37.7429123   8.2208672  -2.5054302
 -38.6840744   9.7410336  -2.7363782 -37.4529190   9.7531404  -1.0347878
 -37.5846443  10.8638182  -0.9523844 -36.4010773   9.5343056  -0.7987257
 -38.3901062   9.1102753  -0.0212980 -38.4699974   8.0157299  -0.1969421
 -39.3836823   9.4995565  -0.1439358 -37.8249588   9.4288177   1.3737553
 -37.6938591  10.4451990   1.4958369 -36.7833328   9.0689306   1.4171863
 -38.6600533   8.7875462   2.5124028 -38.7592964   7.6791172   2.4580832
 -39.6187248   9.2740965   2.4594910 -37.9602089   9.0911522   3.8671563
 -37.0452843   8.5363464   3.9778295 -38.5261230   8.7207870   4.6938996
 -37.7093620  10.5647488   4.0650816 -38.5974236  11.2250481   3.8611104
 -36.9586868  10.9436502   3.3568118 -37.1338921  10.9502211   5.4412003
 -36.1544762  10.5038738   5.5170307 -37.7267418  10.5469465   6.2712235
 -36.9544182  12.4697638   5.6357336 -36.3793221  12.8616438   4.7869406
 -36.4298058  12.6247034   6.5630970 -38.2691231  13.2300997   5.7668276
 -38.8287048  12.7564707   6.5683675 -38.8554039  13.0455351   4.8400202
 -38.2320747  14.7720451   5.9348292 -39.2242622  15.2290192   6.0186362
 -37.7745705  15.2243080   5.0596471 -37.4364548  15.2242956   7.1667886
 -37.5203629  16.3028564   7.3727126 -36.3643684  15.0887527   6.9328022
 -37.7437782  14.4842100   8.5100994 -37.0559540  14.9444962   9.1997318
 -37.4623222  13.4761820   8.3416729 -39.1504936  14.5293798   9.0799751
 -39.8691330  14.2381773   8.3230028 -39.4016685  15.5030937   9.4476767
 -39.2536316  13.5768833  10.2291107 -39.4367561  12.3940716  10.0897207
 -39.0880890  14.1271830  11.4544249 -39.1138802  13.2492981  12.6595774
 -39.7545204  12.3930178  12.4710512 -39.5905991  13.8198681  13.4629745
 -37.7105064  12.7981138  13.0758085 -37.8197784  12.1946821  13.9502201
 -36.8369484  13.9997692  13.5155497 -37.3206673  14.5814180  14.3111601
 -36.6093254  14.6523228  12.6592484 -35.5569534  13.5581646  14.0930843
 -35.5257111  12.9229488  15.6109991 -36.0762062  11.4141264  15.3801098
 -35.2448616  10.4431429  14.6992874 -34.2686005  10.9007921  14.7229710
 -35.5848846  10.4559317  13.6472645 -35.3364868   9.0634403  15.3965845
 -34.7934341   8.4086418  14.7568598 -36.3863449   8.7195501  15.3973246
 -34.7118912   8.9674034  16.7688522 -35.5231705   9.7560272  17.7472305
 -35.1967468  10.7975159  17.8178101 -35.4844818   9.3643637  18.7637558
 -36.5450592   9.7688618  17.3856583 -34.5905457   7.4871278  17.2402115
 -33.7751045   6.9997745  16.7415314 -35.4921570   6.9493513  17.0825996
 -34.4740334   7.5090861  18.3281918 -33.3456879   9.5801907  16.7690639
 -32.8316994   9.1611233  15.8873615 -32.8120766   9.3282919  17.7177849
 -33.4183655  10.6897593  16.6880589 -34.1181984  12.8035154  16.0611935
 -36.5240059  13.6317272  16.4983444 -36.9784775  12.0426846  12.0249224
 -37.3786964  10.7976208  11.7987165 -38.3661919  10.2456055  12.2301874
 -36.4819298   9.9766684  10.8457747 -35.6836243   9.4904003  11.4466953
 -37.1019287   9.2411566  10.3652105 -35.8843842  10.7972355   9.7085695
 -35.7421150  10.0768938   8.9505806 -36.6569710  11.5165749   9.3517609
 -34.5120087  11.4435444  10.0436077 -34.5433121  11.9136734  11.0187435
 -33.7094650  10.6991062  10.1553431 -34.0607529  12.4950886   8.9995708
 -34.8386040  13.2797012   8.8517284 -33.1095276  12.9806843   9.3200226
 -33.8078537  11.9420805   7.5791712 -33.0309296  11.2072678   7.6754165
 -34.6977654  11.4388838   7.2595840 -33.4157677  13.0976734   6.5949163
 -34.1703835  13.8201485   6.7188749 -32.4460297  13.5898314   6.8375559
 -33.3219757  12.7156172   5.0813909 -32.3471298  12.2422218   4.9876928
 -34.0879860  11.9877863   4.8391395 -33.3477821  14.0114613   4.2404790
 -32.9613533  14.9252834   4.7442789 -33.8355560  14.1388893   3.0281267
 -33.9040146  15.1505327   2.6075673 -34.4261932  13.0696678   2.1808593
 -33.6786575  12.4638796   1.7215723 -35.1178589  12.4579239   2.7871380
 -35.2719955  13.7915459   1.0872113 -34.6237755  14.3615999   0.4159451
 -35.7392883  13.0622759   0.4823576 -36.3705521  14.7937384   1.6051047
 -36.0140953  15.3021965   2.5115714 -36.5513153  15.5107059   0.8570545
 -37.6867371  14.0473328   2.0284948 -37.3508492  13.2014217   2.5979803
 -38.3218536  14.6867142   2.6917443 -38.5498962  13.5958786   0.7869958
 -38.7847977  14.4751406   0.1830641 -37.9551620  12.9526424   0.1130412
 -39.8348541  12.9262075   1.4040556 -39.4937897  12.0360222   1.9540631
 -40.1934280  13.5963306   2.1911554 -40.8784447  12.5003004   0.3670971
 -40.4970551  11.8692799  -0.3965140 -41.7215691  11.9979773   0.9044936
 -41.4417992  13.7695112  -0.3200572 -42.4162903  13.5348902  -0.7256698
 -40.7736664  14.0479813  -1.1312551 -41.5847397  14.5415449   0.4306933
 -36.9849167  21.3107853   4.7511010 -36.9443169  21.0587234   3.7088475
 -37.9198685  21.9137554   4.8746214 -37.0798798  20.3934135   5.3955517
 -35.7463226  22.1309929   5.0757699 -35.7352867  22.9819298   4.4242797
 -34.8190651  21.5945454   4.8911505 -35.7016220  22.6978855   6.4684992
 -36.5916786  23.2275848   6.7474389 -34.9689331  23.4574432   6.4510412
 -35.3854294  21.7050591   7.6172500 -34.3906059  21.3300781   7.4368429
 -35.9986076  20.8093433   7.4917746 -35.5597343  22.3181248   9.0530386
 -36.4947166  22.9200382   9.1053276 -34.7380219  23.0475922   9.2723265
 -35.6325188  21.1990147  10.1050806 -34.7735825  20.4817276   9.9675941
 -36.4836044  20.5799599   9.8998804 -35.7740936  21.7306881  11.5890846
 -36.6051712  21.1450958  12.0298424 -35.9439697  22.7906342  11.6385603
 -34.4795609  21.4230556  12.3014069 -33.6689873  21.9639378  11.7962494
 -34.2627792  20.3548336  12.2981157 -34.4590530  21.8366280  13.7885017
 -33.4689331  21.4735641  14.1568384 -35.2761841  21.4055843  14.3778028
 -34.4521446  23.3313389  14.0729914 -35.4846001  23.7449570  13.9021454
 -33.7296066  23.8766861  13.4677944 -34.0687103  23.6145859  15.5437994
 -33.0275879  23.3974094  15.6619253 -34.6252747  22.9870510  16.2424736
 -34.3209877  25.1165466  15.8747196 -35.3185005  25.5214195  15.7354450
 -33.6533852  25.6385155  15.1037016 -33.8224564  25.5368977  17.2979050
 -32.7848129  25.2932758  17.3004913 -34.3536224  24.9655895  18.0978222
 -33.9754410  27.0683403  17.4549274 -35.0453873  27.3125820  17.5006962
 -33.6112328  27.4802227  16.4903793 -33.2355957  27.5971241  18.6834545
 -33.1116104  28.6690693  18.5175152 -32.2173309  27.2065964  18.6623783
 -33.9299774  27.3718872  19.9962749 -34.5177994  28.2580032  20.6052418
 -33.8224564  26.0964508  20.4424839 -34.5356712  25.7197170  21.6811943
 -35.5597763  26.1694336  21.7461853 -34.0068703  26.1860638  22.4968529
 -34.6437492  24.1686172  21.9365959 -35.2809601  23.9650440  22.8198509
 -33.2419128  23.6266708  22.3798256 -33.4561348  22.6735878  22.8420906
 -32.6828918  24.2646008  23.0811901 -32.4578781  23.3574104  21.1965370
 -31.5616531  21.9626217  21.0953903 -32.6906967  20.7857742  21.0488873
 -33.4421501  20.5115814  19.7956314 -33.3547554  21.3739510  19.1152420
 -34.4649658  20.3084946  20.0381966 -32.8034592  19.3305092  19.1343613
 -31.7675571  19.5856514  18.9448967 -33.2824478  19.2255516  18.1382256
 -32.7018433  17.9773121  19.8591671 -33.9593468  17.6762371  20.6247425
 -34.1370735  18.4653664  21.3569679 -33.7940140  16.6654549  21.0992889
 -34.8162193  17.6736164  19.9094353 -32.5443420  16.9663925  18.8102932
 -31.5942993  17.1115971  18.3296471 -33.4135895  17.0184917  18.1428680
 -32.5191154  16.0455322  19.3821640 -31.5363293  17.9059277  20.7787151
 -30.6273842  17.6965084  20.2477474 -31.6681328  17.0336018  21.4235611
 -31.4604473  18.8585224  21.3629131 -30.8661633  21.9513245  19.7737846
 -30.7531204  21.7432117  22.3281879 -35.1234589  23.4123402  20.7734089
 -36.3282547  23.6872501  20.3230591 -37.0773773  24.4772167  20.8226948
 -36.6343918  22.8915997  19.0812511 -37.1222305  23.4347515  18.2868080
 -35.6824913  22.5131588  18.6744156 -37.5023727  21.6779747  19.5262127
 -36.9757614  21.0086823  20.2070274 -38.4434204  22.0524426  20.0368118
 -37.9858894  20.8317089  18.3207397 -38.7748375  20.1323624  18.6249905
 -38.3251305  21.5023212  17.5276794 -36.8110695  20.0672321  17.7145615
 -35.9937820  20.7883568  17.5354919 -36.5664253  19.3410892  18.4968910
 -37.0148163  19.2516670  16.4089565 -37.8832016  18.5834408  16.5707226
 -37.2599602  19.9859581  15.6242418 -35.7568779  18.4334679  15.9874353
 -34.9363022  19.1351624  15.8103523 -35.4431801  17.7726841  16.7956448
 -36.0721893  17.5963554  14.7085304 -36.9023743  16.8928452  14.9414167
 -36.3752480  18.2732468  13.9630499 -34.8429909  16.7943459  14.2163086
 -34.4443207  16.1805038  15.0094509 -34.2179794  16.8136063  12.9948673
 -33.2924957  16.3091183  12.8589764 -34.6719398  17.5756989  11.7463293
 -35.5874939  18.1069279  11.8838406 -33.8977127  18.2760448  11.3325510
 -34.9733353  16.6003628  10.6184816 -35.6911201  15.8132744  10.9758558
 -35.4663582  17.0800133   9.7610149 -33.7349358  15.9292593  10.0699329
 -33.1585541  15.3752537  10.7948723 -34.0196457  15.1797094   9.3280172
 -32.6993713  16.8751907   9.3702993 -32.1122932  17.4659424  10.1080627
 -31.9794674  16.2018852   8.8551741 -33.2815552  17.8275719   8.3080759
 -33.9776268  18.5177040   8.7982235 -32.5511551  18.4299355   7.7708302
 -34.0626259  17.0689774   7.1954103 -33.3560104  16.3444633   6.7051706
 -34.8951530  16.5587292   7.5735111 -34.5776939  18.1139793   6.1818128
 -35.2154846  18.8261204   6.7006803 -33.7075424  18.6811123   5.8709688
 -35.3675308  17.4777813   4.9926591 -35.2382393  17.9957447   4.1359258
 -36.4082413  17.3200035   5.2545257 -34.9354324  16.4902802   4.7878904
  18.7649498  -9.8679962   8.8738070  17.8805962  -9.3651419   9.2718391
  18.5078602 -10.4066219   7.9479742  19.4332161  -9.0214319   8.5215864
  19.3663635 -10.8706846   9.8716755  18.5820808 -11.5134869  10.2961359
  19.8790207 -10.3355589  10.6326237  20.3898144 -11.8030739   9.1793804
  19.9923286 -12.3150873   8.3639946  20.6931305 -12.5707712   9.8876162
  21.6406231 -11.0239048   8.6886253  22.1869831 -10.7163134   9.5539484
  21.3445396 -10.1236687   8.0687370  22.5971069 -11.8482771   7.7552757
  23.6372776 -11.4272041   7.7813554  22.2620182 -11.8147373   6.7208428
  22.7323418 -13.3110428   8.2671366  21.7492199 -13.7473955   8.2213955
  23.0616932 -13.3370256   9.3233929  23.7210388 -14.1157045   7.4203010
  24.6544666 -13.5742559   7.5009065  23.4271240 -14.1174173   6.3391089
  23.8725891 -15.6117458   7.9220705  24.2720242 -15.5994997   8.9399471
  24.5900059 -16.1094341   7.2484374  22.5697327 -16.4178715   8.0562286
  22.1583176 -16.5287170   7.0449347  21.7717915 -15.9039164   8.6225300
  22.7646427 -17.8508224   8.5501347  23.5834694 -18.3038731   8.0274868
  21.8703461 -18.3916588   8.2491436  22.9880810 -17.9162178  10.1009893
  24.0256920 -17.6235924  10.3516102  22.9904957 -18.9374886  10.3989134
  22.0257835 -17.1103401  10.9704819  20.9897232 -17.4264374  10.7618418
  22.1137257 -16.0800591  10.7858200  22.3125687 -17.3593884  12.4580011
  23.3521843 -17.1567116  12.6545820  22.1617203 -18.4173794  12.6237726
  21.4867764 -16.5164795  13.4502878  20.4767017 -16.9116650  13.4140835
  21.5104313 -15.4582510  13.1459093  22.0132923 -16.6024570  14.8894825
  23.0981617 -16.2378616  14.9133482  21.9881535 -17.5503559  15.3674212
  21.1529140 -15.7206631  15.7941170  20.2611942 -16.1417465  16.5523643
  21.4737434 -14.4054947  15.6418839  20.6208591 -13.3831968  16.2460117
  21.2631989 -12.6410761  16.7214165  19.8889275 -13.8066721  16.9866219
  19.7280388 -12.7361050  15.1746035  20.4158497 -12.5741882  14.2789974
  19.0744419 -11.4169226  15.6743870  18.3804474 -11.0572147  14.8647175
  19.8640766 -10.6934538  15.8116808  18.2798920 -11.5306082  16.9197502
  16.8544502 -12.3635616  16.9544315  17.3324738 -13.9188280  17.0815792
  17.4473877 -14.5850286  18.3568783  17.8311310 -13.9496441  19.1444130
  18.1774158 -15.3625193  18.2398472  16.0051460 -14.9529190  18.8523445
  15.3780746 -14.0701571  18.7519131  15.9360266 -15.2232542  19.9417706
  15.2955189 -16.1289043  18.1944447  15.0283527 -15.8594418  16.7755623
  14.5213118 -14.8761368  16.6549168  14.2947521 -16.6155224  16.4308491
  15.9748459 -15.8459530  16.2072487  16.1008034 -17.3834209  18.2850723
  16.2586727 -17.5881042  19.3535576  16.9927025 -17.1974754  17.7718468
  15.4726877 -18.1260262  17.7969799  14.0366173 -16.4328671  18.8719864
  14.2596779 -16.6017342  19.9478321  13.5644712 -17.3189201  18.3661919
  13.3749113 -15.6163940  18.7384396  16.2835789 -11.8998623  18.2224503
  16.1240959 -12.0458794  15.7055321  18.7897758 -13.7491217  14.6940079
  18.0707378 -13.3513060  13.6164913  18.3430176 -12.3812141  12.9211130
  16.9563789 -14.3691177  13.3125353  16.3279648 -14.4892654  14.1832733
  16.3700619 -13.9477577  12.5089455  17.4802895 -15.7999220  13.0254545
  17.8353424 -16.2243862  13.9222517  16.6527195 -16.4807072  12.7884026
  18.5242233 -15.7928295  11.9200850  19.2773209 -15.0006628  12.0761385
  19.0631027 -16.7211571  11.8187447  17.7680759 -15.5088797  10.5960712
  16.8554306 -16.0623131  10.4867001  17.5506363 -14.4626465  10.6214943
  18.7170086 -15.6785479   9.3606339  19.6493435 -15.0508919   9.5012169
  19.0520649 -16.7243671   9.2947216  17.9256821 -15.3229542   8.1017227
  17.0317421 -15.8769989   8.0178947  17.5306416 -14.2944565   8.2215490
  18.7224083 -15.4369316   6.8296967  19.7212677 -14.9897327   6.9816728
  18.7469463 -16.5116158   6.5881486  18.0958290 -14.7196198   5.6635628
  17.1587601 -14.2498055   5.9659252  18.6358147 -14.3708000   4.5215435
  18.0926876 -13.7557020   3.8266013  19.9561481 -15.0007715   3.9807618
  20.3049202 -15.8646355   4.5776324  19.8249054 -15.4565544   2.9892292
  21.0818653 -13.9269295   3.8164530  20.6515007 -13.0546856   3.3558612
  21.4759483 -13.5416756   4.7553182  22.2463779 -14.4133749   2.9632471
  21.9446163 -14.4277086   1.9107593  23.1027012 -13.7154331   3.0379286
  22.7198982 -15.8059893   3.3423724  22.8427887 -15.7477951   4.4549718
  21.9725151 -16.6145344   3.1607461  24.1086864 -16.2104568   2.7650044
  24.0487022 -16.2502251   1.6808772  24.8496037 -15.4534016   2.9852762
  24.6734409 -17.5538254   3.3129189  24.1156654 -18.3975639   2.9169271
  25.6658726 -17.7014503   2.9447892  24.5964031 -17.6450844   4.8569913
  25.0799160 -16.7840271   5.3721218  23.5554428 -17.6251984   5.1981568
  25.1756935 -18.9199753   5.3835940  24.9690456 -18.9454308   6.4607120
  26.2819290 -18.8850670   5.2387838  24.7406006 -19.8461437   4.9406409
   7.7997155  14.0088863   2.2011335   6.9487524  13.4788284   1.6698505
   8.6768208  13.3930435   1.8748546   7.9223452  15.0666189   1.8416536
   7.4479060  13.9739056   3.7064075   7.1481462  12.9715204   3.9304318
   6.5613818  14.5436106   3.9245343   8.6323051  14.2524157   4.6563964
   9.0850048  15.2140417   4.4990106   9.4459524  13.5419102   4.4622269
   8.2037449  14.0628300   6.1045175   7.9040480  13.0448818   6.3050027
   7.2936945  14.6142807   6.3532395   9.3784485  14.4371815   7.0779257
   9.5244761  15.5157032   6.9377565  10.2346344  13.9154196   6.6492577
   9.1859207  14.1047373   8.5430317   9.2844276  13.0428219   8.7117071
   8.1958418  14.4483862   8.8431091  10.1844645  14.8254623   9.5109921
  10.0240412  14.5669985  10.5769691  10.0165367  15.8915606   9.5088530
  11.6159201  14.6351299   9.0237103  11.6210794  15.0511322   8.0213280
  11.8701591  13.5661497   8.8478451  12.7451696  15.2666464   9.8235321
  13.6710443  15.0380573   9.2892685  12.6871061  14.8439178  10.8139715
  12.6143932  16.7926712   9.9435835  11.9493542  16.9999466  10.7414389
  12.1403065  17.1676044   9.0181026  13.9192715  17.6228027  10.0854864
  13.6898127  18.6813240  10.2300739  14.5119181  17.4802666   9.1746941
  14.7169437  17.0139999  11.2795391  15.2104053  16.0875053  10.9188271
  14.0126228  16.7451248  12.0681705  15.7923594  17.9407387  11.8387070
  15.3910789  18.6459618  12.5947657  16.2393360  18.5934086  11.1017551
  16.9455757  17.0987873  12.4734602  17.6693802  17.8148174  12.8298759
  17.4841862  16.4862728  11.7336893  16.5518017  16.1344357  13.6195173
  17.3025856  15.3606052  13.7738914  15.6202526  15.6185932  13.2896051
  16.3836803  16.8642349  14.9289799  17.3255711  17.1012573  15.6893625
  15.1301479  17.2204170  15.0541887  14.7200317  18.1610851  16.1164646
  15.3997841  19.0071487  16.0013428  14.9871244  17.7546120  17.0575752
  13.2550707  18.6252804  16.0235004  13.2743177  19.6397572  16.4216518
  12.3386469  17.7423267  16.9048481  11.3541336  17.6676922  16.4999695
  12.1756277  18.3244667  17.8394947  12.9088984  16.4627895  17.3021774
  11.9741058  15.3978739  18.0993004  11.0892115  14.7924995  16.9349270
  11.3124294  13.4339724  16.3390560  10.3759813  13.1395645  15.8262463
  11.3744545  12.6931810  17.1305637  12.5020599  13.4286795  15.4044676
  12.7949390  12.4141369  15.1447582  13.3437586  13.9088144  15.8579912
  12.4041166  14.1604939  14.0663385  12.2566261  15.6558819  14.2502794
  11.3679066  15.8150120  14.8683310  12.1206179  16.1096382  13.2571335
  13.1194916  16.0919170  14.7485361  13.6580467  13.9105234  13.2848406
  13.6371746  12.8749466  12.9849920  14.5222340  14.0329313  13.9659176
  13.5541458  14.6041927  12.4475822  11.2692270  13.6915207  13.2435904
  11.4670095  12.7200127  12.7385321  11.1080732  14.4151974  12.4810696
  10.3798304  13.8063107  13.8324060  12.8106918  14.3050280  18.5693760
  11.0312042  16.0935822  19.0252323  12.8767147  18.6381741  14.6356440
  11.9880352  19.6281300  14.2858992  11.3847027  20.3480034  15.1378431
  11.8367100  19.6680813  12.8329182  12.8382959  19.7562752  12.4782333
  11.3443146  18.7166328  12.4843111  11.0946655  20.9414845  12.3835030
  10.0910149  20.9702873  12.8542671  11.6103945  21.8360748  12.8308716
  10.9883842  21.0124588  10.8163357  10.4443130  21.8932056  10.4834194
  11.9895210  21.0710068  10.3662863  10.2841969  19.7754097  10.1910028
  10.8321619  18.8337097  10.3512306   9.3113413  19.6452808  10.6936989
   9.8819714  19.9952335   8.7029381   9.0701284  19.2922573   8.4019556
   9.5194635  20.9830513   8.5068913  11.1311474  19.6923943   7.7501936
  11.9111958  20.4283562   7.8772936  11.5583887  18.7304478   8.0010128
  10.7170668  19.6038742   6.2839298  10.1231394  18.6827641   6.0704832
  10.1179790  20.4817181   6.0364504  11.9574823  19.4290791   5.4323339
  12.7841530  20.1024666   5.6878858  12.2150669  18.3873234   4.6230865
  13.1785507  18.2914753   4.1236358  11.1206646  17.4247742   4.1994839
  11.0477438  16.6536369   4.9911661  10.1471910  17.9189472   4.0430746
  11.5163364  16.7006588   2.9179242  12.5818100  16.4866276   2.9215603
  10.9073753  15.7666531   2.8776908  11.1552095  17.4717426   1.6355157
  10.2998629  18.1416550   1.8410789  11.9770336  18.0645256   1.3791986
  10.7365341  16.5479107   0.4349819  11.6140671  16.0172005   0.0748434
  10.0456419  15.7645721   0.8006223  10.0062027  17.2965336  -0.6891084
   9.4030495  16.5884628  -1.3033540   9.2548275  17.9826660  -0.2805659
  10.8609438  18.1539135  -1.6751220  11.6417131  17.4990082  -2.1816933
  10.1582298  18.4409485  -2.4116769  11.4927092  19.3789749  -1.1309440
  10.7239285  19.9432354  -0.6148693  12.2168274  19.0891399  -0.3410963
  12.1249599  20.2479439  -2.2050216  12.7854919  20.9784698  -1.7559471
  11.3229237  20.7761612  -2.7393281  12.6514778  19.6530781  -2.9160511
  40.0077095   2.3692398   3.9760444  40.5836334   1.4485211   3.9153397
  39.7137680   2.3946593   5.0464535  40.6989288   3.1869297   3.7036777
  38.8218498   2.2640533   3.0470042  38.3639183   1.3237643   3.3219073
  39.1712646   2.1492429   2.0082285  37.8674393   3.4504893   3.2455132
  37.0052452   3.2414973   2.6069930  38.2964668   4.3714590   2.8302860
  37.3093529   3.7124040   4.6527677  38.0873718   4.0222816   5.3477640
  36.7711906   2.7969429   5.0143480  36.2636566   4.8633151   4.5745721
  35.3076859   4.4098749   4.2448173  36.6968956   5.6789160   3.8901696
  36.0902252   5.4852681   5.9878120  36.9850464   5.8229923   6.4458795
  35.7181854   4.6893973   6.6769085  35.1185913   6.6813183   6.0091362
  34.1347923   6.2416153   5.9447737  35.3004532   7.3460226   5.1894212
  35.0840988   7.4778514   7.3307352  36.0600815   7.8165646   7.5375433
  34.7645836   6.8396373   8.1382914  34.1736679   8.7064266   7.3330550
  33.1403885   8.4121952   7.2587514  34.4290009   9.3151388   6.4209433
  34.2711792   9.6533594   8.5383015  33.6009941  10.4769850   8.4372292
  35.2386742  10.0992861   8.5437384  34.0293922   8.9724121   9.8625937
  34.5388832   8.0463505   9.8414230  32.9275169   8.7904282   9.9664621
  34.6330338   9.6747789  11.1140356  34.0303154  10.5665350  11.2283840
  35.6534996   9.9759493  10.9002581  34.5864029   8.7506399  12.3489866
  33.5645523   8.3539925  12.5598478  34.9512596   9.3702908  13.1674147
  35.6052475   7.6058841  12.2454729  36.5788116   7.9459925  11.9432869
  35.2560272   6.9673510  11.4275475  35.6875458   6.7591209  13.5597792
  34.7116928   6.5357780  13.9125814  36.2229767   7.3615212  14.3446932
  36.3089218   5.4124689  13.3213987  35.8922653   4.6085210  12.5212374
  37.4238815   5.2000494  14.0502377  38.1006660   3.8380477  14.0321980
  37.7918968   3.2403364  13.1935034  37.9343567   3.3101652  14.9162865
  39.6308365   4.0238686  13.9672947  40.1196518   3.0699408  13.6825094
  40.3190422   4.5114889  15.2594318  41.3622665   4.7188249  15.0384569
  40.2971725   3.7106740  16.0318966  39.6334496   5.6729984  15.8634605
  40.1223526   6.2375364  17.2359200  38.9097595   5.8257556  18.2388268
  38.4724388   4.4823890  18.3224697  39.2130890   3.9628344  18.9396496
  38.5594215   3.9600143  17.3505669  37.0256805   4.3302855  18.8436356
  36.9649429   4.6330881  19.9333420  36.7210693   3.3071532  18.8143425
  35.8657036   5.0549994  18.1411514  34.5920029   4.8616037  18.9345627
  34.3713455   3.7824302  19.0118713  33.8494034   5.4373941  18.3628635
  34.7259102   5.2296548  19.9916935  36.0347061   6.5125761  17.8347988
  36.9823380   6.5367608  17.2918739  36.1529198   7.0985169  18.7085762
  35.1874504   6.7825232  17.2122040  35.7763138   4.4138875  16.7867680
  36.6205292   4.7981210  16.2079983  34.7949219   4.6789570  16.4358368
  35.8260612   3.3385572  16.8946743  41.3604774   5.5780549  17.7832050
  40.1330147   7.7253580  17.1160679  39.9936295   5.0457792  12.9776058
  39.8719940   4.9084363  11.6421328  39.5978470   3.8790896  11.0960436
  40.0504265   6.1984916  10.9108009  40.3453865   6.9054990  11.6705837
  40.7617264   6.1233091  10.0997257  38.7113876   6.7305331  10.3518000
  38.4554634   6.2176418   9.4021645  37.9073944   6.4115648  11.0484591
  38.8064728   8.2427711  10.1213989  37.8565865   8.5661144   9.8213425
  39.0239296   8.7229624  11.0782814  39.8071213   8.7726946   9.1208305
  40.8500633   8.5722294   9.4812031  39.8466225   8.1864872   8.1983643
  39.6565857  10.2776947   8.8478899  39.6879997  10.7513609   9.8394594
  40.5152855  10.5630865   8.3177032  38.4082794  10.8334408   8.0783710
  37.5043144  10.6884785   8.6524286  38.6202393  11.8725500   8.0542250
  38.1969414  10.2694044   6.6275020  38.2295761   9.2265024   6.7335315
  37.2378883  10.6250181   6.2706995  39.2955818  10.5183430   5.6290245
  40.3058243  10.6055164   6.0052104  39.0725670  10.5920029   4.3207245
  39.9224892  10.6946507   3.6323426  37.7318344  10.4381990   3.6152303
  36.9366684  10.9072199   4.1821713  37.8140411  10.9818974   2.6350186
  37.3624115   8.9308653   3.3978083  38.0150490   8.5018091   2.6536558
  37.4107475   8.3424997   4.3298616  35.9876633   8.7273102   2.7658126
  35.7860794   7.6443763   2.5957327  35.2546768   9.1652603   3.4614384
  35.9583359   9.5314255   1.4214213  36.2121277  10.6037626   1.5258038
  36.7922630   9.0750294   0.8464774  34.6595612   9.5216112   0.6322069
  33.9626427  10.2335014   1.0806807  34.8866501   9.9023037  -0.3343220
  34.0338707   8.1809235   0.5124556  33.6508217   7.8299599   1.4384104
  33.0904007   8.2469902  -0.0213240  34.8570480   7.0405793  -0.1689293
  35.6826744   6.8015046   0.5188648  34.3389282   6.0773067  -0.1841483
  35.4170189   7.3523498  -1.5609645  35.9758224   6.5102262  -2.0287969
  36.0952263   8.2083101  -1.5389179  34.6424828   7.7124405  -2.2902491
  18.6455002  -2.5713620   2.6517186  18.0857906  -1.6690491   2.3345876
  19.4890099  -2.6898839   2.0091376  19.0056725  -2.3892107   3.6730506
  17.7935448  -3.8306308   2.5934944  17.9769058  -4.2140751   1.5878593
  16.7341709  -3.5935240   2.6590321  18.0799198  -4.8297143   3.7368684
  17.9257908  -4.2476149   4.6471133  19.1008625  -5.2110367   3.7995112
  17.0626869  -5.9755020   3.8099120  17.1446400  -6.4749341   2.8309026
  16.0566750  -5.5460114   3.8912416  17.3818550  -7.0487280   4.8886471
  18.3198891  -7.4922953   4.6382470  16.6835747  -7.8431220   4.7989488
  17.4403267  -6.5292416   6.3664031  18.3470955  -5.9040542   6.3802023
  17.6865005  -7.3701196   7.0467286  16.1603718  -5.7581663   6.8328280
  15.3708162  -6.4381104   7.1901064  15.7643261  -5.1437526   6.0483532
  16.3920059  -4.7230463   7.9445486  15.5085421  -4.0856209   8.0632286
  17.1593609  -4.0080414   7.6891918  16.7235527  -5.2761917   9.3135281
  16.1658993  -6.2008600   9.4356499  16.2757759  -4.5078168   9.9456701
  18.2199593  -5.4784532   9.6036558  18.7231979  -4.5097456   9.6807499
  18.6714916  -6.0259733   8.8114815  18.4892616  -6.3573246  10.8398361
  19.5621872  -6.2669797  11.0680590  18.2892876  -7.3970561  10.6659842
  17.7630920  -5.8344884  12.0686378  16.7028351  -6.1072083  11.9921865
  17.8765526  -4.7540598  12.0215321  18.3521538  -6.3111491  13.4163532
  17.8153000  -5.7553763  14.2419100  19.3892250  -6.0119038  13.4723091
  18.2175369  -7.8311281  13.6449099  19.1975002  -8.1960974  13.3993902
  17.4768505  -8.2891397  13.0255795  17.8254089  -8.2009306  15.1280537
  17.6625652  -9.2511854  15.2334347  16.8668003  -7.7372551  15.3861103
  18.8450947  -7.6885934  16.1446781  20.0421028  -7.5602574  15.9212313
  18.2752037  -7.3153110  17.3225155  19.0694962  -6.7528315  18.3848972
  20.1249428  -7.1381001  18.4174156  18.5654812  -7.1002622  19.2917480
  19.0011997  -5.2234859  18.3260708  19.6105118  -4.8082108  19.1458817
  17.5256710  -4.7764950  18.5449429  17.1165867  -5.4090080  19.3462353
  16.9177685  -5.0244904  17.6350174  17.3996372  -3.3895168  18.8614960
  17.6044827  -2.8165672  20.3462830  19.1624374  -2.4499545  20.3420753
  19.6463547  -1.1220645  20.0002079  18.9574585  -0.3562509  20.3090706
  19.7621555  -1.0950040  18.9360695  20.9709644  -0.9128977  20.7076874
  20.7608242  -1.1525345  21.7420082  21.1950417   0.1452730  20.5174999
  22.1742096  -1.6779279  20.2704601  23.3326416  -1.4664392  21.1879234
  23.6406536  -0.4167318  21.2256088  24.1605206  -1.9996977  20.7166500
  23.1655865  -1.8895924  22.1956272  21.9428806  -3.1855247  20.2664299
  21.1876488  -3.3379140  19.5345993  21.5443077  -3.4717917  21.2164478
  22.8526707  -3.6746154  20.0002117  22.6283817  -1.1455356  18.9564533
  21.8788795  -1.5080332  18.2748203  23.5903912  -1.5855216  18.6934433
  22.6568394  -0.0748287  19.0411797  16.7447414  -1.5860325  20.4592247
  17.3472290  -3.9078953  21.2989063  19.4576263  -4.7481346  17.0557919
  20.7522106  -4.6596675  16.8567352  21.5863419  -4.9736719  17.6986809
  21.1789913  -4.1940970  15.4277220  22.1505623  -4.5627422  15.1371279
  20.4322033  -4.6480298  14.7585535  21.1968822  -2.6575682  15.3378525
  20.3848190  -2.2841423  15.8896875  22.0356731  -2.2310851  15.8514690
  21.1673260  -2.1727302  13.8867588  21.4694004  -1.0791807  13.8671675
  21.9746418  -2.6327121  13.3776608  19.8698063  -2.4099133  13.0791044
  20.1277771  -2.5410080  12.0546188  19.3801041  -3.3358457  13.3539667
  18.8495922  -1.2398436  13.1743155  18.7174034  -1.0029459  14.2258854
  19.1940460  -0.3489037  12.7566481  17.4080753  -1.6064823  12.6711645
  17.1136799  -2.5751677  13.0551805  16.7197685  -0.9067686  13.0953789
  17.3306198  -1.6033076  11.1391058  18.0922298  -2.1531839  10.6880856
  16.3831501  -2.0579624  10.8624878  17.3279533  -0.1784505  10.5665340
  16.6418056   0.4894483  11.0876312  18.0215797   0.2527567   9.5187407
  17.8677292   1.2849079   9.2420282  18.8819790  -0.5382559   8.5937786
  19.6778908   0.1193963   8.3154583  19.4218845  -1.3943748   9.0355616
  18.2140770  -0.9930193   7.2578831  18.9961872  -1.4503502   6.6635714
  17.4604301  -1.7628134   7.4334831  17.4401550   0.1411478   6.5264177
  16.6965466   0.4415065   7.2613401  18.1270008   0.9321078   6.3222594
  16.7588577  -0.3796297   5.2243066  16.1355000   0.4190165   4.8659353
  17.5650349  -0.4813614   4.4681163  15.9750090  -1.6915656   5.2896829
  15.5825415  -1.8814447   4.2795458  16.7197552  -2.4567618   5.5326600
  14.8830748  -1.6474508   6.3671741  14.2784414  -2.5483797   6.3242579
  15.2990446  -1.4978467   7.3719354  13.8501854  -0.4924999   6.1552243
  13.0756178  -0.6019673   6.9053917  14.3565607   0.5166689   6.3173938
  13.1216679  -0.4976976   4.8183045  12.5291786   0.4334300   4.5983233
  12.4523640  -1.3509780   4.7750559  13.7996311  -0.6370852   3.9725976
  -1.0005902  20.4723091  -0.9014707  -0.4349371  20.7271595  -1.7936080
  -0.5012527  21.0016479  -0.0849961  -1.9920362  20.8997459  -0.9944534
  -1.0213535  18.9182301  -0.6722253  -0.0733871  18.6442471  -0.2668788
  -1.2298622  18.4299049  -1.5998275  -2.1624026  18.4391003   0.2347574
  -2.0159807  17.3823757   0.4458067  -3.1443768  18.5391655  -0.2249223
  -2.1804042  19.2266865   1.5713924  -2.3496139  20.3082924   1.4519739
  -1.2028402  19.2049046   2.0648553  -3.1836748  18.6243324   2.5652266
  -2.9218695  17.5956402   2.7570782  -4.1735024  18.6300697   2.1718516
  -3.2115004  19.4379501   3.8779113  -3.4260285  20.4752235   3.6159656
  -2.2359622  19.3210144   4.3341036  -4.2862368  18.9760132   4.8703165
  -4.2383080  17.8472557   4.9907103  -5.2330170  19.1300240   4.3252153
  -4.2346678  19.6292915   6.2345767  -4.9646754  19.1087246   6.8504648
  -4.6332579  20.6121330   6.1998158  -2.8839383  19.7498741   6.9679813
  -3.0321317  20.2397995   7.9049616  -2.2359447  20.3263779   6.3114414
  -2.1916974  18.3548374   7.1087403  -2.3450649  17.8345795   6.1667781
  -2.6941550  17.7441673   7.8509898  -0.6996641  18.5445766   7.3971868
  -0.2395964  19.0972919   6.5591049  -0.2224383  17.5584793   7.4309931
  -0.2924369  19.3120918   8.6687269  -0.5981887  20.3581161   8.5868940
   0.7702336  19.2521458   8.8112154  -0.9977212  18.8164921   9.9277029
  -2.0705171  19.0781708   9.8859787  -0.5721349  19.3037319  10.7933903
  -0.7742458  17.3063374  10.0419731   0.3316761  17.1327839   9.8892031
  -1.3214458  16.7135010   9.2515669  -1.1498291  16.8498001  11.4472618
  -1.2992418  15.7489052  11.4592113  -2.0531492  17.3247032  11.8009958
  -0.1296976  17.3289413  12.5014200   1.0040784  16.9034996  12.5848341
  -0.6172433  18.2545071  13.3500233   0.3003111  18.9124928  14.2857933
   1.1993794  19.3705978  13.8393927   0.6172159  18.1651402  15.1089001
  -0.4872245  20.0160618  14.9961386   0.1973414  20.4747772  15.7397947
  -1.7149948  19.4008236  15.7757244  -1.4258270  18.6226616  16.5181179
  -2.4211314  18.9310913  15.0614920  -2.3623443  20.4870262  16.4823456
  -3.7406211  20.2547359  17.2968121  -4.8806233  21.0501003  16.5513687
  -5.2864790  20.6271210  15.2218170  -6.3434153  20.6942635  15.1011267
  -5.0229783  19.5687027  15.0310478  -4.4982619  21.5777283  14.2644110
  -4.6657314  21.1830177  13.1988468  -3.4356027  21.4498425  14.4213829
  -4.8319931  23.1018620  14.3317976  -3.9116538  23.8052979  15.3319826
  -4.2277699  23.4621792  16.3321724  -3.9797852  24.9100800  15.2575960
  -2.8689992  23.4608364  15.2231016  -4.5328751  23.7060909  12.9561329
  -5.1576657  23.2086468  12.2322502  -3.4885142  23.5414009  12.6656818
  -4.7257872  24.8009777  12.9960909  -6.2331877  23.3224964  14.6936169
  -6.8738599  22.7706795  14.0432062  -6.4939523  24.3696632  14.5277891
  -6.3632970  23.0609627  15.7276077  -4.0940151  18.8266296  17.1469707
  -3.5832672  20.7999496  18.6643257  -0.9979057  20.8757000  13.9923372
  -0.1636059  21.8646431  13.6227407   0.9099277  22.1345692  14.1539001
  -0.6781162  22.5984077  12.4506664  -1.1958113  21.8518906  11.8147678
  -1.4089977  23.3277016  12.7412357   0.4061142  23.2807140  11.5648260
  -0.0230923  23.8251476  10.7395611   0.9495088  23.9833469  12.2134991
   1.4197654  22.3232765  10.8836660   1.8975847  21.6689720  11.6218109
   0.8399168  21.7156105  10.1690760   2.4981470  23.1844692  10.2015324
   2.0503876  23.9602261   9.5678139   3.0822680  23.6452122  10.9791422
   3.4858980  22.3908234   9.3683872   4.2124128  23.0340366   8.9268579
   4.0384297  21.8058758  10.1086130   2.8437400  21.5342236   8.2746115
   3.6125340  21.0555191   7.7012897   2.3234389  20.6865120   8.7974024
   1.8683758  22.2305660   7.3107533   1.4008634  21.4732151   6.7445498
   1.1938589  22.8001385   7.8711038   2.5629780  23.1477718   6.3073158
   3.3222723  23.8293076   6.7077613   2.3224964  23.1335545   4.9770398
   2.8215625  23.8365250   4.3471198   1.2021825  22.3968678   4.2725916
   1.5288405  22.0797920   3.2751756   0.8464789  21.5148144   4.8302116
  -0.0326388  23.2980137   4.2741699  -0.3332508  23.4344482   5.3319521
   0.2639762  24.3070869   3.8494728  -1.2793022  22.7830677   3.4803483
  -0.9967164  22.4352760   2.4916937  -1.7327846  21.9030590   3.9703081
  -2.3119695  23.9390793   3.2532618  -1.8145870  24.8022633   2.7519033
  -3.0703924  23.5389786   2.5670335  -2.9606085  24.4678288   4.5543385
  -2.2016299  24.9719791   5.2049356  -3.7207735  25.2659264   4.1735191
  -3.7199638  23.4090977   5.3575106  -4.3942742  22.8833084   4.6906643
  -2.9434252  22.6748180   5.6766839  -4.3550515  23.9321728   6.6365461
  -4.8470302  24.8285275   6.3551645  -5.0749755  23.2168770   7.0024881
  -3.4189298  24.3285103   7.7326374  -4.0154276  24.5178127   8.6168318
  -2.8032920  25.1743126   7.4782915  -2.7966962  23.4227676   7.8800035
 -35.0537529  -6.2617092  -0.2715396 -35.5519867  -5.7999368  -1.1484950
 -34.4116783  -7.0542645  -0.6692355 -34.4307556  -5.4957299   0.2254452
 -36.0423851  -6.8004560   0.7724556 -36.8438950  -7.3915100   0.3548409
 -36.5404396  -5.9371786   1.2234091 -35.3339157  -7.6969986   1.8153101
 -34.3923264  -7.2360921   2.1735933 -35.1416969  -8.6694918   1.3635540
 -36.1791534  -7.9796314   3.0556931 -36.4306564  -7.0545750   3.5951414
 -35.5348740  -8.5425100   3.7528911 -37.4295845  -8.8382721   2.7036915
 -37.0913391  -9.7476120   2.2625186 -37.9970512  -8.2869549   1.9611639
 -38.3002701  -9.1795473   3.9314570 -37.6618652  -9.6868906   4.6636219
 -39.0811119  -9.8370619   3.5599694 -38.9433784  -7.8868766   4.5218301
 -39.7614136  -7.5873752   3.8703668 -38.1921310  -7.0722318   4.5830789
 -39.5747375  -8.1544733   5.9236836 -39.8968277  -7.1908903   6.4157772
 -38.8219986  -8.5674782   6.6203952 -40.7543907  -9.1183777   5.8687444
 -40.4600563 -10.0586081   5.3909502 -41.5263557  -8.6491022   5.2298779
 -41.5014420  -9.5168638   7.1880541 -42.2095909 -10.2804375   6.9869881
 -41.9846191  -8.5906162   7.5841122 -40.5480423 -10.0668383   8.2681332
 -39.7662277  -9.3258581   8.5043039 -39.9950829 -10.9706106   7.8471951
 -41.2922668 -10.5038080   9.5420256 -41.9546700 -11.3436975   9.2919044
 -42.0015488  -9.7657604   9.9163418 -40.3278313 -11.0612526  10.6228638
 -39.7091942 -11.8388844  10.1457109 -40.9311142 -11.5086317  11.4283695
 -39.3405647 -10.1320038  11.2706108 -38.5338554  -9.8469458  10.5700741
 -38.8309441 -10.5881357  12.1088705 -40.1090660  -8.8695755  11.7572556
 -40.9036865  -9.1488371  12.4583483 -40.5509605  -8.3545742  10.8654203
 -39.1449089  -7.9341073  12.4538031 -37.9280205  -7.9270482  12.3396921
 -39.8309784  -7.0686502  13.2492828 -39.1321793  -5.8609819  13.7234964
 -38.0520058  -6.0657597  13.9242401 -39.5342369  -5.6091495  14.6634598
 -39.4690056  -4.7157545  12.7494059 -38.8817444  -3.7863221  12.9534760
 -40.9771423  -4.4445648  12.8008900 -41.4924965  -5.2629614  12.3652763
 -41.1806564  -3.5211465  12.1688986 -41.4888420  -4.3109398  14.1915474
 -41.4745674  -2.8939483  14.9806175 -39.9433479  -2.5406644  15.2579737
 -39.2444611  -3.2595670  16.3387318 -38.2048531  -3.3763885  16.0000305
 -39.7093506  -4.2442398  16.4872360 -39.1813011  -2.4222405  17.6427765
 -38.6307755  -2.9490113  18.3941708 -40.1804581  -2.2617426  18.0550842
 -38.4965172  -1.0857570  17.6105766 -37.0598030  -1.2085654  17.2568150
 -36.5847244  -1.9536605  17.9201813 -36.6144600  -0.2553877  17.4713821
 -37.0332375  -1.5459697  16.2241402 -39.1644325  -0.2092409  16.6108437
 -40.2093849  -0.0681273  16.8667870 -39.0544701  -0.7011869  15.6600666
 -38.6874542   0.7552317  16.5925999 -38.5407028  -0.4812777  18.9667854
 -39.5846481  -0.2631115  19.2075863 -38.0541229   0.4990134  18.9810333
 -38.0325279  -1.1918818  19.6258163 -42.0468674  -1.9481028  14.0016232
 -42.1747665  -3.1511173  16.2832680 -39.1660042  -5.1034651  11.3952723
 -37.8580246  -5.0713396  10.9501162 -36.9123955  -4.7299790  11.6167688
 -37.7219696  -5.7672019   9.6135340 -36.6551628  -5.7909565   9.3616257
 -38.0205040  -6.8193130   9.6700296 -38.4034958  -4.9156294   8.5445385
 -39.4569016  -5.2447538   8.3877363 -38.3754959  -3.8842878   8.9037294
 -37.6938744  -4.9823561   7.1984429 -37.5684166  -6.0111589   6.8911886
 -38.3855247  -4.5478778   6.4492817 -36.3390427  -4.2065330   7.2114000
 -36.5766106  -3.1623654   7.4227200 -35.6738815  -4.5666513   7.9786372
 -35.5363007  -4.3815126   5.9005222 -35.1662254  -5.4308028   5.9216290
 -36.1555786  -4.1560979   5.0154886 -34.2103577  -3.6008227   5.8512764
 -34.4369164  -2.5684695   5.8654099 -33.5327415  -3.8295102   6.6719198
 -33.5111389  -3.9446392   4.4945307 -32.6313133  -3.3057830   4.3347673
 -33.0415268  -4.8810701   4.6607561 -34.3755684  -3.9768801   3.2523184
 -35.1289215  -4.7614832   3.3172612 -34.2453842  -3.3054519   2.1040134
 -34.9799042  -3.4784625   1.2817113 -33.4678879  -2.0188136   1.8813850
 -33.1315308  -1.6769468   2.8096178 -32.5994911  -2.2107325   1.2803049
 -34.3707695  -0.9646071   1.2442995 -34.8334045  -1.3040192   0.3040007
 -35.2008705  -0.7170100   1.9476261 -33.6158981   0.3184271   1.0065958
 -33.2100792   0.6660202   1.9321597 -32.7415009   0.1552899   0.3761557
 -34.5447578   1.4276819   0.4612954 -35.4659157   1.3858356   1.0098035
 -34.0270691   2.3626926   0.6563959 -34.8705254   1.4452695  -1.0476637
 -33.9644699   1.2580266  -1.5943086 -35.5718918   0.6572753  -1.3085618
 -35.5420151   2.7998064  -1.5198504 -36.4233437   2.9936590  -0.8721539
 -34.8385391   3.6164019  -1.4169453 -35.9806595   2.8285220  -2.9684200
 -36.7286797   2.0755599  -3.2451253 -36.4583435   3.7365081  -3.2582521
 -34.7248535   2.7203488  -3.8751507 -34.9156494   2.9757679  -4.9061422
 -34.2874107   1.6882312  -3.8651090 -33.9265785   3.4372845  -3.5329499
 -14.8020411   3.4954097  -2.3831005 -15.0943136   3.3981550  -3.4063153
 -14.8502531   2.5438449  -1.8428446 -13.8129606   3.8360450  -2.4869695
 -15.6904116   4.5452337  -1.6944216 -16.7043934   4.1214375  -1.6606404
 -15.6373348   5.4948611  -2.3029785 -15.2802811   4.8979864  -0.2443128
 -15.4612341   4.0135326   0.3619796 -15.8929100   5.6381364   0.1058969
 -13.7844086   5.3263626  -0.0293950 -13.5061502   6.0598516  -0.7739517
 -13.1114674   4.4418354  -0.1466077 -13.4892960   5.9443240   1.3234847
 -13.9592638   6.9169850   1.3884495 -12.4421587   6.1284027   1.3569152
 -13.9604368   5.0139832   2.4828675 -13.5444679   3.9729283   2.3468833
 -15.0420046   4.9805393   2.4581239 -13.3240738   5.6209130   3.7366402
 -13.6401281   6.6747475   3.7341318 -12.2305822   5.6093593   3.7062204
 -13.7206259   4.8563027   5.0190492 -13.3287868   3.8239627   4.9789777
 -14.8357248   4.8269529   5.0806623 -13.1168594   5.6542850   6.2252789
 -13.4227076   6.6706347   6.1585803 -12.0509090   5.6915407   6.0377140
 -13.4154339   5.0861340   7.5939507 -14.4429626   4.8427825   7.8052864
 -13.1602392   5.8944798   8.2597322 -12.6109734   3.7662885   7.8240199
 -11.6096354   3.8271265   7.4947815 -13.0406132   2.9189980   7.2805901
 -12.5558605   3.4569678   9.3402777 -12.0067987   2.5164452   9.4830341
 -13.5377712   3.2811632   9.7552862 -11.7595501   4.4565978  10.1841888
 -12.3016939   5.3942490  10.2607622 -10.7713985   4.7113962   9.7699728
 -11.6574917   4.0389662  11.6761694 -11.0213175   3.1546381  11.6927681
 -12.6472244   3.7680497  12.0653906 -11.0101118   5.0923986  12.5764170
 -10.1067390   5.4740572  12.0575418 -10.7897606   4.5932798  13.5435619
 -11.9899359   6.1806102  12.9444923 -12.1963987   7.1922016  12.2965899
 -12.5948105   5.9244466  14.1026917 -13.7656746   6.6927786  14.5325842
 -13.5641880   7.7104063  14.3186378 -13.8048229   6.6305776  15.6487675
 -15.1070137   6.1106963  13.9757862 -15.8206549   6.7472272  14.4914932
 -15.3365822   4.6187549  14.3366899 -14.4423046   4.1730881  14.8082342
 -15.5415573   4.0388184  13.4597292 -16.4803505   4.5452976  15.2456179
 -16.3743801   4.8380613  16.8210392 -15.3128262   3.7061856  17.2530766
 -15.7299051   2.3455765  17.3627110 -14.9167242   1.7279174  17.0541763
 -16.5177803   2.1177764  16.6721325 -16.3146477   2.0075092  18.7269611
 -16.4664574   0.9432991  18.7947159 -17.2393932   2.5102327  18.8812351
 -15.5292845   2.2430499  20.0146885 -16.0566654   1.4629017  21.1609573
 -17.1084938   1.6237369  21.2307205 -15.5806456   1.7763056  22.1038990
 -15.8149233   0.3976646  20.9692268 -14.1450806   1.7589818  19.8479729
 -13.7020988   2.2754569  19.0175095 -14.1150961   0.6822677  19.6248188
 -13.5634670   1.9651370  20.7705975 -15.4486837   3.6957507  20.4161243
 -15.1541996   4.2966509  19.5289993 -14.7749243   3.8496945  21.2657337
 -16.4218769   3.9720366  20.8085098 -15.7667170   6.1827874  16.9803486
 -17.7037220   4.5454974  17.4182034 -15.2098265   6.2637587  12.5066319
 -15.8985605   7.2878418  12.0247478 -16.6123295   8.0199919  12.6772938
 -15.6322374   7.4624662  10.5722532 -15.3214827   8.5058422  10.4651356
 -14.8088455   6.8433161  10.1874981 -16.9274158   7.1509795   9.8865137
 -17.0493870   6.0315485   9.7973967 -17.7760277   7.5830483  10.4072008
 -17.1506863   7.6982050   8.4667416 -18.1049614   7.2706919   8.1378307
 -17.1402016   8.7878523   8.5561657 -16.1056824   7.2006960   7.4666429
 -15.0970974   7.4917817   7.8480263 -16.1164818   6.0963182   7.4100709
 -16.3501530   7.8108506   6.0856671 -16.4711056   8.8597174   6.1179361
 -15.4888401   7.5713487   5.4356236 -17.6470356   7.2418027   5.4374809
 -17.6604824   6.1479197   5.4614186 -18.5483189   7.5932717   5.9655781
 -17.7122631   7.6721954   3.9543579 -16.9430733   7.1429868   3.4195557
 -18.6535721   7.2206502   3.6254141 -17.7559853   9.1505919   3.7361383
 -18.2616367   9.6681538   4.4801526 -17.2645111   9.7723160   2.7116833
 -17.2040672  10.8284569   2.8048038 -16.6209068   9.2145233   1.5170015
 -15.7227602   9.7929783   1.2200031 -16.3170643   8.1539612   1.6383679
 -17.5484619   9.3246679   0.2971382 -18.4168625   8.7298450   0.5427504
 -17.9440708  10.3360643   0.1423907 -16.9286232   8.7442799  -0.9966593
 -16.6582890   7.7347798  -0.7574391 -17.6687088   8.6675682  -1.7697154
 -15.7185469   9.4643354  -1.6323764 -14.8484230   9.4390535  -0.9536301
 -15.4768791   8.9051075  -2.6092408 -16.0111942  10.9641285  -2.0394044
 -16.7223530  10.8742132  -2.9027379 -16.4875336  11.4625540  -1.1973886
 -14.7603693  11.8227205  -2.4619608 -15.1102076  12.8912735  -2.5207498
 -13.9477673  11.8489084  -1.7537942 -14.1696758  11.5045490  -3.8254285
 -13.3022738  12.1620359  -3.9035132 -13.7338362  10.4973211  -3.8338635
 -15.1384449  11.6334486  -5.0324864 -14.6236410  11.4328728  -5.9737868
 -15.5675783  12.6632833  -5.0773950 -16.0244541  10.9266701  -4.9260941
  -3.6489592  36.7212563   3.6226797  -4.3419600  37.5011673   3.8708544
  -2.6826324  37.1902885   3.3665524  -3.4677362  36.1268005   4.4892530
  -4.1906290  35.8551521   2.4707208  -4.2761765  36.4545593   1.5587666
  -5.1955600  35.4482613   2.6857421  -3.2721667  34.6097794   2.0996265
  -3.7596917  34.0418625   1.3495861  -3.2227073  33.9553375   2.9856775
  -1.8601863  35.0687828   1.6197937  -1.3529254  35.6971130   2.3429461
  -2.0060403  35.7166672   0.7598174  -0.9693858  33.9099655   1.1035166
  -0.0553412  34.3020172   0.6854979  -1.4325856  33.3713760   0.2438181
  -0.5972571  32.9097404   2.2317276   0.1866017  32.2281647   1.8300440
  -1.4765656  32.4221725   2.5971346   0.0792553  33.5779800   3.3892012
  -0.6166793  34.2277946   3.8590798   0.9890086  34.0962524   3.0154274
   0.4930482  32.5010529   4.3945088   1.2123330  31.8396015   3.8883078
  -0.3783658  31.9162636   4.7042298   1.2388986  33.0295029   5.6177435
   2.2223978  33.4775200   5.2915149   1.4527882  32.2029037   6.2859082
   0.3872503  34.0028915   6.4658232   0.5147964  33.9211044   7.5472569
  -0.6721925  33.8076553   6.2809820   0.6258985  35.5070801   6.0285339
   0.6917138  35.5831985   4.9396853   1.6214411  35.8551445   6.3754439
  -0.4469788  36.5369377   6.4552593  -1.3761364  36.3997116   5.8550267
  -0.1468361  37.5384369   6.1481781  -0.7345805  36.5967827   7.9152055
  -1.1459441  35.6735115   8.1997309  -1.5372072  37.3274460   8.0502806
   0.5288248  36.9605980   8.7801304   0.9726871  37.9339638   8.4589109
   1.2714095  36.1587677   8.7355127   0.0432134  37.1819878  10.2461863
  -0.4208598  36.2539368  10.6659174  -0.7927544  37.9074554  10.2534094
   1.1200501  37.6618309  11.1930695   2.3266070  37.6657867  10.9542837
   0.5338054  38.0104980  12.3700562   1.4012421  38.5241928  13.4355698
   2.2093019  39.1238251  12.9951820   1.9712431  37.7361717  13.8695669
   0.6163038  39.3742867  14.4864655   1.3845016  39.7203255  15.2095947
  -0.3892466  38.5079422  15.2115545  -0.0326627  37.4644699  15.1141748
  -1.3005221  38.6840019  14.6331511  -0.4874954  38.9377556  16.6090698
   0.6731957  38.6348877  17.6854973  -0.0848507  37.7854385  18.8465519
  -0.3483133  36.4255180  18.6696796   0.5769227  35.8595772  18.5872631
  -0.9541720  36.3619766  17.8132553  -1.1316985  35.8995857  19.9328880
  -0.5363771  36.0464554  20.7883339  -1.3489472  34.8677444  19.8355999
  -2.4625084  36.5326462  20.2402344  -3.2530499  36.8920593  18.9892998
  -2.7424192  37.7408371  18.5227509  -4.2459469  37.1438065  19.3802700
  -3.3301866  36.0040970  18.3363667  -3.3521523  35.7599754  21.1408787
  -2.7475059  35.5595551  22.0136547  -3.7075496  34.8986282  20.5870514
  -4.2368140  36.3840485  21.3540668  -2.1595197  37.8467674  20.9059429
  -1.4082135  37.6735687  21.6979237  -3.1395843  38.2386780  21.2164688
  -1.7008377  38.5685043  20.2304249   1.6379141  37.7494583  17.0391235
   1.1466788  39.8777542  18.3522453  -0.0657035  40.5265083  13.8236990
   0.6817549  41.5410309  13.2123461   1.9037919  41.6844788  13.3609867
  -0.0981064  42.5345650  12.4284506  -0.9659202  42.7635193  13.0222225
   0.4768899  43.4190941  12.2194719  -0.5109188  41.9985542  11.0569849
  -1.2032863  41.1846199  11.2052813  -1.0253699  42.7957191  10.5874443
   0.6575126  41.5812912  10.1369848   1.3462907  42.4384384  10.0413313
   1.2331511  40.7369614  10.5778608   0.0901474  41.1497574   8.7583370
  -0.4975180  40.2255592   8.9510460  -0.6335970  41.9282608   8.3586884
   1.1774820  40.8657913   7.7281260   1.8252804  41.7159691   7.5834222
   1.7256291  39.9838333   8.0746737   0.5755841  40.5764961   6.3522511
  -0.1553910  39.8250427   6.5236878   0.0598821  41.4446983   5.9073968
   1.6028012  40.2214508   5.2190695   1.0698102  40.2661514   4.2656169
   2.3596089  41.0275307   5.2165804   2.2317264  38.8764114   5.4579372
   1.5707064  38.1589279   5.9120569   3.5061979  38.4937706   5.3007693
   3.8278577  37.5218735   5.5544238   4.6325512  39.4384193   4.9072523
   4.4935312  40.3653946   5.5200033   5.5908961  38.9554596   5.0819678
   4.5818477  39.7718620   3.4511714   4.6806002  38.8297729   2.9225562
   3.6041498  40.1781883   3.2191441   5.7074780  40.6933556   3.0612552
   5.6798649  41.5454483   3.7171314   6.6981287  40.2451401   3.2369356
   5.6440644  41.0144768   1.5658181   6.4936404  41.6646538   1.3892938
   5.8285961  40.0973587   1.0144941   4.3545046  41.6383438   1.0069351
   3.5126517  40.9799576   1.1593063   4.0814424  42.5328445   1.5824229
   4.4665165  41.9230614  -0.4439054   5.2665167  42.6712761  -0.6107660
   4.7609048  40.9236717  -0.8814811   3.1669819  42.4353371  -1.0992905
   2.4062779  41.7023506  -0.8740255   2.9253385  43.4541550  -0.7547244
   3.3290365  42.4550095  -2.6276040   2.4743044  42.8374176  -3.1293354
   3.4843733  41.4286842  -2.9955444   4.1874671  43.1653214  -2.8708372
  -6.3460093  32.0115738   2.6578844  -6.0271783  31.4363461   1.8006502
  -6.4067907  33.0529060   2.4353459  -7.3132997  31.6089439   2.8961837
  -5.3218741  31.7881851   3.7777877  -4.3721480  32.3025856   3.4841416
  -4.9841294  30.7159500   3.8711202  -5.6926732  32.4237976   5.1181097
  -6.7317529  32.2016068   5.3331037  -5.5793924  33.4953270   5.0441236
  -4.8300657  31.8621616   6.2948270  -5.0089831  30.8352318   6.4859700
  -5.1702933  32.3765106   7.1943493  -3.2820921  32.0562706   6.0437560
  -3.0928037  33.1216774   5.8056459  -3.0047085  31.5211277   5.1253176
  -2.3862634  31.4996414   7.1836157  -1.3438320  31.6924210   6.9122086
  -2.5422893  30.4332924   7.2041903  -2.7259157  31.9996738   8.5979195
  -3.7323902  31.8630447   8.8840590  -2.5998855  33.1042557   8.5786381
  -1.7417629  31.3958073   9.6305361  -0.7345653  31.3046112   9.2409697
  -2.0363822  30.3910427   9.8188610  -1.7121067  32.0782928  10.9988317
  -1.0870875  31.4463024  11.5964470  -2.6955783  32.1262589  11.4570513
  -1.1174183  33.4753685  11.0808840  -1.8159907  34.1484451  10.5402422
  -0.1782136  33.4782791  10.5100651  -0.8770334  34.0448837  12.5025940
  -1.8262159  34.0515633  13.0775690  -0.6009151  35.0987167  12.4260378
   0.2517491  33.2425613  13.1453457   1.0807617  33.1806908  12.4371967
  -0.0885392  32.2309189  13.3108511   0.9033037  33.7110558  14.4153643
   1.4704435  34.6130333  14.2062178   1.6556739  33.0056267  14.8006296
  -0.0118202  34.0220337  15.6003199  -0.5767205  34.9176407  15.3105249
   0.5553216  34.2655716  16.5200920  -1.0477389  32.9563026  15.9559069
  -0.6126304  32.1469345  16.5393696  -1.5599413  32.5469856  15.0964890
  -2.1998055  33.4905701  16.7628803  -3.0574899  34.2312164  16.3390789
  -2.1711144  33.0323868  18.0073433  -3.4076617  32.8192101  18.7322826
  -4.0547185  33.7166824  18.7363262  -3.1744890  32.6944695  19.7910252
  -4.0195293  31.4654160  18.3345299  -4.9952931  31.3845901  18.8549175
  -3.1160209  30.2560158  18.7436638  -3.7193422  29.3736572  18.8454704
  -2.6741359  30.5048542  19.6920700  -2.0527258  29.9460907  17.7523937
  -0.8935475  28.8428535  17.9707851   0.2474789  29.6933212  18.6679420
   0.1764431  30.1944714  20.0199680  -0.5832419  29.5908203  20.5503654
  -0.1810308  31.2156105  20.0600815   1.5602196  29.9730129  20.7393837
   1.7544513  28.9131069  20.7035294   1.4733768  30.2681561  21.7903976
   2.8132501  30.7122345  20.1696854   2.4117825  32.0870743  19.8009815
   1.9011791  31.9092979  18.8662491   3.3333769  32.7232628  19.6838760
   1.7927474  32.5965652  20.5574398   3.9794757  30.7143288  21.1184921
   4.3514581  29.6538353  21.2416096   3.6376848  31.2864914  22.0244770
   4.6970377  31.3087254  20.6336632   3.2686818  29.9498024  18.9722919
   3.3083320  28.8515568  19.1662273   4.2562451  30.3799343  18.6412697
   2.5121987  30.1125412  18.1601868  -1.3603388  27.7207031  18.8461895
  -0.3130299  28.4806995  16.6626606  -4.2763519  31.5057182  16.8992023
  -5.1886458  30.6492596  16.4166222  -5.7204657  29.7611904  17.0714684
  -5.5344324  30.9370995  14.9659538  -6.1254292  30.1360397  14.5086470
  -6.0572696  31.8431568  14.9251938  -4.2665710  31.0812416  14.1124935
  -4.5273304  31.2409592  13.0645275  -3.7702680  31.9570370  14.4129515
  -3.2285297  29.9475098  14.2086611  -2.3948123  30.1396160  13.5241604
  -2.8378549  29.8749065  15.2342215  -3.8348308  28.6281300  13.7355795
  -4.4188924  28.3078938  14.5945826  -4.5825572  28.8749008  12.9418268
  -2.9470072  27.4862556  13.2685957  -2.0819960  27.4443455  13.8911400
  -3.5718050  26.5890694  13.2377090  -2.3993893  27.7434082  11.8151970
  -3.2118511  27.9073715  11.1169109  -1.7569427  28.6428928  11.8308172
  -1.5049112  26.5672970  11.2741184  -2.0621669  25.6647339  11.5079403
  -1.2448537  26.6604843  10.1897440  -0.2077602  26.5127926  12.0152235
  -0.3573685  26.3615437  13.0969772   1.0239155  26.5914383  11.4828987
   1.8270122  26.4592857  12.1434488   1.3527764  26.6587868   9.9879723
   2.2833755  26.1394615   9.6995888   0.5571386  26.1142139   9.4457922
   1.4749104  28.0911999   9.4929361   0.4927701  28.6341324   9.4634047
   2.1052907  28.5835838  10.2486897   2.1416841  28.1209297   8.1200447
   2.4349637  29.1516724   7.8639932   3.0348155  27.5595131   8.2580185
   1.2933732  27.5187588   6.9774909   1.0421951  26.4441280   7.0715404
   0.3133512  27.9741135   6.9307656   2.0377939  27.7599506   5.6506405
   1.8591279  28.7610989   5.3533468   3.1526403  27.5807743   5.7653975
   1.4873804  26.8694000   4.5581760   1.7296362  25.8224144   4.7327595
   0.4041457  26.9237061   4.7158689   1.9004411  27.3343353   3.1376748
   1.6485322  28.3917427   2.9393821   2.9860518  27.2722893   3.0628324
   1.3620542  26.4040985   2.0359223   1.3651388  26.8600636   1.0279675
   0.3155853  26.1737480   2.2594161   1.9121391  25.4718323   2.0826945
  26.4292984 -38.1887512   2.7643201  25.8588123 -37.9548683   1.8503613
  25.7556324 -38.5923080   3.4810266  27.1960926 -38.9411507   2.4762919
  27.0691986 -36.9438438   3.2620792  26.4038563 -36.1029358   3.2231550
  27.7399368 -36.6472588   2.4510195  27.7904320 -37.0072899   4.6073079
  28.6520214 -37.6598053   4.4962234  27.1618633 -37.2706642   5.4294853
  28.5202579 -35.6386223   4.8209686  29.0649395 -35.3825531   3.9200332
  29.2626171 -35.8323898   5.5858021  27.6945114 -34.4374123   5.3593073
  26.9640083 -34.1175575   4.5789723  28.4287300 -33.5892143   5.4170389
  26.9623642 -34.6724014   6.7413826  27.7050133 -34.9870262   7.4936028
  26.2614422 -35.4756508   6.6689224  26.2990074 -33.3750381   7.2695298
  25.3742313 -33.1523209   6.6414032  26.9793873 -32.5230370   7.1666427
  25.9587193 -33.3588333   8.7790928  25.7571125 -32.3088531   9.0466652
  26.8618374 -33.6918488   9.3470783  24.7552872 -34.1820450   9.1728716
  24.7961712 -35.1751785   8.7634840  23.8819141 -33.6439247   8.8021927
  24.7182579 -34.2346230  10.7045412  24.7572136 -33.1829109  11.0507355
  25.6050282 -34.7316017  11.1279020  23.4758663 -34.8725548  11.3691273
  22.6411991 -34.2765503  11.0082674  23.5034103 -34.6827583  12.4582567
  23.1258373 -36.2941895  11.0749426  22.6834488 -36.3909073  10.1057434
  22.4579792 -36.7409821  11.8196955  24.3210011 -37.3294678  11.1696014
  24.9714832 -37.1162834  10.3370523  23.8417835 -38.3010979  10.9849653
  25.0933304 -37.4240341  12.4986067  25.5657673 -36.5184746  12.6435280
  25.8949566 -38.1777878  12.4353638  24.2785435 -37.6312294  13.8020382
  24.2438011 -38.6927490  14.0371599  23.2579422 -37.2611923  13.7652063
  24.9722881 -36.9619217  14.9649181  25.8159828 -37.4838028  15.7329798
  24.5110874 -35.7049217  15.1249208  25.0510254 -34.9097061  16.1965389
  26.1330242 -34.7332764  16.0255737  25.0239735 -35.5073814  17.0798187
  24.2841568 -33.6080132  16.5419426  24.9045162 -33.1471519  17.3434620
  22.8298950 -33.8974800  17.1006374  22.3414078 -32.9684029  17.4666443
  22.8821354 -34.5396576  17.9780750  21.9599380 -34.5881538  16.1978474
  20.5309296 -35.2566719  16.7124233  21.0559692 -36.5903397  17.4441051
  21.4466763 -37.7981834  16.6917915  22.5583191 -37.7162666  16.5327950
  20.8656158 -37.7822342  15.7676544  21.0321789 -39.0589333  17.4934597
  21.3374691 -39.0278969  18.5296745  21.5064602 -39.9772606  17.1473694
  19.5722218 -39.3906059  17.5293903  19.3800144 -40.6655083  18.2840958
  19.9502659 -41.4982224  17.8138199  18.2603664 -40.8428535  18.2450294
  19.6824532 -40.5417976  19.2834072  18.8076267 -38.3506355  18.2786160
  18.7098560 -37.4822159  17.6299248  19.3514595 -38.0443420  19.1906624
  17.8031082 -38.7273254  18.4216518  19.0418549 -39.5224838  16.1194630
  19.2823315 -38.6334534  15.5042419  17.9783516 -39.7101707  16.1348915
  19.5352669 -40.4156151  15.7582512  19.8507843 -34.4532356  17.7452831
  19.7243233 -35.6664696  15.5566139  24.2774849 -32.7040939  15.4084291
  24.1550159 -31.3645782  15.6048889  23.9161129 -30.8371525  16.6526394
  24.2235928 -30.6361217  14.2753706  24.3897171 -29.6246223  14.4732761
  25.0205135 -31.0309391  13.6687078  22.8646469 -30.8238525  13.5920391
  22.6533623 -31.8700485  13.6195669  22.0496254 -30.3135338  14.1276026
  22.8416290 -30.2470207  12.1511574  23.1356354 -29.1685791  12.1669292
  23.6476593 -30.7568378  11.6158018  21.4451389 -30.3206558  11.4348335
  20.7219238 -29.6587601  11.8983326  21.6162853 -29.9334068  10.4147015
  20.8034134 -31.7078056  11.2933064  21.5063095 -32.3134270  10.7045698
  20.6284256 -32.1807022  12.2429295  19.5913162 -31.7218800  10.4043541
  18.7141781 -31.3621254  10.9459200  19.7404976 -31.0406399   9.5522509
  19.3065033 -33.1674232   9.8348751  20.2390480 -33.5789185   9.4511814
  18.9410381 -33.7970200  10.6656799  18.1855602 -33.1853027   8.7590179
  17.1177711 -32.9941864   9.0631704  18.3285751 -33.4943275   7.4704847
  17.4945030 -33.4550018   6.7697930  19.6323471 -33.9572449   6.8563056
  20.0286274 -33.1398849   6.3002882  20.3690166 -34.2070618   7.6023359
  19.4267864 -35.1542435   5.9400482  18.7708797 -35.8497162   6.4390254
  18.8713150 -34.8323326   5.1104050  20.7297935 -35.8469391   5.3723269
  21.3591042 -35.0490303   5.0093751  21.2902622 -36.3489380   6.1449218
  20.4626293 -36.7753105   4.1941767  20.2380447 -36.1358376   3.3027773
  21.4392319 -37.2960205   3.9007487  19.3904972 -37.8234558   4.4678879
  19.6287727 -38.2778206   5.4232554  18.4375858 -37.3446198   4.5469890
  19.1851845 -38.8962975   3.3407581  18.8974476 -38.3395042   2.4114344
  20.1572514 -39.3337288   3.1032989  18.1229477 -39.9294128   3.7819057
  17.2602425 -39.3466606   4.1660986  17.8684692 -40.4506378   2.8720877
  18.6512203 -40.8552895   4.8483090  17.9981003 -41.7093697   5.0256419
  18.6907921 -40.3273582   5.8024449  19.6820412 -41.1993752   4.5689468
 -41.6891060  -4.0385475   2.6058576 -42.4918327  -4.7027469   2.2840419
 -41.2469559  -3.5328867   1.6957526 -42.1339493  -3.2884743   3.2831135
 -40.6178055  -4.8122401   3.4012244 -40.2730637  -5.6172323   2.7884426
 -41.1307716  -5.2291007   4.2748680 -39.4260483  -3.8770030   3.8004067
 -38.9114113  -3.5615203   2.8880107 -38.6982841  -4.5286655   4.3310986
 -39.8218460  -2.6410589   4.6749969 -40.2729836  -2.9876897   5.5959983
 -40.5903091  -2.0973296   4.1012506 -38.6830597  -1.6061193   4.9336052
 -37.9650192  -2.0472839   5.6236362 -39.1641617  -0.7440994   5.4342027
 -38.0183640  -1.0911205   3.6746333 -38.7379913  -0.8315586   2.9206064
 -37.3923836  -1.9170380   3.2800891 -37.1219864   0.0904043   3.9398954
 -37.7327957   0.8737051   4.3451824 -36.7160072   0.4928448   2.9858830
 -35.9948578  -0.2770079   4.9703584 -35.5776825  -1.2229166   4.6892619
 -36.4311371  -0.2633790   5.9971495 -34.9559402   0.8182102   5.0150819
 -35.4778366   1.7829645   5.2215719 -34.4701271   0.9574133   4.0573874
 -33.9025040   0.6511864   6.1464310 -33.2752953  -0.2416040   6.0032029
 -34.4886703   0.5324597   7.0936913 -33.0116501   1.8892980   6.2088013
 -32.5449982   1.9953991   5.2657943 -32.2815361   1.6811085   7.0241237
 -33.6831970   3.2448661   6.4906902 -34.1923981   3.6503327   5.6215830
 -32.8641434   3.9287333   6.6759615 -34.5875969   3.3061242   7.7111106
 -35.4573250   2.6014354   7.6120281 -34.9920120   4.3529682   7.8452592
 -33.7840958   2.8359232   8.9757023 -33.0183563   3.5174637   9.2082682
 -33.4039650   1.8583680   8.7133284 -34.6431656   2.7099512  10.2357922
 -35.5396729   2.1165159  10.0811853 -34.9751129   3.6926458  10.4699898
 -33.9653702   2.1548455  11.4486322 -33.4012489   1.0746510  11.5041342
 -34.0354195   2.9866397  12.5416994 -33.5299835   2.4638407  13.8267326
 -33.0530663   3.2624559  14.3255224 -32.7867851   1.6652703  13.6264725
 -34.6395035   1.8084958  14.7419586 -35.3491287   2.5432243  15.0566111
 -33.9564095   1.0582092  15.9418974 -34.6576920   0.4527808  16.5015545
 -33.5197372   1.7529876  16.5851974 -32.8401642   0.1586794  15.5472555
 -31.5182400   0.0619151  16.4768867 -30.8403950   1.4763660  16.1292477
 -30.8318748   2.5850961  17.0322380 -31.7639179   2.6242008  17.5246620
 -30.6830788   3.5238717  16.4750996 -29.6768417   2.3130395  18.0617733
 -29.8003597   1.3001965  18.4512825 -29.8062878   3.0320656  18.8588867
 -28.2415981   2.4344471  17.5879555 -27.8875275   3.7726774  17.0577793
 -28.4591656   3.9819810  16.1539211 -26.8185596   3.8139153  16.8032017
 -28.1312675   4.5098410  17.8859234 -27.3616962   2.1099977  18.7259235
 -27.5208645   1.0849004  19.0252323 -27.6382046   2.8566551  19.5075378
 -26.3456364   2.2513037  18.4584274 -27.8938980   1.4632261  16.4846020
 -27.9775524   0.4523398  16.9319839 -26.8944206   1.7372897  16.1646976
 -28.6121559   1.5493107  15.6631851 -32.0079536   0.0055830  17.8918648
 -30.6916924  -1.0630572  15.9674988 -35.2906380   0.8419749  13.8769684
 -36.5862160   0.6814104  13.9449253 -37.3350220   1.3465090  14.6431751
 -37.0265160  -0.4156622  12.9405680 -36.2077637  -0.5207436  12.2510099
 -37.0616875  -1.3878636  13.5211697 -38.3055458  -0.1446198  12.2047338
 -39.0348396  -0.3864670  12.9624262 -38.4080429   0.9223474  11.8522635
 -38.3989220  -1.1195785  11.0110655 -37.5262527  -1.0511179  10.3365936
 -38.4204521  -2.1222286  11.3959875 -39.7191277  -0.8287989  10.2140913
 -39.8369980  -1.7222650   9.5515299 -40.6089973  -0.7530251  10.9046373
 -39.7305603   0.3225566   9.2058821 -39.7659302   1.2681485   9.7123299
 -38.8243866   0.3633541   8.5766621 -40.9379158   0.1639535   8.3007641
 -40.8220367  -0.8144457   7.8469830 -41.8465500   0.2045347   8.8791237
 -41.1079979   1.2237411   7.1754961 -40.2998123   1.1881335   6.4763355
 -42.0007553   0.8996617   6.6791196 -41.2755013   2.6148114   7.6898594
 -42.1259842   2.6928496   8.4004345 -40.6557426   3.7127028   7.2818446
 -40.8728371   4.6424036   7.6900764 -39.5405540   3.7568781   6.2673278
 -39.1495667   2.7554393   5.9990554 -39.9491196   4.1288466   5.3707881
 -38.3757324   4.5768242   6.7143102 -38.7480125   5.5638504   6.9905143
 -37.9231873   4.1279497   7.5952601 -37.1762276   4.5380135   5.7569370
 -36.4404449   5.2346754   6.1761532 -36.7234840   3.5514269   5.6374669
 -37.5063171   5.0539894   4.3219814 -38.2985764   4.4409661   3.9554386
 -37.8409691   6.0767894   4.2782211 -36.3198471   4.8454881   3.3377335
 -35.4435883   5.3071461   3.8029447 -36.0616455   3.7717507   3.2170966
 -36.4425507   5.5054612   1.9174730 -36.3496513   6.5918760   1.9145815
 -35.6056747   5.2218413   1.2873602 -37.7401276   5.1359649   1.2097390
 -38.5320778   5.7121525   1.6371007 -37.6964340   5.4083209   0.1458047
 -38.1639481   3.6682024   1.2364452 -38.6754036   3.3501849   0.3567137
 -38.7503090   3.4726951   2.1323054 -37.3036156   2.9845085   1.4013106
  -9.9250450  17.2574730  -0.9552198 -10.1595745  16.7282047  -1.8556427
  -8.9966288  17.8433838  -1.0443475 -10.7288570  17.9872723  -0.8257174
  -9.9463434  16.2686214   0.2312940  -9.1919060  15.5021143   0.0441877
 -10.8622837  15.7376242   0.2924446  -9.7313986  16.9977474   1.6068815
  -9.8796730  16.2709637   2.4291811 -10.5378017  17.7701435   1.7099524
  -8.3541241  17.6613064   1.7135966  -8.2432547  18.3641872   0.9073126
  -7.5932760  16.9037228   1.7090030  -8.0712738  18.4160461   2.9885612
  -8.6575756  19.3647537   2.9777613  -7.0525103  18.7882004   2.9406109
  -8.3100491  17.6806240   4.3714285  -7.8117294  16.7464733   4.4361262
  -9.3365145  17.3649807   4.4235845  -8.0229740  18.5946217   5.5727677
  -8.6608486  19.5012054   5.4493828  -7.0177789  18.9165192   5.5030251
  -8.3747892  18.0314465   6.9497709  -7.7307649  17.1556911   7.1325312
  -9.3973875  17.6433601   6.8979740  -8.3165436  19.0396900   8.0838928
  -8.9839687  19.8597546   7.8324695  -7.3197889  19.4197617   8.2793303
  -8.7674370  18.4883556   9.4504824  -9.8402319  18.2510071   9.4200125
  -8.7558975  19.3004208  10.2266836  -8.0832214  17.2330170  10.0434361
  -7.0597048  17.5094395  10.3405848  -7.9710393  16.5165730   9.2425003
  -8.8387976  16.6776695  11.2612247  -9.8468218  16.3925018  11.0297346
  -8.9381495  17.4388142  11.9844494  -8.1146221  15.4669333  11.8759146
  -7.2030468  15.7931318  12.4200583  -7.7946944  14.8435345  11.0342617
  -8.9689026  14.7256365  12.8918829  -8.4919252  13.7344303  13.0966082
  -9.9567070  14.5397625  12.5350494  -9.0243158  15.5157366  14.2305174
  -9.4112530  16.4810810  13.9590225  -8.0144234  15.6713829  14.6252432
  -9.8788223  14.9063778  15.3102722 -11.0528145  14.5901508  15.1140614
  -9.1405849  14.7734632  16.4756069  -9.7482424  14.1455851  17.6052361
 -10.7889833  14.4249554  17.7655964  -9.1840878  14.4370546  18.4899673
  -9.5643635  12.6348925  17.3679581 -10.4289732  12.1627436  17.8835812
  -8.2884693  11.9634018  17.9194794  -8.1666965  10.9224739  17.5625954
  -8.3426132  11.9155931  18.9911766  -7.0272107  12.7108536  17.5859871
  -6.2066550  13.5686684  18.7249660  -6.6864295  15.0779543  18.4071903
  -6.0540910  15.8868685  17.4204597  -5.8828921  15.3396797  16.4859581
  -5.0641470  16.1507339  17.8298931  -6.9087415  17.1382923  17.2623615
  -7.8723931  16.9519138  16.8262634  -6.4306412  17.7903385  16.5189857
  -7.1757598  17.9426994  18.5470982  -8.3520212  17.4762459  19.3220749
  -9.2569695  17.5349903  18.6987228  -8.4417753  18.0292816  20.2467194
  -8.0867653  16.4469318  19.6178036  -5.9861369  18.0788708  19.4257336
  -5.2095408  18.4712830  18.7887974  -5.8191819  17.0795116  19.7169075
  -6.0998850  18.6677532  20.3173714  -7.4318409  19.3557129  18.1201134
  -6.5778093  19.6836967  17.4742184  -7.5920649  19.9339218  19.0335999
  -8.3632803  19.3841534  17.5619717  -6.6410999  13.1385851  20.0944424
  -4.7756791  13.4660053  18.3945732  -9.6552830  12.2214117  15.9668655
 -10.2880383  11.1032352  15.6010580 -10.6333017  10.2062473  16.3464565
 -10.5110855  11.1568155  14.1127062 -11.5934668  11.0825310  13.9407721
 -10.1985502  12.1119232  13.7695017  -9.8493204  10.0227842  13.3201361
  -8.7954855  10.0181856  13.6124229 -10.3579617   9.1115408  13.6476145
 -10.0942411  10.1363649  11.7666197  -9.8151426   9.1852522  11.2758341
 -11.1856356  10.2917871  11.6641226  -9.2881889  11.2652645  11.0971298
  -9.5232887  12.1325874  11.7136497  -8.2176208  11.1539383  11.0299587
  -9.6625214  11.5112686   9.6079140  -8.9564333  12.1859732   9.1578283
  -9.5465193  10.5516901   9.0953922 -11.0883732  12.0609188   9.3833313
 -11.1743069  12.1040554   8.3044224 -11.8052492  11.3269386   9.6885509
 -11.2501726  13.4751139   9.9998617 -11.2714729  13.3805466  11.0986176
 -10.3351793  14.0379086   9.7937193 -12.4542608  14.2463675   9.5093555
 -13.3707771  14.0386581   9.9649324 -12.4302063  15.2015266   8.5835905
 -13.3587637  15.6713333   8.4078798 -11.2940159  15.6292210   7.7228546
 -11.0312262  16.6847191   7.9540663 -10.4584618  15.0464582   7.9958944
 -11.5265293  15.3932304   6.2257333 -10.5549994  15.5226278   5.7264786
 -11.8957224  14.3773851   6.0564523 -12.4764252  16.4931927   5.7489367
 -13.3986626  16.5109520   6.3730536 -11.9684839  17.4525776   5.9832573
 -12.8414202  16.4753304   4.2332773 -11.8711128  16.5121002   3.7016845
 -13.3909225  15.5440607   4.0150633 -13.7801218  17.6110592   3.8297377
 -14.6497297  17.6493282   4.5117612 -13.3314362  18.5654736   4.0026670
 -14.2814465  17.5443172   2.3993936 -15.0008955  16.7073555   2.4023814
 -14.8830786  18.4482212   2.1779816 -13.1970510  17.3607330   1.3423724
 -12.5952234  18.2899837   1.2527652 -12.5656118  16.5286427   1.6976069
 -13.7905073  17.0687275  -0.0265970 -13.0455513  16.6163788  -0.6823587
 -14.0784540  17.9185982  -0.5742954 -14.6438169  16.3818874  -0.0704729
 -34.1848793  26.0222702   2.5215995 -34.6052322  26.9841671   2.2745032
 -35.0380096  25.4073257   2.8381517 -33.6824570  25.5338078   1.6642706
 -33.1820526  26.1311321   3.6902966 -33.6767540  26.6250591   4.5059299
 -32.3196564  26.7099953   3.3587146 -32.7748642  24.6558285   4.0905581
 -32.3322639  24.2197990   3.2038503 -33.6974640  24.0832920   4.2726889
 -31.7984676  24.5444698   5.2792592 -31.5985222  23.4638958   5.4108691
 -32.2882614  24.8449879   6.2297449 -30.4762192  25.2705364   5.0283809
 -30.6801434  26.2739353   4.6698346 -29.8873177  24.8522987   4.2246289
 -29.5621319  25.1692276   6.2389011 -29.4459553  24.0845680   6.4680643
 -30.1110859  25.6344681   7.0540533 -28.2819004  25.9437542   6.0154443
 -28.5187912  26.9755840   5.7131681 -27.7173729  25.4686337   5.2217412
 -27.4253845  26.0770607   7.3194227 -28.0283394  26.2371731   8.1821108
 -26.6847324  26.9137497   7.1843190 -26.6546097  24.8207455   7.5745220
 -25.7229137  24.8738594   7.0264225 -27.2290783  23.9533653   7.2310114
 -26.2983532  24.6141720   9.0515699 -25.9066124  25.5659027   9.4356203
 -25.5487175  23.8599758   9.0687237 -27.4951172  24.0645638   9.8641386
 -27.7566185  23.0798893   9.4407024 -28.3894634  24.6202297   9.6816120
 -27.2323112  23.9139538  11.3424788 -26.9577065  24.8324318  11.7802706
 -26.3966732  23.2375622  11.4906979 -28.4498196  23.3820267  12.1018457
 -28.6520462  22.4497528  11.6102142 -29.3474884  24.0062885  12.0150557
 -28.2481194  23.0110588  13.5938282 -27.6377106  22.0698395  13.6866274
 -29.2411995  22.7526512  13.9952364 -27.6411839  24.1494961  14.4029608
 -28.1214314  25.1011486  14.2176809 -26.5954514  24.3016987  14.0727825
 -27.7119732  23.9023495  15.8587027 -26.7626362  23.7510910  16.5997334
 -28.9898090  23.8968258  16.2536221 -29.3214970  23.9293766  17.6891747
 -28.5631161  23.3890057  18.2697353 -30.3094959  23.4001713  17.8518887
 -29.5085526  25.3566151  18.1706181 -28.5359802  25.8450794  18.2202950
 -30.0065022  25.3972549  19.6278839 -29.2596607  24.9060421  20.2327442
 -30.9277153  24.8376198  19.7766075 -30.2149563  26.7589016  20.1402683
 -29.0202637  27.7138786  20.5353279 -28.6847916  28.4981766  19.1698952
 -29.5999184  29.5395832  18.7190247 -30.4526997  29.5990105  19.3707390
 -29.9759464  29.1948109  17.7647800 -28.7792568  30.8690376  18.5697861
 -29.4523926  31.5130787  17.9726486 -27.8578644  30.6876354  18.0564842
 -28.5107880  31.7181816  19.7608528 -27.5835037  31.1099472  20.7910137
 -28.0511093  30.1965523  21.1703663 -27.4549103  31.8488674  21.6207218
 -26.6147270  30.8692932  20.3595428 -27.7840710  32.9224129  19.2058983
 -28.4103031  33.4598923  18.4751053 -26.8929272  32.5309753  18.7142868
 -27.4877148  33.5284195  20.0781078 -29.8038387  32.2145004  20.4053898
 -30.3327980  32.8868790  19.7235184 -29.4942760  32.6537170  21.3486080
 -30.4137402  31.3387699  20.6947994 -29.6201687  28.6498299  21.5473938
 -27.8293781  26.9169254  20.9116383 -30.3948288  26.1065941  17.2481747
 -29.8694038  26.6976070  16.1640320 -28.6688538  26.7691689  15.9517908
 -30.9085674  27.1803379  15.1477518 -31.8353844  26.6570320  15.3240576
 -31.1629486  28.2320004  15.3769979 -30.4985065  26.9449234  13.6490488
 -30.2604485  25.8853931  13.5489283 -31.4664459  27.0759125  13.1423273
 -29.4166107  27.8901711  13.1047201 -29.7475357  28.9139671  13.0522919
 -28.4970951  27.7344551  13.6919985 -28.9728756  27.4911575  11.6641130
 -28.1365013  28.1706276  11.3421955 -28.5001411  26.4819736  11.7565842
 -30.0785046  27.3902550  10.5549135 -29.6629429  27.0274906   9.5984755
 -30.9258118  26.7074375  10.8759203 -30.7656078  28.7730999  10.3317013
 -31.0979443  29.1051712  11.2986364 -30.0109673  29.4541245  10.0350943
 -32.0461311  28.7108135   9.4262228 -32.3813324  29.7590942   9.3808661
 -31.7659969  28.4021301   8.4285173 -33.1968765  27.9243317  10.0632191
 -33.8637276  28.5306149  10.6921120 -33.4400330  26.6345577   9.8929996
 -34.3423882  26.2117310  10.2501049 -32.6365089  25.6872349   9.0700741
 -33.2864838  25.3113861   8.2368431 -31.7878132  26.2424297   8.6117973
 -32.2205696  24.4982529   9.9548836 -31.6114216  24.7645035  10.7942028
 -33.0748024  23.9811401  10.3668222 -31.4615631  23.4304695   9.1110907
 -31.9434376  23.2496452   8.1716051 -30.4459553  23.8338394   8.9789181
 -31.3964825  22.0880718   9.7984877 -30.9899693  22.2837238  10.7760038
 -32.3778992  21.6801491  10.0141058 -30.4283981  21.1258507   9.0755749
 -29.4019814  21.4711876   9.2059784 -30.5208397  20.1493473   9.5855494
 -30.6736164  21.0612946   7.5488586 -31.7530422  20.8677273   7.3385868
 -30.4176121  22.0124989   7.1466026 -29.8942928  19.9558258   6.8021755
 -30.4505005  19.0000744   6.9459558 -29.9039459  20.1710396   5.7211375
 -28.4418144  19.7963085   7.1809416 -28.0417824  18.9688377   6.6352205
 -28.2924099  19.5898800   8.2905426 -27.8726120  20.6753254   6.8439064
  23.5806541  39.1220016   2.4657657  24.3781128  38.6368904   1.9654567
  23.4327908  38.5043182   3.3391497  23.8998775  40.1141434   2.7633333
  22.4199848  39.2863922   1.4324076  22.0225353  38.2848473   1.1711404
  22.7851715  39.8105545   0.5316100  21.2170067  40.0281982   2.0092316
  20.5456142  40.3268967   1.1937013  21.6321545  40.9337082   2.4142292
  20.4243202  39.2081032   3.0711124  21.1438484  38.8583679   3.8455174
  19.8889713  38.3481522   2.5993147  19.3102608  40.1363831   3.6135123
  18.5026417  40.1179924   2.8957427  19.6997204  41.1323013   3.6037841
  18.7800331  39.8599663   5.0368032  19.5864067  39.7742004   5.7027078
  18.3401756  38.8769112   4.8676558  17.7134266  40.8570709   5.5414729
  16.7939148  40.7646904   4.9229236  18.1698952  41.8333092   5.2531443
  17.3450794  40.8390961   7.0437450  16.4721985  41.4682808   7.2270961
  18.2160969  41.2563286   7.6601009  16.9356937  39.4350204   7.5325508
  16.7760735  39.4386749   8.6078882  17.8131638  38.7819290   7.4185181
  15.7174864  38.7867203   6.8381128  16.0153122  38.3996811   5.9073896
  14.9750481  39.5848427   6.7169614  15.2855482  37.5971298   7.7352376
  16.0589066  36.8158684   7.8436375  14.4364319  37.1494331   7.2345681
  14.7650051  37.9522820   9.1707392  14.1553869  38.8405228   9.1478233
  15.5816851  38.0780144   9.8854055  13.7997141  36.9057541   9.7663803
  14.3541136  36.0036354   9.9711962  13.0096111  36.7167473   9.0910034
  13.1683111  37.2200470  11.1291590  12.6002178  38.1501350  11.1025991
  13.9623795  37.2768936  11.8917646  12.2224903  36.1314240  11.6326542
  12.7240124  35.1695290  11.4925213  11.2535524  36.1785507  11.0891733
  11.9877806  36.1817627  13.1298780  11.6377554  37.1849136  13.7236652
  12.2557602  35.0123291  13.7283268  12.2598019  34.8454361  15.1485481
  11.8908348  33.8652534  15.4260492  11.5353003  35.6002388  15.5740948
  13.7051210  34.8374023  15.7381830  14.1925344  33.9026222  15.3820705
  13.6027517  34.7698669  17.2978382  14.5780773  34.6945267  17.7251759
  12.9762287  33.8827820  17.4580460  12.9471197  35.8924294  17.9248352
  13.7759361  37.1975784  18.5029850  13.7642326  38.2222748  17.2489605
  12.5759640  38.9055099  16.9036522  11.9532242  38.9712219  17.7586956
  12.0369806  38.3657837  16.1533432  12.9215670  40.3210602  16.3854046
  13.3039961  40.8633842  17.2376537  11.9876089  40.8310661  16.0362091
  13.9601955  40.3927574  15.2792311  15.3214159  40.5304565  15.8353033
  15.4230680  41.4923248  16.4087868  16.0584793  40.4838142  15.0396776
  15.4619017  39.6749382  16.5037174  13.8921976  39.2169685  14.2934170
  12.8878736  39.1824646  13.8738651  14.1931429  38.3244896  14.8749466
  14.5769320  39.3759651  13.4364185  13.7311077  41.6514587  14.5349350
  12.7989111  41.5944252  13.9333839  14.5656786  41.8832436  13.8440571
  13.6436262  42.4279366  15.2662802  12.9735661  37.8208618  19.6196899
  15.1931992  36.8257828  18.7580090  14.5529499  35.9282417  15.2829647
  15.8588591  35.7494812  15.4690170  16.3633842  34.7582588  15.9145966
  16.7502708  36.8784103  15.0604639  16.3759918  37.8232346  15.4135027
  17.7658062  36.7039032  15.4237356  16.9054966  36.9373322  13.5601702
  17.2154617  35.9879456  13.2142057  15.9245338  37.1669884  13.0890865
  17.9300861  38.0261078  13.1774197  17.6553192  39.0411873  13.5133276
  18.8428268  37.7529335  13.7379351  18.2712135  38.0890045  11.6510448
  18.4232140  37.0022049  11.3907614  17.4051895  38.5299721  11.1101923
  19.6741791  38.7211952  11.3984413  19.6894951  39.7066383  11.9118204
  20.5103207  38.1590805  11.8441105  19.9415436  38.9584389   9.9060202
  19.1392937  39.5649872   9.4612970  20.9356136  39.3977814   9.7257223
  20.0301170  37.6633301   9.0436306  19.0219707  37.1957130   8.9674139
  20.2715149  37.9669685   8.0502758  21.0099106  36.6237373   9.4837799
  20.9184914  36.0543594  10.3978348  22.1242542  36.3686295   8.8235855
  22.8091030  35.6600266   9.2451029  22.6071548  37.1418724   7.6288028
  22.1705055  38.1314697   7.6130795  23.6790771  37.3262177   7.7712245
  22.3678875  36.4024200   6.3207579  23.0673904  36.7218819   5.6060128
  22.5271702  35.3285980   6.4111276  20.9338379  36.6565628   5.7605143
  20.2545147  36.3301926   6.5061522  20.8435516  37.7357407   5.5775766
  20.5188942  35.8556824   4.5006022  21.0412006  36.2128754   3.5966907
  20.7180958  34.8065834   4.6439223  19.0032597  35.9244232   4.3451490
  18.5401058  35.6471519   5.2802062  18.7350941  36.9380684   4.0558753
  18.5283833  34.9693832   3.2963133  18.8203392  35.3076859   2.3382466
  19.0123005  34.0345650   3.4771023  17.0233765  34.6191254   3.3386121
  16.7583694  34.1778107   4.2731514  16.4353619  35.5431671   3.2850661
  16.5923481  33.6827278   2.2004266  15.5420609  33.5036812   2.3412430
  17.1112709  32.7115593   2.1938720  16.7342205  34.1681747   1.2226964
 -36.3978653 -19.7952480   1.3253583 -36.8858070 -20.3247662   0.4905615
 -35.5811157 -20.4936314   1.5944158 -35.9210663 -18.8465157   0.9613706
 -37.4310150 -19.6710873   2.4271693 -37.9927444 -20.6095924   2.4962690
 -38.1570168 -18.8698139   2.1288369 -36.8487434 -19.3153000   3.8008466
 -36.2681999 -18.4004135   3.6934159 -36.1273041 -20.0709839   4.0214396
 -37.8812294 -19.0270729   4.8855672 -38.3689079 -19.9741898   5.1104603
 -38.7038193 -18.4533615   4.4684286 -37.3295746 -18.4513226   6.2539835
 -38.1408920 -18.2658157   6.9503856 -36.8723183 -17.4776516   6.0680652
 -36.4674263 -19.5284500   6.8896337 -35.5054398 -19.5601921   6.3034921
 -37.0034752 -20.4421406   6.7253537 -36.1487503 -19.3157425   8.3764954
 -35.5729332 -20.1489239   8.7854719 -37.1019592 -19.2031498   8.9305506
 -35.3386307 -18.0541992   8.6751919 -35.0915947 -18.0803280   9.7626982
 -35.9657516 -17.1527634   8.4956398 -33.9593925 -17.8157349   7.9375906
 -34.1371956 -17.9674911   6.9109864 -33.2557106 -18.6334114   8.1822433
 -33.3134537 -16.4353848   8.1611834 -33.9557724 -15.6568575   7.7630262
 -32.3400764 -16.4129162   7.5815005 -32.9256668 -16.0484715   9.6156826
 -32.3615303 -16.8744125  10.0203791 -33.8337250 -15.9665194  10.1909876
 -32.1767845 -14.7224569   9.8206434 -31.2139740 -14.7949467   9.4039307
 -31.9308510 -14.5724583  10.9015560 -32.8978806 -13.4525871   9.2957115
 -33.1652946 -13.5661707   8.2216797 -32.2419243 -12.5483713   9.3590231
 -34.1997375 -13.1401539  10.0257063 -34.8718719 -14.0086861   9.9967690
 -34.6354256 -12.3538694   9.4172602 -33.8874359 -12.6143923  11.4717531
 -33.2296829 -11.7797365  11.5129013 -33.5127182 -13.4333897  12.0874548
 -35.2076187 -12.1942244  12.0909204 -36.0811272 -11.5463219  11.5595999
 -35.2749748 -12.5802536  13.3789301 -36.5669174 -12.4469948  14.0776815
 -37.3917694 -12.6985989  13.3962145 -36.6598663 -11.3825121  14.3324394
 -36.6014366 -13.4022617  15.3399935 -37.5598526 -13.1616011  15.8108196
 -35.4468384 -13.2542467  16.3536453 -34.5478172 -13.4079180  15.7559595
 -35.5339012 -13.9683361  17.1597996 -35.4073334 -11.8752375  16.8705597
 -36.4932137 -11.3274536  17.9705830 -37.8026581 -11.0371494  17.0765495
 -38.1956406  -9.6920109  16.6506710 -37.3791351  -9.1923037  16.1068840
 -38.4852257  -9.1223516  17.5485954 -39.3778191  -9.6687698  15.6260223
 -39.1191025 -10.0691843  14.6520948 -39.6698341  -8.6386385  15.4822340
 -40.7128105 -10.2876205  16.0376625 -41.0814056  -9.8852329  17.4183235
 -40.2902946 -10.2501354  18.0652866 -42.0783386 -10.3576393  17.5835457
 -41.1902237  -8.7820301  17.5488815 -41.8212547  -9.7694931  15.1252890
 -41.6354408 -10.2972660  14.1618652 -41.8235474  -8.6509762  15.0865574
 -42.8098450 -10.0862274  15.5399323 -40.6851807 -11.8005648  15.9314175
 -40.3981018 -12.1134863  14.9439354 -41.6555405 -12.1414795  16.2062263
 -40.0580635 -12.1019382  16.7351627 -36.7096062 -12.3983202  18.9831657
 -35.9397545 -10.0341845  18.4481773 -36.6262245 -14.8224630  14.8872614
 -37.6242981 -15.6053066  15.3387442 -38.2115631 -15.3341789  16.3538914
 -37.9425926 -16.6749134  14.4101391 -37.2896805 -16.6889229  13.5308018
 -37.7359161 -17.6160126  14.9863920 -39.4203110 -16.5710011  13.9533415
 -39.7613640 -17.5478897  13.6410351 -40.1105347 -16.2713223  14.7344990
 -39.6109505 -15.5880747  12.8026485 -40.6622391 -15.5589428  12.5301352
 -39.3541260 -14.5797386  13.1349373 -38.8593369 -15.8336439  11.4806547
 -37.7602539 -15.6326771  11.5980549 -38.9703598 -16.8793316  11.1479673
 -39.3607025 -14.8507404  10.4295645 -40.4618912 -14.7513590  10.5193892
 -38.9994087 -13.8740835  10.7591143 -38.9657936 -15.2063742   9.0199871
 -39.0378799 -16.3044319   8.8896446 -39.6565704 -14.7840452   8.3377371
 -37.5565948 -14.7799301   8.6597481 -36.8440590 -15.3006763   9.3627090
 -37.4051743 -15.2198133   7.6699381 -37.2803841 -13.3016195   8.6281052
 -36.7362900 -12.8449106   9.4640675 -37.3948631 -12.5061789   7.5582795
 -37.1630020 -11.4583931   7.7061729 -38.0086174 -12.9458427   6.1906071
 -38.6633453 -13.8127193   6.3298230 -38.6600227 -12.1553698   5.8315325
 -36.9377098 -13.2244787   5.1756296 -37.3830299 -13.1616888   4.1846414
 -36.2032204 -12.4743595   5.1676965 -36.2572708 -14.5729160   5.3062539
 -35.6367188 -14.5413408   6.2007093 -37.0772705 -15.3560686   5.4974675
 -35.4109726 -14.9577761   4.0722589 -36.0648308 -15.0933094   3.2269905
 -34.7545166 -14.1118736   3.8292167 -34.5481415 -16.2040653   4.3257055
 -33.6075401 -15.9818373   4.9196286 -35.1325188 -16.9808502   4.8713498
 -34.1340408 -16.8464642   3.0072289 -33.6332703 -17.8235283   3.2669137
 -35.0080910 -17.0349369   2.3375344 -33.1207008 -15.9331808   2.2625499
 -33.5704079 -14.9369612   2.0436437 -32.3153610 -15.7995596   2.9930534
 -32.5541611 -16.5615978   0.9692090 -33.4077988 -16.7276802   0.2908854
 -32.0863304 -17.5441380   1.1386033 -31.8921070 -15.8591089   0.4608977
 -16.0660534 -17.8479385   4.4553452 -16.2715359 -18.6278706   3.7860622
 -15.6873312 -18.2802219   5.3999996 -15.3107071 -17.2420635   3.9844654
 -17.3331871 -17.0270214   4.7765212 -17.9451065 -17.6360836   5.4744749
 -17.8871098 -16.8388443   3.8665974 -16.9992466 -15.7186117   5.4960880
 -16.6479282 -14.9977436   4.7338901 -16.1993675 -15.8636103   6.2496958
 -18.2913609 -15.1455040   6.0968356 -19.1022549 -15.3475866   5.3829823
 -18.2217274 -14.0875101   6.2821794 -18.6085873 -15.8429947   7.4731345
 -17.7883987 -15.6252022   8.1346331 -18.7695560 -16.9510212   7.3816128
 -19.8877754 -15.2297878   8.1091328 -20.7100277 -15.3308868   7.4469085
 -19.7034187 -14.1688309   8.2586403 -20.1988144 -15.9696484   9.4565687
 -19.4064980 -15.7139606  10.1202793 -20.2180977 -17.0892010   9.2550020
 -21.5490036 -15.4366217  10.0332775 -22.2522068 -15.2142611   9.2433157
 -21.3144112 -14.5561905  10.6360950 -22.3327618 -16.3950138  10.9799681
 -22.7628365 -17.2348900  10.3316927 -23.1598186 -15.8684912  11.4195347
 -21.5039616 -16.9818840  12.1395912 -20.9145832 -16.1296043  12.5426006
 -20.8334923 -17.7077351  11.6535864 -22.3248901 -17.6558056  13.2569876
 -22.9756393 -18.4085236  12.7556410 -23.0451088 -16.9130783  13.5659332
 -21.5777569 -18.2805824  14.4715891 -20.5901546 -17.8082619  14.5284119
 -21.4904232 -19.3394623  14.2332506 -22.3247375 -18.1343250  15.8416710
 -22.4067230 -17.0774956  15.9898224 -21.6221352 -18.5102634  16.5771790
 -23.6731319 -18.8663578  15.9010115 -23.5910606 -19.8514881  16.4528580
 -24.0024033 -19.1407681  14.8760939 -24.7531681 -18.0161057  16.6203709
 -25.6928520 -18.5870914  16.7791576 -25.1560001 -17.1398773  16.0516758
 -24.2512493 -17.5323410  17.9416618 -24.0734119 -18.2345409  18.9356918
 -23.9443111 -16.2525311  17.8543358 -23.5794544 -15.5108643  19.0630760
 -24.2186470 -15.7519922  19.8748150 -23.6948376 -14.4333553  18.8265476
 -22.1053143 -15.7347012  19.5087872 -22.0370216 -16.6912098  20.0533142
 -21.4891529 -14.6273060  20.3532124 -20.4029255 -14.6703424  20.2756138
 -21.7917233 -14.8315134  21.4255619 -21.8891907 -13.2797832  20.0608349
 -21.0197849 -12.3760548  19.0367050 -21.6648388 -12.7838802  17.6271877
 -22.9014416 -12.2090397  17.2214870 -22.8857784 -11.1521578  17.5465469
 -23.7743740 -12.7467527  17.6492958 -22.8244381 -12.1935949  15.6783886
 -21.8186092 -11.8011951  15.4174242 -23.6632004 -11.5801191  15.3262844
 -23.0074787 -13.5284376  14.9935532 -24.1506195 -14.2980471  15.5360518
 -24.0619125 -14.3606272  16.5917206 -24.0445175 -15.3720770  15.2224865
 -25.0564098 -13.8840065  15.1434250 -23.1502533 -13.3668032  13.5315895
 -22.1536179 -13.0231400  13.1276035 -23.8939838 -12.6084633  13.2788553
 -23.5035515 -14.3381071  13.0881643 -21.8594379 -14.4172907  15.2092018
 -20.9615498 -13.7866802  15.0241575 -21.9340343 -15.2816095  14.6043892
 -21.7388840 -14.6301470  16.2461586 -21.3012238 -10.9600182  19.2847404
 -19.6047192 -12.8781881  19.0741043 -21.2585526 -15.8562813  18.3511753
 -20.1999969 -16.7000256  18.3743553 -19.8853760 -17.4676533  19.2836018
 -19.4492359 -16.6365070  17.0718727 -19.1263351 -17.6554413  16.8416328
 -20.1276302 -16.2054539  16.3447170 -18.1813450 -15.7801399  17.1048336
 -18.3892479 -14.7481966  17.4668903 -17.4734249 -16.2228317  17.7586288
 -17.4796219 -15.6589365  15.7387648 -17.1066647 -16.6397705  15.3961620
 -16.6392078 -14.9886560  15.8887386 -18.3923187 -14.9790440  14.7171173
 -19.2246780 -15.6580067  14.5236864 -18.7814808 -14.1220675  15.2322664
 -17.7431316 -14.5186520  13.3949385 -16.9331055 -13.8494987  13.6128082
 -17.2298985 -15.3574276  12.8441801 -18.7501850 -13.7466812  12.5008726
 -18.3534298 -13.6834097  11.5117464 -19.7468433 -14.2225895  12.4688292
 -18.9128952 -12.2911177  13.0174179 -19.3105583 -12.2838964  14.0461159
 -17.9563313 -11.7934132  13.0117407 -19.8518791 -11.5031166  12.1188011
 -20.7859802 -11.9618053  11.9653549 -19.6862621 -10.3180265  11.5962458
 -20.4706573  -9.9829645  11.0314770 -18.4189072  -9.4659986  11.5952072
 -18.6999226  -8.4361372  11.6284266 -17.8782768  -9.6037159  12.5381384
 -17.5619144  -9.7939949  10.3582630 -18.1737289  -9.5968685   9.4858398
 -16.7820625  -9.0626040  10.3216858 -17.0184212 -11.2716055  10.2989531
 -16.3990650 -11.5405693  11.1895008 -17.8642063 -11.9493103  10.2924290
 -16.2410412 -11.5108986   9.0070229 -16.7511826 -11.0805178   8.1848373
 -15.2552519 -11.0764809   9.0620623 -16.1054382 -13.0482969   8.8061924
 -15.9950256 -13.5015793   9.7459650 -17.0110016 -13.4654722   8.4341726
 -14.9444246 -13.2653666   7.8174543 -13.9824295 -12.7803860   8.1170025
 -14.8240709 -14.3492603   7.7112913 -15.3127851 -12.5788593   6.4823828
 -16.3895931 -12.7147951   6.2235260 -15.0638046 -11.5029726   6.5341001
 -14.5609198 -13.2280455   5.2771688 -14.9171629 -12.7474394   4.3788176
 -14.7533503 -14.2756901   5.1802397 -13.4815969 -13.0311832   5.4876761
  30.0125866 -24.9279575   2.4599030  30.1965523 -25.2619534   1.4469754
  30.9578915 -24.7232323   2.9478786  29.4698505 -23.9749451   2.4720759
  29.2762356 -26.0493755   3.2539008  29.8936348 -26.9476891   3.1255796
  28.2751579 -26.1520367   2.7675712  29.0991611 -25.7343330   4.7440939
  28.5652275 -24.7695618   4.8494062  30.0456028 -25.6854668   5.2170715
  28.2235432 -26.7779274   5.5028481  27.5351906 -27.2354813   4.8072629
  27.6995125 -26.2537880   6.3068728  28.9713497 -27.9532127   6.1894851
  28.2310848 -28.6000061   6.6586642  29.6472931 -27.5930252   7.0170078
  29.8806019 -28.6755543   5.1836138  30.7012272 -27.9955559   4.8370323
  29.2562523 -29.0916233   4.3800106  30.7130852 -29.8689499   5.7500458
  31.4152412 -29.4290733   6.4882860  31.1770439 -30.2902679   4.8442330
  29.8251438 -30.9430733   6.4324436  29.1569805 -31.3012218   5.6647139
  29.2172794 -30.5007572   7.2607250  30.5640678 -32.1187477   7.0177708
  31.1754417 -32.5871277   6.2341547  29.7651577 -32.9031639   7.2281141
  31.4287167 -31.7962112   8.2742596  32.3972054 -31.2977200   8.0223408
  31.7821693 -32.7463303   8.6256208  30.7126846 -31.0292606   9.3927279
  30.5685978 -30.0198727   9.0032473  31.5165977 -30.9614410  10.1713228
  29.3779163 -31.6203518   9.9112043  29.7102833 -32.6026611  10.3140593
  28.6683197 -31.7416840   9.0815964  28.7674141 -30.6670761  10.9758272
  28.5251503 -29.7504215  10.4061451  29.5371990 -30.4889183  11.7220592
  27.4834290 -31.2397747  11.5897188  26.8116188 -31.4718323  10.7821770
  27.0180912 -30.4176521  12.1171894  27.6152630 -32.4499054  12.5443592
  28.2353058 -33.2480164  12.0973635  26.6283894 -32.8601151  12.7933445
  28.2684898 -32.0372810  13.8029814  29.4515038 -32.0733299  14.1605244
  27.3359318 -31.4945393  14.6042814  27.7945518 -30.7596302  15.8265390
  28.5744648 -31.2946682  16.3374043  26.9658642 -30.6714458  16.5567131
  28.4343128 -29.3873234  15.4817629  29.3398380 -29.6357765  14.8917341
  28.8896790 -28.6871433  16.7971344  28.6960411 -27.6045055  16.7009048
  29.9643803 -28.7917995  16.8399544  28.2119274 -29.1279774  17.9756374
  28.4070435 -28.4034367  19.4272823  27.2070599 -27.5071354  19.5437775
  25.8557339 -28.0156212  19.6856346  25.3608685 -27.3774052  20.4162769
  25.9142666 -29.0382748  20.0418701  25.1313114 -28.0680923  18.2820244
  24.1023903 -28.4345741  18.5137882  25.6391315 -28.7495213  17.5477257
  24.9709892 -26.7240124  17.5862865  26.2057095 -26.2836113  16.8906326
  26.9721813 -26.1957340  17.6271629  26.0359097 -25.3393726  16.3705082
  26.4991550 -27.0279236  16.1364155  23.9170284 -26.9246979  16.5355377
  22.9506874 -27.0752888  17.0574760  24.1205673 -27.8257790  15.9443941
  23.8423901 -26.0557480  15.8637953  24.4448776 -25.5731392  18.4615250
  23.6800194 -26.0186787  19.1183910  24.0261478 -24.8242359  17.7825241
  25.2897243 -25.2105503  19.0347214  28.3697491 -29.4098473  20.5291176
  29.5812778 -27.5106030  19.2762337  27.4116631 -28.6653137  14.8221292
  27.7261066 -28.1297283  13.6091318  28.8258057 -28.3103409  13.0662651
  26.6054993 -27.2968845  13.0813036  25.6365242 -27.6282291  13.4573221
  26.7538719 -26.2802391  13.4571066  26.6105824 -27.3117657  11.5434179
  27.4221210 -26.6849117  11.1931887  26.7803364 -28.2891655  11.1482420
  25.2879219 -26.7357616  11.0014362  24.5093746 -27.4825020  11.1821957
  25.0019264 -25.8560467  11.5174627  25.3569698 -26.4450073   9.5182095
  24.4205685 -26.0959282   9.1960611  26.1525745 -25.7431831   9.2555065
  25.6662159 -27.6627064   8.6589928  25.6432190 -27.2982960   7.6708126
  26.6902943 -28.0476093   8.8452330  24.6372986 -28.7208176   8.7981520
  24.9112034 -29.2952194   9.6766529  23.6518402 -28.2395840   8.9963503
  24.4934921 -29.7080460   7.6090360  24.2428761 -29.2327957   6.6461210
  25.4569988 -30.0893307   7.3530207  23.5728092 -30.8430653   8.0603895
  23.5722198 -31.1754971   9.1125927  22.7356167 -31.5366364   7.3027515
  22.1807842 -32.4204712   7.6806731  22.3744583 -31.1599178   5.8550639
  21.3416843 -31.5304775   5.5938797  22.2604179 -30.0796604   5.7815323
  23.4462719 -31.6173725   4.8410311  23.3940506 -31.1246281   3.9032815
  24.4290447 -31.4095879   5.2705250  23.3553295 -33.0969429   4.5439358
  23.5012550 -33.6520844   5.4700975  22.3206539 -33.3255463   4.1816382
  24.3471508 -33.6108131   3.5241106  25.1970329 -32.9729576   3.7447741
  24.5891552 -34.6456566   3.7656045  24.0216751 -33.5457230   2.0052741
  23.7113075 -32.5425568   1.7332339  24.9381275 -33.7272987   1.5434407
  22.9070930 -34.5024567   1.5095627  22.0048428 -34.2724380   2.0079832
  22.7683487 -34.3648758   0.4156111  23.3347530 -35.9604340   1.7301534
  24.3552589 -36.1032028   1.4262956  23.2941036 -36.0515480   2.8172388
  22.3642464 -36.9791260   1.0379211  22.5082207 -37.9944992   1.4314615
  22.5570850 -37.0415154   0.0119803  21.3408451 -36.7374115   1.2207019
  31.7886543  11.3557625  -1.4110531  31.7382832  10.7617016  -2.3648415
  30.8188457  11.3231611  -0.9808283  32.3901062  10.7622147  -0.6940035
  32.4247360  12.7878141  -1.5951139  31.7202110  13.3697662  -2.1670170
  33.3423004  12.7141676  -2.2160561  32.7739258  13.5856438  -0.3142843
  33.1235542  14.5381975  -0.6550475  33.5639992  13.1210890   0.2718641
  31.6032486  13.7549734   0.6684790  31.2513905  12.7620125   0.9279168
  30.8358803  14.3518581   0.1369957  32.0803490  14.4369974   1.9856824
  32.8957405  13.8360310   2.4185989  31.2787609  14.3490067   2.7438614
  32.4873505  15.8827629   1.8298913  31.6518803  16.3519497   1.3553168
  33.2936821  15.9065552   1.1185249  32.9138908  16.5306530   3.0940855
  33.6374626  15.9429264   3.5943506  31.9850273  16.4975529   3.6711333
  33.2765999  17.9966755   2.9192071  32.4779053  18.5390339   2.5267329
  34.1814003  18.0539169   2.2922733  33.6663361  18.6403103   4.2547793
  34.6658058  18.2642365   4.5866895  32.8706207  18.3409328   4.9823279
  33.7444153  20.2150192   4.2047172  32.8721542  20.6008911   3.7440610
  34.6150551  20.6030884   3.6335435  33.7665482  20.7625942   5.6497793
  34.7032928  20.4774456   6.1251812  32.9600563  20.3368568   6.2481890
  33.6317711  22.2694435   5.6772642  32.7518692  22.5018864   5.0811319
  34.4905396  22.7836800   5.3017912  33.4509811  22.7692986   7.0900750
  32.5577507  22.3785381   7.5187550  33.2753601  23.8335114   6.9940972
  34.6450958  22.5794811   7.9722605  35.5155754  23.1622124   7.5573821
  34.8928986  21.5666943   8.0981550  34.4022484  23.0832710   9.4171362
  33.8746834  23.9940166   9.3997145  35.3548393  23.2345581   9.9131775
  33.6329880  22.1668816  10.3605652  32.6691513  21.4946404  10.0166903
  34.0704041  22.2789574  11.6331997  33.6990433  21.2342491  12.6123161
  32.7029228  20.8519726  12.4876204  33.7752228  21.6133480  13.6303854
  34.7132034  20.1154556  12.5611391  34.4728966  19.3162708  13.2822647
  36.0670662  20.7341805  12.9940929  35.9285965  21.4656620  13.8177881
  36.4241524  21.2994175  12.1636639  37.0309410  19.6728439  13.2983227
  38.6788216  19.9079399  13.1551657  39.0577660  19.4742641  11.6413107
  38.3317375  20.0411911  10.5279789  38.3196449  21.1221924  10.6643724
  37.3063507  19.6877594  10.5599804  38.9876251  19.5074272   9.2394819
  38.4114685  19.9769611   8.3981209  38.7880020  18.4240093   9.1750669
  40.4534721  19.7638645   9.0031557  41.2287102  18.6281872   9.5040884
  40.9928513  18.5415611  10.5893612  42.2561302  18.8621044   9.3353243
  40.9438858  17.7259712   8.9681416  40.6377831  19.8523026   7.5041823
  40.2287064  20.7981033   7.1521611  40.1435280  18.9572048   7.0215187
  41.7822037  19.8336468   7.2731943  40.8626328  21.0800285   9.6106634
  40.2999344  21.9248047   9.1585522  41.9446907  21.1082306   9.4947176
  40.6224289  21.0191364  10.6300058  38.9734688  21.3514252  13.2700462
  39.3414764  18.9602833  14.0974913  34.8584976  19.5988770  11.2271872
  33.9299812  18.6774483  10.8519268  33.1254768  18.1659966  11.6062937
  34.1178589  18.1441078   9.4559517  33.1711769  17.7932472   9.0403156
  34.4634628  18.9598446   8.8336544  35.0546150  16.9394894   9.5200052
  36.0404472  17.1957092   9.9570084  34.6177292  16.1823959  10.1662884
  35.1651840  16.2634983   8.1461067  35.7199440  15.3218927   8.2969179
  34.1769257  15.9961119   7.7543454  35.9730492  17.0549564   7.0674496
  35.4166870  17.9517212   6.8505340  36.9740219  17.2556343   7.5188503
  36.1307945  16.2237854   5.7811069  35.1447563  16.1644497   5.3765888
  36.7343369  16.8183479   5.1293426  36.7071037  14.8268843   5.9808211
  37.4986191  14.8249960   6.7395644  35.9570160  14.1371403   6.4529114
  37.2433395  14.2515106   4.6080871  37.8859367  15.0164213   4.1610179
  37.8018532  13.3345404   4.7966442  36.0948792  13.8048639   3.7028491
  35.2910919  13.1809797   4.2024012  36.0381088  13.9859762   2.3794701
  35.2080917  13.5508051   1.7486347  36.9683609  14.8357239   1.5315349
  37.6979332  15.3086290   2.1527758  37.4383507  14.1895447   0.8296918
  36.1602631  15.8392296   0.6935514  35.4819183  15.1698399   0.1278618
  35.4957695  16.4733887   1.2672870  37.0289154  16.7635479  -0.2401368
  37.7069435  17.3393478   0.4249877  37.6870499  16.1389008  -0.9197595
  36.2350922  17.7491722  -1.1307588  36.9036140  18.4715481  -1.6513069
  35.7297554  17.1607380  -1.8828909  35.1709137  18.5806961  -0.3241674
  34.5653000  17.8817081   0.2538203  35.6658669  19.2279987   0.4055034
  34.2311630  19.3557682  -1.2851666  34.8703270  19.9823780  -1.9277961
  33.7170868  18.6916313  -1.9665717  33.2098808  20.3072720  -0.6565743
  32.5507622  20.6849785  -1.4460660  32.6093750  19.7790833   0.0699786
  33.8183861  21.5198116   0.0866330  33.0944290  21.9347305   0.7572477
  34.0216522  22.3515873  -0.5903721  34.7063522  21.2759800   0.6870857
  30.8071117 -13.4137955   3.7489300  30.2691154 -12.4578590   3.9194582
  30.0476742 -14.2188187   3.7072072  31.4024334 -13.3431482   2.7945707
  31.6335869 -13.7852564   5.0291677  30.9846096 -13.8652945   5.8867621
  32.2536049 -12.8990088   5.3443966  32.4275627 -15.1000032   4.9435515
  33.1668205 -15.0421829   4.1143365  31.7536144 -15.9129162   4.6766224
  33.2209015 -15.3874102   6.2797575  32.5658646 -15.3983727   7.1299763
  33.9684448 -14.6446619   6.4329319  33.9453011 -16.7506962   6.2404304
  34.7583733 -16.7289829   5.5283852  33.2703667 -17.5095768   5.9607701
  34.5362320 -17.0198097   7.6239963  33.7453117 -17.2135944   8.3124275
  35.0132141 -16.0530262   7.8981647  35.6153755 -18.1002312   7.6707945
  36.4173317 -17.7847900   6.9880199  35.1890526 -19.1064873   7.2972913
  36.2396889 -18.2708473   9.0645037  36.6773987 -17.3199463   9.4042568
  37.0102997 -19.0489731   8.9911165  35.2045708 -18.6845989  10.1302137
  34.6072044 -19.5153599   9.7013321  34.5130959 -17.8205280  10.2599583
  35.6958771 -19.1895008  11.5214920  36.0853462 -20.1937885  11.3374987
  34.8465652 -19.3473511  12.2018671  36.8417702 -18.3822632  12.1918402
  37.7733459 -18.5707150  11.6707554  37.0898209 -18.7763119  13.1641197
  36.5528870 -16.8936043  12.4034023  35.7201614 -16.7775116  13.0979357
  36.2352066 -16.4085217  11.4603138  37.7896767 -16.1336632  12.9118261
  38.5269585 -16.0815392  12.0316944  38.3328934 -16.6437626  13.7884064
  37.5405083 -14.7239056  13.4378548  37.0279465 -14.1600666  12.6832066
  38.5178604 -14.3040714  13.6943569  36.6353073 -14.6519394  14.7029552
  37.0009727 -15.1594076  15.5658674  35.6544533 -15.0772572  14.5731087
  36.3057823 -13.2407093  15.1273918  36.6606674 -12.1868792  14.5816889
  35.5853348 -13.2671509  16.2335396  35.1686935 -12.0155010  16.9267178
  34.4537468 -11.5085068  16.2659111  36.0618324 -11.3954258  17.0869217
  34.4884605 -12.3207846  18.3230324  34.0957832 -11.3977528  18.7191467
  35.4855843 -12.8839769  19.3475552  34.8948479 -13.4948940  20.0811291
  35.9420166 -12.0808029  19.8823376  36.5994911 -13.6106911  18.7776089
  37.5224342 -14.4657145  19.7479973  36.7542572 -15.8178225  19.9886971
  36.8697052 -16.8832073  19.0568771  37.7119637 -17.5189800  19.3210526
  37.0321426 -16.5103321  18.0116386  35.5989609 -17.7554913  19.0110626
  35.4875145 -18.3520012  19.9086094  35.7381516 -18.4715195  18.2039566
  34.3098106 -17.0668163  18.6746998  33.8069725 -16.3018703  19.8317795
  33.5995407 -17.0442715  20.5914536  32.8737488 -15.7893076  19.5190620
  34.5510635 -15.6227741  20.1267815  34.4009361 -16.2595215  17.3950787
  34.5166168 -16.9875145  16.5577393  35.2241249 -15.5363312  17.5332298
  33.4563713 -15.7429085  17.3533134  33.2672844 -18.0650063  18.3754768
  33.5735359 -18.5928574  17.4915886  32.3303909 -17.4971561  18.2050171
  33.0450745 -18.7999611  19.1805077  38.8117905 -14.6358490  19.0026779
  37.6073074 -13.8383503  21.1050148  33.4149055 -13.2931423  18.1236496
  32.1928215 -12.8763056  17.7418213  31.7759609 -11.7465677  17.9204597
  31.3812943 -14.0098391  17.1002445  31.5334549 -14.8837461  17.7178917
  30.3103867 -13.7396374  17.1214390  31.8279152 -14.2573748  15.6553135
  31.5098076 -13.4567270  15.0200520  32.9504929 -14.3345461  15.6206150
  31.2223835 -15.5534649  15.0719557  31.4681835 -16.4004059  15.7113781
  30.1136665 -15.4134617  14.9246426  31.8873386 -15.9290352  13.7332354
  31.7966747 -15.1453199  13.0019150  32.9372063 -16.1709805  13.9161224
  31.2131958 -17.1444588  13.1341953  31.3426971 -17.9280453  13.8587866
  30.1528778 -16.9684124  13.0243416  31.7045116 -17.5405922  11.7462254
  32.7910423 -17.7364235  11.7574892  31.2204590 -18.4603615  11.4784136
  31.3974113 -16.5471821  10.6163454  31.5370483 -17.1120052   9.7475262
  30.3524418 -16.2642365  10.6816254  32.3700180 -15.4060888  10.4247990
  33.3151741 -15.6915560  10.0251760  32.1465187 -14.1071358  10.5844917
  32.8881035 -13.3636961  10.2551947  30.8582592 -13.4220076  10.9750481
  30.1126900 -14.1401787  11.2415428  31.0186806 -12.8473701  11.8742676
  30.3924294 -12.4867191   9.8574171  29.5156403 -11.9347849  10.1689186
  31.1872196 -11.7542925   9.6538744  30.0568771 -13.2532797   8.5486641
  29.9593925 -12.5324011   7.7202935  30.9269028 -13.8752260   8.3238077
  28.7513561 -14.0716572   8.5997124  28.7704487 -14.7021503   9.4439611
  27.8454685 -13.4346819   8.7433138  28.4926510 -14.9272909   7.3172102
  27.4133682 -15.1263924   7.2399912  28.6896515 -14.2865047   6.4756579
  29.3900604 -16.2171230   7.1992631  30.4493504 -15.9697094   7.2759051
  29.1289558 -16.9175377   7.9744296  29.1752415 -17.0061016   5.8924408
  28.1343937 -17.2397842   5.6688910  29.5635433 -16.2916794   5.1556706
  30.0038757 -18.2710190   5.7300863  29.7268658 -18.8129768   4.8192167
  29.8424034 -18.9815369   6.5590410  31.0433559 -17.9861336   5.7127047
 -17.9765682  40.1628304   5.8917160 -17.8033447  41.2209473   5.7029967
 -17.2635956  39.7809982   6.6070533 -18.9633484  40.0622139   6.3982940
 -17.9516392  39.3726730   4.5323763 -16.9311867  39.4485321   4.0535536
 -18.6433659  39.7945290   3.8440645 -18.3281975  37.8995819   4.7553658
 -17.5387840  37.4886093   5.3795147 -18.2616158  37.4527283   3.7217329
 -19.6847706  37.5702896   5.3800397 -20.4358330  37.9853287   4.7079701
 -19.7094936  38.0879135   6.3243914 -19.9173717  36.0478668   5.5916734
 -19.2478104  35.6228600   6.3223343 -19.6941776  35.5157051   4.6447864
 -21.3430824  35.7144852   5.9076118 -21.4599686  34.6570969   5.9059200
 -22.0036736  36.0372238   5.0619655 -21.8605518  36.1926994   7.2987318
 -22.9021645  35.8247986   7.4174161 -21.9503479  37.2344360   7.2470565
 -21.0189610  35.7975349   8.5049963 -20.0677109  36.3404236   8.5880966
 -20.7221146  34.7385635   8.3928881 -21.7679405  35.8581581   9.8709507
 -22.3313236  36.8037567   9.9545946 -20.9974899  35.9231606  10.6697502
 -22.6249599  34.6095543  10.1607990 -22.0020866  33.7084198  10.1782808
 -23.3391743  34.4841156   9.3914213 -23.3885574  34.7300339  11.4604559
 -23.9186707  35.6635284  11.5343952 -22.6531639  34.6793633  12.2775459
 -24.4596786  33.6520805  11.6310940 -24.0435238  32.6724815  11.5787592
 -25.2456455  33.7025414  10.8612146 -25.1206131  33.7511444  12.9914083
 -25.7545853  34.6120949  12.9944944 -24.3158607  33.8613052  13.7815990
 -26.0017128  32.5442924  13.3293924 -25.3056221  31.7007618  13.3306789
 -26.6840839  32.3873177  12.4620686 -26.7490940  32.6139755  14.6967688
 -27.5028973  33.3845558  14.6506023 -26.0688419  32.8385620  15.4879208
 -27.3590107  31.2823772  14.8947706 -28.5178165  31.0578709  14.6112061
 -26.5163651  30.5068989  15.5524693 -26.9885540  29.2024441  15.9487915
 -27.1927910  28.6845379  14.9901590 -27.8480129  29.3535824  16.6111355
 -25.8404522  28.3759289  16.6376324 -26.1135292  27.3079090  16.8068237
 -25.4277630  28.9571381  18.0397491 -24.4828205  28.4734898  18.3787422
 -26.2678413  28.7093639  18.7218189 -25.3050461  30.3947086  18.0846786
 -23.9312534  31.1035633  18.6447506 -22.8633690  30.9331036  17.4567051
 -23.1053276  31.5381470  16.1813946 -22.9406662  32.6599541  16.3054218
 -24.1185875  31.4052086  15.8726463 -22.0798664  30.9312458  15.2043095
 -22.3482399  31.2480469  14.2010698 -22.1795864  29.8344250  15.2759705
 -20.5962543  31.2984543  15.3471127 -20.4203625  32.7615776  15.0350618
 -20.8817387  32.9948730  14.0872755 -19.3664417  32.9170227  15.0589676
 -20.9089088  33.3293228  15.8240166 -20.0465565  30.9543896  16.7072754
 -20.4610291  29.9738121  17.0303707 -20.3512306  31.7698708  17.3888474
 -18.9975567  30.9299011  16.6758499 -19.7649288  30.4402943  14.4298544
 -20.0431328  29.4180107  14.7136993 -18.7049332  30.6030960  14.6075153
 -20.0003796  30.7502823  13.3943186 -24.1464806  32.5857353  18.8008633
 -23.4882355  30.3228550  19.8245640 -24.6759834  28.4359722  15.7469006
 -24.5946865  27.5679131  14.7022963 -25.3631783  26.6229477  14.5385447
 -23.4477520  27.8720455  13.7278032 -22.6372929  28.3047085  14.3091784
 -23.0513477  27.0388031  13.1957283 -23.8936310  28.9485626  12.6743088
 -24.3470993  29.7996216  13.2067833 -22.9512043  29.2933197  12.2688923
 -24.7004242  28.3964520  11.5391111 -24.0205784  27.7107620  10.9279909
 -25.5171871  27.7717590  11.9161654 -25.2376347  29.5389919  10.6056995
 -26.0316162  30.1639671  11.1103430 -24.3931370  30.2251472  10.3514624
 -25.8785267  28.9419556   9.3245878 -25.1306553  28.3025913   8.8075657
 -26.6718464  28.2339001   9.6573725 -26.5065269  30.0142326   8.4088793
 -26.9253559  29.4399109   7.5858021 -27.2846813  30.5286961   8.9606752
 -25.5668163  31.0895081   7.7924500 -26.0699463  31.8231468   7.1474223
 -25.1672211  31.7589550   8.5771856 -24.4772701  30.3705311   7.0373158
 -23.6764126  29.9961777   7.6680684 -24.4779568  30.1438217   5.7216368
 -23.6788082  29.5843697   5.2132993 -25.6277370  30.5256863   4.8012629
 -25.6572990  29.8708706   3.9288287 -26.5564518  30.3125000   5.3003020
 -25.5637245  31.9701099   4.2616825 -26.3909550  32.1241379   3.5571692
 -25.7188072  32.6516571   5.1218362 -24.2041950  32.2524338   3.5434103
 -23.3610268  32.1610146   4.2675061 -24.0455093  31.4421196   2.8236411
 -24.1493130  33.5494957   2.7771475 -23.0970421  33.6391830   2.3892412
 -24.8392105  33.4828300   1.8953962 -24.6059895  34.7406616   3.5698347
 -25.6845112  34.6016273   3.6945031 -24.1022415  34.7782288   4.5346117
 -24.4337120  36.0864525   2.8428838 -23.3634109  36.2335434   2.6811039
 -24.9252815  35.9687729   1.8702806 -25.1351452  37.2575760   3.5492740
 -24.9796314  38.1567268   2.9266403 -26.2159996  37.0617905   3.5921311
 -24.6371727  37.5085907   4.9981303 -25.0881004  38.4058342   5.4035659
 -23.5292091  37.6610718   4.9841890 -24.9535255  36.6308861   5.6399102
  39.8491096  -0.0127427  -1.5683060  39.0814590   0.4627721  -2.1630974
  39.5124130  -1.0861372  -1.5567398  40.7725487   0.0481548  -2.1258788
  39.9348183   0.5206831  -0.1133349  39.0157928   0.3198462   0.4129392
  40.1471291   1.5756249  -0.1616233  41.0694847  -0.1186427   0.5850927
  41.1972008   0.1132453   1.5914239  41.9436455   0.2707494   0.0478099
  41.1031723  -1.6910183   0.4646696  41.9168816  -2.0093904   1.1236488
  41.3209114  -2.0309515  -0.5201452  39.7837753  -2.3435905   0.8841925
  39.9549179  -3.4308550   0.8499265  39.0384483  -2.1586809   0.1010025
  39.2277603  -1.9054835   2.2604761  39.0778885  -0.8606666   2.2440364
  39.9702187  -2.0567257   3.0249348  37.9445610  -2.6600549   2.6109686
  38.1837387  -3.6827722   2.8533249  37.2728996  -2.7341700   1.7493992
  37.1882401  -1.9894814   3.8146739  36.2248383  -2.3968797   3.8723109
  37.0805550  -0.9220200   3.5411618  37.8178558  -2.1980982   5.2429824
  38.8283043  -1.6971655   5.1587553  37.9838219  -3.2753167   5.4624324
  36.9684181  -1.5899482   6.4041882  35.9841423  -2.0454507   6.4009786
  36.8267746  -0.5578587   6.1809931  37.4667854  -1.6967291   7.8748894
  36.7439919  -1.1809137   8.5160189  38.3760262  -1.1237303   7.9932542
  37.7549667  -3.0811272   8.3814659  38.4885750  -3.4919748   7.7418661
  36.8247490  -3.6756496   8.2817850  38.2387772  -3.1753657   9.8386955
  39.2533417  -2.7632592   9.8998632  38.3034172  -4.1963882  10.1614466
  37.4201813  -2.3661702  10.8744345  37.5131683  -1.2647743  10.6628408
  37.8813515  -2.6215932  11.8691463  35.9361382  -2.6624415  10.8842707
  35.7487259  -3.7384977  10.6966248  35.3568687  -2.1343870  10.1467428
  35.3496857  -2.3779747  12.2419872  34.5974197  -1.4669013  12.5010452
  35.7446747  -3.2760499  13.1026888  35.6155815  -3.0421031  14.5249615
  35.5093689  -4.0190821  14.9855766  34.7453842  -2.4493291  14.8364248
  36.8664131  -2.3495069  15.0556669  36.9367371  -2.4491327  16.1358719
  36.9004250  -0.8194140  14.7477722  36.6621552  -0.5458800  13.7313423
  37.8565292  -0.3959261  15.0437441  35.8415833  -0.2767228  15.6035795
  36.2431946   0.4249222  16.9296284  37.1469688  -0.5883380  17.7236557
  37.7487411  -0.1269782  18.9543705  38.0726166  -1.0439237  19.5659122
  36.9192505   0.3875342  19.5029945  38.9976311   0.8138763  18.8108120
  39.3515816   1.1466168  19.7661896  38.6415176   1.6751280  18.1674442
  40.2649841   0.2601101  18.1213799  39.8876991  -0.2291550  16.7488461
  39.1445694  -0.9907491  16.9456120  40.7221565  -0.5966601  16.1662598
  39.3972244   0.5584792  16.2005329  41.2878609   1.3553562  17.8748016
  41.9660988   1.5612561  18.7091122  40.7236633   2.2648101  17.6711292
  41.8604660   1.0355724  17.0078411  40.8559418  -0.8438862  18.9080067
  40.9707985  -0.4613478  19.8987141  41.7743835  -1.1536567  18.4410191
  40.0889664  -1.6679246  18.8706741  37.1118202   1.5946089  16.5547295
  35.0243721   0.6262969  17.7427654  38.0520554  -2.8901527  14.4412851
  38.5193558  -4.0523820  14.8527422  38.0573311  -4.6922007  15.7991848
  39.7712288  -4.4914041  14.1041603  39.4793472  -4.5227485  13.1001902
  40.4708061  -3.6603856  14.0574064  40.3886948  -5.8240981  14.5440531
  40.6110229  -5.6715055  15.6062412  39.6216049  -6.5981269  14.5462265
  41.7010918  -6.2866526  13.8048191  42.4616051  -5.5292139  14.0045443
  42.0765457  -7.1613817  14.3190870  41.5850105  -6.5428762  12.3134470
  41.4714012  -5.6402760  11.7584505  42.4930420  -6.9485373  11.9187298
  40.4659615  -7.4430470  11.8394108  39.5265160  -6.9120717  11.9079485
  40.6756172  -7.6830883  10.7824602  40.3269348  -8.7905331  12.6219978
  41.3324699  -9.1724129  12.9498911  39.7147598  -8.5238209  13.5343065
  39.6994438  -9.9691448  11.8838587  39.4427528 -10.6456966  12.7116194
  38.8094101  -9.6777077  11.3383884  40.7483482 -10.6324301  10.9301987
  41.6223145 -10.9247646  11.4621916  40.6173515 -10.9320059   9.6528807
  41.3733444 -11.5566196   9.1875343  39.5195808 -10.5595407   8.6803808
  38.9223595 -11.4090242   8.5388880  38.7882500  -9.9069843   9.2288036
  40.0596771  -9.8903170   7.3732562  40.8226929  -9.1624317   7.6234674
  40.6602478 -10.6406460   6.8441696  38.9543495  -9.2893066   6.4460845
  38.4152985 -10.1055994   5.9949965  38.2541122  -8.7536926   7.0728593
  39.4618530  -8.3359261   5.3599052  39.7678299  -7.3697953   5.7177477
  40.3371887  -8.7696915   4.9433460  38.3699951  -8.1704655   4.3129783
  38.7776947  -7.7627282   3.3834343  37.9611244  -9.1127691   4.1167994
  37.3058128  -7.1778927   4.8234715  37.0169144  -7.4597998   5.8306360
  37.8031998  -6.2232132   4.9269285  35.9887390  -7.0531411   4.0386028
  35.5138130  -8.0158024   3.9078965  35.3383102  -6.4264364   4.6676326
  36.1204529  -6.3202500   2.7025523  35.1172333  -6.2611589   2.2457662
  36.8247032  -6.9003415   2.0840969  36.5166702  -5.3069363   2.8427341
  19.5227776  15.7104788  -0.2818951  19.1975899  15.0696840  -1.1263816
  18.7090988  16.3794365  -0.0198699  20.3462982  16.3619061  -0.6157756
  20.0145817  14.8067865   0.8997183  21.0188465  14.3789186   0.6392142
  19.2901878  13.9607668   0.9518726  20.1268787  15.4646292   2.2786555
  20.8698940  16.2413330   2.2985158  20.5697269  14.6540937   2.9225287
  18.9243050  16.0671654   2.8587463  18.2488995  15.2141323   3.1404810
  18.4322186  16.6977177   2.1218858  18.9803200  16.8490257   4.1621685
  17.9520111  17.0107574   4.5110373  19.3983078  17.8195286   3.9646854
  19.8444328  16.1919956   5.2758055  20.8747082  16.2300129   4.9251852
  19.5073051  15.1630964   5.4001756  19.8384552  16.9939976   6.6093612
  18.8343678  17.0403900   7.0249586  20.1041603  18.0312920   6.4727683
  20.9217720  16.4049473   7.5444813  21.8694782  16.4397488   6.9965386
  20.6844540  15.3346691   7.7649193  21.1288261  17.1833572   8.9034557
  21.2450771  18.2351799   8.6357040  22.1169682  16.9554729   9.2239771
  20.0188999  16.9768810   9.9690323  19.7896061  15.9240913  10.0688219
  19.1544933  17.4290562   9.5627546  20.4118538  17.5264149  11.3410654
  21.1625710  16.8909321  11.7415762  19.6131096  17.3910828  12.0545216
  20.9643021  18.9774990  11.3978758  20.2486706  19.6924744  10.8412066
  21.9518280  18.9858227  10.8954229  21.1410732  19.5187168  12.8489628
  21.7530079  18.8652248  13.4366598  20.1921158  19.4691448  13.3257809
  21.7021923  20.9603291  12.8714867  21.0206623  21.7024040  12.5064812
  22.5933437  20.9996338  12.2870655  21.9368553  21.3089676  14.3478699
  22.5555840  20.5603600  14.8707199  21.0081711  21.2140541  14.9312105
  22.5189953  22.6964474  14.5573330  21.9379807  23.6359959  14.0855026
  23.5586205  22.6652126  15.3646746  24.0360107  23.8999538  15.9918356
  23.7655659  24.7394657  15.3068533  25.1206112  23.8245373  16.1348305
  23.2357826  24.1364937  17.2826805  23.6195354  25.0064011  17.7753563
  23.3222980  22.9048729  18.2269058  24.3356438  22.5113029  18.2902069
  22.7479668  22.0758667  17.8025990  22.8766727  23.2858944  19.5590324
  23.8938541  24.1978302  20.5092659  23.3931713  25.6746216  20.1974945
  22.0545235  26.1143150  20.4657669  21.4889050  25.2297573  20.6044846
  21.6988869  26.7558460  19.6698151  22.0324326  26.8590755  21.8238373
  22.4351768  26.2495651  22.6248360  20.9879780  27.1250324  21.9413013
  22.7602482  28.1759567  21.8668079  22.0834827  29.2235565  21.0924721
  21.9674416  28.8943329  20.0528908  22.6546688  30.1050797  21.1678486
  21.0517731  29.3977470  21.5129490  22.6992054  28.5858765  23.3309212
  23.2949333  27.8780727  23.9065170  21.6704216  28.4511490  23.7004852
  22.9941158  29.6565285  23.4109230  24.1841106  28.0775757  21.4366131
  24.7525959  27.4273090  22.0601883  24.6100521  29.1020317  21.3730659
  24.2172222  27.6418152  20.4154949  23.6513138  23.9002609  21.9734211
  25.2652073  24.0605640  20.0250988  21.8182678  24.3327808  16.9952793
  21.3730431  25.5439949  16.6217556  22.1607666  26.4812946  16.4270248
  19.9189205  25.6702805  16.3367538  19.5106468  26.6240044  16.7098675
  19.8241024  25.6399899  15.2335472  19.0175362  24.5569992  16.9289551
  19.3581257  23.5985088  16.5345135  19.2127647  24.5132294  18.0290947
  17.4982758  24.7532272  16.5727577  17.2215786  25.7749825  16.6322975
  17.3778992  24.5790882  15.5263805  16.5684109  23.8315945  17.3332367
  16.7081490  23.9531994  18.3954182  15.4893160  24.0022945  17.1017952
  16.9150352  22.3107700  17.0883732  17.8937721  22.1456738  17.5810890
  16.1720085  21.6933804  17.6531487  16.9690075  21.8000202  15.6448669
  17.8154945  22.1254044  15.1599894  16.9673595  20.7058830  15.6823215
  15.7308950  22.3326893  14.8613825  14.8840008  22.3528500  15.5211792
  15.8074112  23.3667927  14.5466337  15.3064213  21.3692646  13.7521858
  14.7743616  20.4659367  14.0978928  15.6976938  21.5660324  12.4603024
  15.3784904  20.8098049  11.7804728  16.5632973  22.7138252  11.9768190
  15.9550915  23.5362434  11.5679455  17.1702499  23.1537514  12.8065548
  17.5360146  22.1820145  10.9059420  18.2403107  22.9598808  10.5823412
  18.1487274  21.4215832  11.3934727  16.9254150  21.5401249   9.6385460
  16.3408318  20.6700611   9.8979111  16.2210350  22.2659569   9.2033167
  18.0530815  21.2222214   8.6610518  18.7400227  22.0044727   8.4915600
  18.6657619  20.3953247   9.0817604  17.6091690  20.9123592   7.2247119
  16.9350834  21.6662598   6.9413953  18.4930859  20.9371452   6.5954876
  16.8998680  19.6080742   7.1804237  17.6236820  18.8155918   7.4742851
  16.0450954  19.5960026   7.8810654  16.5332203  19.3074780   5.7674880
  16.0507202  20.1119709   5.2620888  17.4656773  19.1882687   5.1737361
  15.5365705  18.1131210   5.6727691  15.2579441  17.9661713   4.6570911
  14.6323738  18.3213921   6.2002716  15.9537325  17.1970596   6.0472846
  10.7587776  39.0572014  -2.5313001  10.1873722  39.5603828  -3.3343587
  11.3454237  38.2023811  -2.9590974  11.5778866  39.6437645  -2.0988944
   9.7332478  38.5128479  -1.4655758   9.0107441  37.8838120  -1.9656265
   9.2279043  39.3812866  -0.9994624  10.3456898  37.6596794  -0.3453774
  10.9455814  38.2581978   0.3427912  10.9863806  36.9578590  -0.8372630
   9.3582993  36.8055382   0.4339662   9.9715719  35.9633331   0.8684563
   8.6072130  36.4032326  -0.1947540   8.7450018  37.5338440   1.6030639
   8.0751333  38.3463593   1.2765777   9.5528708  37.9975395   2.1884959
   8.0677042  36.4353867   2.5289617   8.8313646  35.7356682   2.7753952
   7.3153787  35.8726387   2.0018115   7.6511364  36.9401207   3.8875220
   6.7520480  37.4965744   3.7798896   8.4543495  37.6332169   4.2366056
   7.4950747  35.8256569   4.9045715   8.4475880  35.3618011   5.1630707
   6.8903093  35.0520020   4.4059796   6.8124580  36.1900635   6.2095046
   5.9363198  36.8102722   6.0805268   7.5288820  36.7793083   6.7748032
   6.3879676  34.9499207   6.9760127   5.9701033  35.3364716   7.9372816
   7.2441249  34.3454247   7.1820493   5.2348547  34.1465225   6.2646575
   5.3502474  34.0152779   5.1956968   4.3993316  34.7721405   6.3694119
   4.9983692  32.7885170   6.9495220   5.9059391  32.2051125   6.9773455
   4.2745786  32.2225876   6.3652177   4.4786367  32.8578491   8.4029179
   3.6566997  33.6048470   8.3666592   5.3359599  33.2294998   8.9759855
   3.9571869  31.5308380   8.9798203   4.6397123  30.7588024   8.6225243
   2.9748034  31.3040848   8.6022215   3.9477336  31.4322567  10.5075445
   3.3268807  30.5635433  10.7887745   3.4406734  32.3060417  10.9250727
   5.3570766  31.3892059  11.0933990   6.1846299  30.4968472  10.7619877
   5.5501671  32.2865639  12.0774689   6.8942699  32.3895683  12.6411638
   7.6405649  32.6653900  11.8663301   7.2693653  31.4233818  13.0203094
   6.9920378  33.5178337  13.7638464   8.0185146  33.5682259  14.1687107
   6.0319958  33.1713562  14.8872805   5.8526087  32.0681305  14.7907457
   5.1500540  33.7509079  14.6069136   6.4204607  33.5223274  16.2760925
   5.5400901  33.1322823  17.6000156   4.7299156  34.5253334  17.9365387
   3.6572032  35.0222359  17.1621857   3.0180023  35.5501137  17.8550262
   3.0852132  34.2598114  16.6779480   4.1535387  36.0999413  16.1654205
   3.2458041  36.5470581  15.7766962   4.6074810  35.5705109  15.3261099
   5.0785780  37.2107391  16.5931339   6.5064454  36.8108521  16.3111153
   6.7870398  35.9233818  16.9242878   7.0930824  37.6864586  16.6039352
   6.6549759  36.5986328  15.2535238   4.7148809  38.3549995  15.7015409
   3.8860605  38.8554840  16.1483517   4.5128574  37.9884300  14.7182999
   5.5302281  39.0252419  15.7092085   4.8394570  37.6410027  18.0291767
   3.8255053  38.0573235  17.9779816   5.5570774  38.3853874  18.4235077
   4.8491888  36.7369804  18.6205711   4.4986806  32.1497765  17.2111816
   6.4439607  32.9089699  18.7552681   6.5852432  34.7673378  13.1778564
   7.5184627  35.4820328  12.5186548   8.6462193  35.0971298  12.3951044
   6.9589381  36.8032570  12.0323200   6.2275939  37.0601234  12.8065004
   7.7153273  37.6101227  11.9776621   6.3024950  36.7589302  10.6202021
   7.0251317  36.5504684   9.8790512   5.5067754  36.0026283  10.6498528
   5.6479607  38.1487694  10.2765656   4.9842830  38.4501457  11.1114988
   6.4152503  38.8846207  10.2411947   4.8322420  38.1927719   8.9864454
   5.4578156  37.7500992   8.1445007   4.0056314  37.4503746   8.9975700
   4.3753023  39.6453552   8.6429615   3.8422892  39.6049805   7.7002006
   3.6457329  40.0265923   9.3732719   5.5139446  40.7412186   8.5231295
   5.0149403  41.5856781   8.1088610   5.7774324  41.0719261   9.5363865
   6.7498422  40.4404068   7.6407642   7.1504745  39.4882507   7.8907628
   6.4282413  40.4233513   6.5907965   7.7552948  41.5763321   7.8522587
   7.4703736  42.4877510   7.3945856   8.9409857  41.4407043   8.3977308
   9.6176243  42.3114395   8.3930378   9.4484882  40.2432671   9.2051468
   9.7536030  40.5403519  10.1727314   8.6787090  39.4731178   9.3507185
  10.6544991  39.6034851   8.5775766  11.4728584  40.2790031   8.5458593
  10.9778585  38.8605232   9.3015270  10.5033922  38.7886696   7.2503638
  11.2727566  37.9901581   7.1704936   9.5474653  38.2759056   7.2512460
  10.6075239  39.7283936   5.9550452  10.2145910  39.1149597   5.0930405
   9.9830399  40.5946922   6.0289450  12.0647326  40.1870499   5.7569671
  12.4601316  40.5783806   6.7207761  12.6082907  39.2991142   5.5138397
  12.3285913  41.2030754   4.6288610  11.9860735  40.7918701   3.7073407
  11.6474714  42.0387268   4.7491851  13.7819281  41.6680527   4.6069665
  14.3481693  40.7866516   4.6023035  14.0488930  42.2412186   3.7698236
  14.2436638  42.5116882   5.7996960  15.3602610  42.6028214   5.8039193
  13.9592304  42.0783463   6.7036638  13.7751245  43.5123444   5.8157406
 -13.7730742  34.3765488   3.7726591 -13.0185423  34.9114838   3.2447147
 -14.7427120  34.9100151   3.7299154 -13.8458672  33.4349785   3.3456657
 -13.4003925  34.3083611   5.2821250 -13.0287542  35.2530708   5.5686812
 -12.7305546  33.4072952   5.4799771 -14.6305361  34.0267639   6.1678133
 -15.0501642  33.0115242   6.0503440 -15.3795614  34.7351990   5.8425760
 -14.4238796  34.3402710   7.6933045 -14.1473293  35.4191742   7.7928467
 -13.6137381  33.7109871   8.0986814 -15.6035957  33.9935112   8.6798592
 -15.4364386  34.2837181   9.7317886 -15.7371988  32.8669777   8.7893467
 -16.9740086  34.5512466   8.2821865 -17.6785450  34.1817131   8.9928455
 -17.2054005  34.0603333   7.3361688 -17.1796894  36.0768967   8.2122002
 -18.0773945  36.3063774   7.6675324 -16.3902798  36.6261673   7.7123685
 -17.4344273  36.8043518   9.5442581 -16.5147343  36.8179016  10.1009283
 -18.1926117  36.3227501  10.1828947 -17.8520184  38.2771263   9.2822533
 -18.7859287  38.2456551   8.6689434 -17.0822239  38.7800293   8.7334175
 -18.2946682  39.1244545  10.4673958 -19.2183228  38.7267876  10.8812962
 -18.6818638  40.0944862  10.1397934 -17.3581543  39.3396645  11.6216602
 -17.3300095  38.4184685  12.1954432 -17.6458855  40.1883926  12.2673311
 -15.9743595  39.6732063  11.1214409 -16.0170784  40.4274216  10.3346062
 -15.5234575  38.7695541  10.7286682 -15.0733128  40.0799561  12.3034630
 -15.1720734  39.3066063  13.0972500 -15.2543306  41.0762024  12.7204170
 -13.5626459  40.1289062  12.0044518 -13.3851900  40.7026100  11.0988474
 -13.2271824  39.0906830  11.9705572 -12.8053808  40.7395401  13.1826830
 -13.0841961  41.8072472  13.2980909 -11.7170544  40.8103409  12.9177017
 -12.8777018  40.0604591  14.4910355 -12.1123219  39.1201324  14.7985611
 -13.8420525  40.6042061  15.2673817 -14.0098658  40.1501541  16.5932274
 -14.2748880  41.0578194  17.1502380 -13.1263056  39.7040291  17.0337963
 -15.1853180  39.1729393  16.7406445 -16.1250038  39.6487389  16.3461189
 -15.3905954  38.8997116  18.2687874 -16.0279770  37.9752617  18.2582436
 -15.8679581  39.7745590  18.7701435 -14.1721048  38.6158676  19.0156002
 -14.1207323  38.9361954  20.6124001 -14.2092228  40.5653381  20.6564026
 -13.0518427  41.3949165  20.4437656 -13.3248158  42.4000626  20.1285477
 -12.4800911  40.9368324  19.6333160 -12.1878614  41.6413727  21.7355518
 -11.2933359  42.2102203  21.4902973 -11.8460426  40.7214394  22.1712666
 -12.7474422  42.3324394  22.9080467 -13.7563572  41.5037575  23.5546799
 -14.5452585  41.1708984  22.8810520 -14.1944513  42.1148376  24.3522072
 -13.2294674  40.6447983  24.0016918 -11.6388216  42.6271286  23.9216728
 -10.9916248  43.2724037  23.3404274 -11.1836395  41.6575279  24.2805462
 -12.1109877  43.1637802  24.7333508 -13.4362907  43.5951042  22.5093822
 -12.8489161  44.1665039  21.7966442 -13.6818933  44.1795578  23.3960075
 -14.3230381  43.2703362  21.9237137 -15.3680601  38.3819466  21.2085915
 -12.8054047  38.5137405  21.1667423 -14.8804245  37.9141273  16.1054802
 -15.7674875  37.2667160  15.3084364 -16.7741222  37.7857895  14.9040413
 -15.3139353  35.8355751  15.0780859 -14.2354403  35.8399544  15.1532307
 -15.8249531  35.2182159  15.8079872 -15.7320490  35.3045654  13.6603727
 -15.3778782  34.2823715  13.6216536 -16.8120270  35.3388138  13.4993563
 -15.1408978  36.0927048  12.4868450 -15.5937901  35.6976662  11.5765133
 -15.3879538  37.1439819  12.4808397 -13.6472664  35.9154472  12.3261976
 -13.1829319  36.4183502  13.1406078 -13.3099003  34.8984222  12.3909388
 -13.2694445  36.4445190  10.9075794 -13.7454748  35.7960548  10.1928749
 -13.7483234  37.4341927  10.7386866 -11.8343849  36.6542931  10.4945621
 -11.3141050  37.1477890  11.3005266 -11.3504038  35.7035789  10.2750778
 -11.6055002  37.4810295   9.2157383 -10.5596581  37.5253181   9.0369453
 -12.1099958  36.9331512   8.4067974 -12.2318068  38.8719788   9.2546530
 -11.7503729  39.5785599   9.9018230 -13.1939697  39.3840332   8.4971390
 -13.4605904  40.3912888   8.6198034 -14.1424370  38.6151161   7.5855803
 -13.9477501  37.5321846   7.5148067 -15.0730810  38.7390823   8.1239614
 -14.3595524  39.0929413   6.1272836 -15.1577110  38.4676399   5.7176728
 -14.7742844  40.1152611   6.1454744 -13.0365458  39.1149178   5.3547120
 -12.3631802  39.8046608   5.8762770 -12.6077557  38.1195526   5.4248118
 -13.2235298  39.4767456   3.8724270 -12.2806635  39.3717270   3.3738265
 -13.9565363  38.8091850   3.4301600 -13.7200584  40.9109268   3.6454270
 -14.7907343  41.0515289   3.8372710 -13.1547661  41.5545502   4.3089528
 -13.5062370  41.3981323   2.1952178 -12.4772072  41.2509003   1.9881220
 -14.1034307  40.7450638   1.5463639 -13.9984856  42.8452759   1.9894488
 -13.9428425  43.1317101   0.9260768 -15.0509539  42.9803619   2.3516436
 -13.0472898  43.8939514   2.7268653 -13.2681236  44.9277306   2.4652123
 -11.9990396  43.6188507   2.3922107 -13.1381741  43.7767258   3.8104215
  32.6269379  -7.5071330   0.8139753  32.2022972  -8.1357965   1.6127223
  31.8035393  -7.0400615   0.2696779  33.1868706  -6.7031436   1.2977709
  33.4884949  -8.2754240  -0.1889202  33.8084030  -7.6201057  -0.9725026
  32.8064804  -9.0268593  -0.6385785  34.7270393  -9.0141811   0.4067865
  35.4030075  -8.2356005   0.8045977  35.2477951  -9.5529003  -0.3709391
  34.3939171  -9.9989424   1.5156680  33.5926208 -10.6647692   1.0780486
  33.9972496  -9.5282326   2.4144421  35.6003456 -10.9081736   1.9024032
  36.4739990 -10.2754707   2.1305189  35.8075066 -11.5030689   1.0299495
  35.1236153 -11.8066320   3.1070328  35.3508415 -12.8896532   2.9852128
  34.0114632 -11.8049717   3.1760147  35.6771507 -11.2818861   4.4450712
  35.4359589 -10.2108040   4.5216093  36.7944374 -11.4164791   4.4421515
  35.1193008 -12.1182346   5.6239624  35.2722168 -13.2008190   5.4571705
  34.0438919 -11.9362774   5.8329315  35.8250694 -11.7228460   6.9232330
  35.8204117 -10.6586018   6.9964628  36.8791389 -12.0243759   6.8296723
  35.2388573 -12.3445654   8.2346191  35.3105507 -13.4685373   8.1919317
  34.1486893 -12.1333036   8.3611174  36.0528908 -11.8100605   9.4595289
  36.1695518 -10.7575464   9.4190779  36.9592705 -12.3608513   9.5426607
  35.3312950 -12.0241556  10.8306732  36.0356865 -11.8790016  11.6408958
  35.0831909 -13.0945797  10.9664621  34.0991631 -11.1051598  11.0672941
  33.2648087 -11.4645281  10.4990902  34.3308792 -10.1322412  10.6889019
  33.6736946 -11.1110649  12.5438213  34.5608101 -10.7882614  13.0776873
  33.3137550 -12.0884047  12.8873243  32.6232986  -9.9909077  12.8252659
  31.7092171 -10.2174234  12.3003922  33.0444412  -9.0530596  12.4488535
  32.3002548  -9.8461847  14.2759886  32.2661667 -10.7614460  15.0563726
  32.0043526  -8.6185303  14.6213636  31.7252522  -8.2840681  15.9962549
  31.1895771  -9.0843525  16.4743938  31.1732655  -7.3055983  15.9680996
  33.0047379  -8.0021200  16.7534866  33.4623184  -8.9555931  17.0384560
  32.7276497  -7.3363609  18.0854149  32.2569542  -8.0539036  18.7543106
  32.0248528  -6.6087561  17.8016891  33.9622536  -6.7481704  18.7196369
  35.0420914  -7.6194544  19.6217003  35.9472122  -8.2169514  18.4581623
  37.0825424  -7.4910069  17.9037971  36.8654099  -6.3792224  17.8090878
  37.1321831  -7.8521261  16.8837471  38.4161720  -7.7619004  18.6489372
  38.2663574  -7.6240373  19.8033752  39.1826515  -7.0714092  18.2410736
  39.0753860  -9.1439981  18.4791412  38.0819817 -10.2605247  18.7428360
  37.7369995 -10.1646900  19.8113232  38.5709763 -11.2139072  18.6012592
  37.3463249 -10.1617641  18.0270271  39.5541267  -9.2356825  17.0955200
  40.5054893  -8.6426506  16.9427490  38.7644234  -8.9438257  16.4481487
  39.8204765 -10.3079548  16.9349384  40.2271233  -9.2438107  19.4344788
  40.7860718  -8.3108320  19.3686790  40.8115959 -10.1696873  19.1939621
  39.7718925  -9.4038820  20.4013042  35.8357620  -6.7055469  20.4815369
  34.2946091  -8.7635517  20.2139263  33.9562263  -7.1631818  15.9851036
  34.8856049  -7.7593451  15.2295675  35.0485268  -8.9595699  15.1919098
  35.6389542  -6.7909312  14.3984652  35.0242004  -5.9193096  14.1865253
  36.4553680  -6.4485836  15.0159016  36.1435356  -7.4159918  13.0582914
  37.0210419  -8.0545845  13.2537975  35.3675880  -8.1127377  12.7580271
  36.4169884  -6.4148097  11.9255209  35.5936775  -5.6565962  11.9235373
  37.3231506  -5.8832812  12.2225800  36.6227417  -6.9926019  10.4910364
  37.3204041  -6.2796574  10.0041542  37.1562958  -7.9659138  10.4634953
  35.3192291  -6.9797807   9.7261314  34.5898399  -7.5846524  10.2315388
  34.8465004  -5.9802752   9.6114721  35.4550323  -7.5726957   8.3311329
  36.0283661  -6.8409820   7.7474184  36.0127068  -8.4996243   8.3560047
  34.0977516  -7.8946586   7.5588183  33.5837402  -6.9412112   7.4006138
  34.2977066  -8.3212757   6.5890598  33.1787949  -8.8332415   8.3351488
  33.3810616  -8.8857946   9.3868179  32.0871696  -9.4543028   7.8975053
  31.4708729 -10.0329885   8.5530491  31.6139202  -9.4968719   6.4351902
  32.4570389  -9.6933918   5.7319789  30.9373856 -10.3324804   6.3463206
  30.9805470  -8.2195683   5.9093075  30.0721741  -8.1329308   6.4349718
  31.6150322  -7.3590875   6.1797709  30.7875080  -8.1103935   4.4136806
  31.6877346  -8.1238165   3.8039539  30.1827602  -9.0029793   4.0895085
  30.0144291  -6.8027167   4.1337733  29.2583828  -7.0111303   3.3470325
  29.4907360  -6.5680981   5.0168390  30.8510761  -5.5974131   3.7117484
  31.2817936  -5.7361121   2.6929550  30.1910477  -4.7409859   3.5928247
  31.9767418  -5.2102776   4.6848516  31.6368656  -5.0928359   5.7163725
  32.7539406  -5.9502096   4.7142096  32.6100197  -3.8451109   4.2217474
  33.0628281  -4.0524588   3.2504926  31.8439465  -3.0826092   4.2293630
  33.7131844  -3.3468270   5.1396747  34.1002502  -2.3355458   4.8039160
  34.5231056  -4.0374513   5.1097245  33.2973404  -3.2573996   6.1296678
  -3.1912808  41.0025177   6.5491347  -2.4225824  41.6338043   6.1537247
  -3.2673025  41.3299522   7.5942321  -4.1310978  41.2756119   6.0484228
  -2.8500175  39.5094261   6.3953738  -2.0395815  39.2717781   7.0672245
  -2.4792664  39.3905830   5.4112101  -4.0818892  38.5808754   6.5747170
  -3.7698159  37.5302734   6.4978561  -4.6941299  38.8083496   5.7239823
  -4.8634367  38.7377357   7.8727775  -5.8619852  38.2198792   7.9379678
  -5.0787544  39.7886581   8.0895882  -4.0262003  38.1782341   9.0549870
  -3.0892789  38.7601700   9.1705990  -3.7701914  37.1576347   8.8171663
  -4.7308216  38.2285385  10.4178810  -5.5413151  37.5387802  10.4267540
  -5.0818701  39.2583008  10.6203880  -3.7757156  37.8569450  11.6007051
  -4.2973266  37.9760971  12.5329161  -2.9880416  38.5976639  11.6456642
  -3.2173088  36.4307861  11.5985050  -2.6407149  36.3680344  12.5465584
  -2.5450718  36.2479858  10.7874479  -4.2615509  35.3589592  11.8074551
  -5.1090913  35.8473167  12.3458853  -3.8562956  34.5002403  12.3477602
  -4.8651953  34.8053131  10.4642477  -4.0065446  34.6195259   9.7823372
  -5.3535028  35.6195984   9.9485769  -5.7118273  33.5616608  10.5701342
  -5.1119952  32.6388397  10.7466564  -6.2722487  33.4196815   9.6493893
  -6.8152733  33.5858002  11.6650581  -6.3477321  33.7641296  12.6332941
  -7.1767039  32.5814133  11.8588486  -8.0383568  34.4919662  11.3362045
  -8.3979282  34.1271439  10.4291201  -7.7240000  35.5120773  11.1900768
  -9.1256227  34.4877701  12.4269009  -9.0648689  33.5098839  12.9285383
 -10.1150408  34.5245590  12.0050039  -8.9597168  35.5864143  13.4685669
  -9.8645926  35.6826096  14.1191187  -8.7831907  36.5289536  12.9834547
  -7.8148751  35.2666512  14.3969746  -7.6845284  34.2001724  15.0156460
  -6.8864589  36.2362862  14.3704653  -5.5944057  35.9784355  14.9488840
  -4.8859415  36.6345253  14.4386854  -5.3025923  34.9310455  14.7615995
  -5.5301552  36.3153229  16.4564152  -4.5182395  36.0629921  16.7805901
  -6.3789601  35.3943634  17.3388615  -6.2065296  34.3706932  17.2072334
  -7.4142718  35.5837784  17.1191101  -6.1429644  35.7524910  18.7076168
  -6.8362389  34.9694328  19.9317627  -8.4102020  35.0353279  19.4801960
  -9.2268572  36.2031708  19.6384182  -8.7245378  37.0984955  19.2657452
  -9.3846273  36.3642197  20.6870117 -10.6322689  36.1371002  19.1043510
 -11.1658440  37.0061874  19.4754963 -11.0680342  35.2759209  19.5510941
 -10.9196587  36.1237259  17.5984287 -10.1725378  37.2147331  16.8754921
 -10.6314392  38.1437378  17.1758919 -10.2859392  37.0418854  15.8181591
  -9.1300488  37.1413612  17.1630192 -10.5180950  34.7847595  17.0661469
 -11.1553392  34.0348740  17.5609379  -9.4873085  34.6018257  17.3393135
 -10.6896353  34.7590675  15.9797621 -12.3368826  36.4383125  17.2868881
 -12.8952494  35.6608505  17.8174286 -12.5308275  36.4521523  16.1786652
 -12.5305166  37.4485626  17.7335663  -6.4004383  33.5539398  19.9234428
  -6.6898327  35.7003288  21.2229252  -5.8377228  37.7079811  16.6942806
  -4.8573642  38.5879250  16.4536514  -3.7522409  38.2431717  16.0396805
  -5.1085563  40.0352478  16.7873554  -4.1196856  40.4414597  17.0160542
  -5.3823538  40.5967369  15.8876238  -6.0021925  40.3019295  18.0442848
  -5.6671710  39.6133614  18.8492718  -5.6805334  41.2826614  18.3803825
  -7.5173516  40.2344284  17.8007050  -7.7997823  39.2141495  17.5270882
  -8.0074186  40.4190865  18.7706146  -8.0464277  41.2443542  16.7324371
  -8.5827332  42.0216827  17.2358627  -7.1994967  41.6172600  16.0859489
  -9.1453791  40.7307854  15.7787561 -10.0030460  40.3305130  16.3994198
  -9.5565109  41.5914497  15.1624794  -8.6992941  39.5649757  14.9066410
  -8.0966902  38.7374954  15.3945684  -9.5651140  39.0325241  14.5842876
  -7.8698454  40.0775108  13.6978645  -8.3582840  40.9469566  13.2658949
  -6.9085674  40.4352417  14.0332375  -7.6873636  38.9204559  12.7507343
  -7.2029214  38.0327759  13.1933870  -8.0506687  38.8226738  11.4790049
  -7.9109902  37.9156837  10.8837948  -8.8113604  39.9109077  10.7453718
  -9.8746910  39.6976891  10.8246536  -8.6240749  40.9033051  11.2378302
  -8.3656178  39.8848839   9.2941227  -7.2845240  40.0644531   9.1917791
  -8.5424814  38.9022865   8.8863449  -9.2481384  40.9070663   8.5166082
 -10.2847519  40.6524429   8.5038900  -9.1790981  41.8569603   9.0729322
  -8.7562857  41.2915497   7.0863843  -9.3344631  42.1314774   6.6814275
  -7.7243896  41.6574249   7.1349311  -8.8495226  40.1439629   6.0613942
  -8.1211653  39.3710403   6.3282609  -9.8041859  39.6956215   6.1934657
  -8.6452532  40.5836334   4.6237807  -7.6807575  41.0997543   4.4667492
  -8.6394367  39.7208633   3.9397585  -9.7559347  41.5546761   4.1534510
 -10.7256794  41.1563454   4.3759527  -9.6818161  42.5315170   4.6124468
  -9.6345596  41.7297325   2.5690160 -10.4183569  42.3493385   2.1995907
  -9.7900848  40.7550774   2.0962443  -8.6696472  42.0498352   2.2817800
  28.0085354  26.9757309   3.7048314  28.2863407  26.7022171   2.7283626
  28.1255894  28.0964966   3.7615798  26.9181900  26.7921448   3.7536674
  28.7975426  26.1605530   4.7589526  29.8291016  26.5281792   4.8037624
  28.8404636  25.1287823   4.4353495  28.1293983  26.2829895   6.1736465
  28.5589008  25.5629005   6.8636494  27.1161861  26.0402946   5.9967370
  28.1643791  27.6258297   6.8164682  27.8256969  28.3891907   6.0656495
  29.1915398  27.8375816   7.1260686  27.2522659  27.6895027   7.9856920
  27.4005508  26.7826653   8.5726757  26.2382107  27.6642208   7.6383514
  27.4206619  29.0193443   8.8088961  26.5224266  29.1993694   9.4028397
  27.4802952  29.8568192   8.0795374  28.6241531  28.9340820   9.7317591
  29.4605370  28.4694023   9.2224722  28.4366970  28.2066898  10.5152435
  29.1119022  30.2570915  10.3751745  28.2797165  30.6489353  10.9202967
  29.3364716  30.9613609   9.5894480  30.3437634  30.1816559  11.3285170
  31.0823250  29.5749760  10.8115377  30.0160618  29.6094246  12.2126570
  30.8837681  31.5838127  11.7317114  31.0574703  32.1450500  10.8055439
  31.8699284  31.4422436  12.1867371  29.9885845  32.4710960  12.6829185
  29.7965260  31.8873978  13.6140490  28.9854794  32.5143394  12.2492123
  30.5922031  33.8173866  12.9473486  29.8269768  34.5648994  13.1883545
  31.1461449  34.1961937  12.0982790  31.5256596  33.7906761  14.1893711
  32.3844223  33.1004066  14.0559502  30.9977131  33.4722137  15.0755901
  32.0441513  35.2014923  14.5160294  31.1891975  35.8373871  14.7826042
  32.5446930  35.5770035  13.6256132  32.9893303  35.2700310  15.6995974
  33.3931198  36.3211670  15.7707224  33.7648201  34.5633087  15.4544935
  32.2810631  34.8416214  16.9837551  31.2519073  35.2902679  17.4476414
  32.9521217  33.8205414  17.5356407  32.3830338  32.9854927  18.5898380
  31.9320221  33.6207047  19.3839760  33.1777916  32.4235687  19.0433445
  31.2816029  32.0569534  18.0115395  30.4782887  32.6959953  17.5437584
  30.6075974  31.2278290  19.1543694  29.8035355  30.5331402  18.8150425
  30.0277710  31.8152637  19.8436813  31.6379089  30.4054832  19.8193779
  31.1449451  29.2545795  20.7854767  30.2539253  28.3902836  19.8363228
  30.8318157  27.3939018  18.9998245  31.1191292  26.5346622  19.6819611
  31.6697292  27.7974052  18.4421616  29.7564163  26.9710083  17.9689693
  30.2591019  26.2517586  17.3019485  29.4771652  27.7670650  17.3424072
  28.5700970  26.2938786  18.5905743  27.6096249  27.2870140  19.1702080
  28.0682850  27.8918877  19.9177589  26.7555847  26.7665462  19.5229053
  27.3013878  27.8254795  18.2448921  27.8326111  25.5672283  17.5362892
  28.4009094  24.6460266  17.3082695  27.7111168  26.1871986  16.6906090
  26.8270206  25.2981396  17.9240170  28.9629345  25.2592163  19.6549778
  29.8122959  24.6718826  19.2543259  28.1393509  24.6019573  19.8863373
  29.2351532  25.8127594  20.5500107  32.3374863  28.5045910  21.2627583
  30.2166348  29.8476067  21.7859344  31.8536968  31.1694641  17.0230293
  31.1150169  30.7382603  15.9832058  29.9007721  30.8512383  15.8756790
  31.8919411  29.9572639  14.9810066  31.3113403  29.8132114  14.0620184
  32.8243790  30.4445305  14.7783184  32.2047310  28.5029774  15.4224768
  32.8436203  28.5686378  16.3108845  31.2775784  28.0074291  15.7528534
  32.8830566  27.6931190  14.3276873  33.7467270  28.2339573  13.9473143
  33.2667084  26.7575836  14.8044014  31.9573669  27.2807217  13.1894770
  31.0671158  26.8783092  13.6390133  31.6338425  28.1816082  12.6600065
  32.6161041  26.1677532  12.3532190  32.9026871  25.3739910  13.0932531
  31.8353920  25.7591038  11.6838465  33.8663902  26.6642361  11.6005077
  34.5996437  26.9432449  12.3524113  34.2470703  25.8109512  11.0678730
  33.5794716  27.8551788  10.7163639  32.6852112  27.6494198  10.1186800
  33.4174957  28.7591267  11.3256130  34.7566605  28.0643730   9.7654781
  35.5029144  28.7403507  10.2086201  34.8850594  27.6530266   8.4891729
  35.6743927  28.0570049   7.8629584  33.9183578  26.7439289   7.7995510
  34.4058266  25.9890003   7.1433349  33.3304901  26.2168236   8.5557575
  32.9063072  27.4968643   6.9032307  32.3810043  26.6851540   6.3776612
  32.1837578  28.0937748   7.4403839  33.5697021  28.3181496   5.7647581
  34.1764297  29.1504192   6.1058707  34.1827965  27.6692276   5.1303988
  32.4042168  28.9691811   4.9843969  31.6288357  28.2327824   4.7234664
  31.9200706  29.7067299   5.6564898  32.8946152  29.6274166   3.6799023
  33.7980118  30.1996613   3.9744208  33.2945518  28.9031143   2.9696212
  31.7494087  30.4503746   3.0619299  31.3961811  31.1914234   3.8344672
  32.1624451  31.1085701   2.3358307  30.6545811  29.6295433   2.4294014
  31.0940533  28.9025002   1.7193694  30.0720444  29.0610199   3.1961558
  29.6185856  30.4599609   1.6533791  28.7613678  29.8305035   1.3307966
  30.0889397  30.9835663   0.8110306  29.1650085  31.2166595   2.3005376
  24.5518227  35.4480782   1.3193774  24.7034531  34.9027863   0.3847706
  24.6386909  36.5015373   1.1299831  23.6647701  35.1333389   1.8324353
  25.7085629  35.0956955   2.2951684  26.6822090  35.3560295   1.7689704
  25.6255150  34.0078583   2.4548616  25.6067543  35.8416824   3.6722734
  24.5878334  35.6438980   3.9858983  25.7231236  36.8528786   3.4555593
  26.5654354  35.3107910   4.7595415  26.4606781  35.9344444   5.6490631
  27.5234013  35.4269447   4.3648396  26.4132042  33.8046417   5.1897855
  27.1443539  33.5053864   5.9795089  26.6412716  33.2048378   4.3282356
  25.0002480  33.5276833   5.6987929  24.3756504  33.3148117   4.8116312
  24.5628853  34.3238335   6.2744184  25.1410599  32.2550583   6.5754266
  25.8154697  32.5753098   7.4288006  25.7499771  31.5413647   6.0037279
  23.8064232  31.6026478   7.0445132  23.5528011  30.8031826   6.3614960
  23.0285435  32.3489685   7.0159478  23.8678570  31.0740452   8.4875917
  24.8004818  30.5482712   8.5753527  23.0516262  30.3217049   8.6067905
  23.7537289  32.1211014   9.6089592  23.2148438  33.0658607   9.2879887
  24.7479134  32.3836746   9.9492645  22.9885139  31.4988403  10.7937288
  21.9859219  31.2901154  10.4007568  22.9061317  32.1690788  11.6301861
  23.6838913  30.2192726  11.3535490  23.9811878  29.5515366  10.5609560
  22.9356194  29.7027969  11.9740305  24.8936272  30.6126423  12.2059355
  24.5532818  31.1463909  13.1122780  25.5689697  31.3436356  11.7064762
  25.6643200  29.3638344  12.6058493  26.0655785  28.9000530  11.6634941
  24.9801617  28.6210995  13.0187979  26.8251705  29.5359974  13.5766640
  27.3379230  30.4530239  13.3382645  27.5485611  28.6950607  13.4170828
  26.4782600  29.6663170  15.0263691  26.7306023  28.8423004  15.8835812
  25.8365097  30.8089924  15.3521175  25.7191582  31.1123447  16.7537823
  26.7439117  31.0689049  17.2207565  25.0659447  30.2912884  17.2828979
  25.2648640  32.6038017  16.9356766  25.4587173  32.8990402  17.9481583
  23.7787342  32.7480812  16.6506119  23.2496185  31.8878212  17.0463085
  23.5693073  32.7564316  15.5768242  23.2931328  33.9515343  17.2925491
  22.6017971  33.8754692  18.7129383  21.1975174  33.2044296  18.3825378
  20.2220631  33.9060631  17.5660591  20.5659313  33.9213829  16.4909916
  20.1466770  34.9318161  17.9758968  18.8763981  33.1704063  17.6626492
  19.1508732  32.1161842  17.6366005  18.1685925  33.4700127  16.8471432
  18.1099110  33.3402596  18.9771881  17.6285343  34.7894478  19.2296410
  18.5588684  35.3613853  19.3485794  17.0809765  34.9071083  20.1964798
  17.1503620  35.1148643  18.2963467  16.8505707  32.5488510  18.8899136
  17.0045986  31.4774513  18.7795811  16.3153744  32.8294868  18.0015011
  16.2912960  32.7010307  19.8134918  18.7744637  32.7655678  20.1711388
  19.1192799  31.7737846  19.8812103  17.9924374  32.5755844  20.8949757
  19.6626492  33.3140182  20.3989639  23.3881855  32.9324570  19.5697212
  22.3023872  35.2487717  19.2011318  25.9680195  33.5962334  16.1770172
  27.2290306  33.8987999  16.4629154  27.9287128  33.5074081  17.4047813
  27.8183918  34.8799210  15.4815636  28.8920708  34.7929344  15.4140081
  27.4010963  34.7561264  14.4420071  27.5333767  36.2719650  16.0755005
  26.5441113  36.2275238  16.6244202  28.3009033  36.5608063  16.8545647
  27.6373577  37.2981300  14.9421825  28.6669140  37.3875847  14.5934114
  26.9853439  36.9882927  14.1049023  27.1422615  38.6999855  15.3747616
  27.8073330  39.1539536  16.0556011  27.2198391  39.3561363  14.4713535
  25.7243538  38.7618332  15.9694118  25.6046772  38.3323059  16.9887524
  25.4100647  39.7875671  16.0911160  24.6036606  38.1486053  15.1120653
  24.7720833  37.0850410  15.0791025  23.6287479  38.2850418  15.5693569
  24.4519539  38.6705933  13.6719313  24.1551991  39.7188263  13.8009377
  25.4008675  38.6612854  13.1154346  23.3181877  38.0179825  12.9214592
  22.5108509  38.6892090  12.7584743  23.3112888  36.7234726  12.5105610
  22.4002094  36.4013405  11.9612370  24.3538074  35.6945839  12.7551556
  25.1657486  36.2308083  13.1822863  24.0204353  34.9478111  13.4526148
  24.7323723  35.1003342  11.3940420  25.4629784  34.2903290  11.5569897
  23.8645916  34.5978508  10.9735336  25.3854980  36.1032219  10.4002657
  24.6447945  36.8276749  10.1151505  26.1401215  36.6580009  10.9208765
  25.9494038  35.4453735   9.1135483  25.0662651  34.9693260   8.6268845
  26.3874283  36.2325020   8.4228983  27.1147003  34.4711456   9.4093409
  26.6977291  33.5366631   9.7327271  27.6748447  34.3207130   8.5042486
  28.1519966  34.9788437  10.3916492  27.7196732  35.1807175  11.3752995
  28.9043980  34.2074661  10.5436525  28.8743858  36.2301521   9.9165516
  29.5272827  36.0430336   9.0971794  28.1213017  36.9259109   9.6525650
  29.7238712  36.7465134  11.1218891  30.1599731  37.7185860  10.9035501
  30.4510689  36.0394974  11.4654055  29.0592842  36.9970169  11.9142904
  12.0587168  10.0243416   2.9774902  11.1179924   9.7997627   3.4000812
  12.8087854  10.2940426   3.7320492  12.4434986   9.1710815   2.4505477
  11.8378916  11.2594748   2.0516059  11.3745012  12.0029926   2.6769185
  11.1129236  11.0246840   1.2385570  13.1692886  11.7624435   1.4581041
  12.9011497  12.5856113   0.8515884  13.5278940  10.9729786   0.8603192
  14.2746115  12.1838846   2.3918841  15.1013126  12.3838234   1.7736502
  14.5829763  11.3196936   2.9631596  13.9573765  13.3673391   3.3105919
  13.3505287  14.1363716   2.8151181  14.9157667  13.8823376   3.5495517
  13.3276262  12.9193583   4.6246099  13.8786688  12.0171032   5.0185399
  12.3220654  12.6551170   4.3795671  13.2525063  13.9948931   5.6870675
  12.6286650  13.6812496   6.5312290  12.7316227  14.7878180   5.1551337
  14.5979271  14.5769444   6.1805005  14.2679539  15.4181480   6.7540975
  15.1736126  14.9807186   5.3233976  15.5655298  13.5998297   6.8888674
  16.2475662  13.1214142   6.1795454  14.9900255  12.8396568   7.4278207
  16.3981743  14.4259396   7.8606138  15.7939901  14.6097412   8.7591057
  16.6402206  15.4275799   7.4616737  17.7637539  13.8190928   8.2849369
  18.1780186  14.4795837   9.0792170  18.4398766  13.8696880   7.4431014
  17.6934986  12.3508921   8.6881227  18.6867352  11.9669542   8.8988600
  17.3290596  11.8063498   7.8111215  16.8567371  12.1631708   9.9363289
  15.8377924  12.5103130   9.7607307  17.2723160  12.6759348  10.8097792
  16.6156311  10.6789646  10.2953663  17.6180344  10.2094593  10.3580847
  16.0349503  10.1832352   9.5412188  15.8892765  10.7551241  11.6846476
  14.8653841  11.0355711  11.4874563  16.2657223  11.5707636  12.2100058
  16.0451107   9.5033875  12.5020027  15.1048756   8.8215408  12.8965702
  17.3297977   9.2723284  12.8371420  17.6720982   8.2721214  13.8350058
  17.9824314   7.3619246  13.3357239  16.7811317   8.0412378  14.4201078
  18.7623138   8.8674297  14.7568531  19.1596584   8.0975523  15.3893175
  18.1566143   9.9528418  15.7365599  18.8306217  10.2270899  16.5688210
  17.2585392   9.4854088  16.1782131  17.7300167  11.1222181  14.9976740
  16.6834354  12.1473169  15.5860806  17.3369102  13.5183830  15.3887596
  18.3168945  14.0947046  16.2921925  18.0900307  13.9124508  17.3291111
  18.4217987  15.1772747  16.1804218  19.6909733  13.4599743  15.9940720
  19.5471382  12.3965168  16.0685654  20.3676586  13.6830473  16.7972755
  20.3671665  13.8516445  14.7070332  19.6712036  13.1820793  13.5879612
  19.5503693  12.1101370  13.8471127  20.3098850  13.3372040  12.7048407
  18.6717587  13.6247578  13.4763899  20.4143562  15.3034515  14.5105610
  20.8328667  15.7726851  15.4251108  19.4021835  15.6803503  14.3525114
  21.0293312  15.4353151  13.6820889  21.8117237  13.4371433  14.7445955
  22.2368450  14.0640125  15.5046511  22.2203331  13.7233496  13.7398729
  21.9814148  12.3870468  14.9826164  15.4868021  12.0289812  14.7486553
  16.5702991  11.8816395  17.0392456  19.9429474   9.3720789  14.1055298
  20.7717228   8.6200657  13.4200296  20.6545372   7.3937850  13.3439350
  21.9075775   9.4492865  12.7918644  22.3236446  10.1324358  13.5871754
  22.6859646   8.8401670  12.4377728  21.5007057  10.3561201  11.6003284
  21.4055328   9.7233925  10.7032003  20.4890041  10.7983408  11.7654524
  22.4702244  11.5072527  11.4110575  22.5045414  12.0387974  12.3851290
  23.4592056  11.0924616  11.2387943  22.0371265  12.4848642  10.3015509
  22.0809345  11.9304676   9.3463268  20.9718056  12.7996960  10.4115925
  22.8937836  13.8075342  10.2191305  22.4239998  14.4609470   9.5184050
  22.8715210  14.3269205  11.2081518  24.2736473  13.4480391   9.7482500
  24.7599964  12.8405781  10.4796829  24.1371078  12.9760990   8.7782040
  25.1346054  14.6571627   9.5339403  25.4197865  15.1403713  10.4485426
  26.0741920  14.2792273   9.1143646  24.5987816  15.7771196   8.6878643
  24.3405609  16.6657810   9.2557898  24.6320457  15.9147015   7.3993654
  24.2937202  16.8160706   6.9109921  25.1957359  14.9399700   6.4392166
  25.9233379  15.5331726   5.9374375  25.7111149  14.1065550   6.9437270
  24.1448822  14.4288912   5.4668756  23.5581970  15.2435818   4.9775071
  24.6148281  13.9227953   4.6267648  23.1576710  13.4568176   6.1131058
  23.6929874  12.5224199   6.3722892  22.8646069  13.9067354   7.0505738
  21.9165020  13.1249514   5.3427548  21.0649395  12.7546167   5.9281235
  21.5451050  14.1137829   5.0343904  22.0903778  12.3606348   4.0128717
  21.1597157  12.3986521   3.4331372  22.8459930  12.8194132   3.3531990
  22.6002159  10.8893166   4.1264381  23.5969238  10.7829294   4.5659533
  21.9058075  10.3231964   4.7505212  22.6636047  10.2928581   2.7059100
  23.3348675  10.9467983   2.1486673  23.1910877   9.3082533   2.7746878
  21.3744640  10.1442232   1.8951784  21.4358902   9.4781008   1.0527207
  20.9657383  11.1089087   1.6233038  20.6164913   9.7649946   2.5404873
  23.1773930 -10.2909088   4.5144982  23.0343456 -11.2919607   4.1064091
  23.7593060 -10.4160700   5.4461250  23.8089294  -9.7726078   3.8063970
  21.9055748  -9.5322285   4.7888179  21.3414860  -9.9019012   5.6555986
  21.2404041  -9.6279926   3.9187038  22.1142559  -7.9849396   4.9380808
  21.2203693  -7.5495477   4.5255656  22.9630775  -7.7250214   4.3136802
  22.2032337  -7.4164958   6.3761396  21.3016300  -7.6352477   6.9869280
  22.2468548  -6.3401847   6.2822599  23.4198112  -7.8913856   7.1139460
  24.2504921  -7.9151545   6.4240527  23.3273201  -8.9495173   7.3728151
  23.7418060  -7.0726347   8.3410244  23.8683872  -6.0320148   8.0109644
  24.6883507  -7.4548149   8.7539082  22.7108269  -7.0548601   9.4940357
  21.7204762  -7.2636552   9.1162252  22.7877312  -6.0745983   9.9477758
  23.0685902  -8.0625057  10.6322765  24.0095711  -7.8203449  11.1804152
  23.2276554  -9.0416899  10.1684036  21.8951225  -8.0917263  11.6023531
  20.9961338  -8.5339489  11.1492167  21.5587502  -7.0586877  11.8654490
  22.3326473  -8.8202295  12.8486738  21.4723949  -8.7681389  13.5349522
  23.1535797  -8.2514467  13.3496094  22.7043037 -10.3383465  12.7246799
  23.6757011 -10.4952965  12.2679996  21.9620724 -10.8851290  12.0953369
  22.8089046 -11.0300560  14.0669909  22.9112606 -12.0997534  14.0182590
  21.8813229 -10.8848972  14.5826330  23.9388294 -10.5078144  14.9735441
  23.8463821  -9.4578485  15.1255474  24.9246578 -10.5737505  14.5447884
  23.9388199 -11.2269258  16.3175716  22.9499168 -11.0659733  16.8304615
  24.6286373 -10.6182575  16.9716015  24.3514652 -12.7182255  16.3815212
  25.3701248 -12.8250885  16.0103207  23.6293392 -13.2171192  15.7360210
  24.1503506 -13.2848921  17.8040276  23.0786724 -13.7045851  18.2025928
  25.3022976 -13.2910051  18.5170403  25.2300301 -13.7766981  19.8983841
  25.8379726 -14.6761942  19.9772663  24.2533951 -14.1377468  20.2720337
  25.6794739 -12.6898232  20.9538631  26.1547108 -13.2689037  21.7884521
  24.5542946 -11.8232002  21.5499477  25.0105839 -11.1462040  22.3177509
  23.8665371 -12.4766464  22.0755882  23.7950592 -11.1288824  20.5183620
  22.4911118 -10.2310295  20.8508205  23.0741596  -8.8337631  21.4063740
  23.5292625  -7.8342199  20.5458736  22.6690559  -7.2695179  20.1352043
  24.0525265  -8.3219032  19.7336311  24.4430180  -6.8175359  21.2850666
  23.9479942  -6.5271616  22.1536369  24.6032257  -5.9226255  20.6417732
  25.8176441  -7.2961874  21.7105217  26.5892239  -7.8907924  20.5884762
  26.2010593  -8.8396015  20.3041115  27.5640583  -8.1407146  21.0128632
  26.6862965  -7.1244173  19.8147755  26.5920849  -6.1403294  22.2291451
  26.0643291  -5.7623363  23.1179810  26.6652222  -5.3306813  21.4917374
  27.5625248  -6.5360899  22.5039501  25.6546402  -8.2864656  22.8288498
  25.2475967  -7.7951522  23.7061863  26.6281815  -8.6555099  23.1331367
  24.9798374  -9.0317688  22.5214310  21.7932110 -10.0221682  19.5928040
  21.7089691 -10.8919706  21.9091434  26.6827106 -11.7389212  20.3825760
  27.8602962 -12.1920052  19.9365807  28.3806591 -13.2543936  20.2710133
  28.4820175 -11.2501106  18.9546089  28.2624912 -10.2234287  19.2305508
  29.5465298 -11.4990053  18.9470596  27.9837437 -11.5049858  17.5232811
  28.2816334 -12.5126829  17.3078842  26.8833179 -11.3880911  17.3820286
  28.6753445 -10.4934397  16.5669994  28.4522991  -9.4874134  16.9805164
  29.7362499 -10.6781397  16.6726532  28.1942673 -10.6455088  15.1145792
  27.0981770 -10.6011333  15.1615191  28.5622005  -9.7854033  14.5713959
  28.6809464 -11.9434185  14.4204655  29.7770214 -11.9259253  14.3877754
  28.4467316 -12.8147497  15.0291586  28.0996971 -12.1108055  13.0132236
  28.3735771 -11.3158035  12.3714170  28.5731983 -12.9844656  12.6140776
  26.5827293 -12.2207460  12.8913078  26.2159233 -13.0383406  13.5150862
  26.0877457 -11.2808657  13.1798506  26.2827301 -12.6054754  11.4700899
  26.2267914 -13.6815929  11.2663031  26.0958271 -11.8453226  10.3920755
  25.8189468 -12.3027325   9.3904953  26.1945953 -10.3498650  10.4509535
  25.3489513  -9.9087296   9.8758774  26.1015739  -9.9963894  11.4681435
  27.4917145  -9.8094215   9.7953701  27.4125462  -8.7333078   9.8759718
  28.4044914 -10.0934591  10.4137278  27.8016453 -10.2462349   8.3782034
  28.7611370  -9.8326759   8.0900927  27.8981380 -11.3365593   8.3953266
  26.7427235  -9.7701464   7.4039035  25.7764530 -10.1617260   7.7219338
  26.6127110  -8.6805105   7.4685292  27.1647053 -10.1438475   5.9274602
  26.7383213  -9.4204245   5.2184720  28.2958050 -10.0554476   5.8780236
  26.7049046 -11.5532541   5.6123786  27.1581764 -12.2481956   6.2957640
  25.6410122 -11.5990934   5.6587386  27.0825405 -11.9528160   4.1479177
  26.7611504 -11.1880398   3.4561377  28.1643524 -11.9949913   4.0359712
  26.4241619 -13.2698784   3.8160372  26.7371464 -13.6173000   2.8463063
  25.3378086 -13.2767286   3.9323311  26.7430000 -13.9928474   4.5007086
  16.0794220  20.9796886   2.3410110  16.9222107  20.2950382   2.4901185
  15.4088745  20.5601425   1.6136183  15.5415401  21.1461239   3.2899330
  16.5558739  22.3245335   1.7295153  16.9005470  22.0432854   0.6985042
  17.4111328  22.7836609   2.2504001  15.3924866  23.3175735   1.4365034
  14.6053219  22.8096962   0.8965504  15.8001127  24.0788498   0.7717666
  14.7645607  23.9424419   2.6269162  14.5166674  23.1253700   3.3250234
  13.8606319  24.4602566   2.2704084  15.6607237  24.9991684   3.2736506
  15.9677114  25.7203579   2.5110917  16.6036453  24.5455017   3.6526194
  14.8885050  25.7878780   4.2985125  13.9434299  26.1628628   3.9405773
  15.4674063  26.6873837   4.5622025  14.5091476  25.0691814   5.5874367
  13.8508339  24.2489281   5.3822823  14.0174685  25.7983494   6.1902499
  15.7658186  24.5737877   6.3433909  16.3704319  23.8323135   5.7993793
  15.4078426  24.1328220   7.2964334  16.5640659  25.8298111   6.7116976
  15.8721075  26.6672707   7.0150609  17.1823330  26.1705322   5.9068494
  17.4410305  25.5063324   7.9674487  18.0536232  24.6374874   7.7814336
  16.7630482  25.3532581   8.8400917  18.3729382  26.6429710   8.4445524
  17.8809433  27.5821476   8.3531675  19.1942234  26.7574215   7.7573891
  18.9217491  26.3959541   9.8594551  19.5219212  25.4839497   9.8070297
  18.1435318  26.2488480  10.5741358  19.7616310  27.5651474  10.4243708
  20.7458572  27.5926304   9.9082928  20.0493813  27.3745518  11.4531031
  19.0210419  28.9410496  10.3961525  17.9600983  28.7284107  10.5601835
  19.0465527  29.3866177   9.3982716  19.6133499  29.9688263  11.4616766
  19.1758842  30.9831028  11.4295635  20.6576614  30.0610771  11.1848946
  19.4555454  29.5209312  12.8686895  18.4975967  28.9228649  13.2522440
  20.5808525  29.7432117  13.5699463  20.6040592  29.2671585  14.9308643
  21.6811790  29.1033726  15.2155161  20.0370426  28.3886566  15.0958166
  20.0549164  30.3313370  15.9469213  20.6967926  31.2431889  15.9080019
  20.2317657  29.7167759  17.3567886  21.1311836  30.1434021  17.8270378
  20.2793865  28.6462822  17.1601620  19.0993156  29.9959984  18.1875668
  18.5610504  28.8018780  19.1423931  17.5517139  28.0611057  18.1973820
  16.4265232  28.8347530  17.7195549  16.1287575  28.3747387  16.7357597
  16.7302761  29.8592682  17.4882202  15.0803194  28.8252430  18.5587425
  14.3333549  29.4424858  18.0803452  15.1913471  29.0401573  19.6084099
  14.4372168  27.4482136  18.7614536  15.2510281  26.5931492  19.7361927
  16.2296143  26.3053703  19.2209415  14.7128353  25.6776791  19.9440804
  15.4446163  27.0693378  20.6910400  13.0406370  27.5381546  19.2887917
  12.4190607  28.1004639  18.6306534  12.9596558  28.0049629  20.3127003
  12.5976810  26.5348816  19.3185005  14.2836676  26.6696339  17.4351292
  13.7441559  27.3129349  16.7146626  13.7755957  25.7586937  17.6496906
  15.2796640  26.4263840  17.0865040  19.6751938  27.8508739  19.4981384
  17.7408676  29.3915768  20.2807217  18.6515713  30.5932026  15.6741447
  18.2892952  31.6065578  14.8964939  19.0802212  32.3412895  14.3373241
  16.7920895  31.6995506  14.6794901  16.3318100  30.7776051  15.1366796
  16.4467888  32.5475502  15.2424831  16.3619633  31.8643417  13.1871309
  16.9651833  31.1749668  12.5999031  15.3196669  31.5080242  12.9757490
  16.5253410  33.3349266  12.7622595  15.6592293  33.9366913  13.0796490
  17.4589958  33.8203239  13.1646767  16.5850105  33.5249062  11.2239733
  16.8457127  34.6029968  11.1242437  17.4429741  32.9486351  10.7843313
  15.2778263  33.2317429  10.5364904  14.9792299  32.2514725  10.7877483
  14.5560827  33.9016685  10.9497128  15.3407202  33.5134850   9.0173302
  14.2874069  33.5636635   8.6680737  15.7951279  34.4602127   8.8049555
  16.1028938  32.4261894   8.2930069  17.2078075  32.4889450   8.5367517
  15.7156763  31.4929752   8.6511059  15.8482761  32.5379601   6.8177395
  14.9933672  33.1833229   6.4571829  16.5961590  31.9317551   5.8765483
  16.4438400  32.0431252   4.8266282  17.6631165  30.8873825   6.2288661
  17.6537247  30.5877895   7.2657995  17.5755768  30.0010338   5.6165390
  19.0377979  31.5238018   5.9094534  19.0572472  31.6397572   4.8260489
  19.1592484  32.5173492   6.3018937  20.2544613  30.7207088   6.3176203
  21.1486282  31.1737251   5.9047866  20.3786449  30.7431526   7.4013815
  20.1787415  29.2494678   5.8891773  19.3003044  28.8731861   6.3827705
  20.0000935  29.2312698   4.8358269  21.3408260  28.4428310   6.2964315
  22.1889992  28.9335060   5.9482126  21.4276428  28.3830738   7.4057097
  21.3455772  27.0184155   5.6340666  20.4200191  26.4685993   5.8668351
  21.4163322  27.1768608   4.5439043  22.6274281  26.2219429   6.0209937
  22.5183582  25.8566284   7.0639877  22.6440048  25.3232937   5.4243116
  23.9905624  26.9931831   5.8259106  24.7817993  26.3291550   6.1070590
  23.9985847  27.8723316   6.4370089  24.2010517  27.3452797   4.8237720
  16.3832626 -36.9675598   0.7787219  16.1313839 -37.2451172  -0.2576998
  15.5283356 -37.4288673   1.3614180  17.3398972 -37.4291916   1.1419747
  16.4019127 -35.4256744   0.8639587  15.4405231 -35.1594200   0.4115568
  17.1913490 -34.9918556   0.2602395  16.4424133 -34.8196678   2.2675793
  16.4506626 -33.7228012   2.2037079  17.3992195 -35.1055870   2.6908181
  15.2553711 -35.2522888   3.1224418  15.3771639 -36.3062973   3.3671217
  14.3452501 -35.1507835   2.5297511  15.0908527 -34.3757629   4.4098182
  14.8291025 -33.3704834   4.0482388  16.0386162 -34.2832794   4.9411626
  14.0005922 -34.8176918   5.4712896  13.0580711 -34.7490082   5.0027661
  13.9384127 -34.1036835   6.3001499  14.1992989 -36.2441025   6.0207076
  14.3504276 -36.9281349   5.2320433  13.3694258 -36.5851288   6.6440873
  15.4078951 -36.2555809   6.9599390  16.3767548 -35.9793320   6.5056138
  15.5612192 -37.2921982   7.2608685  15.1139946 -35.3903847   8.2295017
  14.0100060 -35.3016243   8.3437052  15.5718412 -34.4277649   8.0090370
  15.8016310 -35.9384689   9.5268965  16.9077797 -35.9235077   9.3903885
  15.4650154 -36.9275703   9.7835789  15.5332012 -35.0078316  10.7031574
  14.5236387 -35.1223984  11.0099659  15.7428160 -34.0007362  10.3938112
  16.3766403 -35.4430313  11.8912458  17.4113617 -35.4064522  11.5671024
  16.1645050 -36.4968834  12.1255741  16.3048706 -34.6854591  13.2488527
  16.9955273 -35.0867157  13.9697094  15.3048916 -34.8394852  13.6834898
  16.7596893 -33.2296906  13.1208525  16.2689629 -32.7307549  12.2706089
  17.8315220 -33.2443161  12.8922081  16.5582390 -32.3483734  14.3662415
  17.1653137 -32.6863441  15.2267942  15.4938431 -32.4025955  14.5889750
  16.8930664 -30.9014492  14.0329590  17.9786110 -30.6213856  13.5792627
  15.8907738 -29.9915504  14.2348814  16.1556816 -28.6089211  13.8578367
  16.2151356 -28.5935955  12.7850389  17.1171322 -28.3438187  14.3081713
  15.1019878 -27.6275520  14.4304361  15.2182331 -26.7494469  13.7767181
  15.3016577 -27.1685772  15.8416643  14.4721451 -26.4807320  16.1143417
  16.2522507 -26.6589470  15.9435215  15.3932848 -28.2634811  16.8022671
  14.2702885 -28.3943386  17.9695435  14.6325293 -27.2332172  18.9372673
  15.9396086 -27.2974586  19.6391621  16.6558456 -27.2320099  18.7949524
  16.0326729 -28.2529469  20.1848011  15.9978952 -26.1132717  20.6668835
  16.9775448 -26.1705894  21.1168976  15.2490234 -26.2236328  21.4925652
  15.9740925 -24.7046452  20.2119255  17.0014629 -24.5388145  19.1210117
  18.0094566 -24.6714439  19.5614700  16.7917213 -23.5276699  18.8833427
  16.8374882 -25.2867107  18.3028145  14.6375074 -24.2671375  19.7178860
  13.9262962 -24.2954178  20.5435066  14.3710232 -24.8148174  18.8001308
  14.7813272 -23.1724777  19.4973164  16.4471035 -23.8531780  21.3233681
  15.7078218 -24.0030956  22.0809364  16.5154228 -22.8482151  20.9794083
  17.4628849 -24.2184849  21.5933113  12.9312029 -28.0317097  17.4618416
  14.4376993 -29.7017078  18.6670780  13.8037910 -28.2575970  14.3182297
  12.7286930 -27.5134182  14.0789986  12.8089523 -26.3161201  13.8125763
  11.4414968 -28.3003120  14.1753902  11.5296068 -29.0924149  14.9356165
  10.6556807 -27.5798512  14.4800100  11.1846294 -28.9302998  12.7914391
  10.1258202 -29.1352844  12.7824774  11.3624945 -28.2018166  12.0048332
  11.9321537 -30.2087765  12.4583006  12.9892693 -30.0687714  12.6836319
  11.5556774 -30.9953899  13.1840458  11.7662611 -30.6571751  11.0246696
  10.8133812 -31.1228771  10.8456888  11.8984261 -29.7894077  10.3794336
  12.8792868 -31.6977329  10.6613340  13.8425341 -31.1829376  10.9364338
  12.7661505 -32.5838242  11.2927189  12.9135571 -32.1970367   9.2149887
  13.7765217 -32.8108711   9.0587826  12.1181116 -32.8582344   8.9706736
  12.9686127 -31.0525208   8.1855860  12.9327717 -31.5717487   7.2541709
  12.0455160 -30.4440517   8.2604151  14.2151299 -30.2343349   8.3503046
  14.4370422 -29.9989815   9.3894787  14.9462175 -29.7418861   7.3590384
  15.7655334 -29.0995789   7.6178527  14.7290983 -29.9313393   5.8412371
  13.7720289 -30.3885460   5.6096201  14.7340336 -28.9551716   5.3463898
  15.8378181 -30.7692451   5.2204089  15.8528862 -31.6879253   5.8022761
  15.6103601 -31.1067982   4.1943841  17.2278252 -30.0345020   5.2836347
  17.2350712 -29.1126823   4.7033763  17.3259258 -29.7869034   6.2952514
  18.4490547 -30.8092785   4.7635136  19.3646469 -30.1764183   4.8815041
  18.6357555 -31.7053070   5.3678446  18.2348881 -31.2586193   3.3232334
  17.4831467 -32.0026169   3.3082554  17.8422394 -30.4281921   2.6813462
  19.5369816 -31.9156456   2.8010015  20.3951683 -31.3414936   3.1256394
  19.6483517 -32.8667221   3.3197501  19.5773563 -32.1946259   1.2916435
  20.4742088 -32.7980194   1.0238191  18.7567730 -32.8874626   1.0468506
  19.4587021 -30.9504681   0.4158650  19.7238388 -31.0977001  -0.6276615
  20.2015095 -30.2618065   0.7717384  18.4486027 -30.5390244   0.4801828
 -23.0617123 -17.6618538   6.9133658 -22.4532623 -18.2214661   7.6372108
 -24.0223045 -17.4240551   7.3775053 -22.6756077 -16.6972351   6.6756601
 -23.1951180 -18.4367867   5.6091828 -22.3097801 -18.2737885   4.9551768
 -24.1099644 -18.0881672   5.0913172 -23.2144146 -19.9569473   5.8391929
 -23.7070923 -20.3852844   4.9938369 -23.8300800 -20.1998882   6.6668849
 -21.7756348 -20.5516167   5.8597322 -21.2289219 -19.9516850   6.6223760
 -21.2673359 -20.4071903   4.9044147 -21.7348671 -22.0470734   6.2100167
 -22.1688690 -22.6854973   5.4077168 -22.3473778 -22.3498154   7.1327968
 -20.2846565 -22.5826073   6.4278383 -19.7792931 -21.9497795   7.1840315
 -19.6845837 -22.4333172   5.5688291 -20.1837139 -24.1000786   6.8521638
 -19.1344814 -24.3564434   6.8903265 -20.6544209 -24.7842636   6.1140590
 -20.8049507 -24.3267517   8.2067890 -20.6813087 -25.3706760   8.3719721
 -21.8777122 -24.0413589   8.1967936 -20.0007839 -23.5240746   9.2839260
 -19.0910053 -23.2820435   8.8039312 -19.9244022 -24.1504288  10.1422520
 -20.7310276 -22.2274208   9.7779961 -20.8536892 -21.5057011   8.9545708
 -20.0642700 -21.6910725  10.3884315 -22.1133022 -22.4653988  10.4963627
 -21.9984932 -23.1603642  11.3366117 -22.8324814 -22.9428654   9.8122873
 -22.7673168 -21.1264267  10.9022923 -22.9739857 -20.4963207  10.0077868
 -22.1360760 -20.5972557  11.6000557 -24.2410545 -21.2615604  11.5211296
 -24.9201469 -21.8158512  10.8751764 -24.6702499 -20.2641945  11.6123524
 -24.2521839 -21.9333687  12.9532709 -23.4059792 -21.5280266  13.4720039
 -24.1103554 -23.0064774  12.8335800 -25.5437641 -21.7050533  13.8052940
 -26.4026241 -22.1008129  13.2033815 -25.7328453 -20.6408024  14.0043840
 -25.4573803 -22.3692341  15.1367559 -25.0783577 -21.8606548  16.1609154
 -25.8026676 -23.6726093  15.1220379 -25.5781918 -24.4573860  16.3555546
 -25.8001518 -23.8886433  17.2703209 -24.4911652 -24.6720409  16.4354630
 -26.4149837 -25.7626915  16.4657192 -27.4945278 -25.5379028  16.4200706
 -26.1874676 -26.4754410  17.8051910 -26.6137295 -27.4417896  17.9055939
 -26.6238098 -25.8408432  18.5663280 -24.7967625 -26.6019936  18.1799088
 -24.3501778 -26.6087608  19.7302666 -24.2963200 -25.0622787  20.1283951
 -25.4379940 -24.3397121  20.7032318 -25.8325424 -24.9830036  21.5308857
 -26.2547665 -24.2153549  19.9372463 -25.0269585 -22.9906006  21.2832661
 -24.1270084 -23.0790920  21.9054623 -25.8590546 -22.6312542  21.8930264
 -24.7551918 -21.8859520  20.2905540 -25.9705162 -21.6020184  19.3949528
 -26.3592911 -22.5180798  18.9659195 -25.7172623 -20.9654312  18.5313854
 -26.7570667 -21.0600548  19.9130573 -24.4753475 -20.6466179  21.0861130
 -23.6391544 -20.8265877  21.7305965 -25.2788525 -20.4102402  21.8069820
 -24.3366032 -19.8277569  20.3689613 -23.4946289 -22.1026440  19.4718609
 -22.6378136 -22.0852776  20.1560879 -23.4250240 -21.3031502  18.7261810
 -23.6202412 -23.0873909  18.9560261 -25.3370209 -27.4048347  20.4976482
 -22.9453888 -27.0567932  19.8249264 -25.9741993 -26.6626263  15.4250298
 -26.8366051 -27.0933552  14.4879522 -28.0187111 -26.9666328  14.5777464
 -26.1658878 -27.8030281  13.3832922 -25.4535294 -28.5352516  13.7794323
 -26.9095230 -28.2665672  12.7469530 -25.3807755 -26.8222427  12.4709072
 -26.0733776 -26.0041981  12.2632542 -24.5220490 -26.4566708  13.0458174
 -24.9100018 -27.5586128  11.2070370 -24.4548016 -28.5434818  11.4389315
 -25.7644730 -27.8044167  10.6438818 -23.8451805 -26.7968979  10.4329357
 -22.9351425 -26.6964550  11.0304976 -23.6445999 -27.4491577   9.5440207
 -24.3609142 -25.4686203   9.8949718 -24.6478252 -24.7814350  10.6808653
 -23.5742664 -24.9207859   9.3446026 -25.5429649 -25.5674381   8.8874369
 -26.4237576 -25.7756214   9.4587746 -25.6499863 -24.5636158   8.4722929
 -25.3253155 -26.5864353   7.7224751 -25.1256561 -27.5899525   8.1264257
 -26.2019844 -26.6153545   7.0631571 -24.0972557 -26.1968842   6.8699670
 -23.1670170 -26.5026016   7.2774143 -24.0142612 -25.7904644   5.6017904
 -23.0243874 -25.7306690   5.2142119 -25.0639153 -25.2387466   4.6323667
 -24.4771175 -24.6235542   3.9443281 -25.5354118 -26.0172825   4.0312614
 -26.1300926 -24.3114071   5.3015327 -26.8939991 -24.9854012   5.7109046
 -25.7493114 -23.7682419   6.1518168 -26.7935352 -23.3723946   4.2930346
 -27.6346951 -22.8668690   4.7636323 -26.0239830 -22.6290607   4.0119977
 -27.3257065 -24.0741329   3.0047779 -26.4758472 -24.6333675   2.5870123
 -28.1238937 -24.7271938   3.2306793 -27.8115005 -23.0985527   1.9969279
 -28.5573235 -22.4433365   2.4728811 -26.9720268 -22.3851223   1.8345478
 -28.2567959 -23.8030834   0.7289326 -27.4831944 -24.5077400   0.4703629
 -29.1932373 -24.3449802   0.8758813 -28.4858017 -22.7384930  -0.3549290
 -29.1527538 -21.9769783   0.0715653 -27.5498791 -22.2834606  -0.6027753
 -29.1656322 -23.2720451  -1.6468178 -29.2018585 -22.5598946  -2.4463067
 -30.1808147 -23.6685371  -1.4236914 -28.5224991 -24.1165619  -1.9787680
  16.0688953 -20.8296814  -2.0351543  15.3070126 -21.5285950  -1.7831780
  17.0365772 -21.3629322  -2.0513351  15.9104767 -20.4286880  -3.0310574
  16.1687908 -19.6525917  -1.0470101  15.1705065 -19.2689228  -0.9281414
  16.8103199 -18.8713455  -1.4825953  16.7633419 -20.0717735   0.3048413
  17.1306648 -19.2353973   0.9096346  17.6278763 -20.6894417   0.1623121
  15.7342348 -20.7843304   1.1905918  15.4736891 -21.7457294   0.7461459
  14.8617315 -20.1337051   1.2958343  16.3225098 -20.9756317   2.5503800
  16.5335121 -20.0172825   3.0497563  17.2827225 -21.4049225   2.3968301
  15.4673309 -21.8563175   3.4669147  15.3286829 -22.8413429   3.0542388
  14.4879522 -21.4246349   3.6008368  16.0935497 -22.0101147   4.8639832
  15.3055811 -22.3386745   5.4966998  16.5507793 -21.1306858   5.3165793
  17.2146263 -23.0685463   4.7636628  17.9626179 -22.6363544   4.0637727
  16.8867989 -23.9883232   4.2718329  17.9043732 -23.3912277   6.1150117
  18.6447182 -24.1141739   5.8880615  17.1987743 -23.8308506   6.8512702
  18.5753593 -22.0904160   6.6523199  17.7814255 -21.6609383   7.2480769
  18.7587452 -21.4224224   5.8238106  19.8800602 -22.4241943   7.4171977
  20.5331993 -22.8990250   6.6902695  19.6664467 -23.2018318   8.1684961
  20.5377808 -21.2538128   8.1318655  21.0163670 -20.6242409   7.3559313
  21.4003448 -21.6346340   8.6532784  19.6789513 -20.4601307   9.1203871
  18.7515507 -20.0082130   8.7472267  20.2892704 -19.6292324   9.4562035
  19.4474487 -21.3431091  10.3725481  20.3041458 -21.9788780  10.5666275
  18.6297913 -22.0207310  10.1570358  19.0652370 -20.6529541  11.6794643
  19.0698338 -21.4200630  12.4573803  19.7928886 -19.9725533  11.9732780
  17.7775726 -19.8984432  11.5551367  17.6186161 -18.8966064  10.8585796
  16.8367615 -20.4434032  12.3668852  15.5226812 -19.8033161  12.3567877
  15.0542250 -20.0929184  11.4468565  15.5696697 -18.7274094  12.2755060
  14.6517277 -20.3109016  13.5292387  13.8188477 -19.6017666  13.6917419
  15.3893757 -20.3790188  14.8828268  16.1897202 -19.6191006  14.8933792
  15.8536291 -21.3440971  14.9315748  14.5111771 -20.1738167  16.0651379
  14.6074638 -21.1117725  17.4190254  13.4292421 -22.1785526  17.2558022
  13.3428087 -23.1338196  16.1528053  14.3610954 -23.4573727  15.9284582
  12.9246960 -22.5539951  15.2853880  12.4584055 -24.4095154  16.4089603
  12.9554501 -25.1470070  16.9973392  12.3125887 -24.8517056  15.4354296
  11.0750952 -24.2047291  16.9906063  10.2970257 -25.4973526  16.6687622
  10.0791779 -25.5985050  15.6245251   9.3261271 -25.3722878  17.1194611
  10.8189716 -26.3999290  17.0524311  11.2949219 -24.0260315  18.4531994
  12.1148252 -23.3444004  18.6699028  11.5879679 -25.0145931  18.8392830
  10.4434958 -23.6102085  18.9882183  10.4330025 -23.0195808  16.3938828
  10.9740753 -22.1288891  16.7209167   9.3259382 -23.0180836  16.6967983
  10.4923429 -23.1813087  15.3003826  15.9289989 -21.7888107  17.3934212
  14.3033428 -20.2581863  18.5991039  14.1574373 -21.6548061  13.2570162
  12.9457712 -21.6960258  12.6390162  12.3547401 -20.7364349  12.2322025
  12.4668131 -23.1016731  12.5431309  13.3131018 -23.7630081  12.5758801
  11.8541956 -23.2891388  13.4179401  11.6242266 -23.3623333  11.2295923
  10.6323900 -22.8218060  11.2933874  12.1772614 -22.8159790  10.4141922
  11.3889503 -24.8264885  10.8490744  12.3020954 -25.3660583  11.0324564
  10.6870279 -25.2451725  11.5689297  10.8379068 -24.9854279   9.4518890
   9.8140945 -24.6819782   9.4049301  11.4396915 -24.4046955   8.7643776
  10.8085718 -26.4501381   8.9577017  10.1004124 -26.9969177   9.5523968
  10.4201431 -26.4338284   7.9124875  12.1279669 -27.2156048   8.9036217
  12.4709978 -27.3336220   9.9396706  11.8537798 -28.1947899   8.5469494
  13.1506109 -26.4666023   8.0455675  13.4057894 -25.5760365   8.5619612
  14.0806761 -27.0291710   7.9563642  12.6090660 -26.1074104   6.7151980
  12.0417643 -26.8529797   6.1794810  12.7119064 -24.8834705   6.2700343
  13.2939148 -24.0807323   6.7590475  12.2326040 -24.3926468   4.9035149
  11.4987316 -23.6729889   5.1318417  13.0941143 -23.8477936   4.4340119
  11.5777483 -25.3927841   3.9268546  10.8024778 -25.9234848   4.5034318
  11.1702633 -24.9233608   3.0078864  12.6519642 -26.3708420   3.4015086
  13.5006676 -25.8204346   3.0022535  13.1105652 -26.9532471   4.2083206
  12.0921431 -27.4662571   2.4813919  12.8944635 -28.1712246   2.2246990
  11.3913841 -28.0096989   3.0489931  11.3992176 -26.9957371   1.2142650
  10.9459209 -27.8903885   0.8005058  10.6982727 -26.1715908   1.4108635
  12.4551544 -26.5620899   0.1858752  13.0815210 -25.8775349   0.7343891
  13.0690441 -27.4119015  -0.1026037  11.8616314 -25.8555603  -1.0584852
  11.3756695 -26.5661621  -1.6908127  11.0991974 -25.0880146  -0.8522691
  13.0315695 -25.2187996  -1.8730347  12.5793066 -24.3650932  -2.3522518
  13.4130278 -25.9506397  -2.5827954  13.8152313 -24.7725792  -1.2041234
  31.5174847 -21.4826469   3.3362434  32.6143646 -21.4717770   3.4274399
  31.1980362 -20.5433674   2.9263232  31.2532597 -22.2685928   2.6540375
  30.9195805 -21.6216755   4.7288580  31.2072010 -20.7823734   5.3587842
  31.3213425 -22.5584049   5.2279449  29.3801136 -21.6109657   4.7171488
  29.0976810 -22.4166985   4.0481200  29.0244122 -20.6743221   4.2192631
  28.8195915 -21.7151642   6.1406999  28.8803177 -20.7889538   6.6484923
  29.3712654 -22.4644642   6.6566663  27.3309402 -22.1566486   6.0444698
  27.3293686 -23.1812649   5.6099248  26.7858696 -21.4880924   5.3438807
  26.6387920 -22.1272545   7.4131055  26.7882614 -21.0979748   7.8078847
  27.1794052 -22.8220921   8.0267076  25.1358643 -22.4045963   7.3841243
  24.9221706 -23.4430313   7.0535154  24.6947956 -21.7484112   6.5654111
  24.4336357 -22.1660519   8.7790623  23.3877029 -22.3916817   8.7168989
  24.5775776 -21.1164131   9.0157719  24.9556751 -22.9774075   9.9684391
  26.0328655 -22.9665871  10.0281096  24.6550655 -24.0066452   9.8177996
  24.4647255 -22.5506878  11.3588734  24.3923550 -23.3785534  12.0348568
  23.4280243 -22.2986393  11.2533770  25.1768208 -21.3931446  12.0875969
  24.8938351 -20.4541950  11.6251364  26.2536983 -21.5246868  11.8759623
  24.9705009 -21.2489414  13.5949717  23.8966846 -21.2061882  13.7624121
  25.3773670 -20.2550106  13.9179907  25.6403008 -22.3612251  14.4581804
  26.7319145 -22.3465080  14.2816019  25.1805534 -23.3248329  14.2182732
  25.3901939 -22.1804714  15.9669771  25.7940331 -23.0391960  16.4770889
  24.3282318 -22.2272758  16.0802956  25.9902401 -20.9776478  16.6667595
  25.6000404 -20.9711094  17.6758995  25.6885452 -20.1104374  16.1689358
  27.5110130 -20.9719505  16.7818985  28.2306900 -20.3795624  15.9747810
  28.0297012 -21.6616268  17.7882404  29.4481277 -21.4531708  18.1246147
  30.0586109 -21.3347340  17.2332249  29.8565788 -22.3585110  18.5830994
  29.5978928 -20.1609402  19.0343304  30.6796951 -19.8628101  19.0323009
  29.2012806 -20.3959637  20.4865437  29.2978096 -19.4288216  21.0568600
  29.9191856 -21.0896969  20.9508514  27.8193283 -20.8867683  20.6334667
  27.0623779 -21.2413387  21.9919949  27.6005840 -22.6728058  22.3903675
  27.5156479 -23.7800522  21.4665775  27.3744221 -23.3625526  20.4686432
  26.6338272 -24.3635349  21.7524338  28.8412590 -24.5908260  21.5169563
  29.7028618 -23.8608284  21.4072590  28.8436508 -25.3368950  20.7058315
  29.2059498 -25.3482227  22.7879066  30.6215191 -25.8716679  22.7116699
  30.7175808 -26.6865330  21.9722099  30.9257679 -26.3210468  23.6539936
  31.3272266 -25.1102676  22.4015274  29.1882038 -24.5206051  24.0444355
  28.1544037 -24.0948277  24.1671982  29.8146801 -23.6436825  23.9324665
  29.5695019 -25.1973648  24.8039455  28.3091450 -26.5185165  22.8515129
  27.2670193 -26.1331387  23.0379086  28.6082630 -27.1488876  23.6591740
  28.3828526 -27.1109409  21.9324722  27.4481010 -20.2360935  23.0234127
  25.6262875 -21.3413410  21.6308041  28.7223988 -19.1066666  18.5649853
  29.1206722 -17.8377705  18.5545521  30.2495842 -17.4212608  18.7536316
  27.9497643 -16.9371014  18.2635307  27.0769157 -17.1691170  18.9345150
  28.2586937 -15.9075594  18.5946712  27.5130348 -16.9797440  16.7879944
  28.3690529 -16.9018593  16.0829239  26.9544239 -17.9551544  16.7026157
  26.5193558 -15.8737755  16.4090691  25.6062050 -15.8878050  17.0236320
  26.9216957 -14.8325539  16.4652596  25.9626274 -16.0361252  14.9653587
  25.5304451 -17.0504856  14.9306793  25.1499786 -15.3130627  14.7730865
  27.0393162 -16.0060005  13.8515854  27.5142841 -15.0271177  13.9044561
  27.8695984 -16.6857414  14.0960121  26.4394588 -16.1973915  12.4296722
  25.8362179 -17.1167355  12.4862680  25.6730576 -15.4509544  12.2594833
  27.4761677 -16.2620068  11.3817968  27.8946762 -15.2263460  11.3147688
  28.3551483 -16.8416252  11.6847992  26.9044857 -16.6028900  10.0178232
  26.4539909 -15.7429304   9.5011959  27.0320034 -17.7946243   9.4561377
  26.6181355 -17.9847450   8.4518757  27.6576252 -19.0058784  10.1286840
  27.9002094 -18.7875977  11.1580648  26.8827648 -19.8207569  10.1680775
  28.9750690 -19.4440594   9.4446592  28.7428932 -19.7733154   8.4047832
  29.7250576 -18.6566525   9.4093866  29.6110191 -20.6023197  10.2539196
  29.9264450 -20.1323681  11.1797619  28.8814354 -21.3675900  10.3930416
  30.8274002 -21.3847904   9.5886536  30.5530586 -21.7310505   8.6216822
  31.7105980 -20.7178879   9.3887157  31.3317719 -22.5647564  10.4064007
  31.6099262 -22.3257809  11.4109917  30.4654350 -23.2414932  10.5198755
  32.4886169 -23.3962555   9.7972956  33.2667961 -22.6774311   9.5716324
  32.9598160 -24.0777187  10.5216112  32.1068192 -24.1915607   8.5185642
  31.8725433 -23.4328003   7.7837543  32.9902306 -24.7029781   8.1657867
  30.8963661 -25.1626968   8.5311785  30.7272701 -25.6621246   7.5900483
  29.9384403 -24.6679287   8.7403469  31.0394287 -25.9282475   9.2796335
 -22.3960304  -7.5236664   3.5018802 -21.6763115  -8.3505297   3.5615401
 -21.8792553  -6.5345378   3.4169044 -22.9913254  -7.6599145   2.5771108
 -23.1986332  -7.5426478   4.7729034 -22.5436764  -7.1682315   5.6011887
 -23.5469246  -8.5404272   5.0645313 -24.3898468  -6.6037421   4.6709414
 -24.9608021  -6.6184092   5.5580373 -25.0887852  -6.9956141   3.8921413
 -24.0374031  -5.1778746   4.2172761 -23.4906654  -5.2308602   3.3350136
 -23.3376961  -4.8023753   4.9793477 -25.3310432  -4.2937641   3.9990282
 -25.8826637  -4.2668662   4.8948345 -25.9746723  -4.8056417   3.2398975
 -25.0181503  -2.8657792   3.5341082 -25.9233074  -2.3234055   3.3587108
 -24.5124226  -2.8949187   2.5655251 -24.1789627  -1.9384264   4.4930887
 -24.0691357  -0.9439517   4.0275078 -23.1969490  -2.4167500   4.5933213
 -24.7427731  -1.6188084   5.8995886 -24.8772125  -2.5827358   6.4426942
 -25.7090950  -1.1218956   5.7644038 -23.9180946  -0.6951147   6.7296357
 -24.4898720  -0.4053041   7.6205559 -23.6310596   0.1930527   6.0960393
 -22.5593033  -1.2607806   7.1268177 -22.0162125  -0.4696271   7.6349239
 -21.8924351  -1.4452196   6.2379069 -22.5964527  -2.6048732   7.9521770
 -21.5927143  -2.9342487   8.0329046 -23.2150764  -3.3979499   7.4742279
 -23.2090397  -2.3210769   9.3794613 -24.2169991  -1.9553380   9.3141441
 -22.6727753  -1.5089601   9.8887281 -23.2721901  -3.5782502  10.3135738
 -22.5198765  -4.2945476  10.1119289 -24.2124271  -4.1362386  10.1103306
 -23.0825882  -3.2481458  11.8332672 -22.1357517  -2.6619055  12.0442772
 -22.9571991  -4.1396341  12.4469099 -24.2467289  -2.4738467  12.4747887
 -25.2295036  -2.9111342  12.3209915 -24.3257790  -1.4558154  12.0704994
 -24.0557213  -2.3890362  13.9662733 -23.2908745  -1.6199428  14.5244455
 -24.8603134  -3.2093906  14.6357927 -24.7039337  -3.1907237  16.1238670
 -24.9693966  -2.1810760  16.4695702 -23.6768723  -3.4322190  16.3437214
 -25.6117611  -4.3059630  16.7477074 -26.6357307  -4.2156544  16.3657284
 -25.7176514  -4.0650549  18.2816734 -26.2471180  -3.1563470  18.4125824
 -24.7648354  -4.1775312  18.7602539 -26.5983047  -5.1279950  18.7682610
 -27.2825089  -5.0531654  20.2070522 -28.8044968  -4.7135997  19.8821678
 -29.1711121  -3.3824685  19.4571762 -28.6222439  -3.1113985  18.5519238
 -28.8963356  -2.6667044  20.1808262 -30.6627960  -3.4158812  19.2867584
 -31.0426235  -2.4456589  18.9762630 -31.1776466  -3.6760271  20.2355366
 -31.2193184  -4.3075643  18.2111359 -31.1372566  -5.7523279  18.6126938
 -30.1130753  -6.0748239  18.6014233 -31.7480259  -6.2894659  17.8460388
 -31.5473671  -5.8605809  19.6304226 -32.6503716  -3.8191223  18.0856323
 -32.6770172  -2.8149722  17.6662102 -33.0648422  -3.7410192  19.0746307
 -33.1772079  -4.5384879  17.4548550 -30.4930191  -4.1149383  16.9179287
 -30.6206131  -3.0825770  16.6433449 -30.9368992  -4.7474856  16.1782112
 -29.4574051  -4.4272566  17.0835609 -27.3118248  -6.4311867  20.8308983
 -26.7311077  -3.9449172  21.0589886 -25.0244541  -5.6486950  16.4787216
 -25.6828880  -6.4963431  15.6632090 -26.6901569  -6.2206864  15.0083265
 -25.0799980  -7.8768582  15.6303492 -25.0134449  -8.2190142  16.6792831
 -25.7910709  -8.6109915  15.1553459 -23.6417103  -7.9712467  15.0063038
 -22.9365902  -7.3424344  15.5041075 -23.2981110  -9.0321836  15.1495571
 -23.6351490  -7.6115322  13.5171022 -24.1032219  -6.6465230  13.3099642
 -22.5679569  -7.5704312  13.1591883 -24.2698975  -8.7652569  12.7115669
 -23.8709831  -9.6923752  13.0292978 -25.3474693  -8.8921642  12.9018364
 -23.9374275  -8.7765760  11.2178125 -22.9888363  -8.2708187  11.1138201
 -23.7221813  -9.8412333  10.9340115 -24.9760246  -8.1813869  10.2614584
 -25.8998566  -8.7725744  10.4662218 -25.2281876  -7.1609044  10.5044193
 -24.5460587  -8.3375072   8.8495874 -24.2811947  -9.3728390   8.7189484
 -25.3541107  -8.1041641   8.1777287 -23.2949543  -7.5318861   8.5764208
 -23.5451717  -6.4465055   8.5752802 -22.0634289  -7.9061871   8.2725449
 -21.3227940  -7.1328192   8.0135660 -21.5615654  -9.3180580   8.1166468
 -20.9932690  -9.7213068   8.9401045 -22.3612003 -10.0039301   7.7955079
 -20.5480289  -9.3840399   6.9674211 -21.0518761  -9.0244150   6.0460401
 -19.6961174  -8.6853867   7.1796851 -19.9577351 -10.8508291   6.7405248
 -19.6194572 -11.2388601   7.7115817 -20.7884960 -11.4719629   6.4376030
 -18.8324604 -11.0019102   5.7181449 -17.9193954 -10.6739655   6.1671805
 -18.6858311 -12.0171280   5.4667611 -18.9837227 -10.2125597   4.3918514
 -19.2387390  -9.1586313   4.5725164 -17.9958439 -10.0875816   3.8845870
 -19.9250870 -10.8396206   3.3621085 -19.6481152 -11.8808327   3.1785331
 -20.9502964 -10.7292309   3.7330518 -19.7741489 -10.0652075   2.0047076
 -19.8182373  -9.0233250   2.3290501 -18.8211708 -10.3243971   1.5912246
 -20.8894157 -10.3930845   0.9813917 -20.7456303  -9.7959490   0.0596620
 -21.8599892 -10.2467146   1.4351850 -20.8482819 -11.4050541   0.7209707
  -6.5904288 -29.4375801  -0.5888759  -7.5401616 -29.2537689  -1.0883819
  -6.8724022 -30.1996155   0.1596794  -5.9191899 -29.7446995  -1.3322084
  -6.0686646 -28.1757526   0.1366039  -6.8610601 -27.6803207   0.7189795
  -5.7396626 -27.4436855  -0.6172140  -4.9024897 -28.5009022   1.0781269
  -5.2397771 -29.2517643   1.8068014  -4.6125169 -27.5596714   1.5607266
  -3.6946192 -29.1135120   0.3891198  -3.2822073 -28.4642582  -0.3549305
  -3.9310503 -30.0414944  -0.1285622  -2.6206589 -29.3749886   1.4806186
  -2.4135792 -28.5080910   2.1139145  -3.0790558 -30.1315594   2.1088858
  -1.2243097 -29.8888512   0.9412268  -0.7085752 -29.1085796   0.3257281
  -1.3918881 -30.7639217   0.2821655  -0.1970645 -30.2143459   2.0720873
   0.0348857 -29.2933445   2.6227059   0.7554671 -30.4963341   1.5700176
  -0.5737457 -31.2811508   3.0900636  -0.9402988 -32.0872803   2.4842093
  -1.3840642 -30.9191132   3.7117372   0.6443906 -31.6984539   3.9721117
   0.8400857 -30.8837414   4.7139368   1.5095712 -31.8076687   3.3521404
   0.5936548 -33.0198441   4.6992531   1.5534258 -33.1902237   5.1969604
   0.4773717 -33.8533592   3.9727471  -0.4643660 -33.0347748   5.7857842
  -1.3900583 -33.0660706   5.1713333  -0.4419595 -32.1197357   6.3883905
  -0.3098253 -34.3240051   6.7256598   0.5804141 -34.2280426   7.3764901
  -0.0606986 -35.1660233   6.0459018  -1.5753478 -34.5039597   7.5787492
  -2.4423709 -34.7655067   7.0305538  -1.7347102 -33.4970818   8.0480566
  -1.4169483 -35.6064568   8.7025843  -0.7795262 -35.2017670   9.4889574
  -0.9370835 -36.4390411   8.2425470  -2.7844355 -36.2003365   9.2331877
  -3.0137360 -37.0687675   8.6261349  -3.5270188 -35.4408455   9.1288385
  -2.7749541 -36.6683540  10.6749077  -1.9551165 -37.3982849  11.1745558
  -3.7797294 -36.0597153  11.3533354  -3.8617136 -36.2482338  12.7486506
  -3.7579384 -37.3149033  12.9467411  -4.8727746 -35.9262314  13.0651283
  -2.7297268 -35.4357109  13.3860073  -1.7834638 -35.7917976  13.0378046
  -2.7926936 -35.6393242  14.9164162  -3.8234119 -35.6401863  15.2065468
  -2.1938279 -34.8025436  15.3727264  -2.1999612 -36.9568787  15.1497374
  -1.5960366 -37.3558922  16.5898228  -2.9145706 -37.3495178  17.5272503
  -4.0148458 -38.2730675  17.2806339  -3.5958734 -39.3147964  17.3852692
  -4.4152937 -38.1048203  16.2806911  -5.0935025 -38.0415535  18.3252354
  -5.8487792 -38.8182983  18.1227379  -5.6089849 -37.1017685  18.2354088
  -4.7133465 -38.0825348  19.8259048  -5.8744726 -38.5662422  20.6549435
  -6.6565890 -37.7956200  20.6568413  -5.6241589 -38.8601723  21.6360855
  -6.3792987 -39.3902130  20.1275654  -3.6166766 -39.0291672  20.1424713
  -2.6878760 -38.5830269  19.7097282  -3.8783596 -40.0726852  19.7675400
  -3.4914293 -39.0626602  21.2139397  -4.2733665 -36.7067795  20.3011436
  -3.3397052 -36.4245453  19.7052746  -4.0416713 -36.8658218  21.3870316
  -5.0396137 -35.9467964  20.1224136  -1.0839225 -38.7463417  16.5455914
  -0.7211919 -36.2350388  17.0101719  -2.8753290 -33.9983215  13.1564331
  -1.9285618 -33.3907623  12.4283781  -0.8283504 -33.8591461  12.0668602
  -2.3580062 -32.0314331  12.0663538  -2.9890702 -31.5889912  12.8813448
  -1.4606093 -31.4033108  11.9413757  -3.2205417 -32.0885353  10.7568884
  -2.7021031 -32.5348091   9.8757992  -4.0246305 -32.7964439  10.9872360
  -3.8372686 -30.6694393  10.3689203  -4.5499687 -30.7906551   9.5248032
  -4.3310957 -30.2584629  11.2553158  -2.6846311 -29.6623688  10.1136484
  -3.0670021 -28.6188107  10.0704594  -1.8946527 -29.7604637  10.8510485
  -2.0889797 -30.0809288   8.7663279  -1.9508500 -31.1286907   8.7016163
  -2.8745248 -29.7807293   7.9953523  -0.8037787 -29.2963696   8.3421850
  -0.6189501 -29.4568653   7.2749777  -0.9878492 -28.2317467   8.5395908
   0.3773666 -29.6555233   9.1678648   1.1834306 -28.9795666   8.7983875
   0.2352659 -29.5632477  10.2539387   0.7889100 -31.0794373   8.9417210
  -0.0154480 -31.8335361   8.9557552   1.9919689 -31.5688686   8.6992846
   2.1504266 -32.6454964   8.5076694   3.2853827 -30.7361889   8.7911654
   3.1190488 -29.7446632   9.2179956   3.9476743 -31.3119164   9.4554701
   4.0099840 -30.6065674   7.4354916   4.9960270 -30.2313824   7.6016998
   4.0968542 -31.5726357   6.9712253   3.3099284 -29.6325855   6.4354563
   2.2970796 -29.9595661   6.2607784   3.2268298 -28.6662960   6.8535590
   4.0236993 -29.5055771   5.0456614   5.0851007 -29.6981030   5.2291417
   3.7124631 -30.3141022   4.3712749   3.9806061 -28.1422062   4.3191047
   4.3482051 -27.3720837   4.9550972   4.6275582 -28.2061615   3.4073267
   2.5436471 -27.7511578   3.9145124   2.0968184 -28.4462910   3.1943443
   1.9818599 -27.7702522   4.8047185   2.4951062 -26.3555889   3.2946897
   2.9299116 -25.6028786   3.9388313   2.9838476 -26.3256435   2.3134458
   1.0382116 -25.9488506   3.0313637   0.9675770 -24.9127007   2.6330826
   0.4622521 -25.9841938   3.9501264   0.5768340 -26.4966049   2.2652092
   6.3980494 -25.9540730   1.3605725   6.2678580 -26.5978546   0.4641873
   5.5312834 -25.2710915   1.3716711   6.3885875 -26.5377216   2.3141160
   7.7579269 -25.2233982   1.2787849   7.7518945 -24.4484043   0.4888498
   8.5676537 -25.9244328   1.0425792   8.0676308 -24.5305710   2.6038942
   8.9820652 -23.9689808   2.3971720   8.3168249 -25.2680817   3.3328848
   6.9725180 -23.5533123   3.1275463   5.9734626 -23.9554195   3.0923247
   6.8879561 -22.7617626   2.3519919   7.3218641 -22.9817238   4.5369148
   7.5955606 -23.7562599   5.2933788   6.4192362 -22.4657154   4.8410959
   8.4913244 -22.0080986   4.5779099   8.3039207 -21.2997704   3.7731888
   9.4008017 -22.5878315   4.2826066   8.7538004 -21.3787937   5.9366899
   7.8438292 -20.9076424   6.2525077   9.5827446 -20.6635132   5.7666450
   9.1668835 -22.3864460   7.0353289  10.1121416 -22.8805466   6.7253633
   8.3466501 -23.1006031   7.0880899   9.4468355 -21.7115879   8.3772812
  10.3515902 -21.0679646   8.3323879   9.7282362 -22.5169411   9.0642939
   8.3544722 -20.9441681   9.0759115   8.1353674 -20.0880985   8.4974432
   8.6579533 -20.6378098  10.0930986   7.0635247 -21.7431622   9.2153959
   7.1640019 -22.5732422   9.9101658   6.7510562 -22.0911217   8.2634754
   6.0182238 -20.8081665   9.7891645   5.9900589 -19.9648666   9.1743069
   6.3237233 -20.4043808  10.7354107   4.6400204 -21.4087582  10.0049963
   4.4313221 -22.1150017   9.1684036   3.9521840 -20.5527115   9.8969078
   4.3590312 -22.1573238  11.3265858   4.8771234 -23.1297417  11.3593712
   3.2722282 -22.3740044  11.2333794   4.6417179 -21.2954407  12.5404129
   4.2127485 -20.2661781  12.3907528   5.7317872 -21.1325817  12.5879116
   4.1747513 -21.7745399  13.8907003   3.3315229 -21.1559277  14.4883175
   4.7001414 -22.9668808  14.3425465   4.0387502 -23.6680107  15.4799805
   3.0471139 -23.9719467  15.1887369   3.9418435 -22.9398327  16.3421783
   4.9280052 -24.8642559  15.9886255   4.4775290 -25.1722412  16.9364605
   6.3659711 -24.4595051  16.2283115   6.4298701 -23.4235382  16.5357819
   6.9677405 -24.6108608  15.3417158   6.8992281 -25.3352394  17.2383537
   7.0464621 -24.8735714  18.7733688   7.9899545 -26.0124493  19.3026657
   7.6256914 -27.3521118  19.5630817   7.5402827 -27.9042721  18.6987514
   6.5806413 -27.2573395  19.9531898   8.4916458 -28.0266228  20.6433945
   8.1723700 -29.1005802  20.8066158   8.4350500 -27.5460320  21.6312046
   9.9913826 -28.1490231  20.3410835  10.6540146 -26.8477650  20.5139618
   9.9958544 -26.1091976  20.0159740  11.5704937 -26.9407673  19.9274979
  10.7809057 -26.6166668  21.5830212  10.5597258 -29.1279392  21.3464451
   9.9879704 -30.0701504  21.2161331  10.5222340 -28.7195187  22.3445778
  11.6831598 -29.1904240  21.0645142  10.1406374 -28.5981789  18.9050350
   9.6078091 -29.5142632  18.7254581  11.1940203 -28.7145233  18.7558651
   9.7815409 -27.8124409  18.3015289   7.7930079 -23.5933323  18.7748947
   5.7467718 -24.9375248  19.4958153   4.9409285 -25.9888287  15.0538864
   3.7874424 -26.6678734  14.9809513   2.7739980 -26.4226551  15.6325397
   3.7977152 -27.8193474  13.9932432   4.7320313 -27.8395557  13.3865948
   3.7292614 -28.8383598  14.3927851   2.6085577 -27.6210232  13.0141554
   2.6755402 -28.4956665  12.3450127   1.6042172 -27.6583309  13.4344521
   2.7474096 -26.3418217  12.1767387   2.3086021 -25.4725819  12.7165470
   3.8293400 -26.1582642  12.0969667   2.0599878 -26.4531784  10.7990875
   2.6311648 -27.1806164  10.1994505   1.0528202 -26.7372990  10.8045197
   2.1619422 -25.1145458  10.0720358   1.4943023 -24.3971062  10.4962120
   3.1882677 -24.7430210  10.1381502   1.7972773 -25.2223186   8.6051483
   2.5146625 -25.9165936   8.1773500   0.7834446 -25.6721478   8.5196362
   1.8127675 -23.9752598   7.7117567   1.3142848 -24.2878265   6.7690134
   1.2196465 -23.1889515   8.1574545   3.1958303 -23.4726353   7.3906941
   4.0203581 -23.7578888   8.0040245   3.4915626 -22.7792168   6.3063927
   4.5459495 -22.5546494   6.1004477   2.5374894 -22.1970825   5.2624187
   1.5355890 -22.6879768   5.4280453   2.4209256 -21.1272888   5.4227452
   3.1073115 -22.4723530   3.8238475   4.0443020 -21.9551964   3.6582217
   3.3255589 -23.5429420   3.7501476   2.0593576 -22.0733166   2.7384064
   1.1707969 -22.6502075   2.9604018   1.9144148 -21.0184650   2.8818963
   2.4921963 -22.2328224   1.2705470   2.9361894 -23.2406807   1.1422068
   1.6575577 -22.2315483   0.6177758   3.4412556 -21.1063652   0.8056930
   3.1966166 -20.1725941   1.3342046   4.4504495 -21.2575893   1.1231030
   3.4385166 -20.9607582  -0.7168094   3.6197739 -21.9239216  -1.2283946
   2.3879406 -20.7079926  -0.9383420   4.3623643 -19.8523750  -1.2199619
   4.1116724 -18.9463177  -0.6874835   5.3704877 -20.1631260  -0.9509630
   4.2576962 -19.6701298  -2.7709162   5.0464864 -19.0602474  -3.1878545
   3.3282819 -19.1412621  -3.0096724   4.3116822 -20.5908279  -3.3138623
 -21.0834293  -0.7853065  -2.0982959 -21.6154461  -0.7704837  -3.0074141
 -20.5374222  -1.7021632  -1.9666785 -20.2924328  -0.0227164  -2.0665967
 -21.9703140  -0.4746666  -0.8408818 -22.6362076  -1.3604243  -0.7222330
 -22.5988293   0.3668907  -1.0893604 -21.2215595  -0.2439864   0.4692496
 -20.6877823   0.7156324   0.2407044 -20.5041485  -1.0312442   0.6671944
 -22.1704788  -0.0117352   1.6865957 -22.6739483  -0.8978426   1.9467392
 -22.9650917   0.7013538   1.4843349 -21.3136368   0.2971558   2.9505680
 -20.4709740  -0.4244793   2.9289474 -21.8786507   0.0776264   3.8635650
 -20.7662315   1.6990710   2.9497111 -21.5759106   2.4004922   3.2109742
 -20.2873077   1.9644409   2.0003099 -19.6907692   1.8723618   4.0979996
 -18.9567204   1.0856987   3.9330802 -20.2514915   1.6942166   4.9974422
 -19.0777054   3.3020165   4.1782503 -18.6380348   3.4743693   3.1823733
 -18.2290306   3.3252776   4.8349566 -20.1084499   4.3987613   4.4987588
 -20.9096909   4.3812852   3.7566183 -19.5964947   5.3607650   4.3615303
 -20.6651764   4.3725114   5.9321828 -21.2291603   3.4441533   6.0377545
 -21.3637581   5.1863317   5.9275942 -19.6990471   4.4185729   7.1731682
 -20.2828827   4.8671207   7.9730778 -18.8707428   5.0522475   6.9589925
 -19.1666603   3.0823567   7.6782842 -18.5378036   2.6815729   6.8775630
 -19.9761372   2.3930030   7.8619986 -18.2285919   3.1067286   8.9279499
 -17.4211426   3.8331630   8.7689257 -17.8164749   2.1138234   8.9992781
 -19.0109425   3.5414360  10.1552877 -19.7297077   2.7563145  10.3756514
 -19.5873985   4.4439144   9.8746033 -18.2418804   3.8756347  11.4258308
 -17.4818974   4.6282272  11.2200680 -17.7561245   3.0278258  11.8778410
 -19.2819710   4.3943019  12.4038544 -20.0811100   3.7158110  13.0531521
 -19.2664719   5.7617950  12.4110813 -20.4203587   6.4332223  12.8976650
 -20.0208664   7.3402305  13.3937063 -20.9384518   5.8553033  13.6403990
 -21.3220482   6.8871670  11.7119904 -20.6123066   7.2558208  10.9287510
 -22.3797150   7.9312963  12.1668873 -23.0624371   8.1647081  11.3399620
 -21.8467636   8.8565674  12.4206495 -23.1471062   7.5052671  13.3223839
 -23.0692482   8.3414259  14.7148914 -24.1862526   9.5155048  14.5181694
 -25.5813904   9.2107496  14.5120640 -25.8360500   8.3880978  15.2063789
 -25.8032780   8.8337727  13.4729404 -26.4074593  10.4698620  14.8163643
 -27.4397182  10.1371374  14.6718493 -26.1193504  11.2689743  14.2046251
 -26.3410873  10.9496059  16.2511559 -24.9688129  11.4168663  16.5997982
 -24.2581921  10.6228695  16.2978115 -24.8786907  11.5280714  17.6852398
 -24.7089119  12.2997866  16.0447903 -27.3073788  12.0553894  16.3742638
 -28.3223076  11.7244196  16.0030117 -27.0483379  12.9164791  15.7319870
 -27.3485680  12.3438978  17.4013634 -26.7925434   9.8917933  17.1909885
 -27.8027172   9.6381016  17.0009422 -26.6910439  10.1891747  18.2631111
 -26.1980991   8.9863167  17.0480690 -23.3913918   7.3477769  15.7946215
 -21.7139721   8.9413004  14.7619638 -21.9566956   5.6929231  11.1181278
 -22.4779911   5.8325891   9.9026337 -22.4079399   6.8915653   9.2774019
 -23.1083603   4.5492754   9.3908739 -22.2848415   3.8826289   9.1502790
 -23.6939545   4.0464315  10.1799259 -23.9857769   4.6564894   8.1261387
 -24.7654190   5.4279623   8.3489790 -23.3724899   5.0506253   7.2754865
 -24.5818882   3.3519778   7.6797171 -23.8285332   2.6055219   7.5258403
 -25.3304672   3.0388572   8.4024582 -25.3107491   3.4170153   6.3464665
 -25.7778263   2.4324105   6.2265563 -26.0430565   4.1522546   6.3549466
 -24.4045048   3.6762598   5.1444058 -23.8489895   4.5926971   5.3071303
 -23.6396961   2.8714416   5.0665278 -25.1578426   3.7648449   3.8090899
 -25.6155396   2.7906454   3.6578968 -25.9967060   4.5015497   3.8551476
 -24.3187370   4.0886636   2.5260947 -23.5325317   3.3843904   2.4301233
 -24.9585705   4.0434189   1.5990429 -23.6771374   5.4806356   2.7089250
 -24.1713543   6.0594463   3.4934046 -22.5972157   5.9383559   2.0521290
 -22.2350807   6.9201393   2.3181813 -21.9212418   5.2741652   0.8867704
 -21.1672096   4.6141376   1.2218821 -22.6272755   4.6866527   0.2996266
 -21.3713627   6.3535261  -0.0091053 -22.2346420   6.8986244  -0.4203622
 -20.8060436   7.0789981   0.5840883 -20.5408459   5.7357335  -1.1784580
 -19.5960255   5.2744632  -0.8141083 -21.1347771   4.9626617  -1.7136445
 -20.0638790   6.8205113  -2.2173319 -20.9461689   7.2510576  -2.6323483
 -19.4654198   7.5754480  -1.6210170 -19.2006054   6.2101130  -3.3563874
 -18.3491364   5.7850475  -2.8384769 -19.7765846   5.4025416  -3.8506517
 -18.7521381   7.3111696  -4.3308682 -19.6164627   7.8735213  -4.7144356
 -18.0643063   8.0256824  -3.8871298 -18.0037746   6.5987329  -5.5058603
 -18.6688652   5.8811669  -6.0590706 -17.5949879   7.3337893  -6.2481050
 -16.7611103   5.8540082  -4.9761696 -16.1404762   5.4923325  -5.8003545
 -17.0512848   4.9213958  -4.4437599 -16.2102680   6.5939350  -4.3575315
  -8.7648239 -30.5423069   2.9869580  -8.3136024 -30.9509754   2.0775979
  -8.5659666 -31.3178806   3.6931918  -8.1643305 -29.6587276   3.3147266
 -10.2259436 -30.2850742   2.6961732 -10.6966772 -31.2037830   2.2582800
 -10.3819656 -29.4539719   2.0257671 -10.9783468 -29.8966618   4.0063734
 -12.0123997 -29.5862675   3.8129005 -10.5953693 -28.9748116   4.3978109
 -11.1096907 -30.9999638   5.1090140 -10.2015200 -31.6099930   5.2250381
 -11.9399090 -31.6669312   4.8461008 -11.3767424 -30.2802830   6.4330077
 -12.3675747 -29.7674065   6.3934832 -10.6622019 -29.5073128   6.6377707
 -11.4784670 -31.2880497   7.6275644 -11.7930641 -30.7369499   8.5662947
 -10.5019474 -31.7429447   7.7456326 -12.5640860 -32.3696518   7.3906178
 -12.3069181 -32.9377136   6.4788074 -13.5583487 -31.8910313   7.1571450
 -12.6938858 -33.3498116   8.6159267 -13.5546293 -34.0093575   8.5233650
 -12.9406490 -32.7794685   9.4774055 -11.4498062 -34.2394218   8.8486853
 -10.5652323 -33.6311035   8.8005934 -11.4118671 -35.0042801   8.0398579
 -11.3160152 -34.9952431  10.1816320 -10.8740997 -35.9194527   9.8809023
 -12.3259172 -35.2798157  10.5508566 -10.5804548 -34.3330421  11.3662376
 -10.6908817 -35.0152016  12.2192421 -11.0358896 -33.3635483  11.6223536
  -9.0381470 -34.2308273  11.1381731  -8.8015442 -33.5067635  10.3678761
  -8.6222372 -35.2069511  10.8781519  -8.3317156 -33.8098488  12.4189653
  -8.4932098 -34.5437546  13.1949949  -8.8579016 -32.9161224  12.7386379
  -6.7897744 -33.5394592  12.2097292  -6.6654520 -32.6479187  11.5506067
  -6.3845491 -34.4062462  11.6706953  -6.0286784 -33.2426605  13.5507345
  -5.0165129 -32.8824310  13.3667040  -6.0449705 -34.2051163  14.1507683
  -6.7002177 -32.2436829  14.4638634  -6.8584833 -31.0479736  14.2421293
  -7.0086713 -32.8047295  15.6606693  -7.8110213 -32.0194550  16.6365356
  -7.4065924 -31.0188522  16.7900486  -7.6869068 -32.5041809  17.5574512
  -9.3496113 -32.0742188  16.3380737  -9.8251972 -31.3311882  16.9628086
  -9.9100637 -33.4587708  16.6537743  -9.0493793 -34.0893288  16.9068851
 -10.4172792 -33.8796997  15.7576580 -10.8822212 -33.4911232  17.7527122
 -10.4120874 -33.2338104  19.2751007 -10.4565039 -31.6103725  19.3152847
 -11.7574463 -30.9351196  19.2371979 -11.9893160 -30.7620792  20.2509499
 -12.4304628 -31.7292423  18.8410053 -11.7089939 -29.6233101  18.4583683
 -12.7094641 -29.2649174  18.4055614 -11.4918413 -29.8163795  17.4096031
 -10.8248158 -28.5239296  19.0187626 -11.0856247 -28.2161732  20.4349632
 -12.1382713 -28.0262928  20.5853939 -10.4944725 -27.3379536  20.7100964
 -10.8194256 -29.0939503  21.0401745  -9.3373117 -28.8248425  18.8432503
  -8.9767895 -28.5442352  17.8727646  -9.2277555 -29.8949127  19.0587883
  -8.8125525 -28.1707420  19.5755005 -11.1289883 -27.3156376  18.2570248
 -10.9465122 -27.5230713  17.1640739 -10.4275150 -26.5603848  18.5759926
 -12.1341467 -26.9757442  18.4455605 -11.4523945 -33.7936859  20.1954498
  -8.9833698 -33.6282005  19.4441586  -9.5902910 -31.7087402  14.9412842
  -9.9547977 -30.4401665  14.6619501 -10.3880272 -29.5988560  15.4339495
  -9.8439379 -30.1200867  13.2288513  -8.9346781 -30.6750336  12.9156647
 -10.6723547 -30.5972462  12.6630535  -9.6745672 -28.6407166  12.8831635
 -10.6006517 -28.1133289  13.0849781  -8.8355169 -28.1954556  13.3825121
  -9.4878759 -28.3864632  11.3805628 -10.3655109 -28.6979465  10.8571873
  -9.4066849 -27.3305016  11.1510963  -8.3295784 -29.1789722  10.7287893
  -7.3897419 -28.9184494  11.2109842  -8.5748806 -30.1805477  10.8590813
  -8.2133684 -28.7493916   9.2505322  -9.1925468 -28.9159565   8.8062582
  -7.9630308 -27.6884556   9.1512022  -7.0996566 -29.4285946   8.4519587
  -6.8829918 -28.8571453   7.5854330  -6.2222462 -29.4549980   9.1089830
  -7.4504194 -30.8736610   8.0475473  -7.5939484 -31.4907360   8.9307079
  -8.3805075 -30.8546848   7.5036378  -6.3961239 -31.4863396   7.1554489
  -6.1454983 -30.9371834   6.2485938  -5.5918703 -32.5689087   7.3422604
  -4.9406576 -32.8695488   6.5408373  -5.6599612 -33.4926300   8.5047531
  -4.6657457 -33.6622849   8.9562778  -6.3029156 -33.1652565   9.3557043
  -6.1652203 -34.8968506   8.1105213  -5.5246978 -35.3136444   7.3689823
  -6.1321335 -35.5219269   9.0365620  -7.5998230 -35.0434341   7.6226258
  -8.3458729 -34.6573792   8.2768784  -7.6317215 -34.3716774   6.7527957
  -7.9944730 -36.4371490   7.1187167  -7.3871751 -36.6491394   6.2625513
  -7.7017522 -37.2414322   7.7846599  -9.5026073 -36.5689354   6.7713404
  -9.6802025 -37.5171127   6.2469764 -10.0373888 -36.5805893   7.7048330
  -9.9586973 -35.4710426   5.8100901 -11.0009966 -35.5549316   5.6213675
  -9.6993847 -34.5173836   6.2301302  -9.2190132 -35.5893478   4.4552412
  -8.1140862 -35.4587250   4.6321936  -9.3841066 -36.5709000   4.0031633
  -9.5637207 -34.5085373   3.4309151 -10.5702982 -34.6880264   3.0551338
  -8.8647728 -34.5165901   2.5707414  -9.4918156 -33.5473557   3.8897433
 -18.1298790  15.8511753   1.0850891 -17.7652779  16.5972004   0.4337045
 -17.8818893  16.1600094   2.1008496 -19.2110119  15.7903194   1.0770171
 -17.6024933  14.4626226   0.6942547 -16.5659618  14.5333853   0.5135121
 -18.0986080  14.1556940  -0.2424648 -17.7950077  13.4471807   1.7819399
 -17.4267845  12.4495897   1.3767649 -18.8720207  13.2927094   1.9289422
 -17.2140579  13.6841106   3.2029650 -17.6046047  12.9215069   3.8834383
 -17.5109787  14.6679821   3.6266229 -15.6891842  13.5457172   3.3231485
 -15.2388754  14.2854509   2.6680241 -15.3513098  12.5727034   2.9526198
 -15.3036404  13.7687798   4.8649378 -15.6647587  14.7488613   5.1345735
 -14.2140789  13.7785234   4.9345641 -15.7961702  12.6868773   5.7649431
 -15.4682369  11.7030487   5.4687262 -16.8908424  12.7443600   5.7460904
 -15.2601328  12.9250097   7.1712823 -15.4059687  13.8910246   7.6197605
 -14.2123470  12.7355633   7.1851964 -15.8994045  11.8560114   8.0403748
 -15.5257721  10.8408251   7.7920480 -16.9496956  11.9280252   7.7397490
 -15.8534803  12.1283674   9.5863428 -16.7588959  11.6388083   9.9885216
 -15.9099197  13.1677856   9.8135786 -14.6182632  11.5187016  10.2128410
 -13.7784376  12.1361275   9.9045410 -14.4777927  10.5995741   9.6013632
 -14.6939650  11.1892948  11.7210865 -13.7996960  10.5819035  11.9384289
 -15.5666866  10.6276884  11.9340429 -14.6625767  12.5068531  12.4947090
 -15.4816437  13.2164297  12.1958294 -13.7386465  13.0764885  12.2750893
 -14.7991409  12.2038507  14.0433416 -14.0779982  11.3840857  14.3864269
 -15.8806314  11.8560362  14.2089043 -14.5597067  13.3609619  15.0006952
 -13.5393705  13.6831589  14.9396000 -14.6321630  12.9758635  16.0486908
 -15.4757967  14.5644999  14.8319616 -15.1570501  15.7120342  14.8066130
 -16.7392426  14.1975393  14.7573395 -17.8514271  15.1580915  14.7479963
 -17.9527798  15.5270023  13.7311068 -17.6586952  16.0334797  15.3844776
 -19.1277332  14.4523039  15.1817522 -19.9743881  15.0645819  14.8561106
 -19.2079678  14.2690430  16.7104034 -20.0822620  13.6121502  16.9884148
 -19.2585564  15.2627239  17.1945915 -17.9849987  13.6458683  17.2465439
 -17.9825935  12.9903698  18.6845722 -18.1893635  11.4288235  18.2858448
 -19.5169659  10.9809313  17.9057312 -19.8796940  11.6679802  17.0857220
 -20.2325821  11.0901508  18.7305145 -19.4786625   9.4819307  17.4267616
 -20.4536133   9.2273293  17.0096188 -19.3129807   8.8218136  18.3030758
 -18.4734421   9.1572771  16.3798981 -17.0502033   9.2063828  16.8381214
 -16.7620029  10.2194328  17.0232506 -16.4024696   8.8762407  16.0501842
 -16.9463615   8.5266228  17.6602707 -18.7834435   7.8066692  15.9530277
 -19.8004436   7.7767940  15.5185356 -18.6536369   7.1486115  16.8162270
 -18.0383682   7.6342392  15.2086344 -18.6221466   9.9778872  15.1318159
 -19.6481724   9.8443651  14.7936649 -17.8848419   9.6213703  14.3768349
 -18.3831024  10.9912071  15.3867331 -16.6179237  13.1601534  19.2784367
 -19.1481075  13.4739494  19.4805145 -19.1665726  13.1082430  14.5533323
 -19.5181484  13.0747023  13.2096634 -19.9253712  14.0480909  12.5973854
 -19.3187122  11.7500172  12.5216389 -18.2483444  11.4925785  12.5735273
 -19.8276253  11.0637999  13.1742277 -19.8325939  11.6135159  11.0984983
 -20.8963795  11.7261801  11.1772728 -19.4351273  12.3974886  10.4588785
 -19.5062675  10.2276793  10.5648670 -18.4439297  10.2133894  10.3843832
 -19.6863155   9.4627018  11.3650503 -20.2099972   9.7052755   9.2718229
 -19.8581047   8.6730280   9.1207972 -21.2920761   9.5488558   9.4865284
 -20.0351429  10.6099081   8.0668268 -20.4822636  11.6066837   8.2360640
 -18.9847679  10.7404890   7.8299437 -20.6142540   9.9943438   6.8130550
 -20.0650826   9.1415749   6.5156646 -21.6767902   9.7547455   6.9751620
 -20.5387573  10.9720840   5.6259995 -19.5113659  11.2854338   5.3922153
 -20.8583431  10.4332399   4.7468643 -21.4070740  12.1527405   5.9600234
 -22.4463444  11.9931831   5.8252926 -21.0096264  13.4204197   6.2054925
 -21.6684246  14.2275000   6.2848549 -19.5944099  13.8380756   6.4168353
 -18.8499260  13.0650902   6.5488620 -19.2988586  14.4440365   5.6296058
 -19.4077129  14.7078886   7.6751733 -20.2890110  15.2533712   8.0070038
 -19.1897850  14.0141001   8.5121365 -18.1344604  15.6779776   7.5941448
 -17.8565979  15.9936619   8.5559673 -17.3159237  15.2081223   7.0863395
 -18.4511833  17.0185642   6.8042350 -18.8762226  16.8000965   5.8322735
 -19.2590485  17.5229874   7.3586140 -17.2264214  17.9513664   6.7344928
 -17.1444569  18.5265503   7.6593218 -16.3123055  17.3788338   6.5848045
 -17.4246540  18.8958626   5.5139298 -18.2890873  19.6065826   5.6336141
 -16.5245056  19.5360870   5.4775724 -17.5619221  18.2951050   4.1227508
 -16.7617302  17.5667591   3.8686690 -18.5166397  17.7567081   4.0048018
 -17.5053291  19.3726883   3.0411367 -17.6742706  18.9439735   2.0365689
 -16.5455723  19.8686371   2.9581616 -18.2604179  20.1351166   3.1981504
  10.4961863 -32.8106537  -0.2214153   9.7918081 -33.5941467  -0.4619834
  11.5199175 -33.0601807  -0.5430511  10.1985540 -31.8910046  -0.7240986
  10.4988594 -32.5525627   1.3251452  10.7765150 -33.5301437   1.7979217
   9.5511255 -32.1504135   1.6683989  11.6272154 -31.5860939   1.7148380
  11.3511362 -30.6395168   1.1393545  12.5275898 -32.0818443   1.2821157
  11.8127346 -31.1987476   3.2115903  12.5216856 -30.3690243   3.3111761
  12.2695780 -32.0480804   3.7632000  10.4732075 -30.8532314   3.8854384
   9.8793373 -31.7389107   4.0234098   9.8980436 -30.1853733   3.2316256
  10.7354412 -30.1327801   5.2410183  11.2985334 -29.2260342   5.0610046
  11.4691830 -30.8047276   5.7888031   9.4621220 -29.7549744   6.0681653
   9.8005781 -29.5864296   7.0491958   8.7129622 -30.5780773   6.1293001
   8.8316555 -28.4469128   5.6306787   8.3113537 -28.6072330   4.7016616
   9.5101910 -27.6471157   5.4537420   7.8116159 -27.9164410   6.7085981
   8.2993917 -27.8674698   7.6392913   7.0414472 -28.6578102   6.7421441
   7.2025738 -26.5298691   6.3651896   6.7123175 -26.6818314   5.4060407
   8.0279379 -25.8122520   6.2889123   6.2843771 -25.9574490   7.4684815
   5.4028521 -26.5918999   7.5138197   5.9912686 -24.9239388   7.2181077
   6.9030046 -25.9210491   8.8992825   6.6897063 -24.9648647   9.3046741
   7.9708200 -25.9835720   8.8484707   6.3737302 -27.0839806   9.7561855
   6.3427310 -27.9773121   9.0856113   5.3763351 -26.8327370  10.1418009
   7.1372290 -27.4361324  11.0487509   8.1856899 -27.5416451  10.8522377
   6.7553444 -28.3827572  11.4617767   6.9704494 -26.3227386  12.1575298
   5.9452295 -26.2416821  12.3599634   7.2957516 -25.4080181  11.7124891
   7.6980300 -26.6611404  13.4103546   8.5803261 -25.9773808  13.8732138
   7.2426348 -27.8211422  13.9183941   7.6613278 -28.3741360  15.2112808
   7.2190328 -27.8902435  16.1356506   8.7329569 -28.1758194  15.3709373
   7.3980198 -29.9097252  15.2931156   6.3695831 -30.1532440  15.4902573
   8.0389557 -30.5740566  16.5176811   9.1066113 -30.3549805  16.3804741
   7.9425626 -31.6617184  16.4632397   7.5226407 -30.1077061  17.7982349
   5.9765906 -30.4621220  18.2551174   5.7993884 -32.0202332  17.7328472
   6.1516643 -33.1809196  18.5191536   5.4430208 -33.1601562  19.2880383
   7.1940165 -33.0525398  18.8197021   6.0488362 -34.4845772  17.6346436
   6.1056228 -35.3360672  18.3444424   6.8755198 -34.5333214  16.9060516
   4.7927542 -34.6985474  16.8446350   4.5320506 -33.6146469  15.7727804
   4.2767224 -32.6369934  16.2694530   3.7752030 -33.9788055  15.1240244
   5.5389595 -33.4702454  15.3082285   4.8559546 -35.9775505  16.0841389
   4.9406385 -36.7433891  16.8366299   5.7870011 -36.0021248  15.4614305
   3.9857998 -36.0473709  15.4524279   3.5958600 -34.7014542  17.7484245
   3.6940672 -35.5368271  18.4596157   2.6826754 -34.8310966  17.1522007
   3.5881176 -33.7804489  18.3398685   5.9044294 -30.4524269  19.7197990
   5.0348959 -29.5795040  17.5167255   7.8570485 -30.5402203  14.0958300
   7.0101447 -30.7705669  13.0427227   5.8044071 -30.7048206  13.1883659
   7.7068620 -31.0576420  11.7800894   8.3377571 -30.2011147  11.5337191
   8.4482651 -31.8880692  11.8957710   6.8341250 -31.4588070  10.6164541
   6.3067532 -32.3470001  10.8889189   5.9895372 -30.7407455  10.3880396
   7.5443335 -31.7115421   9.2820730   6.7898793 -31.9815559   8.5443420
   8.0627193 -30.7940655   8.9281635   8.5999584 -32.8606606   9.3529005
   9.4558630 -32.4530678   9.9459696   8.1714554 -33.7458267   9.8481951
   9.1127815 -33.2007828   7.9464722   9.3572855 -32.3136101   7.4430966
  10.0254173 -33.8403435   8.0367889   8.1049995 -34.0021667   7.0946522
   7.8425579 -34.9139633   7.5993652   7.2078867 -33.4009857   6.9673305
   8.6596441 -34.3204956   5.7214804   9.0013876 -33.4083214   5.2564869
   9.5280638 -34.9124451   5.9012480   7.7355194 -35.1088142   4.8107710
   7.9215488 -36.1753769   4.7628350   6.7189293 -34.6126213   4.0699878
   6.2459230 -35.2892075   3.4118450   6.2009392 -33.1622238   4.0055337
   5.0994210 -33.2030449   3.9726481   6.4900417 -32.6463089   4.8919516
   6.7412019 -32.4094238   2.7694309   7.8271217 -32.4910698   2.8065145
   6.4399176 -32.9001884   1.8753039   6.3553901 -30.9016018   2.7376895
   5.2486033 -30.8275604   2.5931134   6.6457410 -30.5186825   3.7341647
   7.1084747 -30.0805302   1.6762589   6.8076797 -29.0288162   1.8359461
   8.1879082 -30.1797714   1.8777959   6.8011231 -30.6081676   0.2688444
   6.9377546 -31.6535358   0.3091356   5.7682333 -30.4801865   0.0283065
   7.7852273 -30.0861206  -0.8225172   8.8513641 -30.1595154  -0.5206419
   7.6237435 -30.6846848  -1.7438757   7.6477075 -28.6156940  -1.2626289
   6.5665178 -28.4727459  -1.4584631   7.8411365 -28.0057430  -0.4290509
   8.5167303 -28.1161766  -2.4697556   8.3309307 -27.0642681  -2.6809821
   8.2916679 -28.7022228  -3.3916130   9.5265083 -28.2709770  -2.2140334
  23.2104130   5.7174110   1.8711734  24.0876846   5.8896112   1.2791942
  23.1869411   4.6218548   1.9791602  23.3161774   6.1930652   2.8472433
  22.0463009   6.3796053   1.1081127  21.8130894   5.9330945   0.1106116
  22.4135418   7.3964190   0.8955893  20.8012428   6.4801855   2.0101383
  20.0091648   7.0076370   1.5190803  21.0679989   7.1810341   2.8559332
  20.1971226   5.1575451   2.5698831  20.9734612   4.3626800   2.6571050
  19.4299011   4.7890682   1.8774452  19.5279675   5.2425022   3.9526591
  18.6567612   5.8696489   3.8363626  20.2167683   5.7670841   4.6399012
  19.1205788   3.8975141   4.5740705  19.8343449   3.0728757   4.3949919
  18.1889648   3.6532507   4.0322542  18.7277584   4.1000242   6.0917659
  18.0510635   3.3015375   6.4232931  18.1779346   5.0659294   6.2116747
  19.9359169   4.1574869   7.0125175  20.6904774   4.7807150   6.5052443
  20.4941845   3.2350683   7.0015578  19.6633778   4.6019754   8.4429531
  18.8771896   3.9597454   8.7762527  19.3399944   5.6572204   8.3894434
  20.8634586   4.5258207   9.4573479  21.6409321   5.1455574   9.0306807
  21.2802296   3.5111313   9.3065605  20.6281071   4.8672872  10.9570560
  20.1421814   5.8431296  11.0263405  21.5751743   4.9864569  11.4942493
  19.7603245   3.8482680  11.6991243  18.7403736   3.9943991  11.3507833
  19.7563400   4.0795512  12.7914715  20.1220226   2.3747256  11.5408792
  19.9894104   2.0597217  10.5107107  19.4516239   1.8328439  12.1848984
  21.5416145   2.0769930  11.9618502  22.2486801   2.6262503  11.3815594
  21.7178650   1.0475974  11.7781448  21.8329411   2.3611596  13.4137154
  21.1151485   1.7845851  13.9588261  21.7363911   3.3916185  13.7353315
  23.2331295   1.9359636  13.7347898  24.1665649   2.0506313  12.9451666
  23.3770409   1.3946717  14.9764452  24.7460480   1.0254631  15.3500862
  25.3709774   0.8020997  14.4840012  24.7570210   0.1883501  16.0556488
  25.4650326   2.1899800  16.1165237  26.5565224   1.9906404  16.0710945
  25.1311970   2.2869356  17.6387787  25.5197716   3.2135096  18.0054150
  25.6726246   1.4820880  18.1506443  23.7364292   2.3051991  18.0017281
  23.2286682   2.9157510  19.4027863  23.0010414   4.4968662  19.1065769
  21.7380161   4.8747940  18.4923134  20.8722095   4.6405215  19.0918369
  21.5428638   4.4045453  17.5232334  21.7431297   6.4225345  18.1778374
  21.8617249   6.9451151  19.1423855  20.8117466   6.6647205  17.7045650
  22.7696724   6.9534535  17.1985321  22.9487782   5.9079075  16.0729237
  23.4131794   5.0274286  16.4714890  23.5711498   6.3427119  15.2879858
  21.9533958   5.6524844  15.6058493  22.3142796   8.2304201  16.6533413
  22.0302868   8.7704153  17.5185604  21.4726238   8.0463619  15.9684372
  23.1664104   8.6769857  16.0776920  24.1110401   7.1861930  17.8527222
  24.0065880   7.8218369  18.7241383  24.8519306   7.5784736  17.1194611
  24.3918724   6.1695533  18.2123604  21.9304390   2.3103507  19.7221642
  24.3129005   2.8285291  20.3835468  25.3132915   3.5478079  15.5783710
  26.1832161   3.9556251  14.6673870  27.0606422   3.2992520  14.1740952
  25.9079056   5.3851471  14.3081846  25.5392246   5.9271402  15.1586828
  26.8255520   5.8279610  13.9276686  24.8520851   5.4818659  13.1745100
  23.9905148   4.8128586  13.3696928  24.5788937   6.5481706  13.0277576
  25.3748131   5.0913405  11.7679253  26.1760120   5.8633876  11.6217575
  25.8440208   4.1182618  11.7453852  24.2089291   5.1540308  10.7743254
  23.5274429   4.3415437  10.9442730  23.5422173   6.0349579  10.9178848
  24.7433205   5.1304574   9.3333168  23.9259739   5.3940291   8.6319742
  25.4621525   5.9155493   9.1298714  25.3382988   3.7504866   8.9117451
  25.8005562   3.8541925   7.9215665  26.1761112   3.4932184   9.5990286
  24.2147865   2.6470685   8.9215851  24.0419178   2.3053377   9.9292765
  23.2637672   3.0374644   8.4975338  24.7625351   1.4985024   8.0855799
  25.5624943   0.9342772   8.5391235  24.2986755   1.1677681   6.8983126
  24.7389202   0.2975691   6.4094729  23.1613274   1.8639027   6.1477613
  22.2955322   1.9590772   6.8370466  23.4432392   2.8787661   5.9259696
  22.7911644   1.0791065   4.8769431  22.0491600   1.6085522   4.3665924
  23.5872822   0.8570298   4.1785965  22.1935673  -0.2485132   5.2762918
  22.7744789  -0.7354575   6.0074229  21.1849670  -0.0882840   5.6563063
  22.0846462  -1.1576875   4.0889878  21.3404770  -1.9044092   4.3608222
  21.7522984  -0.6473714   3.2013438  23.3766403  -1.9113094   3.8536482
  24.1601086  -1.2010047   3.6386406  23.7303143  -2.4006171   4.7272954
  23.3584633  -2.9407434   2.7209985  23.0778141  -2.4689982   1.7609525
  24.3405056  -3.2850788   2.5525882  22.4830551  -4.1999655   3.0993557
  22.9629059  -4.8000059   3.9505241  21.5530491  -3.8243852   3.5100851
  22.1035652  -5.0406003   1.8935635  21.3880749  -5.8226461   2.1808982
  23.0329552  -5.5216451   1.4954579  21.6352749  -4.4250073   1.0944844
 -31.1073532  -8.2430668  -0.1375029 -30.6127815  -9.2186594  -0.0309011
 -30.8039970  -7.9361100  -1.1341705 -32.1893921  -8.3357162  -0.1064076
 -30.5624180  -7.2385006   0.8841270 -29.5145531  -7.2338066   0.7778692
 -30.8120041  -7.5967894   1.8784547 -31.0315170  -5.8084745   0.7258599
 -32.1066818  -5.7437949   0.5392025 -30.4397564  -5.3504710  -0.0276741
 -30.8356266  -4.9398551   2.0109379 -31.3604450  -5.4139910   2.8493862
 -31.2022381  -3.9282310   1.9137075 -29.3093567  -4.7555318   2.3190010
 -28.8785152  -3.9599702   1.7218207 -28.7915897  -5.6791592   2.0450964
 -29.0252285  -4.5328288   3.8602648 -29.8308735  -4.0129275   4.3203902
 -28.1196575  -3.9723282   4.0321960 -28.7733173  -5.9260540   4.4965200
 -27.9078903  -6.4196115   4.0367565 -29.6372509  -6.5145206   4.3008265
 -28.4494820  -5.9269805   6.0065026 -28.7887459  -4.9730654   6.4234929
 -27.3810940  -5.9996819   5.9961724 -28.9715195  -7.1961665   6.7401247
 -28.3051872  -7.4309211   7.6066632 -28.9337139  -8.0703192   6.0671229
 -30.4256039  -7.0559416   7.2039361 -30.5290489  -6.2930703   7.9750876
 -30.7404137  -7.9923878   7.6825862 -31.4832020  -6.6192012   6.1806560
 -31.0508060  -5.7441492   5.6472631 -32.3620453  -6.2622924   6.6819577
 -31.8613510  -7.7611694   5.2042699 -30.9976082  -8.1051836   4.6605763
 -32.5670395  -7.4180026   4.4074697 -32.5275269  -9.0048370   5.8882689
 -31.8145084  -9.4829597   6.5816984 -32.8015175  -9.7467260   5.1188779
 -33.8102913  -8.6424084   6.5911679 -34.6245728  -8.4361601   5.8764868
 -33.7017212  -7.7435803   7.1958780 -34.2562103  -9.7941532   7.4814148
 -33.4208641 -10.2704229   7.9935045 -34.7412262 -10.5565825   6.9032054
 -35.1705513  -9.2109890   8.5592442 -36.3545876  -9.0205956   8.4645004
 -34.3963547  -8.9111156   9.6551018 -35.1587334  -8.3071823  10.7654285
 -35.9980316  -9.0198307  10.9514608 -35.5964127  -7.3437934  10.4824152
 -34.2609863  -8.0931234  12.0338526 -34.1479301  -9.0872307  12.4923458
 -34.9480209  -7.1034451  13.0019751 -35.8849411  -7.4861364  13.3958092
 -35.0967064  -6.1536503  12.5313845 -33.9864807  -6.7360072  14.0118752
 -34.3947563  -5.9115033  15.3175535 -33.7175789  -4.4644837  15.0397863
 -34.4864311  -3.4546053  14.3466578 -34.3209152  -2.4796941  14.8248501
 -35.5246048  -3.6990170  14.4242210 -34.1159744  -3.3899534  12.8472986
 -34.8031311  -2.7391088  12.3120041 -34.2294121  -4.3776970  12.4745655
 -32.7956200  -2.8400216  12.5027952 -31.7263393  -3.8642361  12.7784052
 -31.7413158  -4.0556068  13.8458109 -30.7850075  -3.4697649  12.3848209
 -32.0988998  -4.7813764  12.2570086 -32.7658157  -2.4443326  11.0645237
 -33.2887344  -1.4923265  10.9533033 -33.2552109  -3.2424352  10.4854927
 -31.7196178  -2.3434806  10.8387575 -32.3767624  -1.6637509  13.2686319
 -33.0813828  -0.8998423  13.1022034 -31.3552208  -1.3687010  13.0863857
 -32.4145889  -1.9514347  14.3231955 -35.8848000  -5.7702250  15.3657246
 -33.7524033  -6.5314350  16.4911518 -33.0182533  -7.4741230  11.5529070
 -31.9224930  -8.2127810  11.7739258 -31.8878841  -9.2328281  12.4109554
 -30.7418461  -7.6780081  11.0034800 -30.3605385  -8.5261793  10.4095783
 -31.0686340  -6.8918352  10.2760592 -29.5935173  -7.2056561  11.9537058
 -29.8487110  -6.2577581  12.5046310 -29.3840313  -7.9454513  12.7491436
 -28.2962837  -7.0038195  11.1689625 -27.4472332  -7.0500689  11.8389721
 -28.1393986  -7.8438087  10.4786510 -28.2434826  -5.6472874  10.4008474
 -27.4297791  -5.7006640   9.6824846 -29.1311913  -5.5269499   9.7628412
 -28.2184982  -4.3660045  11.2591896 -29.2405033  -4.2427459  11.6687794
 -27.4556904  -4.4933295  12.0457172 -27.9005280  -3.1525731  10.3943310
 -27.9349880  -2.3041627  11.0612879 -26.9285049  -3.2429383   9.9303970
 -28.9579086  -2.7996984   9.3312445 -28.7445335  -3.4601214   8.4809933
 -29.9459648  -2.9437413   9.6898766 -28.8193684  -1.3805237   8.7656441
 -28.5089760  -0.5901182   9.4748459 -28.9656277  -1.0766521   7.4556251
 -28.7486458  -0.0358574   7.1862097 -29.5699120  -1.9643413   6.4088221
 -28.8184662  -2.5728574   5.9198732 -30.2733593  -2.6717296   6.8833919
 -30.2683678  -1.1035823   5.3358817 -30.7892723  -1.8064731   4.6898928
 -30.9635525  -0.4475159   5.8399873 -29.2861576  -0.2965156   4.4888988
 -28.8675404   0.5546655   5.0509024 -28.4337082  -0.9775454   4.1437144
 -29.8749199   0.2432265   3.1671991 -30.2622585  -0.5560667   2.5155048
 -30.7413082   0.8338979   3.4618781 -29.0432758   1.1969303   2.3622603
 -29.6381092   1.4256464   1.4412277 -28.8859463   2.1201637   2.9491141
 -27.6326408   0.7082474   1.9429313 -27.2551994   1.5000346   1.3451122
 -27.0354061   0.5947980   2.8597734 -27.6480656  -0.6056584   1.1139294
 -28.0282898  -1.4041679   1.7555796 -28.3817463  -0.4320498   0.3239575
 -26.2608337  -1.1027213   0.5976961 -26.3589897  -2.0879097   0.2052800
 -25.5140495  -1.0807335   1.4252533 -25.9184875  -0.4535622  -0.1238501
  26.4476814 -22.9495125   1.7303966  27.5205498 -22.9056625   1.7750703
  26.0895138 -21.9886189   2.0494013  26.2574177 -23.1989079   0.6697906
  26.0652523 -24.0278606   2.7945158  26.7727127 -23.9829712   3.5876501
  26.1741753 -24.9824734   2.2666857  24.6720200 -23.9200954   3.2756834
  23.9959641 -23.8605137   2.4452994  24.6372261 -22.9749908   3.8474045
  24.2886715 -25.1288967   4.1344275  24.8861427 -25.1389523   5.0453658
  24.5115852 -26.0551548   3.6073015  22.8000813 -25.2436447   4.4921684
  22.2562122 -25.5563526   3.5702097  22.4148750 -24.2898922   4.8676329
  22.6094246 -26.3227100   5.6008048  23.2497959 -26.1822491   6.4514995
  22.8659801 -27.2998505   5.2012730  21.1440258 -26.4603691   6.0990186
  20.4921265 -26.8081074   5.3090329  20.9156971 -25.4615135   6.4637833
  21.1851482 -27.5365238   7.2030826  21.8472652 -27.3261166   8.0084286
  21.5331249 -28.4969883   6.7361407  19.7720795 -27.8054409   7.7192636
  19.7906342 -28.5903912   8.5281801  19.1408176 -28.1749744   6.9169736
  19.0744305 -26.5406971   8.2527056  18.0968971 -26.8727779   8.5620298
  18.9392262 -25.8077526   7.4797339  19.7896328 -25.8347015   9.3822489
  19.2944088 -24.9170494   9.5938492  20.7769756 -25.5970039   9.1258297
  19.7579498 -26.7113876  10.6491423  20.3658581 -27.6225758  10.5347013
  18.7241631 -27.0057087  10.8670855  20.3182240 -25.9050846  11.8482485
  20.1774788 -26.4623566  12.7690878  19.7425823 -24.9362297  11.9131804
  21.8370552 -25.6201019  11.8000603  22.0379047 -24.8540230  11.0598326
  22.3247414 -26.5149479  11.4507246  22.3811321 -25.1260490  13.1952114
  22.1455555 -25.8896866  13.8691988  23.4943314 -25.0378456  13.2290707
  21.7979603 -23.7401962  13.6489668  21.1278191 -22.9825230  12.9962292
  22.1870213 -23.4792118  14.8763762  21.3133984 -22.6060467  15.6733236
  20.8994198 -21.8663902  15.0151052  21.9416599 -22.0889168  16.3618317
  20.1982479 -23.4261322  16.4385834  19.5938854 -22.7714996  17.0326214
  20.8491116 -24.3654423  17.4714508  21.2987728 -23.7881069  18.2774277
  21.6222115 -24.8792496  16.9136620  19.8400192 -25.2331963  17.9815331
  20.3101139 -26.6052990  18.7742634  20.7965584 -27.4632854  17.5090580
  19.8462257 -27.7403259  16.4699383  19.9741020 -27.0074863  15.6790600
  18.8277225 -27.5917168  16.8321686  19.9839611 -29.2264080  15.9707279
  20.9749203 -29.3888264  15.5777760  19.3141232 -29.4075127  15.0961800
  19.7630653 -30.3577728  16.9870358  19.9145203 -31.6649456  16.2407837
  19.3999805 -31.5553780  15.2926559  19.4409142 -32.5188980  16.7886200
  20.9785633 -31.8308754  16.1187897  20.7551785 -30.3951244  18.1067181
  20.8910923 -29.3560009  18.3589363  21.6514244 -30.8821201  17.7202206
  20.3242092 -30.9215965  18.9437408  18.3804703 -30.2990322  17.5314884
  18.2783184 -29.4087582  18.1688480  18.2722492 -31.2045479  18.0786533
  17.6830559 -30.3200645  16.6877213  21.5365715 -26.3624077  19.6041183
  19.0610218 -27.2112160  19.3601475  19.3285313 -24.1352119  15.4587078
  18.3368340 -23.4256668  14.9242840  18.2689590 -22.2151299  14.9954882
  17.3111515 -24.3346424  14.2347193  17.7263660 -25.3190613  14.0944052
  16.4165554 -24.3607693  14.8162928  17.0761166 -23.7950535  12.7727308
  16.4429417 -22.9335232  12.8319082  18.0112286 -23.4648514  12.3269405
  16.4236813 -24.8089771  11.8069859  16.9575081 -25.7416630  11.7829247
  15.4159117 -25.0061893  12.1992216  16.3025322 -24.3780727  10.3398895
  17.2375393 -23.9301281  10.0750866  16.1210403 -25.3116436   9.7325525
  15.2086124 -23.3097668  10.1502695  14.2410364 -23.7509632  10.3852167
  15.3723803 -22.4433041  10.7844028  15.1595306 -22.9159470   8.6974602
  16.0364170 -22.4113636   8.4372826  15.1458397 -23.8022346   8.0963745
  13.9433975 -22.0654144   8.2881365  14.1459837 -21.8021221   7.2337937
  12.9837885 -22.6731777   8.3550606  13.7538433 -20.8288002   9.1704645
  13.0628872 -20.9420395   9.9809933  14.3620672 -19.6617031   8.9275951
  14.1574335 -18.8591080   9.5810928  15.3843069 -19.3322105   7.8431411
  16.2862415 -18.9147148   8.3845215  15.6857100 -20.2786713   7.3231430
  14.9006853 -18.2773285   6.8618393  14.0046110 -18.6942482   6.3211675
  14.6989059 -17.3601799   7.3568935  15.9967766 -18.0740643   5.7189603
  16.9701118 -17.7078037   6.1315942  16.1784115 -19.0559807   5.2994404
  15.6718931 -17.0764294   4.5778437  15.7757664 -16.0403004   4.9673486
  16.4426460 -17.1748085   3.8150527  14.2712030 -17.2777519   3.9048252
  14.2105589 -18.2855892   3.5739365  13.4765520 -16.9988079   4.6046882
  14.1551123 -16.3513737   2.6473615  13.1480465 -16.4669075   2.3150535
  14.2345047 -15.3416815   2.8151391  15.0887289 -16.8273392   1.5244107
  16.0698338 -16.4537868   1.8135935  15.0445290 -17.9345188   1.4893734
  14.9155579 -16.3868122   0.0938783  15.6799431 -16.9066162  -0.5144093
  14.9780369 -15.3062716   0.0403931  13.8752270 -16.6028862  -0.2630334
 -13.1096382  33.8837090  -0.2526038 -14.0254269  33.8439369  -0.8009169
 -12.4892378  34.6247711  -0.7394761 -13.2695818  34.1405144   0.7877490
 -12.4646330  32.4468803  -0.2001658 -12.1316185  32.2349243  -1.1910603
 -13.1705246  31.7089634   0.1478625 -11.2615480  32.5273476   0.7807755
 -11.6461582  33.0022278   1.6959327 -10.5285187  33.2147446   0.3586164
 -10.6257477  31.1940994   1.1817504  -9.7941055  31.3373661   1.8471860
 -10.2006960  30.7896252   0.2651765 -11.6371431  30.1725883   1.6860627
 -11.1699686  29.2140617   1.8709242 -12.3172894  29.9127007   0.8939547
 -12.4250031  30.5679150   2.9707184 -13.0337200  29.7127266   3.2043240
 -13.0394306  31.4058800   2.7197626 -11.6460695  31.1148491   4.1776934
 -12.3844566  31.3020420   4.9160891 -11.1306190  32.0540199   3.9051769
 -10.6698933  30.0795918   4.7213364  -9.9976721  29.8764210   3.9374666
 -11.1428633  29.1252747   4.9640040  -9.7701664  30.5390549   5.9230180
  -8.9770889  31.2148590   5.6446939  -9.2699909  29.6528797   6.2971444
 -10.4678307  31.1505699   7.1059794 -11.3523636  30.5411930   7.3803163
 -10.7793198  32.1808205   6.7754278  -9.6202860  31.2829590   8.4180050
  -8.6368103  31.7377110   8.1896849  -9.5105524  30.2418232   8.7990179
 -10.2371311  32.1498642   9.5695992 -10.2960224  33.2645264   9.3743935
  -9.6851521  32.0336876  10.5068388 -11.6974821  31.7172165   9.8498402
 -11.6877327  30.6528015  10.0246353 -12.2741928  31.8906136   8.9161568
 -12.3110857  32.5042648  11.0585632 -13.4201565  32.3253403  10.9976206
 -12.1750298  33.5507088  10.8476648 -11.6925707  31.9798832  12.4020815
 -10.6118193  32.0698700  12.4499369 -11.8598423  30.9103222  12.5395155
 -12.2342310  32.6917038  13.6458530 -11.6320457  33.6541061  14.0684032
 -13.3330622  32.0792847  14.1432238 -13.9234743  32.5941925  15.3707399
 -15.0189199  32.3559952  15.3550568 -13.9560738  33.6819458  15.3658047
 -13.3002434  32.0250282  16.6735954 -13.6619854  30.9965439  16.9245491
 -13.6880579  33.0152893  17.8664417 -14.6926794  32.7083702  18.1930027
 -13.7685833  34.0937347  17.5093384 -12.8502951  33.0593948  19.0568066
 -12.6508236  31.8235607  19.9650345 -11.2284184  31.3410263  19.5470505
 -10.0494976  31.9860268  20.1321144 -10.1352539  32.0663033  21.2216797
  -9.9273310  32.9945488  19.6784668  -8.8119135  31.1300316  19.7558861
  -7.9634900  31.6631432  20.1561775  -8.7450819  31.0672932  18.6663055
  -8.6501637  29.7798653  20.2512455  -9.0876284  29.6727543  21.7146339
  -8.4998760  30.3458118  22.3186607  -8.8729362  28.6742992  22.0585728
 -10.1567926  29.8270683  21.8243484  -9.4865017  28.8087635  19.4582863
  -9.3011227  28.9216499  18.4005814 -10.5627356  28.9776306  19.6447124
  -9.1424122  27.8478317  19.7807713  -7.2127628  29.3982029  20.0587730
  -7.0275669  29.5447712  18.9784660  -7.0898910  28.3410244  20.3508415
  -6.5983019  30.0510387  20.6826115 -12.7141056  32.2668915  21.3869839
 -13.5277033  30.7300396  19.5450344 -11.8644152  32.0124741  16.5323830
 -11.2709951  30.8761444  16.1271896 -11.9019041  29.8253536  15.9971514
  -9.7970743  31.0538101  15.9767151  -9.6825132  31.8061447  15.1496592
  -9.4039354  31.4727440  16.8694286  -9.0634432  29.7541218  15.6035910
  -8.0207310  29.9448586  15.7767391  -9.4435291  29.0236301  16.3405018
  -9.2531958  29.3821697  14.1381893 -10.2965059  29.2067547  13.8965473
  -8.9639692  30.2681370  13.6190329  -8.3963814  28.1041451  13.9469156
  -7.3675308  28.2815170  14.0485773  -8.5661812  27.4002819  14.7924471
  -8.5791702  27.3990631  12.5981750  -7.7967763  26.6615868  12.5206223
  -9.5417576  26.8971443  12.5231953  -8.4179363  28.4481049  11.4733639
  -8.6566753  27.9024029  10.5675716  -9.2079487  29.2290382  11.4813433
  -6.9991255  29.0057220  11.3611984  -6.7641525  29.6249371  12.2593164
  -6.2774143  28.1804276  11.3858118  -6.8360548  29.8371124  10.1009798
  -7.4029803  30.7649403  10.0454483  -6.1218114  29.4877262   9.0230827
  -6.0905666  30.1501637   8.1280451  -5.3365774  28.2532291   8.7666283
  -4.2885780  28.4192543   9.0669308  -5.7064242  27.4276905   9.3558731
  -5.3212242  27.8716679   7.2869592  -4.6012540  28.5597439   6.8268104
  -4.9210491  26.8617802   7.3189301  -6.6139750  27.9088612   6.4348226
  -7.3243303  27.1861858   6.7323642  -6.9793553  28.9066296   6.5018077
  -6.2102122  27.6717033   4.9531102  -5.3470526  28.2827396   4.6969814
  -5.9866929  26.6251545   4.8190908  -7.3508410  28.1396141   3.9881005
  -8.1166916  27.3305607   4.0164528  -7.7944112  29.0711098   4.3686476
  -6.9513531  28.2634830   2.5065722  -6.2595105  29.1053658   2.4388132
  -6.4718199  27.3264675   2.1946428  -8.1706343  28.4416046   1.5978413
  -8.8020420  27.5831337   1.6190140  -8.7412195  29.3256779   1.9302665
  -7.8274007  28.7459946   0.1438625  -8.6586199  29.0038090  -0.5128865
  -7.2356009  27.8932171  -0.2562951  -7.1731720  29.5651321   0.1548261
 -35.0124664   6.5354056  -1.3771529 -35.6197090   7.0073805  -2.1911023
 -35.7103500   6.1342473  -0.6551742 -34.4216881   5.7231336  -1.8142962
 -34.0940437   7.5704870  -0.7005476 -34.6185074   8.4876766  -0.3756049
 -33.4647675   7.8584075  -1.4923828 -33.2591019   7.0367975   0.4598021
 -33.9041748   6.7686172   1.2865138 -32.5610695   7.8055139   0.8567057
 -32.4655876   5.7342358   0.0650025 -31.9188595   5.8570747  -0.8341759
 -33.2123909   4.9264603  -0.0811270 -31.5656967   5.2119250   1.1808441
 -30.9060745   6.0288091   1.4568615 -30.9517269   4.3503895   0.8590463
 -32.3616409   4.7050853   2.3825479 -33.0363617   3.9059136   2.0886548
 -32.9573746   5.4916282   2.7776899 -31.4630108   4.1078787   3.4496095
 -30.9441490   3.2649326   3.0735013 -32.0919495   3.7741523   4.2900000
 -30.4273777   5.0898547   4.0330248 -30.8477592   6.1352777   4.0474386
 -29.5476933   5.0427942   3.4195719 -30.0470734   4.7592678   5.5004749
 -30.9120922   4.7484217   6.0810637 -29.4021721   5.6082911   5.9319420
 -29.2455502   3.4355996   5.6442184 -28.3463840   3.5152566   5.0073380
 -29.8824501   2.6181254   5.3125577 -28.8143635   3.3555791   7.1605330
 -28.4699268   4.3394785   7.5409002 -27.9361229   2.6745918   7.0976086
 -29.8312187   2.7814934   8.2349911 -29.9954453   1.6745126   8.0817585
 -30.7859344   3.3086860   8.1101427 -29.2824535   3.0185864   9.6765938
 -29.1471214   4.1009655   9.8920536 -28.3138065   2.4513037   9.7094879
 -30.3031445   2.4452958  10.7339582 -30.4189281   1.4386933  10.4410553
 -31.3343658   2.8228035  10.5959845 -29.7974052   2.6205442  12.1885347
 -28.7977524   2.1929331  12.2131395 -30.4102631   2.0781050  12.8796883
 -29.6961575   4.0576639  12.6803703 -28.6344757   4.6485720  12.7751637
 -30.9002590   4.5640841  13.0428314 -31.0893631   5.9458203  13.3709240
 -30.4186726   6.1477208  14.2230911 -32.1360893   6.1208539  13.8274393
 -30.8420258   6.9941669  12.2430792 -29.7462177   7.1100039  12.1579647
 -31.4858284   8.3366432  12.6725101 -32.5674591   8.2633133  12.4410839
 -31.0559635   9.1530218  12.0481119 -31.3933029   8.5736437  14.1129637
 -30.0417252   9.1662045  14.7791910 -30.0798435  10.7204971  14.4446745
 -31.2307644  11.4046679  14.9218836 -31.2420769  11.3427534  16.0160141
 -32.1709023  10.9261122  14.5590734 -31.1252804  12.8817463  14.6583929
 -30.1072483  13.1372013  14.9569082 -31.8037777  13.3820553  15.3449907
 -31.3449688  13.3755407  13.2637463 -32.7888451  13.3894873  12.8850842
 -32.9804420  12.3513269  12.7024736 -32.9730377  13.9964380  12.0348921
 -33.3983879  13.6117363  13.8060999 -30.8220577  14.7496405  13.1788597
 -29.7951508  14.7272863  13.4834185 -31.3604965  15.3878918  13.8649931
 -30.9045582  15.0880680  12.1326647 -30.5466309  12.6435175  12.2635937
 -29.4911938  12.8244934  12.5108805 -30.8074493  13.0038443  11.3011570
 -30.7678986  11.5929232  12.3322859 -30.3017693   9.0549736  16.2068977
 -28.8513412   8.4332857  14.1907969 -31.4080791   6.5462012  11.0396805
 -31.0481911   7.1122308   9.8699741 -30.2715111   8.0480928   9.7853298
 -31.7065697   6.5292673   8.6200104 -30.9153156   6.1763740   7.9996233
 -32.2602463   5.6162810   8.8212404 -32.5687675   7.5801115   7.8692727
 -33.3313065   7.9822359   8.5379772 -31.9502087   8.3686056   7.4971824
 -33.2427521   7.0294833   6.5981622 -32.5273018   6.5966983   5.8980236
 -33.8743553   6.1935420   6.8462138 -34.1232452   8.0667992   5.8175921
 -35.1177483   7.6545973   5.5807514 -34.3458977   8.9515791   6.4028716
 -33.5762939   8.5759048   4.4819160 -33.5548248   7.7639933   3.7897162
 -34.3032341   9.3203678   4.0729136 -32.2151375   9.2831755   4.6670380
 -32.3498878  10.2001820   5.3121800 -31.5151520   8.6243563   5.0601430
 -31.6000023   9.8380375   3.3319097 -31.5070724   8.9255953   2.6947119
 -32.3499146  10.5492821   2.9294715 -30.2268829  10.4439535   3.5977354
 -30.1754189  11.0572824   4.4536233 -29.1345329  10.1869011   2.9013834
 -28.2029533  10.7217073   3.1088827 -29.1168804   9.4007874   1.5910839
 -30.1397877   9.4032984   1.1703584 -28.3792114   9.9286327   0.9463135
 -28.6775665   7.9440365   1.8363572 -27.8007030   7.9118786   2.5215425
 -29.4715786   7.4020596   2.3279629 -28.2666111   7.2373681   0.5234633
 -29.0409756   7.2393651  -0.2469069 -27.4198895   7.7808046   0.0856069
 -27.9071083   5.7478948   0.6895366 -27.2714825   5.6025553   1.5454115
 -28.7989254   5.2356534   0.9601390 -27.1992016   5.1315889  -0.5602462
 -27.0165539   4.0512295  -0.3532263 -27.7712250   5.2443004  -1.4721965
 -25.9013214   5.8054519  -0.8834360 -26.1157780   6.8014688  -1.2366798
 -25.3187370   5.8852077   0.0006873 -25.0106125   5.0501342  -1.9175127
 -25.4541225   5.0940485  -2.8807673 -24.0583897   5.5282493  -1.9894457
 -24.7378426   3.5604863  -1.5943755 -24.1372871   3.0154352  -2.3955998
 -25.6321907   2.9886441  -1.5394462 -24.2830067   3.3712249  -0.5865363
  36.0326691   0.5928869   1.0517738  36.3204536   1.3792126   0.3380575
  36.7307396  -0.2325933   0.8550793  36.0815010   0.9137357   2.0940731
  34.5461044   0.2387131   0.7260062  34.3694763   0.4421948  -0.3234639
  33.9195518   0.9230915   1.3129938  34.2180710  -1.1993840   1.1521713
  34.5541687  -1.3254653   2.2221961  34.8603859  -1.8661834   0.5434160
  32.7359047  -1.5754175   0.9596270  32.6437798  -2.6677239   1.2280363
  32.4081573  -1.2872827  -0.0280203  31.7982140  -0.8562119   1.9693835
  31.9572620   0.2198474   1.8726848  32.1473618  -1.0993292   3.0032537
  30.3031750  -1.2347423   1.8188183  30.1713600  -2.2574825   1.8070315
  29.9834080  -0.9616176   0.8361995  29.3587303  -0.5918923   2.8126571
  28.3679619  -0.5806676   2.3420248  29.5425892   0.4948348   2.8852134
  29.2613869  -1.3141476   4.1882291  30.2508011  -1.5492791   4.5882506
  28.7609482  -2.2722635   4.0103130  28.4442024  -0.4738728   5.2608733
  28.2846546  -1.1099800   6.1012669  27.5286903  -0.1031206   4.7758584
  29.1382618   0.7666708   5.7983656  29.4146137   1.3908005   4.9980779
  30.0362091   0.5041723   6.3576107  28.1137695   1.6279225   6.6521449
  27.8816700   1.1510327   7.6291776  27.1821709   1.5842174   6.1991892
  28.6255283   3.0558548   6.9333501  27.8919582   3.5167575   7.6190906
  28.5934563   3.6534178   5.9810061  29.9987392   3.1377985   7.5654516
  30.7756138   2.6006379   6.9335217  30.0044613   2.7851191   8.6303415
  30.3689804   4.6500282   7.4486537  29.6272202   5.2398562   7.9686303
  30.3062363   4.9643764   6.3889861  31.7884922   4.9289570   7.9777522
  32.1783409   5.9504280   7.7006979  32.4801331   4.1839495   7.5703216
  31.8236198   4.7895403   9.4876547  32.3184395   3.7788084  10.0209942
  31.3332863   5.8902426  10.1098404  31.4734001   5.9626980  11.5962172
  31.7453403   7.0298200  11.7958298  32.2455750   5.3083463  11.9480886
  30.1010971   5.6417322  12.2854557  29.3488503   6.3352752  11.9145145
  30.2444096   5.8428879  13.8088312  29.5733299   5.1745291  14.3320522
  29.9782772   6.8667502  14.0816011  31.5783100   5.5849624  14.2808189
  31.9486523   5.7006292  15.8208103  32.4118118   4.2086525  16.2376270
  31.5204906   3.0317855  16.1787682  30.5540924   3.4006982  16.4275284
  31.7773552   2.2576256  16.9238796  31.5376968   2.4288204  14.7514057
  31.3569164   3.2246602  14.0387192  30.8173275   1.5893376  14.6877871
  32.8114128   1.7890699  14.2066097  33.0061798   0.4628233  14.8399343
  33.2052040   0.5356508  15.8797207  33.8947983  -0.0001810  14.3471956
  32.1188812  -0.1487300  14.6497908  32.7754135   1.5553918  12.7419567
  32.7384567   2.4960418  12.2007170  31.8258362   1.0137506  12.5488272
  33.6222534   0.8814353  12.4410057  34.0145798   2.6416521  14.4834156
  33.8324661   3.5963891  14.0469170  34.9121361   2.2230153  13.9897966
  34.1479568   2.7062321  15.5610380  33.1431732   6.5409346  15.9737310
  30.7330608   6.0667129  16.5810184  29.6912193   4.2606144  12.1530018
  28.7925453   3.9790392  11.2088003  28.3950996   4.7247896  10.3402147
  28.2367249   2.5358706  11.2678337  27.3865032   2.5634494  11.9101963
  27.8864288   2.2707269  10.2547226  29.2981911   1.5352204  11.6881552
  30.1178551   1.5054753  10.9820595  29.6032600   1.7449105  12.7495966
  28.6570721   0.1633319  11.6294804  29.3180676  -0.5190398  12.1822681
  27.7377987   0.2436727  12.1878014  28.4612579  -0.3982818  10.2205906
  27.8426018  -1.2987983  10.2664518  27.8185272   0.1802120   9.6175785
  29.7741489  -0.6219846   9.4039879  29.5606613  -0.9130842   8.4201050
  30.3482151   0.3483895   9.2827234  30.6212425  -1.7310266  10.0488300
  30.9399128  -1.4193144  11.0034409  29.9770718  -2.5445244  10.2485933
  31.8236713  -2.2010217   9.1460714  32.1489410  -3.1438425   9.4986076
  31.5359573  -2.3736053   8.1111412  32.9810028  -1.2654246   9.2302780
  33.4532204  -1.2484441  10.2142324  33.4882774  -0.4235413   8.3234882
  34.4189110   0.0923363   8.5829201  32.9204483  -0.2301315   6.9302959
  33.2967339  -1.0248066   6.2485437  31.8433990  -0.3966415   6.9670291
  33.1511078   1.1769927   6.4187312  32.7748833   1.8877422   7.1305366
  34.2435150   1.3653432   6.4059448  32.5851784   1.3535129   4.9874120
  33.1045990   0.7460272   4.2471724  31.5355282   1.1025020   4.9913187
  32.7556000   2.7810884   4.5215230  32.4137344   3.4941366   5.2617307
  33.7934456   3.0305669   4.3285379  31.9064541   3.1345513   3.2446609
  32.2723770   2.5940607   2.3789737  30.9503250   2.7645793   3.4722495
  31.8644829   4.6407523   2.9994633  31.7564945   5.2114654   3.9011126
  32.7470818   4.9376397   2.4359698  30.6414833   4.9230413   2.1155570
  29.7765999   4.4709883   2.6167750  30.3425713   5.9564586   2.1206634
  30.7855072   4.4044533   0.6818109  29.8596935   4.7269955   0.1932581
  30.8869648   3.3267524   0.6948313  31.6336899   4.7542725   0.1171355
 -13.9560213  27.0561867   0.1879010 -13.6233034  27.8667107  -0.4689383
 -14.9588413  27.3326473   0.5255930 -13.9157000  26.0732365  -0.3031130
 -13.1556654  26.9006920   1.4690018 -13.2339134  27.7562504   2.1592679
 -12.1421957  26.7959785   1.1793280 -13.4284582  25.5959873   2.3444285
 -12.7124014  25.5668545   3.0977659 -13.2195196  24.7067757   1.6756074
 -14.8413181  25.4667511   2.9485421 -15.6274462  25.2447338   2.1491220
 -15.1040134  26.4509125   3.3540964 -14.9521446  24.3258858   3.9680336
 -16.0039959  24.3182945   4.2551122 -14.2770691  24.4373341   4.8426552
 -14.5578375  22.9211121   3.3721364 -13.5596380  22.9783993   3.0060210
 -15.2278919  22.7281094   2.5089908 -14.7054501  21.7512112   4.2975655
 -14.5274734  20.8250885   3.6904311 -15.7041130  21.7519760   4.7278547
 -13.6100874  21.9245415   5.3983884 -13.8441076  22.6969147   6.0766320
 -12.6682625  22.1379280   4.9176092 -13.4709873  20.6363297   6.3169646
 -13.1705484  19.7857323   5.7094259 -14.4858894  20.4767609   6.7053294
 -12.4123306  20.8204670   7.4052691 -12.6686583  21.7744370   7.9289861
 -11.3926430  20.9920578   7.0781975 -12.3978033  19.6732330   8.4368315
 -11.7518234  19.8964081   9.2928486 -11.9741621  18.7925682   8.0289698
 -13.7789783  19.3971996   9.0261593 -14.4215670  19.0781803   8.2178936
 -14.2108593  20.3406544   9.3617430 -13.8965902  18.3417358  10.1450348
 -13.6896238  17.3338356   9.8105783 -14.9520445  18.3136806  10.4554882
 -12.9966726  18.6877937  11.3506985 -13.3170090  19.6955280  11.6733704
 -11.9366283  18.7970734  11.1009254 -13.0779448  17.7012634  12.5396442
 -12.7117748  16.7415295  12.1756592 -14.1134567  17.5647068  12.7962132
 -12.3465586  18.1890545  13.7951107 -11.4513893  17.6022358  14.4111023
 -12.7903996  19.4225197  14.1469240 -12.2488737  20.1033669  15.2694654
 -12.0215559  19.3615799  16.0742149 -13.0082359  20.8396721  15.5368509
 -10.9306278  20.8320408  14.8626528 -10.1246843  20.1194420  14.9474039
 -10.5753155  21.9933987  15.8485355  -9.5055065  21.9683666  15.9910526
 -10.9283466  21.7553520  16.8628254 -10.9696379  23.2713223  15.3635111
 -12.3276730  23.9536381  15.7873621 -13.4473820  23.2672405  14.8446512
 -13.4040947  23.5435562  13.4150314 -12.3802204  23.7264080  13.1299419
 -13.9709082  24.4486027  13.2617531 -14.0015497  22.4271793  12.5044575
 -13.3898058  21.5479450  12.5485516 -14.0488815  22.7380772  11.4991846
 -15.4420900  22.0720272  12.7756424 -16.0067883  21.1315899  11.6991158
 -15.9629650  21.6370106  10.7092943 -17.0124607  20.8789425  12.0511112
 -15.4213896  20.2837925  11.7524738 -15.6702280  21.4561863  14.1017094
 -15.3038797  22.2323704  14.8281326 -14.9228916  20.6278038  14.0711889
 -16.7227211  21.2651939  14.2952776 -16.4068527  23.1835537  12.6794920
 -16.1671906  23.8963985  13.4769678 -17.4221077  22.7863617  12.7170362
 -16.2716637  23.6800480  11.6934223 -12.6933432  23.5678139  17.1839237
 -12.2958860  25.3886032  15.4957619 -11.0397491  21.2267666  13.4779491
  -9.8639412  21.4745979  12.8905678  -8.7830973  21.3309937  13.4035988
 -10.0292635  21.8325920  11.4626837  -9.2385044  21.3182659  10.8995924
 -11.0158405  21.4791336  11.0620584 -10.0016069  23.3865356  11.2052450
 -10.4040384  24.0457840  12.0055065  -9.0026083  23.6886101  11.1902103
 -10.6238995  23.7733860   9.8368006 -11.7261496  23.6569309   9.8769732
 -10.4568329  24.8177738   9.6724854  -9.9350290  22.9764271   8.6305914
  -8.8313036  23.0007057   8.7276726 -10.2929726  21.9688702   8.6433773
 -10.2528009  23.6995678   7.3247571 -11.3121977  23.8234940   7.2227125
  -9.8317604  24.7183208   7.3631711  -9.6810417  22.9709816   6.1254067
  -9.4095154  21.9514256   6.4211411 -10.4207993  22.7899342   5.3465896
  -8.4639416  23.6403122   5.5341034  -7.9033041  23.9633560   6.3777404
  -7.8399782  23.0038738   4.9279995  -8.9645281  24.8049736   4.7299051
  -9.2854328  25.6739826   5.3057594  -8.8982410  24.8868160   3.4266028
  -9.0767899  25.8446388   2.9128938  -8.4359779  23.8389702   2.4639423
  -8.5597095  22.8011417   2.8528023  -9.0382280  23.8740158   1.5617210
  -6.9874339  24.1368465   2.0579650  -6.9557858  25.1954288   1.7010142
  -6.3212919  24.0304089   2.9194465  -6.4590530  23.2602997   0.9065679
  -6.8950243  23.5476856  -0.0439446  -5.3797345  23.4587669   0.8036005
  -6.6026063  21.8233128   1.3094808  -6.3857942  21.8187237   2.3931770
  -7.6143417  21.5372066   1.2939305  -5.6856942  20.7516308   0.6031895
  -4.6756029  21.0581856   0.8232265  -5.8482842  19.7625790   0.9970112
  -5.6697650  20.6586742  -0.9514583  -5.4523921  21.6189556  -1.4328128
  -4.8760347  19.9550896  -1.2864484  -6.9942660  20.0685902  -1.5329115
  -7.2575850  19.1108437  -1.0410473  -7.7730680  20.8543320  -1.4084393
  -6.8223958  19.7601471  -3.0086815  -7.7880044  19.6036835  -3.4556983
  -6.2687216  18.8262024  -3.1183271  -6.2279220  20.5719852  -3.4283516
 -24.5694466 -17.0273457   1.8398446 -24.0095501 -17.1070843   2.8090975
 -23.9442101 -17.6059208   1.1254761 -25.5421753 -17.5476913   1.9511058
 -24.7089005 -15.5618277   1.4668626 -25.1589661 -14.9857035   2.3070307
 -25.4045296 -15.5340500   0.6260100 -23.3743744 -14.8813572   1.0363736
 -22.9245796 -15.4761505   0.1989210 -22.6108208 -15.0059738   1.8243797
 -23.4173374 -13.3822098   0.6513143 -23.8950901 -13.3646221  -0.3379013
 -22.4042320 -12.9833927   0.5707869 -24.1827297 -12.5071154   1.5840970
 -25.2437973 -12.8043289   1.5749060 -24.0945606 -11.4718628   1.1883665
 -23.7629681 -12.4618444   3.1051450 -22.8922253 -11.8826351   3.2715683
 -23.5736752 -13.4604559   3.4980540 -24.8162365 -11.8277273   4.0218143
 -25.7837658 -12.3200989   3.8452911 -25.0140476 -10.8267202   3.7380004
 -24.5054512 -11.8517885   5.5210428 -25.4960651 -11.5603657   5.9964137
 -23.7764435 -11.0817041   5.7413554 -24.1225452 -13.2407656   6.0170774
 -23.1749249 -13.5078478   5.5249853 -24.9313335 -13.9380064   5.7182927
 -23.8594837 -13.3084822   7.5543504 -23.0489140 -12.6571360   7.8132553
 -23.5257263 -14.3045940   7.7980309 -25.1225471 -13.1160822   8.4213524
 -25.9720020 -13.7202606   8.1382313 -25.4791164 -12.0595703   8.4154139
 -24.8061447 -13.4989557   9.8759260 -23.9741993 -12.9396057  10.1808701
 -24.5233994 -14.5293913   9.9904747 -25.9232445 -13.2679653  10.8710718
 -25.5583858 -13.5894976  11.8565083 -26.7980671 -13.8235865  10.5495262
 -26.3065414 -11.8015785  10.9301128 -26.6114826 -11.4801207   9.9656534
 -25.3830795 -11.2762661  11.1464701 -27.4269562 -11.5920935  11.9682779
 -28.1663361 -12.3714638  11.9276390 -27.9229908 -10.6762705  11.7352629
 -26.8785076 -11.4860678  13.3792915 -25.7033539 -11.4660892  13.6812582
 -27.8461819 -11.3183708  14.3194304 -27.4560833 -11.5693865  15.6969061
 -27.8802319 -10.8358383  16.3317795 -26.3861485 -11.5128603  15.8655596
 -27.8881092 -12.9968605  16.0386963 -28.9641800 -13.0401049  15.9423494
 -27.4366970 -13.3845100  17.4412270 -26.3435936 -13.4618187  17.4649601
 -27.7845383 -14.3278227  17.7048283 -27.7669239 -12.3639154  18.4349728
 -29.2294216 -12.1728849  19.1009789 -30.1323528 -11.5778723  17.9015560
 -31.3978558 -12.1759281  17.5075569 -32.1665916 -12.1332970  18.2839470
 -31.2943077 -13.2792273  17.3373947 -31.9711323 -11.5306015  16.2005825
 -32.9476738 -11.9612179  16.0236225 -31.3939667 -11.7645559  15.2689657
 -32.2083054 -10.0476131  16.2683411 -30.8823757  -9.3545485  16.0399837
 -30.3114014  -9.6151123  16.9014320 -31.0648270  -8.2442513  16.0990410
 -30.3923206  -9.7391071  15.1320181 -33.1618462  -9.6607103  15.2273369
 -34.1501846 -10.1680317  15.3786554 -32.7666702  -9.9505520  14.2534580
 -33.4317245  -8.6089878  15.2405701 -32.8085175  -9.5621195  17.5739479
 -33.8299217 -10.0243340  17.6392727 -32.9386864  -8.4851980  17.5698452
 -32.2646179  -9.9818840  18.4028797 -29.7462158 -13.4821520  19.5307178
 -29.1090240 -11.0562077  20.1000595 -27.2367554 -13.8842020  15.0508394
 -27.8142948 -15.0629053  14.7884617 -28.7352200 -15.5336132  15.3972912
 -27.0342293 -15.7660666  13.7186012 -27.0141678 -15.1089430  12.8714676
 -26.0410767 -15.8924599  14.0907621 -27.6962280 -17.1072559  13.2410002
 -28.0622272 -17.6981525  14.0354824 -28.6047401 -16.9640274  12.6802769
 -26.7118263 -17.9371185  12.4469090 -25.9337330 -18.2632980  13.0662241
 -27.1666698 -18.9009743  12.1923208 -26.2303543 -17.2186108  11.1477604
 -25.7578564 -16.2674294  11.3689041 -25.4966183 -17.8201218  10.6517591
 -27.3937397 -16.9388199  10.1578960 -28.0137730 -17.8285446  10.1609888
 -27.9450245 -16.1535187  10.6302023 -26.9853897 -16.5415001   8.7055912
 -26.2163353 -15.8114243   8.7476416 -26.5400677 -17.3906822   8.1942549
 -28.1714535 -15.9373207   7.9169459 -27.7993183 -15.7185841   6.8935070
 -29.0008755 -16.6033936   7.7873416 -28.7631340 -14.7398968   8.6232986
 -28.7220936 -14.7286177   9.7007961 -29.2289200 -13.6536074   7.9974985
 -29.5879650 -12.8786554   8.6344099 -29.4747238 -13.3812714   6.4933724
 -28.8493958 -12.5376949   6.1498885 -29.2647343 -14.3359871   5.9429283
 -30.9855824 -13.1058931   6.3029962 -31.5606575 -13.8430872   6.9330769
 -31.2415867 -12.1135988   6.6640902 -31.3510780 -13.2609787   4.8055735
 -31.0571404 -14.2419472   4.4529467 -32.4511147 -13.2204914   4.6576686
 -30.7180595 -12.2265635   3.8492262 -30.8051147 -11.2426491   4.2924132
 -29.6541405 -12.3671160   3.7226305 -31.2463856 -12.1232319   2.4223340
 -30.5115128 -11.5587893   1.8873721 -31.2888145 -13.1116009   1.9691278
 -32.6782837 -11.4863205   2.3568928 -33.3738899 -12.1424818   2.8150547
 -32.7074203 -10.5633087   2.9474878 -33.1691895 -11.1502609   0.9620774
 -34.0784111 -10.5607882   1.0702122 -32.3864288 -10.5072966   0.5212729
 -33.4097252 -12.3916063   0.1067416 -32.5518684 -13.0781374   0.1180197
 -33.5687141 -12.0342970  -0.8849576 -34.2812195 -12.8706036   0.4589034
  26.7937069  19.4785614  -4.0215969  26.3467598  19.4794846  -4.9901657
  26.8969765  18.4241409  -3.7225060  27.7637367  20.0090618  -4.0012894
  25.8446236  20.1722603  -3.0165586  24.8136883  19.8686047  -3.1974757
  25.8954849  21.2472935  -3.2075498  26.2266636  19.9075642  -1.5351628
  26.3213520  18.8221912  -1.4892150  25.4518776  20.2835369  -0.8731188
  27.5545197  20.4224205  -1.0811577  27.6337662  21.4808254  -1.2219111
  28.2928753  19.9549370  -1.7013328  27.7336216  20.0886326   0.4230295
  27.6099377  18.9980412   0.5551001  26.9653683  20.5947952   1.0366302
  29.1088104  20.4502335   0.9714460  29.2738514  21.4694290   0.6538558
  29.7880287  19.8270473   0.4404097  29.3159409  20.4569931   2.4715278
  28.5865002  21.1672001   2.9468334  30.2817039  20.8978500   2.6698053
  29.2019176  19.0699387   3.1314731  29.8790970  18.3667030   2.6534007
  28.1678371  18.6409931   3.0497847  29.5485477  19.1504707   4.6316600
  28.8364258  19.8678112   5.0784931  30.5406456  19.6061420   4.7828717
  29.4509621  17.7659893   5.3637071  30.1131058  17.0415154   4.9190264
  28.4512348  17.4117928   5.3599811  29.7715549  17.9626122   6.8265638
  30.7648163  18.4200306   6.9146805  29.6982307  17.0281448   7.3553352
  28.7725143  18.8770847   7.5333571  28.8686447  19.8819618   7.1163945
  29.1664600  18.9726505   8.5573692  27.3089714  18.4313087   7.5206847
  27.3330154  17.5784473   8.1887665  27.0165043  18.1011620   6.5157948
  26.3212662  19.5499840   7.9112749  25.3142281  19.1588783   7.8208776
  26.3751202  20.3874760   7.2312670  26.4187889  20.0978298   9.4072475
  26.4453812  19.2588367  10.1330490  25.5674744  20.7184601   9.6075525
  27.6001205  21.0052891   9.6088037  28.0145626  21.8771343   8.8440151
  28.1793709  20.6833630  10.7467642  29.4061871  21.3729649  11.1688318
  30.0852051  21.1693172  10.3921757  29.7435570  20.8811760  12.1114597
  29.2423515  22.8854961  11.4441967  29.1994762  23.4817905  10.5513668
  30.3868599  23.4011345  12.3113337  30.0445747  24.2649536  12.7924356
  31.1972885  23.6558571  11.6324759  30.7980194  22.5004425  13.3452644
  30.0232334  22.4649429  14.8155441  28.7460537  21.5336437  14.4838238
  27.6451607  21.5064697  15.3997698  26.9029808  22.3148994  15.2571392
  27.9828262  21.6438370  16.4059582  26.9560032  20.1343517  15.3882494
  26.0401134  20.2264137  16.0137386  27.5848942  19.4481544  15.9631767
  26.5807133  19.5068283  14.0304565  27.7943020  19.0123367  13.3361635
  28.4386425  19.8287334  13.1065617  27.4806862  18.5617428  12.3845634
  28.4109383  18.3724251  13.9788456  25.6574554  18.3266640  14.2676210
  24.7833710  18.6769657  14.8024502  26.1699123  17.5884647  14.8951712
  25.4338150  17.9363708  13.3303566  25.9324474  20.4975357  13.1373491
  25.0633984  20.8812332  13.6783304  25.6727829  19.9709282  12.1558857
  26.7171402  21.2256050  12.9059134  30.9110928  21.8152027  15.7960815
  29.4949150  23.8117428  15.0705833  27.9751587  23.0681248  12.1911945
  27.4022770  24.2909241  12.1374702  27.8528423  25.2788658  11.5623560
  26.1133080  24.3391514  12.9583759  25.9367676  23.3664932  13.3677149
  26.2443542  25.0258083  13.7576094  24.8994293  24.9373550  12.1865568
  24.1073723  25.1491451  12.9189892  25.1395836  25.9227409  11.7504930
  24.5295639  23.9600220  11.0266113  25.2936020  24.0802937  10.2662420
  24.4162388  22.9500580  11.3517513  23.2047501  24.3669930  10.4502106
  22.3752956  24.1725178  11.1549320  23.2594986  25.4635983  10.2818909
  22.8096619  23.7209492   9.1380005  21.9260769  24.2192726   8.7276363
  23.5960598  23.8714218   8.4023132  22.3881817  22.2145367   9.2591152
  23.1906815  21.6684704   9.6716785  21.5636444  22.1323223   9.9415970
  21.9660778  21.7236176   7.8690777  21.4299774  20.8199043   7.9608345
  21.3270607  22.3916168   7.3643999  23.1896324  21.5325718   7.0043545
  24.0553131  22.1321793   7.1906633  23.2862930  20.6404343   6.0091310
  24.2378788  20.5740929   5.4747705  22.2576561  19.6387978   5.5896039
  21.7666283  19.1896286   6.4437575  21.5315437  20.1292839   4.9783435
  22.8409882  18.4644833   4.8305178  23.4833069  17.9305115   5.5218644
  22.0674496  17.7732239   4.6052127  23.5126991  18.8773251   3.5007355
  22.7821064  19.3384113   2.8303480  24.2781048  19.6110516   3.6354294
  24.2739372  17.7837372   2.7514796  23.5756340  16.9840736   2.5605192
  24.6920490  18.1720695   1.8357306  25.4765625  17.1692257   3.5360160
  26.1965351  17.9740143   3.8022282  25.1942730  16.7268105   4.4664803
  26.1929359  16.1497231   2.6456573  25.5166702  15.3302755   2.4199371
  26.3896637  16.5729923   1.7133620  27.5257492  15.6643887   3.1958447
  28.2741394  16.4730549   3.1529019  27.3339100  15.4134140   4.2680497
  28.2132740  14.4695606   2.5703385  29.0637875  14.0645876   3.2402148
  28.6488152  14.7811604   1.6564935  27.5868320  13.6423159   2.3304658
 -18.5559959  35.7452698  -0.3040505 -19.5991535  35.6119614  -0.6140808
 -17.9440022  35.5716667  -1.1796664 -18.3825188  36.7785263   0.0421418
 -18.3089790  34.6797142   0.8277340 -18.8390007  33.7618599   0.4906427
 -18.7561741  35.0860519   1.7843205 -16.8368130  34.4236832   0.9715957
 -16.3587837  35.3492317   1.3961293 -16.3254948  34.2168961   0.0251216
 -16.5626125  33.3003731   2.0455604 -16.8081512  33.7685623   3.0296447
 -15.5074930  33.1582527   2.0190518 -17.2796364  31.9177666   1.9669622
 -17.2958546  31.5765018   0.9294426 -18.2657070  32.0174904   2.4322083
 -16.4257984  30.8670826   2.6723170 -15.4551687  30.7676430   2.1811380
 -16.9242439  29.9111919   2.5423024 -16.1328487  31.1781101   4.1120539
 -17.0178490  31.5784912   4.6376719 -15.3577137  31.9126968   4.2027431
 -15.7141228  29.9493332   4.9032745 -15.0191689  30.2342987   5.6897445
 -15.1540394  29.2461090   4.2855902 -16.8630333  29.1182880   5.5243702
 -17.5068913  28.8215275   4.6951323 -17.4061604  29.7430592   6.1971216
 -16.3144836  27.7901287   6.1132479 -15.4123411  28.0610638   6.6502390
 -16.1004276  27.1218777   5.2527814 -17.2159939  27.0233631   7.0787296
 -18.1172791  26.8556442   6.5272598 -17.5070267  27.5881119   7.9295845
 -16.6237736  25.7086163   7.5700278 -16.6716042  24.9578381   6.7692657
 -17.3357639  25.4197483   8.3683720 -15.1819563  25.7166004   8.1631155
 -14.4550943  25.9153748   7.3119407 -14.9137125  24.7228794   8.5735006
 -14.9470034  26.7148113   9.3101482 -15.6349936  26.5199451  10.1150150
 -15.0704432  27.7444096   8.9631071 -13.4808960  26.6816444   9.8155527
 -12.8083906  26.8915348   8.9937477 -13.2876120  25.6823616  10.1859913
 -13.2067194  27.6430111  10.9118166 -12.9864035  28.8245869  10.7624474
 -13.2659454  27.0243187  12.1087370 -13.1168261  27.9293461  13.2847366
 -12.4237623  28.7645340  13.0845633 -12.6783171  27.3552341  14.0910473
 -14.5203457  28.4855824  13.7010279 -14.3649216  29.0501099  14.6173563
 -15.5073185  27.2979641  13.9244289 -14.9159012  26.4380684  14.3311749
 -15.9441652  26.9896488  13.0222025 -16.5658989  27.6784725  14.8525152
 -17.6456795  26.5947895  15.4564610 -17.2427444  26.3997192  16.9954185
 -16.1528473  25.5108452  17.4084873 -16.1520176  24.6003647  16.7620106
 -16.3019714  25.2449780  18.4515057 -14.7763433  26.1816387  17.3250065
 -14.5448351  26.5471745  16.3366108 -14.0811682  25.3871231  17.5710888
 -14.4166193  27.3712463  18.2186470 -15.1917000  28.5054779  17.7162724
 -15.0823135  28.6357288  16.6357136 -14.8242178  29.3353500  18.3189793
 -16.2320938  28.4042721  17.9893856 -14.5648212  27.1198254  19.6796818
 -13.9571142  26.2467175  19.9520721 -15.5985746  26.9722061  19.9053612
 -14.2144194  28.0271454  20.2095814 -13.0081949  27.7276821  17.9395561
 -12.4199095  26.9404697  18.3751888 -12.8454485  28.7055569  18.3557396
 -12.9159126  27.7849483  16.8656044 -19.0052738  27.2486000  15.4983006
 -17.4396477  25.3432446  14.6707783 -14.9882088  29.2767944  12.5795660
 -15.6880283  30.4370480  12.7419748 -15.9706411  30.9555817  13.8094769
 -16.2192116  30.9733562  11.4240799 -16.5135651  32.0369453  11.6099396
 -15.4677391  30.9754162  10.6905518 -17.4103355  30.1346951  10.9863243
 -17.0337410  29.1435337  10.7583895 -18.0233936  29.9927540  11.8443213
 -18.3209610  30.7272053   9.9089918 -18.6535740  31.7326241  10.1932001
 -17.7756233  30.7841988   8.9133177 -19.5595036  29.8785629   9.5884008
 -19.1872616  28.9653111   9.1799555 -20.0253201  29.6437836  10.5439472
 -20.5503654  30.5368271   8.5860147 -21.3975258  29.8939438   8.3417187
 -21.0507412  31.3789940   9.0863476 -19.9148064  31.0647030   7.3206215
 -19.2057877  31.8365650   7.5751157 -19.3622704  30.2312469   6.9194217
 -20.9607506  31.5983410   6.3474112 -21.7017479  30.8711605   6.1530013
 -21.4634991  32.4829140   6.7061706 -20.3210869  31.9753456   5.0819612
 -19.9748688  32.9888458   4.9354477 -20.2493553  31.1338310   4.0294275
 -19.8750191  31.4425068   3.0360255 -20.7627945  29.7285080   3.9839528
 -20.6617241  29.2808380   4.9397869 -21.7960396  29.6653633   3.7007568
 -19.8985786  28.9475994   3.0035548 -20.0410748  29.3243809   2.0339224
 -18.8360424  29.0320816   3.1712749 -20.2859516  27.4725704   3.0393348
 -20.4007702  27.1988983   4.1020265 -21.2439957  27.3119621   2.5800095
 -19.3673820  26.5412445   2.2258322 -19.5150833  26.6934109   1.1454865
 -18.3250656  26.7904186   2.4834445 -19.5347195  25.0882149   2.6770413
 -19.6010284  25.0010662   3.7882736 -20.4602032  24.6559734   2.2626724
 -18.3619041  24.2780876   2.1812003 -17.4875927  24.6829720   2.7298377
 -18.4292583  23.2521992   2.5051789 -18.1532784  24.3224373   0.6488760
 -19.0611534  24.2219849   0.1018736 -17.7330990  25.2906017   0.4402354
 -17.2017937  23.2147446   0.1982358 -17.0017891  23.2717361  -0.8750743
 -16.2448578  23.3900661   0.6456447 -17.5701504  22.2338657   0.5120736
 -28.5362606  13.0337868  -0.9967089 -29.5360546  13.2852993  -1.1747713
 -28.5685940  11.9580956  -0.9434906 -27.9590588  13.4308100  -1.8455987
 -28.0381966  13.5876989   0.3124156 -28.2951641  12.8881454   1.1109126
 -28.7201672  14.4108677   0.4493973 -26.6148739  14.1442823   0.4287463
 -26.5249615  14.6538754   1.3953614 -26.4159679  14.8897734  -0.3314388
 -25.4395313  13.1935635   0.3678389 -24.5375175  13.7285557   0.5619327
 -25.3006630  12.7787628  -0.6356281 -25.5915260  12.0237074   1.3509356
 -24.6931534  11.4449205   1.1950433 -26.3993626  11.4256372   1.0271906
 -25.6768703  12.4511299   2.8439870 -26.6495895  12.9070950   3.0296683
 -24.9231071  13.2320633   3.0573962 -25.5193062  11.2123508   3.7565134
 -24.5698624  10.7069960   3.5421708 -26.3209515  10.5613947   3.6144588
 -25.5530910  11.6956768   5.2109838 -26.5402775  12.0848122   5.4717631
 -24.7862740  12.5031471   5.3411655 -25.2735405  10.5082359   6.1684990
 -24.3015079  10.0715837   5.9655328 -26.0816860   9.7677307   5.9738693
 -25.3856697  10.9533348   7.6520848 -25.3696041  10.0375738   8.2507267
 -26.3814564  11.3913336   7.8455091 -24.4240036  12.0581932   8.1456070
 -24.5829792  12.9588118   7.5109315 -23.4264545  11.8257446   7.8742867
 -24.5879745  12.3342247   9.6761885 -23.7540131  12.9758759   9.9452200
 -24.4138947  11.4257278  10.2155552 -25.9221439  13.0204058  10.1150551
 -26.5222855  12.2242489  10.5162325 -26.5278797  13.4824276   9.3276320
 -25.7028313  13.9942923  11.3369198 -25.5216007  14.9370995  10.8714762
 -24.8186226  13.6689110  11.8795023 -26.9327393  14.2653694  12.2003803
 -27.4533157  13.3484230  12.5552263 -27.7077789  14.7311821  11.5528479
 -26.6365700  15.0767860  13.4376202 -25.4992886  15.5176725  13.6380758
 -27.6816387  15.2914352  14.2287455 -27.4651699  16.1475239  15.4002619
 -26.9538612  17.0466614  15.0758467 -26.7098808  15.6473112  16.0559559
 -28.7418766  16.5259037  16.2008247 -28.4020138  17.2359123  16.9701462
 -29.3345470  15.2673283  16.9030247 -29.3742294  14.4036045  16.1651039
 -30.3128223  15.3910742  17.3020725 -28.4586506  14.8270473  17.9664955
 -28.7696953  15.2653465  19.5321579 -28.3797112  16.8496895  19.6964664
 -26.9983368  17.2113438  19.5932178 -26.5592270  17.0956364  18.5881157
 -26.4104366  16.5045090  20.2137280 -26.7232494  18.6509724  20.1338043
 -25.6296177  18.8332424  20.1166077 -27.2202911  18.7279148  21.0906429
 -27.3435898  19.8097382  19.3924503 -28.8014870  19.7650146  19.3917332
 -29.0675144  18.8278103  18.9127731 -29.1100159  20.6625214  18.8027859
 -29.1858215  19.9748077  20.3845520 -26.8808537  21.1194782  20.0290794
 -25.7780304  21.0726643  19.9318542 -27.2122421  21.1400967  21.0784988
 -27.1747761  21.9443722  19.4217834 -26.9210224  19.9478607  17.9711361
 -25.8394508  20.0987148  17.8804665 -27.4473400  20.7725506  17.4491444
 -27.1295090  19.0341949  17.4307079 -30.2473526  15.0951900  19.8126297
 -27.7978878  14.4901266  20.3827457 -29.7419453  17.0994492  15.3254175
 -30.4571629  18.1450520  15.7999725 -30.4253979  18.5474682  16.9899731
 -31.2082844  18.8958969  14.6770658 -31.5511303  18.1516628  13.8945293
 -32.1531448  19.2718754  15.1430321 -30.3774567  19.9439602  13.9760723
 -31.1003571  20.6034775  13.4613609 -29.9004936  20.5913143  14.7352638
 -29.2829113  19.4102020  12.9910955 -28.8712864  20.2969360  12.5433083
 -28.4688644  18.9090881  13.5380745 -29.8502197  18.4577408  11.9656391
 -30.2319145  17.5614624  12.4628677 -30.6538277  19.0161629  11.3798618
 -28.7697334  17.8692532  11.1139345 -28.2719269  18.6364880  10.5114784
 -28.0667515  17.4964409  11.8221178 -29.2678375  16.8301945  10.1134014
 -29.8048992  16.0246067  10.6786118 -30.0171375  17.2541885   9.4190111
 -28.1052876  16.2576408   9.2225666 -27.6813602  17.0646553   8.6456985
 -27.3520470  15.8755360   9.8917131 -28.6004353  15.1569223   8.3616772
 -29.0494633  14.3147860   8.9101086 -28.5818405  15.0794210   7.0379410
 -29.1024303  14.2045298   6.5799284 -27.9322510  16.0283184   6.0591707
 -28.6380215  16.5588341   5.4997616 -27.2363873  16.7285614   6.5264411
 -27.1125908  15.1597204   5.0705094 -26.5893784  14.3445835   5.5619698
 -27.7608948  14.7197237   4.2723932 -26.1152267  16.0197430   4.3367991
 -25.5614014  16.5732346   5.0656676 -25.4303265  15.3982840   3.8132999
 -26.7306156  17.0252247   3.2896411 -27.2253914  16.3508835   2.6113057
 -27.4469757  17.6881447   3.7917759 -25.6833878  17.7849503   2.4515219
 -25.1156979  18.4414234   3.0337100 -25.0368996  17.0514507   2.0375199
 -26.2800255  18.5535736   1.2619531 -26.9113541  17.8478184   0.6865138
 -26.9466496  19.3058529   1.6934807 -25.1945686  19.1762314   0.3752915
 -24.6276970  19.9464550   0.8686215 -24.5423317  18.4058208   0.0045392
 -25.8566380  19.7654743  -0.8817691 -25.0294800  20.2265549  -1.4021945
 -26.5480118  20.5575409  -0.5888188 -26.3053341  18.9659843  -1.5057702
  26.6466179   7.0607977   0.7417768  26.2721043   6.0711427   1.0991433
  25.9743500   7.4218869  -0.0215326  26.7904930   7.7027340   1.5808498
  28.0346851   6.9797568   0.1340247  28.0603504   6.2970190  -0.7238897
  28.6784153   6.6390829   0.9128776  28.4800625   8.3889370  -0.3992271
  27.7233334   8.7863913  -1.0466731  29.3590660   8.2935629  -0.9734482
  28.8561802   9.3361034   0.7613835  28.0367451   9.4090166   1.4281017
  28.8409500  10.3782225   0.3133213  30.1696014   9.0505371   1.4902618
  31.0261250   9.2440891   0.8464927  30.1989460   8.0022154   1.8180561
  30.2366924  10.0290098   2.6870763  29.4160175   9.7463427   3.3594081
  30.1105499  11.0406866   2.2993226  31.6092281   9.9366322   3.4115100
  31.7010231  10.7180233   4.0699224  32.4476738  10.1712093   2.7751732
  31.9594650   8.6625967   4.1468210  32.8790245   8.8461514   4.7173438
  32.0805206   7.8925476   3.4284470  30.9023876   8.1718149   5.1489887
  31.1950893   7.2430229   5.6417985  29.9540749   7.9478602   4.6495891
  30.6132679   9.1851921   6.2646933  29.9333782   9.9424658   5.8724146
  31.5407352   9.6593437   6.6764569  29.8993950   8.4856930   7.4447017
  30.4128742   7.5340719   7.7027659  28.8241100   8.1946602   7.1740270
  29.8237038   9.3197956   8.7272434  29.4876709  10.3088398   8.4514389
  30.8694191   9.4403114   9.0886183  28.9600868   8.6861925   9.8674631
  29.0267353   9.3069592  10.6901178  29.4975357   7.7572021  10.1681814
  27.4850636   8.3972998   9.5785437  27.0795860   7.7098413  10.3345108
  27.3850727   7.9636250   8.5783796  26.6234035   9.6445332   9.5612183
  25.5916100   9.5253859   9.2325344  27.0842857  10.2886772   8.7982559
  26.6196804  10.2610321  10.9598169  26.2440910   9.7372284  11.9910898
  26.9931316  11.5571976  10.8731194  27.1762161  12.4294462  12.0680132
  26.3952427  12.2222319  12.8496733  27.1610718  13.4678926  11.7607775
  28.5068703  12.2623940  12.7705536  28.5785942  11.2535658  13.1593933
  28.7017612  13.3010302  13.9070940  28.4915752  14.3277826  13.5312319
  29.7266197  13.3980322  14.2684269  27.8059006  12.9546442  15.0221729
  28.2969646  13.0642128  16.5737667  29.3986111  11.9265804  16.7717896
  30.7697716  12.1997700  16.3733692  30.9694271  13.2534609  16.5004311
  30.9438019  12.0052862  15.3197441  31.8007183  11.3645468  17.2382965
  31.6839981  11.6297436  18.3032436  32.7999344  11.5972319  16.9449024
  31.6629963   9.8892918  17.1775513  31.5653076   9.4046764  15.7773056
  30.6815166   9.7786627  15.3232050  31.4866619   8.2826920  15.8544884
  32.4293709   9.7772465  15.2332687  32.8294716   9.1784897  17.7753906
  32.7585678   9.3336115  18.8643856  33.7225914   9.5238781  17.2961617
  32.6644020   8.1473703  17.4974670  30.4718189   9.4490366  17.9679909
  30.4974918   9.9325237  18.9360218  30.4606075   8.3488035  17.9822865
  29.5800686   9.7526636  17.4494534  28.9513817  14.3893709  16.8102646
  27.1387768  12.7110310  17.4465523  29.5073414  12.4603786  11.6841755
  30.6992035  11.8294773  11.7362165  31.0327358  11.2629375  12.7577391
  31.5316563  11.9655886  10.4858065  32.1774292  11.1031284  10.2881517
  30.7816029  12.0060911   9.6905231  32.4540482  13.1683149  10.5146589
  31.8495865  14.0363693  10.6979647  33.0940475  13.0900974  11.3987913
  33.3469391  13.2514305   9.2506943  33.9063301  14.1729116   9.2440376
  34.0560989  12.4232054   9.3392916  32.6649017  13.1161270   7.8848944
  33.4416389  13.1251154   7.1466041  32.1889572  12.1492682   7.8740354
  31.6307831  14.2000523   7.5856876  30.8404255  14.1975498   8.3153706
  32.0702782  15.1974144   7.5142174  31.0192661  14.0099134   6.2082410
  30.3259068  14.8460827   6.0918756  31.8108578  14.0586395   5.4557424
  30.1555538  12.7221117   6.0242615  29.9454613  12.6129007   4.9596257
  30.7111969  11.8194475   6.2357006  28.9034653  12.7246180   6.8726425
  28.9703159  13.1489944   7.8638706  27.7104645  12.3404417   6.4563951
  26.8580666  12.4501982   7.1085625  27.3951988  11.7427111   5.1374793
  26.8275433  12.4905500   4.6033726  28.2378807  11.5059109   4.5212288
  26.5934582  10.4250526   5.3740196  27.2537899   9.7689934   5.9788413
  25.6605415  10.6268520   5.8495951  26.4177685   9.5824327   4.1008539
  25.7809544  10.1593819   3.4124928  27.3477840   9.4485493   3.5503845
  25.7475185   8.2463474   4.3266602  24.7296066   8.4198656   4.6749306
  25.6563797   7.7212782   3.3697181  26.4554100   7.2663693   5.3033476
  27.5198746   7.2114925   5.1049991  26.2463093   7.6118326   6.3421874
  25.7876816   5.8170223   5.3060675  26.1552906   5.2826366   6.1837296
  24.6586227   5.9608231   5.3849039  26.1062737   4.9854231   4.0649066
  25.8759594   5.5227876   3.1902659  27.1299171   4.7910042   4.0129504
  25.3652306   3.6537478   3.9485917  25.4260674   3.2696989   2.9025924
  24.2584705   3.7962916   4.0469828  25.7171745   2.8667853   4.5885568
  26.2171440  -4.8861179   4.5447979  25.9689178  -5.6229014   3.8067141
  27.3072433  -4.7737546   4.6030908  25.7333832  -3.9977381   4.1748028
  25.6277828  -5.2775931   5.8721538  25.9839935  -6.2606249   6.2216573
  24.5008259  -5.3783755   5.8010530  25.9084702  -4.2157845   6.9378543
  25.4299908  -4.5256863   7.8779025  25.4621696  -3.2707331   6.5944319
  27.4221592  -3.9384761   7.2674851  27.4637890  -3.1494186   8.0332537
  27.9012604  -3.5558472   6.3880486  28.1276512  -5.2566628   7.6876621
  28.1807442  -6.0111580   6.9067521  27.5660248  -5.7157059   8.4899197
  29.5850868  -4.8875718   8.0000992  29.6282864  -3.9500535   8.5955667
  30.0881405  -4.7083197   7.0887451  30.3094501  -6.0037766   8.8308668
  31.3631039  -5.7333765   8.8771830  30.1915073  -6.9360590   8.3087349
  29.7551327  -6.1520581  10.2787018  28.7641735  -6.5785055  10.1610508
  29.6351700  -5.1951981  10.7547750  30.6745377  -6.9886136  11.2054167
  30.8917217  -7.9619412  10.7085123  30.1426868  -7.3019814  12.1376629
  31.9699478  -6.2394171  11.6163492  32.5317802  -6.0432510  10.7050953
  32.5289268  -6.9617529  12.1907606  31.8559551  -4.9103208  12.3787489
  31.6015244  -4.1039443  11.6593256  32.8547020  -4.6184115  12.6696262
  30.9695530  -4.8430910  13.5928526  31.2520962  -5.6581979  14.3026352
  29.9323101  -5.0785761  13.3125439  30.8906021  -3.4519901  14.2312193
  30.7130280  -2.6472235  13.4925613  31.8453026  -3.2115004  14.6859827
  29.7985382  -3.3587053  15.2818823  29.8988056  -4.1537347  15.9951887
  28.8188152  -3.4114537  14.8180475  29.8830585  -1.9995821  15.9830704
  29.8905354  -1.0958164  15.3422022  30.8513546  -2.0188241  16.5439568
  28.7558250  -1.8781627  17.0074291  27.5560474  -1.6985779  16.7862129
  29.3004417  -1.9734042  18.2175083  28.4251690  -2.0383439  19.3713551
  27.5563984  -1.4473958  19.2683868  28.9957218  -1.5477073  20.1699333
  28.0126305  -3.5047212  19.7590294  27.4167900  -3.4452634  20.6329746
  29.2605896  -4.4565816  19.9931259  30.1386528  -3.9975004  19.5784492
  29.1872292  -5.4360819  19.4426689  29.5408134  -4.8361435  21.3567142
  30.0204105  -3.7647066  22.4478703  31.4754086  -3.4034336  21.8287506
  32.5565491  -4.3750825  21.7730408  32.0965958  -5.3424997  21.7861080
  33.3155708  -4.3261256  22.5998344  33.2094536  -4.1694036  20.3689175
  32.5024872  -4.2342763  19.6314468  33.8900795  -4.9745579  20.2864265
  34.0294800  -2.9403851  20.1008778  34.7475281  -3.0280523  18.7845383
  35.5314331  -3.8037696  18.8655930  35.1481285  -2.0668397  18.5499096
  34.1470871  -3.3981686  17.9088211  33.1571732  -1.7500423  20.1969128
  32.5978241  -1.7181360  21.1166077  32.4756241  -1.7697142  19.3379040
  33.7446747  -0.8427405  20.1321335  35.1175919  -2.8031218  21.1058826
  34.6741257  -2.6853278  22.1067924  35.7479897  -2.0031073  20.7894917
  35.6121979  -3.7919073  21.1969013  29.0671349  -2.6663029  22.3256283
  30.0531769  -4.4781809  23.7712955  27.2609310  -4.1220264  18.6402683
  25.9829979  -3.8193223  18.5079842  25.3579502  -3.1883030  19.3471127
  25.3294163  -4.4015145  17.2700558  24.3076115  -3.9654410  17.0920963
  25.9172802  -4.0378685  16.4723854  25.3020897  -5.9332900  17.2391758
  26.2794704  -6.3683519  17.4585361  24.6216431  -6.3119836  17.9762039
  24.8521461  -6.3832140  15.8051634  24.6064835  -7.4176078  15.8714781
  23.9441872  -5.8632183  15.5066099  25.9229698  -6.1561661  14.7059546
  25.9853077  -5.1023393  14.4228134  26.9251900  -6.5029068  15.0203028
  25.5985432  -6.9087367  13.4155521  25.7725258  -7.9628415  13.5598946
  24.5016460  -6.8060880  13.1691275  26.3925285  -6.5248132  12.0769873
  27.4681377  -6.5594587  12.3270979  26.2016296  -7.3615479  11.3651648
  26.0882549  -5.1457357  11.5083075  26.2240505  -5.1434903  10.3868017
  25.0965481  -4.8479724  11.6642103  27.1007557  -4.1419964  12.0309010
  28.1190510  -4.3006654  11.7511835  26.7769737  -3.1052473  12.8236971
  27.5915375  -2.4013524  13.1576433  25.4024487  -2.7451086  13.4412785
  24.7635841  -3.6070981  13.3880272  25.5733337  -2.4126177  14.4378653
  24.7710400  -1.5630735  12.6926765  23.9149971  -1.1449064  13.2274666
  25.4982738  -0.7165707  12.5570955  24.3193665  -1.9733930  11.2946434
  25.2114372  -2.1701846  10.7260599  23.7648945  -2.9108498  11.3760700
  23.3940392  -0.9432752  10.6864347  22.4984283  -0.8486766  11.3583698
  23.8887787   0.0006844  10.6899395  22.9363289  -1.2976664   9.2288504
  22.3595505  -0.4360927   8.8413830  23.7633781  -1.4620414   8.6016321
  22.0865993  -2.6398790   9.1591969  22.7839088  -3.3812933   9.6241379
  21.2011623  -2.5927582   9.8178539  21.8325405  -3.1159387   7.7050743
  21.4583778  -2.3067527   7.0300746  22.8320103  -3.4239972   7.3214645
  20.8365993  -4.2792196   7.5942011  20.7832050  -4.6391997   6.5735574
  19.8279228  -3.9002941   7.8978581  21.0339775  -5.0558720   8.3463955
 -20.7730083  19.6848412  -0.5226334 -20.2694168  19.4581394  -1.4687480
 -21.8054409  19.3496056  -0.5393597 -20.2987785  19.1069069   0.2668456
 -20.6703472  21.1726570  -0.1545046 -20.8795071  21.7704182  -1.0979476
 -19.6288528  21.4217186   0.1451192 -21.6796722  21.5816574   0.9403401
 -22.6890202  21.1770287   0.6418455 -21.7089119  22.6786804   0.9695795
 -21.2871532  21.0329800   2.2962787 -20.2321167  21.3023262   2.5212884
 -21.4019489  19.9622765   2.3239951 -22.2737122  21.6234703   3.3559575
 -23.2841892  21.5072613   2.9800966 -22.0987148  22.6556664   3.4676557
 -22.2237377  21.0461979   4.7856979 -22.4673443  19.9991875   4.7982225
 -22.9999752  21.5343838   5.3720994 -20.8248501  21.0888367   5.3909631
 -20.2216988  20.4807873   4.7120204 -20.8317547  20.5364399   6.3058114
 -20.2127476  22.4953499   5.5562282 -20.9386921  23.1713390   5.9321065
 -20.0606918  22.8073959   4.5130267 -18.8212318  22.5519924   6.2835941
 -18.5063610  23.5619583   6.4338713 -18.0341358  22.1315670   5.6428409
 -18.7919254  21.7774677   7.6404924 -17.7672997  21.7764835   8.0109196
 -19.0813370  20.7136555   7.4372692 -19.6179695  22.3674965   8.7371941
 -20.6699352  22.4109631   8.4752903 -19.2316113  23.3347301   8.9407053
 -19.5004387  21.6571693  10.0922155 -20.0920334  22.2178631  10.8662806
 -18.4538727  21.8069725  10.4291258 -19.8495903  20.2007656  10.0895710
 -19.1339741  19.6982784   9.4519215 -20.8149738  20.0675945   9.6438541
 -19.7501202  19.5712967  11.5077543 -20.4139557  20.2013435  12.1895370
 -18.7356281  19.5709629  11.9137869 -20.2478523  18.1068382  11.5256014
 -19.5468655  17.3961906  11.0961924 -21.1765327  18.1791534  10.9241409
 -20.6389542  17.6935959  12.9667873 -19.8715248  17.6557140  13.9041758
 -21.9642353  17.4488106  13.1407871 -22.5198631  17.0893631  14.3999853
 -21.7764091  16.3817196  14.9046221 -23.4120770  16.5583305  14.0946188
 -22.8179073  18.2885723  15.3743572 -21.8563442  18.6643410  15.6813898
 -23.5447140  17.6907139  16.5988293 -22.8550339  16.9303627  17.0152836
 -24.4870930  17.2114201  16.2845879 -23.9078617  18.7181587  17.6264076
 -22.7326488  19.3544044  18.5864105 -22.0465450  20.4414215  17.6367245
 -22.7532177  21.6807175  17.3146706 -23.7742596  21.7090015  17.7001209
 -22.7975559  21.7604904  16.2230453 -21.9034309  22.8743362  17.8116970
 -21.8822842  22.8036041  18.8997669 -22.5112362  23.7915401  17.5569019
 -20.5219097  23.0880623  17.2499809 -20.3897114  22.9599228  15.7716074
 -20.6551952  21.9477482  15.4345913 -19.3948345  23.2706814  15.5367460
 -21.0701637  23.7151127  15.2938833 -20.1650505  24.4491425  17.5776196
 -20.3174095  24.6277428  18.6565742 -20.6272125  25.2213383  16.9324703
 -19.0942612  24.6177082  17.3669796 -19.5574055  22.0978527  17.8877258
 -19.7918873  22.1620102  18.9343433 -18.5102921  22.2816868  17.6403370
 -19.8722420  21.1485786  17.5451832 -23.4441261  19.9975262  19.7204952
 -21.7643147  18.2584991  18.8651104 -23.7726574  19.2241459  14.7663298
 -23.2361317  20.2075119  14.0470839 -22.0895576  20.5891991  14.1145573
 -24.1292553  20.8131638  12.9611406 -25.1361370  20.3179207  12.9257212
 -24.3384724  21.8287315  13.2680426 -23.4121246  20.6456585  11.6436119
 -22.4090939  21.0790234  11.6170902 -23.2932091  19.5717010  11.3928690
 -24.2448349  21.3563805  10.5603428 -25.2600117  20.8983021  10.4749832
 -24.4569130  22.4037819  10.9370794 -23.5908241  21.5172939   9.1785250
 -24.1666107  22.2355156   8.6371288 -22.5922966  21.9924717   9.3428726
 -23.4394169  20.1891327   8.4137640 -22.7716713  20.4502411   7.6075120
 -22.8574924  19.4945297   9.0307369 -24.7627296  19.6369438   7.8752012
 -25.3335285  19.2449512   8.7467985 -25.3112583  20.4872036   7.4009032
 -24.6702042  18.4901524   6.8694444 -25.6825085  18.3236637   6.4660902
 -24.0193729  18.8641510   6.0613294 -24.3177452  17.1118984   7.4222870
 -24.9825172  16.6966839   8.1594276 -23.2005959  16.4353333   7.1044612
 -23.0141239  15.4868126   7.5699186 -22.1412086  16.8731022   6.0889578
 -21.8769875  17.8799515   6.2001047 -21.2638645  16.2959499   6.3851290
 -22.5473232  16.5148945   4.6338263 -22.5514030  15.4187527   4.5901093
 -23.5494690  16.8925343   4.2822895 -21.5033989  17.1032314   3.6695676
 -21.4265823  18.1658936   3.8251867 -20.5519199  16.6410656   3.9181278
 -21.8416576  16.9208908   2.1785684 -22.7266712  17.4663315   1.9461684
 -20.9797516  17.3559132   1.6470827 -22.0159512  15.4691181   1.7613246
 -21.2838764  14.8709574   2.2764292 -22.9715443  15.1603851   2.1511366
 -21.8685131  15.1737556   0.2581759 -20.8211117  15.2571764  -0.0315474
 -22.2339458  14.1465006   0.0420457 -22.7081509  16.0426884  -0.7078121
 -23.7735939  15.7936134  -0.5742803 -22.6298504  17.0609455  -0.4419148
 -22.2399311  15.7579556  -2.1390274 -23.0487041  16.0701714  -2.8064368
 -22.0671387  14.6863127  -2.2750559 -21.3513298  16.2788811  -2.4264810
 -19.3216305 -20.9514332   2.7714846 -19.2304821 -21.1480560   1.6885442
 -20.3304787 -21.1591187   3.0654778 -18.6215744 -21.5354004   3.3379114
 -19.0919266 -19.4363098   3.0141399 -18.0882988 -19.1158085   2.7190738
 -19.0628605 -19.2054157   4.0484352 -20.0500374 -18.4266853   2.3242335
 -19.6826439 -17.4147835   2.5522602 -21.0273018 -18.6004314   2.7397892
 -20.0621777 -18.4728165   0.7688127 -20.6791916 -17.6492386   0.4209281
 -20.5142193 -19.4252434   0.4819849 -18.7150307 -18.4260292   0.0208081
 -18.2472496 -19.3472519   0.2393591 -18.0342770 -17.6340294   0.3540092
 -19.0299759 -18.2556934  -1.4580070 -19.4919987 -17.2898502  -1.5529711
 -19.7494469 -19.0213394  -1.7643524 -17.7936020 -18.4870453  -2.3597705
 -16.9087524 -18.1178589  -1.8402392 -17.8529758 -17.8670006  -3.2989368
 -17.5972576 -20.0122490  -2.7477131 -18.4458904 -20.3798466  -3.2981775
 -17.6355247 -20.6138153  -1.8506426 -16.3077526 -20.3224030  -3.5467653
 -16.3058243 -21.3920250  -3.7553883 -15.4287672 -20.1058750  -2.9110277
 -16.1794777 -19.4107094  -4.7531805 -15.1826868 -19.4666595  -5.1909609
 -16.2447433 -18.3936100  -4.4516320 -17.2684479 -19.6918850  -5.8992839
 -18.2602520 -19.3999863  -5.5208945 -17.2713680 -20.7679272  -6.0241871
 -16.9393196 -18.9765530  -7.1785712 -16.7007637 -18.0074825  -6.8228812
 -17.7732506 -18.8897820  -7.8400950 -15.7639446 -19.6190605  -7.8716145
 -14.9840679 -19.9598141  -7.1709828 -15.3012743 -18.8111038  -8.4393539
 -16.1426430 -20.7024002  -8.9855328 -17.0190182 -20.3899879  -9.5537043
 -16.3696194 -21.6289120  -8.4690828 -15.0013504 -21.0889854  -9.9079142
 -14.2485161 -21.6542892  -9.3317614 -14.4824791 -20.2105751 -10.3225126
 -15.4780397 -22.0395451 -10.9732237 -15.7844820 -23.1865349 -10.8068647
 -15.7516851 -21.4255314 -12.1409025 -16.4819126 -22.0752068 -13.1542034
 -17.3221531 -22.5362968 -12.6327095 -15.7974682 -22.8300552 -13.6348763
 -16.9160786 -21.1181297 -14.2781153 -17.6269531 -21.6583996 -14.8970842
 -15.7163038 -20.7713108 -15.1746559 -14.7682085 -21.0528831 -14.6571360
 -15.6917057 -19.7065182 -15.4047012 -15.7125130 -21.5345268 -16.4086189
 -14.7102604 -21.2028732 -17.6677666 -15.2436819 -19.7819710 -18.1638355
 -16.4835968 -19.7135601 -18.9334145 -16.8768044 -20.7114410 -19.2121849
 -16.3486919 -19.1744404 -19.8793869 -17.5442390 -18.9038963 -18.1098824
 -17.7964306 -19.4571152 -17.1785297 -18.4733410 -18.8783913 -18.6536388
 -17.2397957 -17.5175190 -17.7162323 -16.5012779 -16.6944542 -18.7473946
 -15.7128048 -17.2833633 -19.1177368 -16.1614952 -15.7465086 -18.3737106
 -17.2008858 -16.6071949 -19.5656815 -18.5268269 -16.8486767 -17.3501472
 -19.0813370 -17.6161499 -16.7736435 -19.0170498 -16.5666084 -18.2764378
 -18.2520065 -15.9771957 -16.7812881 -16.3129234 -17.4088898 -16.5430298
 -16.7883720 -17.9374733 -15.7051611 -16.2318630 -16.3646679 -16.3671722
 -15.3555098 -17.8806248 -16.8567924 -13.3576298 -21.0417156 -17.1476078
 -14.9512920 -22.1965523 -18.7510910 -17.5256081 -19.8575764 -13.8796892
 -18.5013943 -19.8521004 -12.9811058 -19.0134811 -20.8570080 -12.4868507
 -18.9873371 -18.4153309 -12.7501678 -18.6280937 -17.7904720 -13.5234022
 -20.0727634 -18.4401245 -12.7825308 -18.4662533 -17.9582672 -11.3842316
 -18.8411350 -16.9723778 -11.1459837 -18.8793068 -18.6597023 -10.6346817
 -16.9631729 -17.9581299 -11.3073578 -16.6634979 -17.7917652 -10.2556801
 -16.6171093 -18.9524746 -11.5414057 -16.2358284 -16.9341393 -12.2187052
 -16.5512733 -17.1163864 -13.2170954 -16.5486946 -15.9267578 -11.8877716
 -14.6922226 -16.9723225 -12.0978689 -14.4132004 -17.9959335 -12.2527781
 -14.2357817 -16.2686005 -12.7973480 -14.3388405 -16.4460545 -10.6871738
 -14.7850838 -15.4648876 -10.4548349 -14.7486601 -17.1092834  -9.9281588
 -12.8340445 -16.2990837 -10.5412407 -12.4009886 -15.8232269 -11.4466038
 -12.6138153 -15.6750641  -9.6926699 -12.0939722 -17.6695728 -10.3886976
 -12.2392750 -18.4107189 -11.2008133 -11.3537312 -17.9920845  -9.3461990
 -10.8301868 -18.9413471  -9.3349838 -10.8605022 -17.0185070  -8.2352877
  -9.9894314 -17.4562435  -7.7116961 -10.5623426 -16.0196514  -8.5861816
 -11.8591213 -16.7721100  -7.0981798 -11.3066568 -16.3625317  -6.1938424
 -12.6946535 -16.0930958  -7.3813372 -12.4938192 -18.1029968  -6.5577989
 -13.2229509 -17.8043480  -5.8044910 -13.0254259 -18.6152325  -7.3627930
 -11.5614357 -19.0602474  -5.8108015 -10.6438370 -19.2164154  -6.4213443
 -11.2921295 -18.6086941  -4.8792915 -12.2565184 -20.4173279  -5.5058885
 -13.2123699 -20.1985722  -5.0160890 -12.5973501 -20.8005638  -6.4512248
 -11.4572620 -21.4592190  -4.7144485 -11.8760967 -22.4623470  -4.8574581
 -10.4230928 -21.4915638  -5.0740104 -11.3785696 -21.2577362  -3.1905947
 -11.0408401 -20.2717800  -3.0082135 -12.4212284 -21.3192158  -2.7547169
 -10.4449186 -22.2088528  -2.4719911 -10.3553972 -21.9991913  -1.3633602
  -9.4781427 -22.1905041  -3.0353782 -10.8360519 -23.2196465  -2.5796926
 -17.7565575 -37.2489319   1.4181875 -17.1469574 -36.3560829   1.5664159
 -18.0489178 -37.6398392   2.4209702 -18.6117134 -36.9478722   0.8530704
 -16.9741764 -38.3349762   0.6187835 -16.0461044 -38.5077934   1.1342152
 -16.7617378 -38.0303535  -0.3856229 -17.7239723 -39.6757927   0.6722429
 -18.7103119 -39.5822449   0.2397798 -17.9527569 -39.9905815   1.6659117
 -16.9636116 -40.8270798   0.0268593 -17.4156799 -41.7422256   0.3766445
 -15.8959770 -40.8525887   0.3680834 -16.9538860 -40.7811584  -1.5064962
 -16.8346062 -39.7554779  -1.8475571 -17.9137955 -41.2610245  -1.8784583
 -15.7235775 -41.5598869  -2.0473864 -15.8774710 -41.6871796  -3.1490207
 -15.6740875 -42.5627174  -1.6249902 -14.3650932 -40.8506393  -1.8498915
 -14.1342592 -40.7716331  -0.7663102 -14.4624462 -39.8748512  -2.2212956
 -13.2405806 -41.6799583  -2.5670955 -13.4322948 -41.6120491  -3.6566939
 -13.3082428 -42.7396851  -2.2690091 -11.7968798 -41.2475166  -2.3052166
 -11.0862532 -41.9266129  -2.8000367 -11.5176544 -41.3919296  -1.2546825
 -11.5335178 -39.7887459  -2.5916126 -10.5107317 -39.6949806  -2.4009500
 -12.0753870 -39.1286774  -1.9215016 -11.8004074 -39.1832733  -4.0249786
 -11.3956451 -38.1447563  -4.0497985 -12.8448067 -39.0412025  -4.2916050
 -11.0678902 -40.0117149  -5.0852213 -11.7417431 -40.7919006  -5.4497538
 -10.1676474 -40.4379044  -4.6050267 -10.6156874 -39.1034431  -6.2819743
  -9.9534788 -39.5864182  -6.9701071 -10.0377331 -38.3250237  -5.7925420
 -11.7345190 -38.3162422  -7.0312233 -12.4072838 -37.7721481  -6.4108758
 -12.3716440 -39.0893707  -7.6127315 -10.9702101 -37.3279228  -7.9665275
 -10.1946497 -37.8240547  -8.6153431 -10.3795872 -36.6197014  -7.3934674
 -11.9255362 -36.5812378  -8.8559513 -13.0852566 -36.9254379  -9.0280933
 -11.4057350 -35.4764786  -9.3755989 -12.0269108 -34.7588654 -10.4793034
 -12.3005285 -35.5448494 -11.2109232 -11.2600555 -34.1645546 -10.9416580
 -13.2121172 -33.8605270 -10.0820541 -13.8070412 -34.4656792  -9.4430742
 -14.0328493 -33.4384270 -11.3683405 -14.7968826 -32.6438828 -11.0989571
 -14.5164061 -34.3286285 -11.7538662 -13.1698513 -32.8839645 -12.3845921
 -13.1080427 -31.2818699 -12.7045689 -12.0768976 -30.6515789 -11.5857563
 -10.6410179 -30.8185501 -11.6759577 -10.4552269 -31.8593483 -11.9713964
 -10.2896023 -30.6406689 -10.6800270 -10.0277376 -29.7987919 -12.6498508
 -10.4447460 -29.9315243 -13.6587534  -8.9625130 -29.9852219 -12.7052746
 -10.1904573 -28.3429031 -12.2344885  -9.6317921 -28.0987396 -10.8932323
 -10.2015247 -28.7298031 -10.2145920  -9.8408241 -27.0466309 -10.6794586
  -8.5661716 -28.3970661 -10.8899727  -9.5636072 -27.4442787 -13.2976999
  -9.7641878 -27.7878590 -14.3182182  -8.5043535 -27.4696388 -13.1178293
  -9.8464622 -26.3966408 -13.1995354 -11.6079998 -27.9251137 -12.2680197
 -12.1685209 -28.3590221 -13.1255808 -11.7313595 -26.8556194 -12.3762569
 -12.0312042 -28.2768269 -11.2810125 -12.4411888 -31.0592060 -14.0110245
 -14.4217873 -30.6737118 -12.4043655 -12.6492329 -32.6967697  -9.3741560
 -13.4856720 -31.7632484  -8.8142138 -14.7130976 -31.8460751  -8.8211994
 -12.6969147 -30.6494999  -8.1352768 -11.5962982 -30.6938248  -8.3973637
 -13.1067657 -29.7042446  -8.4541559 -12.9017124 -30.7358627  -6.6015177
 -12.5157728 -29.8278503  -6.1605310 -13.9327707 -30.7990437  -6.4381738
 -12.1283998 -31.9714737  -6.0204978 -12.5510998 -32.8387909  -6.4675593
 -11.1211061 -31.9489098  -6.3931565 -12.1753635 -32.0585175  -4.4970427
 -11.3998404 -32.7787743  -4.1171646 -11.8427362 -31.1209316  -4.0977206
 -13.5288858 -32.4803581  -4.0315251 -14.2461720 -31.8098850  -4.4988503
 -13.7559118 -33.4807129  -4.4636445 -13.7528315 -32.4781723  -2.5331352
 -13.0218363 -33.1592598  -2.0771041 -13.6448851 -31.5175743  -2.0506198
 -15.1313972 -32.9507599  -2.1479557 -15.1707163 -33.0195732  -1.0583060
 -15.8987150 -32.2017517  -2.3951859 -15.4421387 -34.2851257  -2.8103635
 -15.7297344 -34.3454094  -3.8389640 -15.1283884 -35.4613914  -2.2631648
 -15.2251616 -36.4094048  -2.8105130 -14.6284389 -35.5296593  -0.8016160
 -14.0786734 -34.6632423  -0.5147418 -15.4833136 -35.6082878  -0.0888927
 -13.7273655 -36.7911415  -0.5945330 -14.3376837 -37.6278763  -0.8394591
 -12.9198895 -36.7389145  -1.3216813 -13.2778606 -36.9162483   0.8798539
 -12.5139866 -36.1826134   1.0730608 -14.1136351 -36.8252106   1.5755934
 -12.6881208 -38.3275337   1.0925778 -13.4050503 -39.0887527   0.8783573
 -11.9385061 -38.4094543   0.3258005 -11.9814358 -38.5723686   2.4381671
 -11.1912298 -37.8283043   2.4729555 -12.6612682 -38.4271851   3.3040726
 -11.3500414 -39.9526138   2.4593387 -12.0392752 -40.7951698   2.2209318
 -10.6437645 -39.9858665   1.6391268 -10.5296421 -40.2285194   3.7895408
 -10.0129433 -41.1735687   3.7103531  -9.7645426 -39.4229736   3.8776054
 -11.4107599 -40.2395439   5.0862379 -10.8550987 -40.2880478   6.0380707
 -12.0655861 -41.1829453   5.0335360 -12.1528101 -39.4643784   5.1848264
  -7.3800845 -41.3980942   0.9813148  -7.9316969 -40.7745514   1.6965533
  -6.3497663 -41.5251999   1.3339449  -7.8672047 -42.3705139   0.9736555
  -7.4723921 -40.8331070  -0.4625801  -7.1194310 -39.8188782  -0.4021099
  -8.5322886 -40.7700691  -0.7350024  -6.7933207 -41.7196312  -1.5622966
  -7.1616802 -42.7622643  -1.4425755  -5.7325053 -41.7561684  -1.3417279
  -7.0416093 -41.2931061  -3.0182538  -6.8362803 -40.2314720  -3.0822229
  -8.1337986 -41.3769188  -3.2606544  -6.3285441 -42.1891747  -3.9921496
  -6.5030117 -41.8445358  -5.0156898  -6.6537805 -43.2278595  -3.9872537
  -4.7846837 -42.2163010  -3.7834263  -4.3567986 -42.9373741  -4.4670420
  -4.5744891 -42.5965157  -2.7720356  -4.1104941 -40.8694038  -4.0580831
  -4.5212755 -39.9961128  -3.5369661  -4.1110535 -40.6250343  -5.1161957
  -2.6425056 -40.9953270  -3.7239778  -2.2711239 -41.7749596  -4.3841600
  -2.5133023 -41.2699852  -2.6965950  -1.8846385 -39.6761894  -3.9839530
  -0.8941778 -39.7096863  -3.5632935  -2.3705854 -38.8885994  -3.3950500
  -1.7891771 -39.1782455  -5.4058142  -1.4861476 -38.1490097  -5.3299375
  -2.7566292 -39.1885300  -5.8351946  -0.7084971 -39.9838333  -6.2169766
  -1.0256435 -41.0081177  -6.3338609   0.2199135 -39.9852524  -5.6463790
  -0.5255197 -39.2756348  -7.5896568   0.1694860 -39.9315491  -8.1223078
  -0.0735975 -38.3153305  -7.5472116  -1.7516600 -39.1178932  -8.4528627
  -1.5232849 -38.6008530  -9.3925838  -2.4469182 -38.4422913  -7.9006529
  -2.4664922 -40.4767189  -8.7526779  -3.0868647 -40.7928619  -7.8935738
  -1.7494645 -41.2546768  -8.8819227  -3.2574372 -40.3770676 -10.0992737
  -3.5593665 -41.3991318 -10.2976599  -2.6189802 -40.0645409 -10.9295197
  -4.5575027 -39.6015625  -9.9777899  -4.6480408 -38.4860077  -9.4354420
  -5.6111407 -40.2700768 -10.4411945  -6.9580693 -39.7853699 -10.2195892
  -7.1845441 -39.4636269  -9.2027798  -7.5175529 -40.6402397 -10.4256191
  -7.5175576 -38.7038078 -11.1749163  -8.5772476 -38.8561668 -11.1457024
  -7.1408458 -38.9054871 -12.6823378  -7.6853800 -38.1902733 -13.3057261
  -7.4589820 -39.9140511 -12.9642067  -5.7179456 -38.8520470 -12.8618231
  -4.9915028 -39.1183815 -14.2529907  -5.2405000 -37.7626343 -15.0359344
  -4.5479751 -36.5833435 -14.6384516  -3.7875381 -36.8821373 -13.9100504
  -5.2059965 -35.8431015 -14.1655836  -3.9353106 -35.8981857 -15.9349051
  -3.6810975 -34.8427238 -15.7475338  -4.6616592 -35.9311066 -16.7546978
  -2.7509449 -36.5242996 -16.6033154  -2.9537749 -37.8766708 -17.1290970
  -3.0874383 -38.5569878 -16.3126869  -2.0749192 -38.1123962 -17.7349911
  -3.8841801 -37.8061714 -17.6937370  -2.2828188 -35.8563843 -17.8394108
  -2.0262740 -34.8202553 -17.5646992  -3.0869505 -35.8861504 -18.5272293
  -1.4365894 -36.4010315 -18.2449322  -1.6462448 -36.6129150 -15.6315727
  -1.2747808 -35.5541458 -15.4727173  -0.9262112 -37.3489037 -16.0487766
  -2.0458982 -36.9937286 -14.7140226  -3.5422254 -39.3530464 -13.9960861
  -5.6971292 -40.2261391 -14.9582109  -7.1742172 -37.3687668 -10.7439699
  -8.0514441 -36.3554306 -10.7778893  -9.1229715 -36.4168587 -11.4128542
  -7.5132065 -35.1678238 -10.0508547  -7.7827668 -35.2521667  -9.0467339
  -6.3983545 -35.2830772 -10.0138140  -7.8224750 -33.8085289 -10.7152958
  -7.6695247 -34.0398140 -11.7902555  -8.8900394 -33.4841461 -10.6443062
  -6.9842248 -32.5956726 -10.3349867  -5.9974794 -32.7922058 -10.6311693
  -7.3348708 -31.7339058 -10.9139633  -6.9223175 -32.1639290  -8.8402472
  -6.6569099 -33.0332108  -8.2867775  -6.1265941 -31.4965076  -8.8151503
  -8.2161884 -31.4973717  -8.2631140  -8.4798870 -30.6750298  -8.9387083
  -9.0684252 -32.2415276  -8.2259045  -8.0825253 -31.0998707  -6.7581778
  -7.4922462 -30.1332512  -6.7562575  -9.0892687 -30.9396439  -6.4333687
  -7.3599319 -32.1900597  -5.8684878  -7.8399272 -33.1175728  -5.9848099
  -6.3537722 -32.2984161  -6.2961841  -7.3335714 -31.7449665  -4.4278021
  -8.1953278 -31.0810680  -4.1788654  -6.4154835 -32.0494728  -3.5320518
  -6.6080046 -31.6852932  -2.5082617  -5.2533836 -33.0040665  -3.6762431
  -5.0894146 -33.2662582  -4.7099333  -4.3215246 -32.5558128  -3.3845196
  -5.5201192 -34.3395844  -2.9050164  -6.5877385 -34.5489426  -3.1281626
  -4.9756045 -35.1417770  -3.4316027  -5.1194811 -34.4049187  -1.4080894
  -5.4444356 -35.3921585  -1.0119784  -4.0588169 -34.4499435  -1.3681508
  -5.6332188 -33.2895279  -0.5057233  -5.1370435 -32.3210106  -0.7546023
  -6.7010598 -33.1781464  -0.6184376  -5.3422732 -33.6689072   0.9675313
  -5.8113141 -34.5884972   1.2747910  -4.2615275 -33.8054352   1.0253564
  -5.8166175 -32.5770149   1.9004095  -5.3536468 -31.6176605   1.6395998
  -6.8916936 -32.5217209   1.7653956  -5.6035018 -32.9310722   3.3805661
  -6.0586023 -32.1574440   4.0260382  -6.1143546 -33.8358078   3.5887241
  -4.1675572 -33.0934639   3.7393980  -3.7888756 -33.9501610   3.1357453
  -3.9662168 -33.3533134   4.7989044  -3.5596490 -32.1918030   3.4695420
   7.0535116 -18.4188423   2.4295368   6.1455989 -19.0247211   2.6086094
   7.1100502 -17.7504940   3.2723019   7.9169445 -19.0695877   2.4985840
   6.9887471 -17.6718330   1.0376625   6.0379753 -17.1467209   1.0332301
   6.9326363 -18.3479290   0.1923122   8.1195745 -16.6375103   0.8856225
   7.9905086 -15.8263769   1.6258584   8.0142555 -16.1051216  -0.0673960
   9.5354567 -17.2226868   0.9594831   9.4725428 -18.2090778   0.4605588
   9.8521128 -17.4121437   1.9720179  10.6388130 -16.3747635   0.2726125
  10.3990164 -16.3683453  -0.8132578  11.4985085 -16.9636898   0.4774534
  10.7778788 -14.9466848   0.7713050  10.9144258 -14.9511099   1.8768603
   9.8763380 -14.3907757   0.5095026  12.0718870 -14.2276278   0.1664986
  12.9737005 -14.6291008   0.6177670  12.0356960 -13.1460752   0.3992963
  12.3248043 -14.3563747  -1.3352968  12.7079830 -15.3923979  -1.5282327
  13.1693287 -13.7098312  -1.5475761  11.1274424 -13.9026060  -2.2018108
  11.0450125 -12.8358097  -2.0926831  10.1926851 -14.2379513  -1.6826690
  11.1800346 -14.2904749  -3.7010541  10.2291670 -13.9808407  -4.1177220
  11.2427063 -15.3987207  -3.8390017  12.3012209 -13.6294565  -4.4944854
  13.2561913 -14.1524229  -4.3099933  12.3920975 -12.6002493  -4.1455245
  12.0790815 -13.6466589  -6.0194597  12.9905119 -13.3060551  -6.4925389
  11.3300285 -12.8848572  -6.2011952  11.6718950 -15.0387383  -6.5557938
  10.7526007 -15.2814922  -6.0731578  12.4404955 -15.7689686  -6.2986236
  11.6055431 -15.0822935  -8.0846596  11.6248512 -16.0972996  -8.4422913
  12.4851418 -14.5791779  -8.5590544  10.3669662 -14.2958584  -8.6194286
  10.4043617 -13.1937876  -8.3662186   9.4310207 -14.6613874  -8.2224865
  10.3795996 -14.3704166 -10.1177034  10.8004799 -13.5308132 -10.8786535
   9.8256416 -15.5588102 -10.4120398   9.7144079 -15.9437952 -11.8224611
  10.6944838 -15.7946005 -12.2746420   8.9882860 -15.2745619 -12.2495546
   9.2330160 -17.4078541 -12.0309486   9.7560253 -17.8828602 -12.8568897
   7.6806588 -17.4884624 -12.1893463   7.2196484 -16.5987644 -11.6741199
   7.3384552 -18.3817940 -11.5713158   7.2653861 -17.6951962 -13.5654078
   7.0307088 -16.4576874 -14.5341072   8.5044613 -16.1705532 -15.2172585
   9.0776110 -17.1663132 -16.0548897   8.9340782 -18.1884594 -15.6567087
  10.1718798 -16.8910294 -16.0724030   8.4825611 -17.1080799 -17.4721088
   7.4392014 -17.3657513 -17.4869976   9.0211582 -17.9015961 -17.9364643
   8.6420736 -15.8773432 -18.3460655   8.3738813 -16.1544704 -19.7792721
   9.1617823 -16.8610306 -20.1403217   8.4109821 -15.1908445 -20.2625465
   7.4032807 -16.6372528 -19.7943077   7.6911454 -14.8558378 -17.8922958
   7.9245143 -14.4526901 -16.8737278   6.6943035 -15.2926531 -17.8103886
   7.7236853 -14.0402794 -18.6272182   9.9783096 -15.3351698 -18.2063465
  10.1712942 -15.2317429 -17.1478577   9.9669819 -14.3724537 -18.7125473
  10.6750298 -16.0081291 -18.7459183   6.0851488 -16.8267250 -15.6088152
   6.7517371 -15.2531710 -13.7637711   9.6066322 -18.1759968 -10.8303509
  10.8481646 -18.4454498 -10.5783739  11.8098507 -17.9233322 -11.1661263
  11.0172548 -19.4624100  -9.4503469  10.2761097 -20.3143196  -9.5819798
  11.9758806 -19.9395618  -9.5893278  10.9737864 -18.8460941  -8.0091305
  11.0482645 -19.6269379  -7.2522683  11.8054485 -18.2482929  -7.8247428
   9.7091942 -17.9782486  -7.7295537   9.9204178 -17.4668236  -6.8350725
   9.7080126 -17.1634312  -8.4159088   8.3121758 -18.6241932  -7.7632380
   8.1229677 -19.1312962  -8.7237720   8.2195387 -19.4062824  -7.0312266
   7.2146444 -17.5159855  -7.6131577   7.2756534 -16.8369923  -8.4448805
   6.2589235 -18.0077343  -7.7314305   7.2427635 -16.5923958  -6.3409419
   8.2033224 -16.1489506  -6.1913042   6.5572214 -15.7192125  -6.4986305
   6.8672948 -17.2552261  -4.9912100   7.1658735 -16.5706329  -4.2464533
   5.8069654 -17.4250374  -4.9018755   7.5136333 -18.6357212  -4.7328224
   6.9889069 -19.5908451  -5.0689645   8.6002731 -18.8677979  -4.0471392
   8.8143167 -19.9191494  -3.7554290   9.5267401 -17.8799419  -3.4524140
   9.3348589 -16.8647022  -3.7835193   9.4579563 -17.9079475  -2.3557930
  10.9986897 -18.1705933  -3.8530185  11.1608086 -17.7694492  -4.8760409
  11.5849314 -17.4966717  -3.2181904  11.5089855 -19.6109142  -3.6887119
  11.0021076 -20.2623482  -4.4102316  12.5033112 -19.6602592  -4.0307455
  11.3001394 -20.2861595  -2.3256547  10.2559328 -20.1469460  -2.0093200
  11.4924154 -21.3690166  -2.3949728  12.2762356 -19.6875019  -1.2990081
  13.3012829 -19.8738728  -1.5865635  12.1787653 -18.6190434  -1.2141290
  12.0021524 -20.3180599   0.0944358  12.6759348 -19.8027153   0.8360405
  11.0106001 -19.9760380   0.3801814  12.0493279 -21.8218842   0.1356466
  11.1809731 -22.2661572  -0.2917705  12.8596649 -22.3228722  -0.5063639
  12.2310104 -22.3522644   1.5571418  12.4513292 -23.4315891   1.6255970
  11.2669325 -22.2517052   2.0596054  13.0079002 -21.8150120   2.1296756
 -30.5549793 -29.1574783  -0.3475643 -31.0388947 -29.2479744   0.6469086
 -29.5508652 -28.7048626  -0.2324475 -30.4241219 -30.2079124  -0.6233022
 -31.3145733 -28.3653049  -1.3807899 -31.2991333 -27.3584595  -0.9207007
 -32.3624115 -28.6286144  -1.3186234 -30.8037987 -28.5068417  -2.8217528
 -30.7687836 -29.5514488  -3.0601134 -29.7790432 -28.1712437  -2.9208541
 -31.7715664 -27.8446178  -3.8919508 -31.8599796 -26.7721481  -3.7573335
 -32.8043633 -28.2540722  -3.7692215 -31.4889812 -28.1910877  -5.3467150
 -32.2017441 -27.6361370  -5.9498787 -31.7043972 -29.2757206  -5.5319781
 -30.1075211 -27.9132481  -5.9129429 -30.1136189 -28.1769924  -6.9425845
 -29.3675213 -28.5281830  -5.3778620 -29.6447678 -26.4639893  -5.8046637
 -29.7985001 -26.0873795  -4.8425622 -30.2576466 -25.8944435  -6.4736414
 -28.1863480 -26.3356438  -6.3014650 -28.0367107 -26.8589287  -7.2988195
 -27.5179272 -26.7917805  -5.5763478 -27.8032532 -24.8550415  -6.6190743
 -26.7011814 -24.7585659  -6.6900277 -28.1250172 -24.2576981  -5.7529211
 -28.3546295 -24.2632027  -7.9267383 -28.2319374 -23.1616058  -7.9841642
 -29.4247227 -24.5172729  -8.0227261 -27.5954819 -24.7771835  -9.1891527
 -27.8747253 -25.7789783  -9.4122467 -26.5384865 -24.6215611  -9.0168943
 -28.0135517 -23.9820862 -10.4482641 -27.6396542 -22.9299583 -10.3393936
 -29.1447086 -23.9983597 -10.4953060 -27.3639126 -24.6276951 -11.6843433
 -27.5113792 -25.6946640 -11.6611776 -26.2653179 -24.4336681 -11.6895504
 -27.9740124 -24.0304871 -12.9706469 -27.7083111 -22.9332047 -12.9133930
 -29.0705128 -24.0568085 -12.8693724 -27.4771881 -24.5335102 -14.3467512
 -27.6576023 -25.6029682 -14.3144884 -28.0973167 -24.1425304 -15.2038708
 -26.0315876 -24.2833214 -14.5948610 -25.6200428 -23.5416641 -15.4886551
 -25.2178688 -25.0010853 -13.7881317 -23.7993641 -24.8028488 -13.9087820
 -23.3663845 -24.8959732 -12.9053316 -23.5715103 -23.8333626 -14.3248520
 -23.1953239 -25.9428806 -14.8023233 -22.1042080 -25.9085884 -14.6732321
 -23.5534782 -25.7603092 -16.2804108 -23.4956913 -24.7045879 -16.5724888
 -24.5152950 -26.1400337 -16.4835052 -22.6386108 -26.5032463 -17.1209240
 -23.1352978 -27.0862789 -18.5315762 -24.3289928 -28.0971928 -18.1667919
 -24.1274815 -29.3672543 -17.5138111 -23.4755554 -29.2293930 -16.6004829
 -23.6172523 -30.0281906 -18.2624550 -25.4551926 -29.9570312 -17.1712952
 -26.0207062 -29.1409378 -16.7322102 -25.3476410 -30.7762947 -16.4557800
 -26.3881035 -30.4273968 -18.2370167 -25.7135410 -31.4356976 -19.1027756
 -25.1386566 -30.9876366 -19.8864765 -26.5289783 -31.9598122 -19.6787472
 -25.1181393 -32.1309204 -18.4965706 -27.5743847 -31.1630459 -17.6318283
 -28.1325951 -30.4450397 -17.1042671 -27.1366501 -31.9660282 -16.9736004
 -28.1663303 -31.6314220 -18.3875580 -26.8490047 -29.2775002 -19.0614147
 -27.4730606 -28.5814686 -18.4963112 -27.4425144 -29.7140007 -19.8792057
 -26.0109978 -28.8214703 -19.5314960 -23.7086315 -25.9417572 -19.3112431
 -22.0544357 -27.8922062 -19.1388969 -23.6549950 -27.2422142 -14.3267336
 -23.1705399 -27.6809330 -13.1693001 -22.2963638 -27.0955276 -12.5353260
 -23.7030792 -29.0250816 -12.8135481 -23.1106758 -29.7543125 -13.3655977
 -23.5220146 -29.1756458 -11.7550707 -25.1787224 -29.2341423 -13.0557404
 -25.3950615 -29.2119884 -14.1317120 -25.4033356 -30.2439213 -12.7217789
 -26.1937141 -28.3149452 -12.4217663 -25.9021168 -28.1752186 -11.3819618
 -26.1177425 -27.3430233 -12.8820124 -27.6374989 -28.9215736 -12.5309858
 -27.8684978 -29.0501385 -13.5674009 -27.5860577 -29.9145107 -12.1468306
 -28.6759014 -28.0759239 -11.8085918 -28.2737846 -27.7551918 -10.8492298
 -28.8873844 -27.2380905 -12.3976765 -29.9860992 -28.8321342 -11.4868269
 -30.3226204 -29.3266411 -12.4208279 -29.7829227 -29.5368176 -10.6574154
 -31.1625481 -27.9496212 -11.0972691 -31.4141102 -27.2687321 -11.8654242
 -31.9924088 -28.5816860 -10.9288359 -30.9265308 -27.2608662  -9.7361240
 -30.1203079 -27.6665516  -9.1387920 -31.5908604 -26.1782722  -9.3108673
 -31.3337593 -25.7315426  -8.3586168 -32.8135986 -25.6329174  -9.9756327
 -32.5269547 -24.7387333 -10.4444447 -33.1617508 -26.2452240 -10.8452892
 -33.9533539 -25.3096123  -8.9949903 -34.7714653 -24.8348217  -9.5792189
 -34.3647346 -26.2598820  -8.7488565 -33.6929626 -24.5335312  -7.7142878
 -34.6443901 -24.2966499  -7.1987076 -33.1594810 -25.2188091  -7.0588021
 -32.9101219 -23.2133846  -7.8124614 -31.8866520 -23.4973602  -8.1089668
 -33.3035736 -22.5061722  -8.5399036 -32.8979797 -22.5800495  -6.4412642
 -33.8888092 -22.4059181  -6.0898256 -32.4060822 -23.2905655  -5.7711744
 -32.0951920 -21.2836647  -6.3416619 -31.1348248 -21.5313835  -6.7857213
 -32.5350914 -20.5163078  -6.9844446 -31.9333858 -20.7566719  -4.8881192
 -32.9117470 -20.5589676  -4.4810209 -31.4263325 -21.5156727  -4.2487688
 -31.0460701 -19.5096035  -4.9026294 -31.0546017 -19.0503616  -3.9352808
 -31.3689327 -18.7549648  -5.6543679 -30.0437260 -19.8058853  -5.2226524
  15.4830542 -38.6058655  -2.9292693  16.3808479 -38.1453400  -3.2477059
  15.4200020 -39.5878983  -3.3627644  15.6154737 -38.7674675  -1.8411945
  14.3085232 -37.6401215  -3.2745028  14.4511976 -37.4310951  -4.3677812
  14.3986263 -36.7131729  -2.7675176  12.9225483 -38.2508926  -3.0502436
  12.7948341 -38.5294189  -1.9938313  12.7763643 -39.1441154  -3.6770842
  11.7387867 -37.3734818  -3.3924258  11.7835035 -36.4988327  -2.7426908
  10.8265486 -37.9331284  -3.1054542  11.6462078 -36.7939072  -4.7964177
  12.5004196 -36.1126099  -4.9499402  10.8246946 -36.1272697  -4.8131785
  11.5964718 -37.8618965  -5.9225960  10.9459677 -38.6689072  -5.6133218
  12.6015081 -38.2995682  -5.9449744  11.2600460 -37.1639404  -7.2622747
  11.4995184 -37.8270950  -8.0545349  11.9488831 -36.2896957  -7.3910427
   9.8258991 -36.6825523  -7.3665838   9.7042513 -36.2514839  -8.3743963
   9.6934185 -35.9038010  -6.6330571   8.7715168 -37.7874031  -7.1818800
   7.7304478 -37.3626099  -7.2257848   8.7792110 -38.1875000  -6.1605530
   8.8933744 -38.9756165  -8.2239056   8.0372810 -39.6157379  -8.1206932
   9.7006264 -39.6488991  -7.9536386   8.9737816 -38.6206894  -9.7329531
   9.0751534 -39.5126877 -10.2836990   9.8625956 -38.0287209  -9.9354544
   7.6688004 -37.8279648 -10.1406202   7.7727137 -36.7828407  -9.8529396
   6.8739996 -38.2324486  -9.5298786   7.2528343 -37.9834633 -11.6118517
   8.1183224 -37.5851288 -12.1858397   6.3967395 -37.3146820 -11.8920794
   6.8766570 -39.4132156 -11.9829035   6.1742635 -39.7170105 -11.2122440
   7.7503824 -40.0340996 -11.8277826   6.2811298 -39.6548653 -13.3727446
   5.3239985 -39.1671906 -13.4504499   6.0422497 -40.7009125 -13.4485807
   7.1594043 -39.1928787 -14.4740124   7.0680399 -38.0874176 -14.8646269
   7.9404850 -40.1807022 -14.9994841   8.4485826 -39.8793755 -16.3445835
   7.6309772 -39.4338379 -16.9885101   8.6945772 -40.8346024 -16.7336693
   9.6980629 -38.9380951 -16.3752213   9.5028572 -37.9822884 -15.8822336
  10.1881227 -38.5757294 -17.7924938  11.0234489 -37.8560333 -17.6458874
   9.4630184 -38.0551910 -18.4504986  10.7825661 -39.7055893 -18.4837513
   9.9395370 -40.6670799 -19.4835930   9.9053774 -41.9586372 -18.5737877
  11.1528158 -42.5656929 -18.1876526  11.9481802 -41.8574524 -18.3588600
  11.3164892 -43.4718781 -18.7665520  11.2629423 -42.8732147 -16.6832600
  11.0262003 -41.9041786 -16.1935062  12.2746105 -43.2219086 -16.4631157
  10.3199339 -43.8829842 -16.0533714  10.4152861 -45.1110268 -16.8487816
   9.8835001 -44.9476242 -17.8236237  10.0099363 -45.9570923 -16.2687778
  11.4652672 -45.2551079 -17.0461655  10.8129559 -44.1291389 -14.6960220
  10.7519159 -43.1928101 -14.0968094  11.7998781 -44.5620499 -14.8049116
  10.1049423 -44.8283615 -14.2119045   8.8688431 -43.4263268 -15.9138956
   8.7479744 -42.4357986 -15.4639673   8.3207436 -44.2604790 -15.4483891
   8.5509663 -43.3125496 -16.9449444   8.5716953 -40.0713310 -19.6323891
  10.6907387 -40.9248772 -20.7344341  10.7092867 -39.6588058 -15.6456490
  11.6682520 -38.9820709 -14.9774923  11.6530285 -37.7975159 -14.7304287
  12.7729282 -39.8970222 -14.6086807  12.4084377 -40.9334412 -14.4871149
  13.5089340 -39.8720818 -15.4369202  13.5019007 -39.4230919 -13.3710861
  14.4695873 -39.8633499 -13.2376614  13.6836185 -38.3427658 -13.3547258
  12.7127037 -39.7613297 -12.1084614  11.7647858 -39.2808304 -12.0763578
  12.5189676 -40.8229027 -12.1195116  13.5973663 -39.5070419 -10.8857775
  14.6195259 -39.8475342 -11.0978746  13.7563124 -38.4405174 -10.7025642
  13.1234303 -40.1994362  -9.5927782  12.2857180 -39.6584244  -9.1542263
  12.8953876 -41.2148056  -9.9080744  14.2402992 -40.2716866  -8.5466080
  15.2036562 -40.6535683  -8.9013929  14.4502439 -39.2356834  -8.2622023
  13.8546991 -41.1113892  -7.3465929  14.7068682 -41.2113037  -6.6824574
  13.1739349 -40.4686317  -6.7355022  13.2930279 -42.4244728  -7.6705580
  13.4469976 -42.7519951  -8.7414951  12.5215139 -43.0932465  -6.8404732
  12.0898247 -44.0406761  -7.1485825  12.2172060 -42.7326546  -5.4403639
  12.0355902 -43.6081085  -4.8485012  13.1142244 -42.2454414  -5.0220757
  10.9886656 -41.8033562  -5.2371435  10.9565649 -41.4691505  -4.2134275
  11.2479868 -40.9325485  -5.9031768   9.5942898 -42.3189125  -5.5233140
   9.6248369 -42.5742874  -6.5732203   9.3599253 -43.2552376  -5.0310063
   8.4801044 -41.2581482  -5.2862473   8.6604290 -40.4803505  -6.0136366
   7.5051851 -41.7576180  -5.4752231   8.4197721 -40.6204948  -3.8814094
   9.4172649 -40.2787018  -3.6327291   7.7042718 -39.7490768  -3.8417027
   8.0779324 -41.7087784  -2.8307595   7.0948467 -42.1056137  -3.0944111
   8.7977562 -42.5301132  -2.9214191   7.9573202 -41.1490402  -1.3796722
   7.1535516 -40.3971710  -1.4007407   7.6270294 -41.9362831  -0.7513160
   9.2554035 -40.5715370  -0.7313640   9.0617161 -40.3033066   0.3097347
   9.5467920 -39.6413498  -1.2555355  10.0810614 -41.2786446  -0.7859391
 -21.2411594  11.5345402   1.7671506 -21.3923454  12.5138893   2.2042770
 -20.2464466  11.2171707   1.9911535 -21.9057579  10.8102455   2.3282964
 -21.5976238  11.5222979   0.2765221 -20.9754181  12.2208214  -0.2587295
 -22.5937290  11.8612347   0.0755105 -21.4039516  10.1127443  -0.3240126
 -21.8413391   9.4369965   0.4147582 -20.3816872   9.8287306  -0.3562841
 -22.0899582   9.9979200  -1.7162745 -23.1678505  10.1638021  -1.6171623
 -22.0421238   9.0491467  -2.1892335 -21.5381603  11.0775890  -2.6893249
 -21.8025799  12.0889416  -2.3464987 -22.0883541  10.9565487  -3.6206090
 -19.9499092  10.9604826  -2.8672707 -19.6824474   9.9086256  -3.0589950
 -19.4333515  11.2554407  -1.9612681 -19.4339409  11.8001423  -4.0376215
 -18.3879642  12.0756197  -3.8242302 -20.0085297  12.6831923  -4.0590615
 -19.5609436  11.0802002  -5.3846650 -20.6253090  10.9816351  -5.5711679
 -19.1624470  10.0622187  -5.2537928 -18.9330254  11.8801203  -6.5832133
 -17.8907242  11.9567966  -6.4148517 -19.3707390  12.8411522  -6.7088466
 -19.1220894  11.0729589  -7.8940411 -18.6250553  11.6246834  -8.7057333
 -20.2087822  11.0818148  -8.1426058 -18.6054649   9.6375637  -7.8719826
 -19.1357651   9.1229210  -7.0850949 -17.5291615   9.6480770  -7.5947804
 -18.6999722   8.9311275  -9.1757469 -18.4115791   7.8936381  -9.0080938
 -17.9808865   9.3545742  -9.8727827 -20.0140553   8.9422235  -9.9648657
 -20.2628059   9.9973831 -10.1447763 -20.7876396   8.4694633  -9.3569384
 -19.8804703   8.2401247 -11.3111229 -19.6954441   7.1960115 -11.1062851
 -19.0143681   8.6229830 -11.8667793 -21.2099438   8.3323612 -12.0600376
 -21.3354225   9.3162956 -12.4516630 -22.0369701   8.1611900 -11.4191523
 -21.2836304   7.3291345 -13.1661215 -21.5945721   6.1902356 -13.0679655
 -20.9949036   7.8935122 -14.3678379 -20.9288311   7.1275015 -15.6021233
 -20.3850479   6.1872625 -15.5359268 -20.3773766   7.7453132 -16.3578777
 -22.3484459   6.8882952 -16.1561661 -22.7803402   6.1452656 -15.4902353
 -22.2417107   6.2254267 -17.5590744 -23.2102814   5.9022970 -17.9280968
 -21.6462021   5.3290410 -17.4684734 -21.5298576   7.0660925 -18.5346813
 -22.1178894   8.3714132 -19.3354244 -21.8877392   9.6433754 -18.3898811
 -20.5535316  10.1446762 -18.0939884 -20.2145672  10.9755316 -18.7741356
 -19.8848209   9.3102770 -18.0759258 -20.6751366  10.6651735 -16.6393452
 -19.7210770  10.8193264 -16.1667538 -21.2509441   9.8678341 -16.0821762
 -21.3485165  11.9920826 -16.4372654 -22.8531761  11.9717741 -16.8338146
 -22.9195251  11.6210594 -17.8456974 -23.1915302  12.9606047 -16.7709999
 -23.4000053  11.2804308 -16.1702366 -21.3382130  12.3684235 -14.9887295
 -20.3263092  12.5470448 -14.6716356 -21.7877178  11.5779009 -14.4276009
 -21.9353199  13.2572985 -14.8448048 -20.6918755  13.0059929 -17.2859592
 -19.5940475  13.0657902 -17.0982914 -21.0888405  13.9957962 -17.0672302
 -20.8183327  12.7897167 -18.3580894 -21.1678619   8.6137609 -20.4852791
 -23.5811882   8.1958504 -19.6165924 -23.1420689   8.0701532 -16.1874561
 -24.4668694   7.8953991 -16.0410461 -24.9917698   6.8341970 -15.8266058
 -25.1294880   9.1951170 -15.8524981 -24.7423725   9.8374615 -16.6457214
 -26.2255116   9.0693655 -16.0502396 -24.8453045   9.8038321 -14.4356623
 -23.7640953   9.8037910 -14.2199411 -25.1855164  10.8125172 -14.4214535
 -25.6632977   9.1136284 -13.3338833 -25.6792088   9.8747311 -12.5441971
 -26.6557770   8.9772730 -13.7408247 -25.0829544   7.8864412 -12.6780310
 -25.1405544   7.0311694 -13.3212509 -24.0512276   8.1261053 -12.4321737
 -25.8720188   7.4157662 -11.4602394 -25.8475800   8.1238050 -10.6462803
 -26.9131508   7.3314219 -11.8058929 -25.4926796   6.0558934 -10.8863068
 -26.1436481   5.8326454 -10.0456610 -25.7171135   5.2617836 -11.6140862
 -23.9702530   5.9622841 -10.4490204 -23.3181553   6.0703797 -11.3105240
 -23.7833481   6.7489285  -9.7389650 -23.6068077   4.6463585  -9.7982512
 -24.2794132   3.8842359 -10.0182104 -22.7262383   4.3921843  -8.8078899
 -22.6651783   3.4406934  -8.3719215 -21.6784840   5.3291302  -8.2501488
 -20.7510948   4.7701783  -8.3102570 -21.5190296   6.2158008  -8.8498421
 -21.7964001   5.7379198  -6.7663317 -21.7962627   4.8952966  -6.0938320
 -20.9448357   6.4571238  -6.4381838 -23.1007652   6.4465518  -6.4106112
 -23.4845371   7.0297809  -7.2587495 -23.9280052   5.6823592  -6.1916361
 -23.0274887   7.3002071  -5.1527462 -22.7969913   6.6373215  -4.3152142
 -22.1629925   8.0267258  -5.1656480 -24.3933582   7.9782314  -5.0702949
 -24.5481567   8.6089411  -5.9290724 -25.1663113   7.1618109  -5.0690818
 -24.5839291   8.8634148  -3.7587290 -24.2074604   8.2738962  -2.9601011
 -24.0254879   9.8680964  -3.8219104 -26.0820427   9.0839233  -3.4428787
 -26.5236130   9.6520700  -4.3303227 -26.6026134   8.1038589  -3.4115384
 -26.2139359   9.9719553  -2.1732354 -27.2909184  10.2290344  -2.0345702
 -25.6654663  10.9097052  -2.2311428 -25.8460312   9.4194174  -1.2557447
   4.8949127  13.7493982  -2.3230007   4.5363860  14.0524406  -1.3082612
   5.9374638  13.4271355  -2.2240360   4.3043785  12.9281473  -2.6940036
   4.7209878  14.9602470  -3.2043102   5.4623818  15.7464113  -2.9504051
   3.7223208  15.4257193  -3.0475519   4.9584002  14.4718447  -4.6579037
   4.3826194  13.5686150  -4.8065515   6.0036492  14.2502403  -4.7547226
   4.6605592  15.5668488  -5.7424040   5.2667136  16.4373856  -5.4541588
   3.5855703  15.7959518  -5.7034774   4.9437723  15.1480474  -7.2334318
   4.3994360  15.8932734  -7.8416677   4.4574299  14.1738529  -7.3278151
   6.4483652  15.0815735  -7.5532622   6.6320662  14.1542635  -8.0828676
   6.9182510  14.9679470  -6.5788369   7.0935755  16.2459698  -8.2923059
   8.1126661  15.9300652  -8.5174074   7.1003289  17.0829296  -7.5948057
   6.4414892  16.7658730  -9.5861902   7.0405836  17.5929623  -9.9896507
   5.5112414  17.2914505  -9.3348341   6.1544924  15.7171812 -10.6534710
   5.5424747  14.9171343 -10.2501011   7.1073909  15.2662945 -10.9612360
   5.4235597  16.3343697 -11.8734159   5.9069448  17.3446999 -12.1336565
   4.3800979  16.4987965 -11.5580797   5.4422407  15.4327974 -13.1382751
   5.3490062  14.3894138 -12.8896942   6.4050512  15.5536089 -13.6017408
   4.3067250  15.7163897 -14.1865683   3.3958423  15.2296219 -13.9073029
   4.6529603  15.3136454 -15.0994577   4.0693421  17.2088509 -14.4939985
   3.8030567  17.6564903 -13.4741449   3.1490955  17.3341103 -15.1028576
   5.2527909  17.9089699 -15.2344332   5.3265500  17.4972267 -16.2367020
   6.1943536  17.6627941 -14.7640562   5.1363926  19.4714165 -15.2536888
   4.9170308  19.9416523 -14.2849913   4.2967863  19.7959900 -15.8557978
   6.3041906  20.1948776 -15.8520813   6.3263659  20.7121162 -16.9988060
   7.3964739  20.1589298 -15.0399895   8.6957598  20.5803299 -15.5915747
   9.1885233  20.8997955 -14.7388802   8.6488914  21.3384800 -16.3649044
   9.4910011  19.3217335 -16.1023445  10.5377769  19.6074638 -16.1226559
   8.9629517  18.7536507 -17.4630432   8.0284014  19.2188683 -17.8046150
   8.8343639  17.6666203 -17.3997383  10.0252104  19.0470028 -18.4393921
   9.6837130  19.1860390 -19.9783592   8.7615557  20.5242424 -20.0098591
   9.2675056  21.7960911 -19.5835152  10.2969751  21.9601440 -19.8966255
   9.2346067  21.8631973 -18.5082684   8.3633394  22.8104706 -20.3530426
   8.3530731  22.5405579 -21.3928261   8.7200298  23.8458672 -20.2454739
   6.9148946  22.8541412 -20.0201511   6.7909117  23.3356457 -18.6276779
   7.4043274  22.6888390 -18.0263214   5.6836376  23.2882118 -18.4098892
   7.1199679  24.3947392 -18.5396881   6.2949090  23.8429928 -20.9109898
   6.5060806  23.6181259 -21.9786911   6.7473574  24.7969265 -20.7631378
   5.2212601  23.9959354 -20.7227821   6.1468534  21.5926247 -20.1668453
   6.3743978  21.1912174 -21.1795788   5.0650067  21.7084293 -19.9767570
   6.5696836  20.8028030 -19.5040684  10.9624662  19.2998962 -20.7206326
   8.7884007  18.0366879 -20.3297424   9.3852701  18.1952362 -15.1561728
  10.3665600  18.0135040 -14.2396450  11.4523420  18.5817661 -14.2089987
   9.9442873  17.0254726 -13.2160702  10.0162697  17.4395065 -12.1901140
   8.8772364  16.8243370 -13.3904753  10.7520428  15.7108412 -13.1967010
  10.4654779  15.0438929 -14.0391006  11.8281994  16.0292339 -13.3319969
  10.7223377  14.9483957 -11.9195261  11.2694931  15.4853239 -11.0711193
   9.6877375  14.8584852 -11.5724936  11.2564230  13.5077467 -12.1474447
  10.5011845  12.8933868 -12.6603308  12.1239033  13.5670862 -12.7863140
  11.6330996  12.8343925 -10.8103285  12.2274742  11.9936562 -11.0785570
  12.1269474  13.5622978 -10.1529179  10.4677582  12.2785950  -9.9605331
   9.7411003  11.7887440 -10.6332264  10.9230137  11.5172949  -9.3408928
   9.8228693  13.3215332  -8.9979515  10.5906143  13.8692236  -8.4527559
   9.2654877  14.0985775  -9.5290813   8.8604870  12.6607275  -8.0735598
   7.9029436  12.4764833  -8.5587053   8.9837656  12.5908375  -6.7466016
   8.1825552  12.1192541  -6.1887894  10.2287922  12.8476200  -5.9283571
  10.3603830  12.0378027  -5.2519126  11.1259985  12.8142443  -6.5607128
  10.1270876  14.1305504  -5.1137252   9.1329584  14.1965313  -4.6447577
  10.8201685  14.0404339  -4.3469439  10.3724861  15.3966713  -5.9734411
  11.3454933  15.3362675  -6.4925680   9.6176271  15.3415451  -6.8114495
  10.2987118  16.7185078  -5.2195163   9.3073387  16.8916473  -4.8155718
  10.9202948  16.6441746  -4.3359890  10.7509604  17.9525108  -5.9854836
  10.9755335  18.7572346  -5.2082582  11.7720146  17.7438431  -6.3839679
   9.8829584  18.5445328  -7.0550179  10.4671612  19.2347565  -7.6749892
   9.4892521  17.8794975  -7.7800655   8.6902313  19.4091167  -6.5404949
   8.0467081  18.8281937  -5.9079652   8.9602442  20.2260399  -5.8826728
   7.8629498  20.0784035  -7.6206045   7.6142068  19.3961411  -8.4433355
   8.3657207  20.9317570  -8.0610266   6.9728231  20.4763012  -7.2165627
 -36.4189034  12.8483219  -5.3823705 -36.4729691  12.9369402  -4.3170376
 -36.1459923  13.8643875  -5.7347679 -35.5906982  12.1301279  -5.5974383
 -37.7684364  12.3560066  -5.9181623 -38.4566650  13.2244787  -5.9591627
 -38.3035965  11.7100449  -5.2024264 -37.5712242  11.8064585  -7.3600287
 -36.9955368  10.8884420  -7.2823520 -36.9873009  12.5382223  -7.9410477
 -38.8525772  11.5475864  -8.0945435 -39.3100052  12.4913235  -8.3530130
 -39.5090866  10.9431648  -7.4717422 -38.5328789  10.8476248  -9.4489708
 -37.7730064  11.4287004  -9.9741669 -39.3904839  10.8008146 -10.0970545
 -37.9565582   9.4558973  -9.2819386 -38.6119156   9.0019884  -8.5563698
 -36.9841843   9.5606623  -8.8722105 -37.8813133   8.5527029 -10.5115852
 -38.8809891   8.3037415 -10.8547392 -37.4557571   7.6017485 -10.2405567
 -37.1155777   9.1289215 -11.7462206 -36.0944061   9.3343334 -11.4391079
 -37.6028900  10.0147552 -12.1041641 -37.0931702   8.2088289 -12.9706440
 -37.0341492   8.8499174 -13.8710546 -38.0604782   7.7095079 -13.0893660
 -35.9795151   7.1873140 -12.9101048 -36.3800735   6.2068915 -13.0847855
 -35.6679039   7.1546612 -11.8511295 -34.7995148   7.6419139 -13.8368940
 -35.1561279   7.7664061 -14.8427820 -34.0026360   6.9207644 -13.7761698
 -34.1788177   9.0098534 -13.4438715 -33.8612289   8.9645510 -12.3795071
 -34.9928970   9.7671366 -13.4735680 -33.0669479   9.4636316 -14.4156790
 -32.2569733   8.7690325 -14.3376598 -32.5922356  10.4293642 -14.0411625
 -33.4291763   9.7199631 -15.8795557 -33.5986366   8.6881466 -16.2560692
 -32.4844513  10.0629034 -16.3145237 -34.6313210  10.6423874 -16.1339722
 -34.5458527  11.2687292 -16.9889297 -34.7300377  11.3325367 -15.3128424
 -35.9836731   9.9882727 -16.4218807 -36.1782532   8.8831062 -16.8415108
 -37.0226212  10.7854900 -16.1430035 -38.3418732  10.2128706 -16.2371674
 -38.4454117   9.4955807 -15.4295826 -38.4360733   9.7028694 -17.1755161
 -39.4835014  11.2859621 -16.1715183 -40.3648567  10.7771835 -15.7370481
 -39.8888817  11.9382086 -17.5378723 -39.9977379  13.0017567 -17.4212646
 -40.9114037  11.5775061 -17.8324165 -38.9763184  11.6579914 -18.6032219
 -38.9723167  12.6363373 -19.9270554 -38.1266708  13.9132490 -19.4479523
 -36.7230530  13.7853451 -19.1282616 -36.1560326  13.5764027 -20.0664749
 -36.6088448  12.9940519 -18.4396286 -36.2627411  15.1314154 -18.5280132
 -36.3606300  15.9110680 -19.2714176 -35.2381134  15.1242247 -18.2610207
 -36.9788246  15.5634546 -17.2550373 -36.2921600  16.7033787 -16.5609226
 -35.2645035  16.3986187 -16.3113899 -36.8898697  16.8954391 -15.6272211
 -36.3223610  17.5609932 -17.2321873 -38.3684578  15.9827194 -17.5396137
 -38.9463501  15.0720730 -17.7652016 -38.2549706  16.4817142 -18.5261307
 -38.6960526  16.5827484 -16.7370644 -36.9500427  14.4162788 -16.2786789
 -37.6594620  13.6492596 -16.6977596 -37.2481956  14.7334309 -15.2609386
 -35.9288254  14.0337315 -16.2261028 -38.1580391  11.9729671 -20.9491711
 -40.3306580  13.1449757 -20.2465820 -39.0971489  12.3544846 -15.2780838
 -39.2224159  12.1713200 -13.9868031 -39.7610626  11.1757126 -13.5053053
 -38.6085663  13.3286562 -13.1714268 -38.4741745  14.2627058 -13.7209721
 -39.3461380  13.5143709 -12.3836937 -37.2407951  12.9452991 -12.6067600
 -37.2936897  12.0576992 -11.9709482 -36.5805206  12.7059784 -13.4433899
 -36.6838875  14.0874958 -11.7408237 -35.7810364  13.7437916 -11.2207842
 -36.3656578  14.8702831 -12.3865938 -37.5792122  14.5547190 -10.5627527
 -38.4790573  14.9721422 -10.9776936 -37.8004074  13.6976519  -9.9194927
 -36.8979912  15.6344042  -9.6482964 -36.9025040  16.5479069 -10.2425089
 -37.5304565  15.7917233  -8.7955103 -35.4431992  15.3189096  -9.1857538
 -35.4030304  14.3570223  -8.6926832 -34.8352776  15.3529062 -10.0963135
 -34.9432144  16.3864098  -8.1897850 -33.8579903  16.2600212  -7.9745674
 -34.9985847  17.3190880  -8.7241459 -35.7499352  16.4830284  -6.9060616
 -36.8272858  16.5099850  -7.0464783 -35.2776184  16.6159649  -5.6748552
 -35.9186401  16.6889420  -4.8030872 -33.8026123  16.6483898  -5.2973700
 -33.1910362  16.9810333  -6.0944552 -33.5728874  17.3265972  -4.4343843
 -33.3194313  15.2095604  -4.9655285 -33.7263527  14.5355692  -5.7499413
 -32.2799225  15.1657524  -4.8952098 -33.8501244  14.6328068  -3.6532197
 -34.9270325  14.5170250  -3.7376854 -33.4231606  13.6266031  -3.5827324
 -33.4127388  15.5722656  -2.4660349 -33.2239838  14.9167957  -1.6633259
 -32.5275841  16.1793098  -2.7242420 -34.5810852  16.4401054  -2.0412776
 -34.8387375  17.1826763  -2.7849386 -35.4220352  15.7716169  -1.9028817
 -34.3366928  17.2663078  -0.7848767 -34.1124115  16.6830845   0.0892628
 -33.4588203  17.8706417  -0.9603202 -35.5398178  18.1304836  -0.4346476
 -35.6364021  18.8489017  -1.2458858 -36.4417725  17.5221767  -0.3244575
 -35.3726234  18.8608990   0.8847355 -36.1597023  19.6214466   1.0456295
 -34.4721794  19.4978104   0.9400663 -35.3592300  18.1290798   1.7168453
 -12.2596827 -17.3387833  -2.3022146 -11.2291059 -17.2194443  -1.9670501
 -12.3648062 -18.1433964  -3.0047050 -12.8553200 -17.5229683  -1.4124168
 -12.6797523 -15.9828224  -2.9041495 -12.1714687 -15.8939285  -3.8765268
 -12.3432827 -15.1650724  -2.2664001 -14.2344294 -15.8683968  -3.1645923
 -14.7660656 -15.8388033  -2.2126243 -14.5868769 -16.7317028  -3.7018945
 -14.6086206 -14.6758976  -3.9655857 -15.6722546 -14.7603474  -4.1673260
 -14.1061583 -14.7017708  -4.9273629 -14.3304434 -13.3184328  -3.2859993
 -13.3126459 -13.2723513  -2.9992490 -14.8790922 -13.2619572  -2.3445404
 -14.7199869 -12.1064138  -4.1966991 -15.7183409 -12.2777166  -4.4892797
 -14.0767822 -12.1455564  -5.0289745 -14.5351591 -10.7416544  -3.5412121
 -13.4791842 -10.4223623  -3.5560799 -14.7784100 -10.8734217  -2.4734423
 -15.4198208  -9.6472578  -4.1829185 -15.4262209  -8.8405457  -3.4797451
 -16.4578228  -9.9932442  -4.2318020 -14.9853182  -9.1984768  -5.5727763
 -14.9857988 -10.1060762  -6.1978731 -13.9209127  -8.8770018  -5.5629401
 -15.8181438  -8.0626545  -6.1736064 -15.8317556  -7.2842789  -5.3570132
 -16.8329849  -8.3561001  -6.3874731 -15.1715469  -7.4550719  -7.4228196
 -14.0859041  -7.2703676  -7.2884588 -15.6841888  -6.4726572  -7.5641756
 -15.2848492  -8.2740736  -8.7200680 -16.3387737  -8.5036440  -9.0243883
 -14.7269201  -9.2279577  -8.5551367 -14.6582909  -7.3851013  -9.8655052
 -13.5844469  -7.3798375  -9.6309195 -15.0019636  -6.3332343  -9.7882586
 -14.8048868  -7.8490515 -11.2872047 -14.1778288  -7.1555324 -11.8798981
 -15.8544178  -7.7482467 -11.6549454 -14.3288994  -9.3076401 -11.5165329
 -15.0913334  -9.9951448 -11.0667896 -13.3733931  -9.3953447 -11.0035334
 -14.1823244  -9.6289568 -12.9643145 -13.3778658  -9.0415163 -13.6431780
 -14.9822149 -10.6205177 -13.4468594 -14.9563398 -10.9869852 -14.8530769
 -13.9652309 -10.9028902 -15.3264513 -15.6773615 -10.3882332 -15.3467455
 -15.3618994 -12.4807940 -15.0252714 -14.6508112 -13.0221004 -14.3728848
 -15.2252817 -13.0369940 -16.4907417 -15.5709829 -14.0521088 -16.5488644
 -14.1805744 -13.0113239 -16.7745705 -15.9419575 -12.1413603 -17.4178734
 -17.3785114 -12.5297728 -18.0854931 -16.9421310 -13.2674551 -19.4440193
 -16.1517830 -12.5219049 -20.3534966 -15.2915897 -12.1174612 -19.8375015
 -16.7160530 -11.6672077 -20.7547359 -15.6238136 -13.5232372 -21.4445229
 -15.3099937 -14.3205309 -20.7686710 -14.7062578 -13.1417370 -21.9324207
 -16.5631027 -13.9424696 -22.6009216 -17.1081543 -12.7303505 -23.2519722
 -17.7196503 -12.1789551 -22.5748806 -17.7530022 -13.1534309 -24.1260242
 -16.2755642 -12.1281624 -23.6085320 -15.7859268 -14.8597231 -23.5093956
 -14.7169104 -14.4211245 -23.6126881 -16.2584305 -14.9790573 -24.4833164
 -15.7413139 -15.8645258 -23.0387897 -17.7036572 -14.7486534 -22.0515747
 -17.2873077 -15.5219707 -21.3901882 -18.3760719 -15.1975393 -22.8399067
 -18.2944527 -14.0677948 -21.4739113 -18.0187511 -13.5920706 -17.2828808
 -18.1648750 -11.3382330 -18.4519749 -16.7665310 -12.5391569 -14.5704165
 -17.1988544 -13.6997023 -14.1031351 -16.5873528 -14.7328806 -14.0885372
 -18.5863094 -13.6328516 -13.5265446 -19.0819283 -12.6290407 -13.6815853
 -19.1462402 -14.3411217 -14.0559206 -18.6277809 -13.9455462 -12.0401297
 -19.6025486 -13.8237667 -11.6842499 -18.3366165 -15.0217257 -11.8985643
 -17.6836948 -12.9947863 -11.2676191 -16.6545372 -13.0442514 -11.6336718
 -18.0341511 -11.9687891 -11.3217964 -17.5797882 -13.3498001  -9.7636299
 -16.8900509 -14.2085733  -9.5129652 -17.1695251 -12.5366106  -9.2442455
 -18.9698238 -13.5636368  -9.0480242 -19.5780964 -12.6672268  -9.1911116
 -19.6241741 -14.3239546  -9.4633856 -18.7719421 -13.7125101  -7.5262046
 -18.3071480 -14.6945086  -7.3082442 -18.1049576 -12.9140587  -7.1749253
 -20.1313953 -13.6465855  -6.8109989 -20.0046730 -13.0642128  -5.8969336
 -20.9134903 -13.1800270  -7.4352169 -20.5691433 -15.0562773  -6.4472647
 -20.3057461 -15.7739782  -7.2214980 -21.0086613 -15.4723034  -5.2959261
 -21.1832027 -16.5255566  -5.1522870 -21.2318993 -14.6439762  -4.0495501
 -21.8533325 -13.8049927  -4.2681079 -21.7310905 -15.2282419  -3.2683995
 -19.9715500 -14.2033186  -3.2979023 -19.4222374 -15.1391125  -3.0468760
 -19.3193932 -13.5898294  -3.9259455 -20.2602177 -13.4221163  -2.0106516
 -20.7930565 -12.5546370  -2.3342273 -20.9878902 -14.0088072  -1.3681935
 -18.9805679 -13.0090380  -1.2390624 -18.3006077 -12.4557552  -1.8874037
 -19.2524376 -12.3497696  -0.4212615 -18.2642040 -14.2045679  -0.6735474
 -18.8415947 -14.7087994   0.0692954 -18.0145779 -14.9083414  -1.4599705
 -16.9626942 -13.7709951   0.1043444 -16.3118134 -13.1874714  -0.5549316
 -17.2307110 -13.1589117   0.9609432 -16.3062439 -15.0834198   0.6119164
 -17.0229855 -15.6788845   1.1315405 -15.9268656 -15.6705370  -0.2212936
 -15.1887722 -14.8555374   1.6028075 -15.0630112 -15.8173513   2.1570299
 -15.4486866 -14.0434923   2.3259928 -14.3247499 -14.6241846   1.0608910
 -16.2068367  19.4499893  -0.6705285 -15.5622683  19.2520676   0.1466077
 -16.6405449  18.4975471  -0.9767305 -16.9529800  20.1963634  -0.3007295
 -15.4431210  20.1261349  -1.8654364 -14.5651588  19.5456562  -2.1613688
 -15.1857519  21.1213856  -1.5019658 -16.2429447  20.2236023  -3.2005713
 -16.4595375  19.1767540  -3.5110145 -15.5640364  20.6865330  -3.9434984
 -17.5940647  21.0046864  -3.0216041 -17.3168812  22.0638924  -2.8963354
 -18.2242851  20.6115608  -2.2143857 -18.4902916  20.8483391  -4.2606244
 -19.5531616  21.1143913  -4.0048461 -18.5319729  19.8513966  -4.6915350
 -18.0284729  21.8633747  -5.3727984 -16.9515667  21.7783909  -5.5316801
 -18.2352943  22.8757515  -4.9965172 -18.7332802  21.5466480  -6.7012792
 -19.7577610  21.2745705  -6.5161853 -18.2846813  20.6773643  -7.1859212
 -18.6044674  22.7117138  -7.7518759 -17.5047989  22.9951782  -7.8229980
 -19.1246281  23.6000423  -7.3536797 -19.1461010  22.4973526  -9.1754560
 -19.0232029  23.4038372  -9.8093014 -20.2336521  22.4068451  -9.0625458
 -18.5709763  21.2534561  -9.9091110 -18.9625835  21.1517410 -10.9448681
 -18.9706917  20.4342251  -9.3334064 -16.9735470  21.1835766  -9.8351898
 -16.6266689  20.1881332 -10.0513124 -16.5639439  21.3674564  -8.8433895
 -16.3393364  22.1719761 -10.8708477 -15.3108835  22.4178104 -10.5993891
 -16.8890934  23.1709881 -10.8936739 -16.3278770  21.5372829 -12.2569199
 -17.3281517  21.3715000 -12.6625910 -15.9307489  20.5447292 -12.1301498
 -15.6378193  22.2538376 -13.4017553 -14.5965424  22.3003197 -13.1443214
 -16.0121937  23.3080692 -13.5173626 -15.7781458  21.5223980 -14.7114429
 -16.8175049  21.5927200 -15.1384983 -15.5715084  20.4871960 -14.4946003
 -14.7740355  21.8913956 -15.7648554 -14.4799433  23.0419331 -16.0579185
 -14.2164345  20.8372955 -16.4235897 -13.5168657  21.0160465 -17.6526966
 -12.6163015  20.3955383 -17.6844025 -13.2120571  22.0442181 -17.7910595
 -14.2385912  20.4981022 -18.9108391 -13.5922613  20.4233551 -19.7877789
 -15.3453112  21.5115376 -19.3733959 -15.7486048  21.2719250 -20.3552074
 -14.8937454  22.4920578 -19.4961472 -16.3941708  21.6406918 -18.3910542
 -17.7685394  22.3267860 -18.7975941 -18.6107483  21.1531620 -19.4680595
 -18.4258900  20.6477642 -20.8017139 -18.2661266  19.5411663 -20.7993927
 -17.4728127  21.1254101 -21.1367054 -19.5639133  21.0401363 -21.7386322
 -19.3448238  20.5664253 -22.7055073 -19.6791763  22.1136837 -21.7723885
 -20.9336357  20.4721947 -21.3423901 -20.8719292  19.0659370 -21.0136700
 -20.4511433  18.5177536 -21.8677540 -21.9120197  18.7583561 -20.8491554
 -20.3511410  18.9265804 -20.0234222 -21.5511017  21.1721725 -20.1238174
 -21.7112560  22.1881561 -20.3255672 -20.9043770  21.0362930 -19.2663078
 -22.5369530  20.7423859 -19.9482346 -21.8803291  20.6825333 -22.5029411
 -21.8627758  21.7399960 -22.6722641 -22.9038792  20.4202881 -22.2335529
 -21.5264816  20.0511570 -23.3261395 -18.5058517  22.7230530 -17.5699272
 -17.4545517  23.3572845 -19.8553448 -14.7030268  19.1291904 -18.6486301
 -15.3164530  18.3884583 -19.5715961 -15.5042324  18.6949329 -20.7519512
 -15.8142529  17.1040783 -19.0327473 -16.5038948  16.7298298 -19.7541981
 -15.0433006  16.3021107 -18.9415874 -16.6386395  17.1555595 -17.6917439
 -17.1074276  16.1741142 -17.5214806 -15.9856758  17.3810692 -16.8325520
 -17.7588692  18.2337055 -17.6696053 -17.3913746  19.2527122 -17.7677746
 -18.3943729  18.1225834 -18.5078106 -18.6941051  18.2704277 -16.3776798
 -19.2292595  19.2479782 -16.4802475 -19.3920021  17.4173584 -16.3569794
 -17.9513283  18.2902832 -15.0562944 -17.2677765  17.4068317 -14.9388781
 -17.3175583  19.2335396 -15.0677738 -18.8925018  18.1274204 -13.8482475
 -19.6715050  18.9114227 -13.8309727 -19.3543987  17.1465702 -13.9476242
 -18.2750454  18.1506443 -12.4632835 -17.4735298  18.9306488 -12.3958025
 -19.1021214  18.4045868 -11.7555342 -17.7100925  16.7426682 -12.0880089
 -18.3767967  15.8941994 -12.3136892 -16.5999317  16.4625034 -11.4114962
 -16.2895050  15.4122982 -11.2441483 -15.5798111  17.4841328 -11.0544195
 -14.5907068  17.3528748 -11.4451694 -15.9295330  18.4762154 -11.2487402
 -15.4619970  17.4301739  -9.4627342 -16.4033375  17.5444584  -9.0432138
 -15.0493994  16.4867344  -9.1780224 -14.3925610  18.4358788  -8.9106255
 -13.3895550  18.1544971  -9.2764807 -14.6651030  19.4023590  -9.3154430
 -14.1440639  18.5136719  -7.3522482 -13.3228006  19.1868267  -7.1471090
 -15.0355806  19.0082436  -6.9745922 -13.8413429  17.2056694  -6.6002412
 -14.6698666  16.4780502  -6.6409659 -12.9798708  16.6760616  -6.9948578
 -13.5944510  17.6224213  -5.0993538 -12.7841721  18.3597641  -5.0714941
 -14.5007334  18.1482887  -4.7488708 -13.1206646  16.5508347  -4.0955653
 -12.2449636  15.9859991  -4.4880667 -12.8268232  17.0825920  -3.1846130
 -14.2001953  15.5108509  -3.6742876 -13.7930336  14.6804895  -3.0541148
 -14.6611404  15.0303259  -4.5362749 -14.9427814  16.1062279  -3.1648633
  -0.2436817  24.1607761  -4.4147644   0.1130475  24.9605370  -5.0719266
   0.5611972  23.6420231  -3.9680519  -0.7907211  24.6259098  -3.6149070
  -1.1069914  23.1063919  -5.1562381  -0.5020642  22.8040295  -6.0062861
  -2.0316055  23.5823269  -5.4974670  -1.5212801  21.8976383  -4.2653985
  -2.2274737  22.3010540  -3.5295627  -0.6728507  21.4312935  -3.6984851
  -2.1554403  20.7823772  -5.1079125  -1.4742767  20.4282360  -5.8540483
  -3.0322127  21.1755772  -5.6344919  -2.5383577  19.5541763  -4.2274752
  -2.6987543  19.8936958  -3.2082903  -1.7238163  18.8277416  -4.1706533
  -3.7925873  18.7523041  -4.7169418  -4.6998715  19.3919907  -4.8411283
  -4.0940175  18.1176949  -3.8481793  -3.5115788  17.8137798  -5.8994050
  -4.1901875  16.9162674  -5.8562942  -2.4963138  17.4510612  -5.8437500
  -3.7173924  18.6283321  -7.2089911  -3.1702268  19.5499954  -7.1321559
  -4.7917132  18.8348808  -7.2726364  -3.2090614  17.7869759  -8.4495754
  -3.4868729  18.3739586  -9.3607674  -3.7711740  16.8839569  -8.5270205
  -1.6954548  17.4263744  -8.4853287  -1.5360702  16.5558243  -7.8233938
  -1.1433581  18.2712669  -8.0225382  -1.1753969  17.1920433  -9.8637342
  -1.5081273  18.0173130 -10.4727926  -1.4958204  16.2100887 -10.2846928
   0.3908356  17.3191204  -9.9015608   0.7639489  16.5737572  -9.2191954
   0.7643055  18.3237686  -9.6266279   1.0115943  17.0234375 -11.2863817
   0.7070804  15.9650373 -11.5811396   2.0861320  16.9882374 -11.1691275
   0.6334802  18.1094093 -12.3949451  -0.3849733  17.9478607 -12.6694002
   1.2911012  17.8550510 -13.2850351   0.8489835  19.6072540 -12.1002388
   1.1276848  20.0360336 -13.0533075   1.6864264  19.7414856 -11.3546286
  -0.4292890  20.2263451 -11.6164064  -1.4531298  20.3786564 -12.2524166
  -0.2633689  20.6000309 -10.3290834  -1.3764797  21.3196411  -9.7257557
  -1.1780154  21.1767311  -8.6602564  -2.3557539  20.8146954  -9.9966087
  -1.3587763  22.8306999 -10.0612736  -2.1981528  23.3094864  -9.4971294
  -1.4367998  23.3698654 -11.5510035  -1.8753375  24.3826504 -11.5289831
  -2.1559777  22.7229576 -12.1107693  -0.1634068  23.4514790 -12.3003101
  -0.1039542  23.9590149 -13.8483295  -0.2476004  22.6382828 -14.7152901
   0.8024970  22.1494370 -15.5614758   1.7329031  22.0024776 -15.0191822
   1.0391810  22.9242821 -16.3347225   0.3091299  20.9093170 -16.3597927
   0.3711445  20.0300102 -15.7460871   0.9931190  20.7491188 -17.2720928
  -1.1278052  20.8611660 -16.8739433  -1.2487559  19.8118515 -17.9257259
  -0.7288397  20.2514572 -18.8005619  -2.3291202  19.6527519 -18.0594158
  -0.8012533  18.8899059 -17.5366116  -2.0090523  20.4977798 -15.7995024
  -1.7542913  21.0731316 -14.8968210  -1.8571283  19.4309063 -15.5515785
  -3.0523682  20.5893879 -16.0943832  -1.5906792  22.1724529 -17.4171143
  -1.5480822  22.8947430 -16.6169605  -2.6203375  22.0592213 -17.7456627
  -0.9590203  22.4646740 -18.2352943  -1.3241780  24.7813492 -14.1132183
   1.2276195  24.5699348 -14.0690536  -0.1306700  23.3610725  -9.4761000
  -0.1445915  24.5427742  -8.7967024  -1.1185284  25.2347355  -8.7870617
   1.0403399  24.7626915  -7.9026861   0.7489145  25.5910606  -7.2649331
   1.0884620  23.8912182  -7.3188348   2.3921096  24.9911671  -8.6261721
   2.6092384  24.2045612  -9.3378601   2.2985187  25.8799286  -9.2492418
   3.5622585  25.0220184  -7.5950618   4.5422421  25.1498013  -8.0869122
   3.4842968  25.9220219  -6.9506259   3.7261913  23.8254719  -6.6441817
   4.4314170  24.1067715  -5.9101343   2.8161097  23.6651592  -6.0727377
   4.1172929  22.4287453  -7.2554731   4.7167029  22.5344639  -8.1561508
   4.6626139  21.8314342  -6.4940100   2.8032956  21.7508297  -7.6712708
   2.1572928  21.5668716  -6.8205566   2.1889048  22.3586483  -8.3072224
   3.0563464  20.3976440  -8.3288155   2.0686154  19.8843040  -8.4188290
   3.3973920  20.6851807  -9.2839746   4.0780096  19.4527702  -7.7098656
   5.0827928  19.3740501  -8.0866623   3.8025980  18.7235546  -6.6179390
   4.5799360  18.1547527  -6.1451750   2.4624653  18.7988777  -5.8616395
   1.6212678  19.1729126  -6.4765692   2.0974641  17.8023529  -5.5524120
   2.5950491  19.6313953  -4.5950933   2.9889510  20.5696335  -4.9274187
   1.6715117  19.6777325  -3.9729903   3.6602247  19.0443630  -3.6972463
   3.3912895  17.9932365  -3.5440133   4.6240292  19.1463089  -4.2090549
   3.7758598  19.8562698  -2.3657894   4.0509148  20.8607864  -2.6376805
   2.7740119  19.8674736  -1.9287844   4.8476605  19.3178520  -1.4221317
   5.8315783  19.3794403  -1.9123530   4.9285603  20.0011635  -0.6147910
   4.5836792  17.8834953  -0.8931706   3.6078403  17.8840466  -0.3670862
   4.4180007  17.3082066  -1.7865449   5.6413741  17.2421799   0.0317892
   5.3936906  16.1743279   0.1432155   6.6224389  17.2751675  -0.4428329
   5.7063670  17.7995701   1.4702095   6.5528541  17.2767048   2.0454128
   4.8160372  17.6113453   2.0270877   5.8507342  18.8642235   1.4855193
  18.0482998 -34.1649361  -2.1631088  17.1868744 -34.4562721  -1.6602566
  17.7863255 -33.9789925  -3.2265494  18.3479614 -33.2021828  -1.7534080
  19.1587982 -35.2466240  -2.1115329  18.8298416 -36.1263962  -2.6851699
  19.2060757 -35.5596390  -1.0474008  20.5053024 -34.7731514  -2.6594617
  21.1237240 -35.6459770  -2.5162504  20.8586140 -33.8851395  -2.1680021
  20.4853363 -34.5184746  -4.2098069  19.9020538 -33.6226807  -4.4660077
  20.0112839 -35.2916107  -4.7955832  21.8512955 -34.2424545  -4.7674074
  22.4959354 -35.1198006  -4.6913943  22.3057728 -33.3472214  -4.2398043
  21.7506676 -33.8134956  -6.2712240  21.3071728 -32.8314133  -6.3079653
  21.1357002 -34.5073128  -6.7994838  23.1238537 -33.7786140  -6.9994664
  23.0313911 -33.6711235  -8.0751009  23.6362362 -34.7384949  -6.8282199
  24.0542126 -32.6397438  -6.5853114  24.9497871 -32.7281342  -7.1849375
  24.3055058 -32.7465744  -5.5330563  23.5044575 -31.2284737  -6.7430882
  24.2502975 -30.4479427  -6.4959960  22.7255516 -31.1886292  -6.0000567
  22.8737049 -30.9592266  -8.0894260  22.1714764 -31.6925850  -8.3671875
  23.6042061 -31.0359745  -8.9103107  22.1876221 -29.6099739  -8.1988840
  22.0093136 -29.4423008  -9.2627125  22.9150810 -28.8704090  -8.0123968
  20.9243565 -29.4309349  -7.3236222  21.1704998 -29.6810818  -6.3022323
  20.1333847 -30.1091022  -7.6736493  20.3964634 -27.9670372  -7.2154818
  21.2622299 -27.3291988  -7.2764802  19.9369411 -27.8320503  -6.2643461
  19.3615780 -27.6076813  -8.2938919  19.0598621 -26.5727081  -8.1492910
  18.5125809 -28.2299156  -8.0437870  19.7275600 -27.7753868  -9.7734747
  20.1299286 -28.8338642  -9.9068260  20.3750839 -26.9921227 -10.1608086
  18.5211658 -27.7420044 -10.6843100  17.3401546 -27.5212650 -10.3101301
  18.8681927 -27.9023457 -11.9867334  17.8809032 -27.6068573 -13.0153456
  17.6292973 -26.5162067 -12.9913235  16.9384365 -28.1724148 -12.8983746
  18.4708920 -27.9649525 -14.3895330  19.3104992 -27.2935581 -14.5451212
  17.4323692 -27.6758652 -15.4833355  17.7905560 -27.6872807 -16.4739075
  17.1043587 -26.6633778 -15.3931799  16.2637329 -28.5157948 -15.2763166
  15.6280031 -29.3412781 -16.4780178  16.6153946 -30.6185703 -16.5236855
  17.5869637 -30.7423058 -17.6444893  18.3353195 -29.9191837 -17.6554451
  17.0796719 -30.7755871 -18.6047802  18.4050179 -32.0461617 -17.6028137
  18.9740028 -32.1222763 -16.6601677  19.2018967 -32.0350571 -18.3443222
  17.6539345 -33.3544846 -17.7519264  16.8770714 -33.3807373 -18.9984150
  16.1416054 -32.5792160 -18.9824448  16.3732071 -34.3584671 -19.0200939
  17.5057812 -33.2992172 -19.8904190  18.6789303 -34.4947815 -17.7998562
  19.2289886 -34.4823914 -16.8493290  19.3071346 -34.3061905 -18.6519623
  18.2423687 -35.4636803 -17.9595642  16.8072948 -33.6406555 -16.5406990
  17.4208755 -33.5067711 -15.5839863  16.3392563 -34.6001740 -16.6621895
  16.0935345 -32.8440018 -16.4883614  14.2946806 -29.8305969 -16.0689888
  15.7413960 -28.6185493 -17.7571011  18.8811378 -29.3690662 -14.3742466
  20.1330795 -29.7573261 -14.1209974  21.0987091 -29.0050697 -14.0512705
  20.2229710 -31.2708549 -13.9606943  19.3609352 -31.7797508 -14.4344635
  21.1233788 -31.6090088 -14.4125614  20.3616829 -31.7260265 -12.5359268
  20.6153660 -32.7629166 -12.5099964  21.2354641 -31.1884956 -12.0843019
  19.2202721 -31.4649372 -11.5937891  18.9904442 -30.4073753 -11.5567341
  18.4471493 -32.0070724 -12.0216236  19.5584106 -31.9779968 -10.1802025
  19.9821301 -33.0001411 -10.1833925  20.3686256 -31.3712978  -9.7677765
  18.3617859 -31.8297081  -9.2586460  18.1660042 -30.7177906  -9.1849136
  17.4903450 -32.2129860  -9.7619038  18.5385075 -32.4557991  -7.8676081
  18.5908699 -33.5435600  -7.9450541  19.4464321 -32.1159897  -7.3920088
  17.4489384 -32.1582947  -6.8496304  17.8416786 -32.3690834  -5.8524795
  17.2331104 -31.1430149  -6.7827182  16.1392822 -32.8430977  -7.1942530
  15.8956232 -33.0292282  -8.2599392  15.2754841 -33.2342796  -6.2714911
  14.4114637 -33.7663422  -6.6187191  15.3547487 -33.0361862  -4.7511535
  15.6995888 -33.9593964  -4.3235784  16.0213966 -32.1985817  -4.4716640
  14.0016117 -32.7312393  -4.1796985  13.6334705 -31.7566967  -4.5025544
  13.2772369 -33.5215225  -4.5554943  13.9634705 -32.6924286  -2.5999556
  12.9513264 -32.4670715  -2.2884846  14.3027830 -33.6328430  -2.1929965
  14.8507900 -31.5892010  -1.9694422  15.8962965 -31.8716259  -2.1008987
  14.6738815 -30.6439114  -2.4753830  14.6426334 -31.4682770  -0.4796184
  13.6062727 -31.2438488  -0.3313443  15.0330105 -32.3619232   0.0776579
  15.2494144 -30.1904202   0.0059789  16.3254108 -30.2728672  -0.1612993
  14.8583698 -29.3372746  -0.5855415  14.9960060 -29.8779221   1.4869677
  13.9042559 -29.8674374   1.6406530  15.4118719 -30.6906300   2.0669868
  15.6939411 -28.5637074   1.9927264  15.5243626 -28.3569412   3.0136397
  15.4021416 -27.6861763   1.3974836  16.8031235 -28.6071873   1.9040973
  -8.2751665 -19.0300808  -2.5454638  -8.8207359 -19.7038250  -1.9119817
  -8.7284241 -18.0332947  -2.5463452  -7.2719107 -18.9053364  -2.1391561
  -8.3118429 -19.5824261  -3.9907882  -9.3396444 -19.6752796  -4.2409391
  -7.7836103 -20.5198650  -3.9677322  -7.5151711 -18.7168846  -4.9606686
  -6.5542173 -18.3949318  -4.5432835  -8.0464611 -17.8192921  -5.2386146
  -7.3814030 -19.5773525  -6.2216587  -7.2737842 -18.8943501  -7.0920157
  -8.2715759 -20.1634598  -6.3718696  -6.1142106 -20.4737682  -6.1605573
  -6.0203085 -20.9235783  -5.2372389  -5.2217908 -19.8565598  -6.3027687
  -6.1116228 -21.5484524  -7.2588487  -5.1469851 -22.0204258  -7.2546730
  -6.2680001 -21.1027451  -8.2692451  -7.1283059 -22.6093979  -6.9396253
  -8.1038532 -22.1727467  -6.8414373  -6.9121962 -23.0293751  -5.9529996
  -7.2101045 -23.7495632  -7.9705377  -8.1444149 -24.2996006  -7.7619557
  -6.4183478 -24.4436741  -7.7581410  -7.2874613 -23.3272266  -9.4531307
  -6.4739246 -22.6157608  -9.7044315  -8.1994019 -22.6722507  -9.5042286
  -7.3230772 -24.5359230 -10.3816938  -8.0845509 -25.2670746 -10.0559654
  -6.3029289 -24.9983501 -10.4108324  -7.6983542 -24.0478992 -11.8054047
  -8.3892469 -23.2090187 -11.6671658  -8.2072887 -24.8068409 -12.4229374
  -6.4125681 -23.6122742 -12.5385809  -5.7094393 -24.4340496 -12.6228561
  -5.9851594 -22.8396835 -11.8917503  -6.6302404 -23.0193806 -13.9469709
  -7.3753290 -22.1833820 -13.9394712  -7.0271926 -23.7472134 -14.6345987
  -5.3262992 -22.4594994 -14.5569668  -4.5591168 -23.2822304 -14.6062469
  -4.9483738 -21.7265491 -13.9069834  -5.4991875 -21.8803425 -16.0038910
  -6.3558812 -21.2000370 -15.8722105  -5.6894226 -22.7062397 -16.6941624
  -4.3169074 -21.1181679 -16.5241604  -3.7551146 -20.2023354 -15.9626684
  -3.9450669 -21.4892292 -17.7751770  -2.7953336 -20.8615284 -18.3698864
  -2.7750847 -19.8164101 -18.1989670  -2.9548118 -20.9449692 -19.4200115
  -1.4363383 -21.5535831 -18.0150909  -0.6653656 -21.0087967 -18.5422878
  -1.3710093 -23.0292683 -18.4886456  -0.3506952 -23.3364849 -18.4891567
  -1.7862833 -23.0569496 -19.5228004  -2.1414194 -23.9519520 -17.6462669
  -2.7143321 -25.3239517 -18.2121620  -4.0945683 -24.8706245 -18.9609089
  -4.1207976 -24.7214794 -20.3965683  -3.0888081 -24.6762505 -20.7558041
  -4.6274605 -23.7108612 -20.6055050  -4.7556534 -25.9554691 -21.0541725
  -4.2702870 -26.8691101 -20.6769848  -4.6103964 -25.8913593 -22.1613235
  -6.2124562 -26.1712055 -20.8356934  -6.9974623 -24.9249554 -20.9489861
  -6.6283684 -24.2858334 -20.1566486  -8.0315742 -25.2450562 -20.7589550
  -6.8184404 -24.4985409 -21.9542484  -6.7141886 -27.1513596 -21.7840385
  -6.3305006 -28.1524754 -21.5563374  -6.4919925 -26.8834667 -22.8532887
  -7.7886434 -27.1266365 -21.6590538  -6.4517827 -26.7061081 -19.4545135
  -5.7784462 -27.4884586 -19.2108517  -7.5085831 -27.0632267 -19.3333416
  -6.1909575 -25.8729630 -18.7202606  -1.7503812 -25.9367409 -19.1949863
  -3.2002077 -26.1728268 -17.0137196  -1.0726614 -21.5106087 -16.5966339
  -0.5294278 -20.4336433 -16.0280590  -0.4674259 -19.3571205 -16.6157455
  -0.1089656 -20.6127281 -14.5488939   0.8156438 -21.1935215 -14.5027533
   0.1053796 -19.6156006 -14.0883646  -1.1382347 -21.3184357 -13.6769819
  -2.0224340 -20.7332401 -13.6717691  -1.4011525 -22.2716427 -14.0274353
  -0.5564512 -21.5382500 -12.2950354   0.4491557 -21.9661121 -12.4489231
  -0.3893005 -20.5881920 -11.8467531  -1.3290535 -22.4701004 -11.3683929
  -1.6673362 -23.3475971 -11.9044819  -0.6807796 -22.7054310 -10.5036201
  -2.5415564 -21.7084675 -10.7436666  -2.1803453 -20.9068508 -10.0788136
  -3.0637453 -21.2062244 -11.5364599  -3.4532151 -22.5677032  -9.8553610
  -4.1564660 -21.8415051  -9.4086266  -4.0160489 -23.2082577 -10.5510445
  -2.8230140 -23.5068684  -8.7877216  -3.6379995 -23.9326382  -8.2747679
  -2.2806001 -24.3356609  -9.1992798  -1.8124329 -22.7989674  -7.9454713
  -1.0692240 -22.1761227  -8.4459438  -1.6606044 -22.9707756  -6.6454229
  -0.8247479 -22.4303093  -6.1971135  -2.5358510 -23.8338127  -5.6986976
  -3.1752264 -24.4624691  -6.3223343  -1.9148785 -24.5375423  -5.1742840
  -3.3584259 -22.9779987  -4.7731524  -2.7157519 -22.2116928  -4.3381352
  -4.1512485 -22.4311256  -5.2901621  -4.0534244 -23.8726063  -3.6954358
  -4.5097532 -24.6866112  -4.2468200  -3.4174190 -24.2842121  -2.9471078
  -5.1321077 -23.1475143  -2.8872011  -5.9155269 -22.8111744  -3.5782764
  -5.5520158 -23.9258385  -2.2277906  -4.6357145 -21.9612617  -2.0005038
  -3.7810934 -22.3601570  -1.4221073  -4.3603926 -21.1227207  -2.6439080
  -5.6371126 -21.3587017  -1.0316007  -6.4423914 -20.8655205  -1.5497023
  -6.0458622 -22.2081757  -0.4604768  -5.1067204 -20.2786560  -0.0886244
  -5.9034443 -20.0255184   0.5608690  -4.4185905 -20.7207985   0.6260223
  -4.4892950 -18.9961662  -0.6568906  -4.0887079 -18.4026375   0.1887718
  -3.7395713 -19.2162762  -1.3537031  -5.2284546 -18.4414005  -1.1861376
   0.7141038 -40.5780487  -0.1224826   0.0463065 -41.2089348   0.4717681
   0.7768127 -40.9817696  -1.1274805   0.2840557 -39.5659714  -0.2349775
   2.1641538 -40.4489594   0.4638170   2.4706748 -41.5056458   0.4637236
   2.0529776 -40.1133423   1.5377737   3.1139736 -39.5179253  -0.3368378
   4.0543451 -39.3953056   0.2108789   2.6347220 -38.5337372  -0.4167796
   3.4067616 -40.0178947  -1.7515745   2.4858847 -40.2347603  -2.3026013
   4.0406528 -40.9206543  -1.6801264   4.2511153 -39.0270920  -2.6472368
   5.2239127 -38.7085419  -2.1896143   3.6987224 -38.0550156  -2.7139614
   4.3122039 -39.6097031  -4.0779705   3.2610207 -39.7260742  -4.4500656
   4.8484964 -40.5664520  -4.0635571   5.0491261 -38.6722717  -5.1088328
   5.9751768 -38.2430344  -4.7040958   4.3908968 -37.8171616  -5.3784251
   5.3047032 -39.4100113  -6.4448590   5.4285202 -40.4728317  -6.2477632
   6.2447128 -39.0306625  -6.9132705   4.2294016 -39.1805115  -7.5075912
   4.3210216 -38.1345825  -7.8701682   3.2847290 -39.3300400  -7.0611854
   4.3150587 -40.1036453  -8.7284908   4.2313390 -41.1748505  -8.4037485
   5.2559471 -39.9561920  -9.3199883   3.2084680 -39.8646202  -9.7261868
   2.2433052 -40.1252518  -9.3384476   3.4349182 -40.5068245 -10.6277409
   3.0518274 -38.4169807 -10.2575388   4.0342526 -38.0094376 -10.5748854
   2.6964834 -37.7664642  -9.4615517   2.1005254 -38.3814583 -11.4964399
   2.4090614 -39.1733131 -12.1546984   2.2869401 -37.4659386 -12.0430813
   0.6229570 -38.4019928 -11.1347685   0.4032294 -37.5410423 -10.5158863
   0.4860464 -39.2882996 -10.5303011  -0.3776361 -38.3633919 -12.2988691
  -0.1328503 -37.5298500 -12.9753742  -1.3772577 -38.2475243 -11.9010353
  -0.3470455 -39.6301727 -13.1120691  -0.8064017 -40.6765938 -12.8027582
   0.3165487 -39.3667259 -14.2421045   0.8725571 -40.4983521 -14.9601278
   0.0521797 -41.2047768 -15.1643667   1.5495646 -40.9984169 -14.2730732
   1.6003525 -40.0626831 -16.2196007   0.9417676 -39.8235474 -16.9962425
   2.5709367 -41.1528053 -16.8096199   3.4435427 -41.2126923 -16.1321983
   2.9099677 -40.8440170 -17.8486042   1.8623005 -42.3965836 -16.8102093
   0.5707181 -42.7287331 -17.6975880   0.9618422 -44.2290077 -18.3848076
   0.5874637 -45.4474602 -17.8064098   0.9838487 -46.2543526 -18.3879185
  -0.4905030 -45.4971352 -17.9147854   1.0713915 -45.5546150 -16.3345165
   0.3457116 -46.2648735 -15.8679247   0.9541651 -44.6305275 -15.7700682
   2.4098155 -46.1124649 -16.0208302   3.4583685 -45.3115883 -16.6579514
   3.3984253 -45.4926491 -17.7588673   4.3753242 -45.7792244 -16.2446785
   3.4248374 -44.2643356 -16.3558159   2.6400397 -46.0520935 -14.5743656
   1.9098039 -46.7096100 -14.0199814   2.3484926 -45.0147972 -14.2911730
   3.6912928 -46.2780991 -14.3460321   2.4361820 -47.5241623 -16.4417572
   1.7537410 -48.0911980 -15.7377052   3.4497690 -47.8928795 -16.3886833
   2.0587413 -47.5853386 -17.4246502  -0.5601852 -42.9002380 -16.7947559
   0.5105706 -41.7558098 -18.8117294   2.3604884 -38.8893585 -15.8639517
   1.8939855 -37.6770477 -16.2853928   1.0815651 -37.5256042 -17.1566753
   2.4311714 -36.4918098 -15.3932562   2.0590389 -35.5578575 -15.7648220
   2.0198770 -36.6113434 -14.3978348   3.9745531 -36.4426079 -15.3380289
   4.4151907 -37.2871666 -14.8976030   4.2821159 -36.3654022 -16.3610592
   4.4911060 -35.2444496 -14.5408573   5.5605621 -35.2353249 -14.7311230
   4.1333246 -34.2833672 -14.9104071   4.1501269 -35.4031944 -13.0585432
   3.0737970 -35.2477684 -12.9160204   4.3327208 -36.4514122 -12.7986259
   4.8954020 -34.4018784 -12.1477165   5.9130335 -34.1847954 -12.5357475
   4.3313107 -33.4989891 -12.2898521   4.9079871 -34.7593384 -10.6110392
   4.9813614 -35.8470688 -10.5120573   5.8326006 -34.2951393 -10.1314926
   3.6842058 -34.1735382  -9.8169737   3.9439878 -34.2923698  -8.7333336
   3.5756896 -33.0895576  -9.9651728   2.4270542 -34.9356880 -10.0508461
   2.5016930 -35.6770248 -10.8399248   1.3200980 -34.7834663  -9.3809710
   0.4997885 -35.3820000  -9.6967487   1.0580344 -33.8045654  -8.2277260
   1.9801730 -33.2613907  -8.0379477   0.2562932 -33.0972214  -8.4736881
   0.6710270 -34.6022644  -6.9551730   0.3301921 -33.8558426  -6.2141972
  -0.1998654 -35.2591362  -7.2025542   1.8037008 -35.4718437  -6.4758563
   2.1548810 -36.0263748  -7.3285155   2.7137175 -34.9258118  -6.1494851
   1.3301008 -36.5120125  -5.4292102   0.4795695 -37.0619736  -5.8528328
   2.1903996 -37.1658783  -5.3486776   0.9626665 -35.9354820  -4.0346689
   1.7441189 -35.2741890  -3.6568809   0.0901298 -35.3097610  -4.2264118
   0.6709323 -37.0118713  -2.9712727  -0.2429025 -37.5435982  -3.2910166
   1.4326580 -37.7172241  -2.9208193   0.3747711 -36.4223518  -1.5544178
   0.2129062 -37.2282448  -0.8175122   1.2151657 -35.7496071  -1.2814355
  -0.9251091 -35.6523438  -1.5447832  -1.3290502 -35.4318771  -0.5246493
  -1.6493434 -36.2538605  -2.0379395  -0.8130027 -34.6989365  -2.0738170
  26.1504536  30.6108742   2.7428534  26.6158581  29.7313023   3.1120203
  25.2381592  30.8495693   3.2945478  26.8456478  31.3825912   2.8938076
  25.8915043  30.3033924   1.2747018  24.9240189  29.8232384   1.1934623
  26.6573524  29.6050262   0.9470919  25.8937569  31.6182175   0.4598055
  26.7427483  32.1980705   0.7647566  24.9984550  32.2284737   0.6625130
  25.9744492  31.3998775  -1.0493621  25.7269459  32.3384285  -1.5523981
  25.1760902  30.7225018  -1.3654733  27.3616791  30.9399681  -1.5991073
  27.6453800  29.9960709  -1.1703004  28.0841618  31.6177731  -1.1517736
  27.4941177  30.9208336  -3.1640747  28.5061760  30.5928020  -3.5000370
  27.4730301  31.9804840  -3.4888391  26.4335346  30.0694637  -3.8869569
  25.4654713  30.3610268  -3.4982708  26.6500683  29.0118580  -3.6252227
  26.3680573  30.2236595  -5.4308753  25.6446762  29.5152016  -5.7636032
  27.3456020  29.8894768  -5.8474607  26.1750126  31.6481209  -5.9961824
  27.1468906  32.1272202  -5.9433722  25.4623775  32.2357140  -5.3706460
  25.6349545  31.6344719  -7.4132943  26.0699291  30.8210869  -7.9906249
  25.8466072  32.5636292  -7.9221005  24.1173477  31.3364429  -7.4985595
  23.5503483  32.1644859  -7.1918988  23.8677979  30.5299225  -6.8089027
  23.7444305  30.9269142  -8.9481249  24.3002987  30.0388412  -9.1993809
  24.1079712  31.7034035  -9.6145229  22.2692108  30.6711845  -9.0575800
  21.9227600  29.9358864  -8.3041039  22.0810890  30.2988129 -10.0695314
  21.3951397  31.9828224  -9.0357161  21.5864735  32.5280991  -8.1042252
  20.3159237  31.7921677  -9.0296545  21.6212444  33.0270271 -10.1593056
  22.6529903  33.3954010 -10.1549902  20.9167957  33.8561211 -10.0708284
  21.3870029  32.3313599 -11.4693985  20.2560883  32.0488701 -11.8215952
  22.4519138  32.1097260 -12.2491608  22.2649879  31.6600628 -13.6380281
  21.6700249  30.7259197 -13.6177168  23.2338161  31.4217987 -14.0759706
  21.6202774  32.7393112 -14.5412941  20.6883831  33.0478745 -14.0503063
  21.3252525  32.1025391 -15.8866043  20.8136654  32.7047424 -16.6264477
  20.6613960  31.2911911 -15.7513733  22.4576740  31.4987850 -16.5936584
  23.5190811  32.4145203 -17.4097977  24.6775417  32.7303886 -16.3256569
  25.9503555  32.0265656 -16.3055859  26.3170128  32.0861778 -17.3618755
  25.7558079  30.9635906 -16.0856285  26.9146175  32.5755386 -15.2789793
  27.8096104  31.9649296 -15.2944336  26.4083462  32.5351448 -14.3045254
  27.4534588  33.9792938 -15.4821787  26.3480034  35.0104675 -15.6531963
  25.7749367  34.7448883 -16.5556755  26.8601627  35.9968529 -15.7103624
  25.7220726  34.9363365 -14.7347641  28.1995316  34.3369904 -14.2788219
  29.0641785  33.6990662 -14.1570997  27.6187115  34.3228188 -13.3458347
  28.5921307  35.3794174 -14.4315376  28.2617359  34.0291176 -16.7430382
  28.9559155  33.2122650 -16.5846691  28.8461037  34.9389229 -16.8167744
  27.6568241  33.8612518 -17.6068115  24.0938950  31.5116348 -18.4469814
  22.8228607  33.6809845 -17.8481846  22.5373363  33.9314575 -14.6431684
  22.0375099  35.1386795 -15.0136909  20.8509827  35.2711754 -15.1534748
  23.0694103  36.2405548 -15.2090349  23.8239002  35.9637794 -15.9783459
  22.5601120  37.1516876 -15.6756601  23.7657471  36.6272316 -13.9170017
  24.3679829  35.8302460 -13.4690619  24.4073753  37.5021477 -14.1129742
  22.6777763  37.1283073 -12.9052696  22.1881199  37.9892387 -13.3796787
  21.8895702  36.3821564 -12.7298412  23.2208443  37.5999680 -11.5848532
  23.7886219  38.5445938 -11.6420565  22.3235035  37.7273788 -11.0090160
  24.1469193  36.5357285 -10.8745375  23.6306763  35.5634193 -10.7706947
  25.0004292  36.3949051 -11.5530033  24.6979027  36.9007072  -9.4921188
  25.3566647  36.0376091  -9.1810789  25.3249531  37.8037796  -9.5616684
  23.6542988  37.1517906  -8.3737192  24.2112846  37.1701355  -7.4803395
  23.1950741  38.1504631  -8.5210285  22.4674721  36.1752663  -8.2925425
  21.9439011  36.0899544  -9.2333441  22.0645618  35.4419861  -7.2489986
  21.2392998  34.7925911  -7.4480624  22.5372314  35.5863266  -5.7841945
  23.3866100  34.8736191  -5.7187648  22.8641338  36.6174278  -5.6179018
  21.3911858  35.2106171  -4.7864480  20.5950146  35.9480324  -4.8074584
  20.9853764  34.2881737  -5.2132249  21.8542652  35.0854950  -3.3689218
  22.1067142  36.0297470  -2.9243457  21.0633965  34.6272011  -2.8303370
  23.0906391  34.1621513  -3.2171259  24.0006046  34.5707550  -3.6855249
  23.3038254  34.0712433  -2.1296570  22.9760571  32.7218628  -3.7439969
  22.7661552  32.6891441  -4.8233705  23.9837666  32.3380432  -3.6223195
  22.0303516  31.7978020  -2.9865801  22.2255325  31.9856167  -1.9199615
  20.9872150  32.1278381  -3.2011046  22.2738457  30.2808571  -3.3352830
  22.3167782  30.1146603  -4.4084311  23.2561798  30.1002865  -2.9612641
  21.3379841  29.3346138  -2.6376615  20.3189564  29.5141144  -2.9538369
  21.3599796  29.4392319  -1.5368719  21.6188641  28.2892971  -2.8787777
 -23.2494621 -27.4973660  -4.5688362 -22.3522396 -27.5121231  -3.9513562
 -24.1203766 -27.2449036  -3.9752767 -23.1510277 -26.7804890  -5.3971791
 -23.3451195 -28.9118614  -5.2351804 -23.5840206 -29.6348171  -4.4466467
 -22.3593884 -29.1122036  -5.6249781 -24.3463306 -29.0105476  -6.3693714
 -25.3560295 -28.8976383  -5.8828826 -24.2741432 -30.0437088  -6.7373681
 -24.2228107 -28.0136662  -7.5401402 -24.7679615 -27.1197033  -7.1330910
 -24.8433857 -28.3933468  -8.3631678 -22.8147697 -27.6228027  -8.1223927
 -22.2106838 -26.9843979  -7.4543047 -22.9700451 -26.9455318  -8.9664278
 -21.9475403 -28.8315315  -8.5370502 -22.3839569 -29.4566154  -9.3414164
 -21.8206482 -29.4961433  -7.6666613 -20.5675526 -28.4913101  -8.9925423
 -20.0949841 -27.8734226  -8.2229347 -20.6983471 -28.0009956  -9.9592962
 -19.7048321 -29.7691727  -9.2197123 -18.7194214 -29.5107155  -9.5925770
 -20.1519184 -30.3839417  -9.9664326 -19.5581417 -30.6417198  -7.9486389
 -20.5343342 -31.1314182  -7.6575804 -19.3438416 -29.9306946  -7.1205039
 -18.4691792 -31.6895695  -8.0339632 -18.4089489 -32.2499313  -7.1124201
 -17.5307178 -31.1705017  -8.0895500 -18.6746044 -32.6517792  -9.2339401
 -18.6108532 -32.0441666 -10.0974655 -19.6920986 -33.0828743  -9.2605333
 -17.6241512 -33.7503281  -9.2533398 -17.6584778 -34.1625519  -8.2231998
 -16.6389771 -33.2605438  -9.3863468 -17.8596382 -34.9126549 -10.2743616
 -17.8908081 -34.4643250 -11.2883387 -18.7995987 -35.3305740 -10.1418514
 -16.6976280 -35.8996620 -10.2235088 -16.5478477 -36.2263222  -9.2055111
 -15.7827911 -35.3749695 -10.5124617 -16.7080841 -37.2047729 -11.0941706
 -17.5180473 -37.8909836 -10.7622910 -15.8047762 -37.8102074 -11.0103951
 -16.9732819 -36.9719048 -12.5746441 -17.4129562 -37.8463593 -13.2949753
 -16.7530460 -35.7053070 -13.0024061 -16.9257774 -35.4299850 -14.4351873
 -16.5321121 -36.2606850 -15.0486088 -16.3643761 -34.5335732 -14.6104927
 -18.3814640 -35.1100159 -14.7601604 -18.8616199 -36.0902443 -14.5777283
 -18.4903622 -34.6494675 -16.2567577 -19.4154015 -34.0841599 -16.3740139
 -18.5573330 -35.4528580 -16.9556274 -17.3854675 -33.7877998 -16.6298027
 -17.5516949 -32.8763809 -17.9278374 -17.8157310 -31.3882523 -17.3651924
 -19.0211716 -30.9953022 -16.6538963 -19.9342194 -31.5753918 -16.9300900
 -19.3082314 -29.9527912 -16.9047050 -18.7213764 -31.2396412 -15.1562309
 -18.3084641 -32.2326508 -15.0576315 -19.6370392 -31.0948925 -14.5630932
 -17.7047520 -30.3146534 -14.5575914 -16.3813992 -30.5667953 -15.2362909
 -15.9877701 -31.5707188 -15.0099459 -15.7202930 -29.7711201 -14.8468704
 -16.4403496 -30.4098873 -16.3036671 -18.1220417 -28.9067307 -14.7941246
 -19.0702724 -28.8097267 -14.2837896 -18.3072968 -28.8250008 -15.8831167
 -17.3826771 -28.2050362 -14.4565220 -17.5980930 -30.6433372 -13.1295862
 -18.5495968 -30.4076481 -12.6295900 -16.7669468 -30.1687984 -12.7143192
 -17.3686333 -31.7057590 -13.0147419 -16.2911816 -32.9122543 -18.6995811
 -18.7675819 -33.3466187 -18.6608677 -18.8772106 -34.0587273 -13.8921318
 -19.9946938 -34.3456116 -13.2144756 -20.6133842 -35.3987160 -13.2319117
 -20.4674931 -33.1943741 -12.2750368 -20.3637486 -33.5143623 -11.2160864
 -19.7653599 -32.3378067 -12.3042259 -21.9165039 -32.6891632 -12.5497332
 -21.9122429 -31.6538506 -12.1523151 -22.0588970 -32.6151314 -13.6196947
 -23.0824089 -33.4662781 -11.8741722 -24.0142994 -32.8993988 -11.9893990
 -23.1935883 -34.5152969 -12.3263474 -22.8303623 -33.6731758 -10.3933611
 -22.0561390 -34.4893456 -10.3740683 -22.4532146 -32.7518082  -9.9472485
 -24.1539173 -34.1256943  -9.6356220 -24.7525997 -33.2283401  -9.4847021
 -24.7625427 -34.7356758 -10.3348408 -23.9459724 -34.9626198  -8.3444014
 -24.8583317 -35.0496979  -7.7740579 -23.7919235 -36.0078278  -8.6087646
 -22.8930016 -34.5275421  -7.3436999 -22.8142834 -35.2447968  -6.5488954
 -21.8704967 -34.5037003  -7.7992625 -23.2418480 -33.2334366  -6.7140656
 -24.1607456 -32.8054657  -7.0521431 -22.5960770 -32.6239471  -5.7511754
 -23.0558090 -31.7187538  -5.4209013 -21.2315350 -32.9267883  -5.1104951
 -20.6637974 -32.0083809  -4.9901829 -21.3161011 -33.1928482  -4.0145130
 -20.2420921 -34.0158882  -5.7007189 -20.7891197 -34.9826965  -5.7053370
 -20.0292225 -33.7784538  -6.7653427 -18.8755627 -34.2332344  -4.9815154
 -18.4022923 -35.0425568  -5.5987854 -18.2531662 -33.3299789  -5.0400157
 -19.0251694 -34.6900101  -3.4915159 -18.0582962 -34.7607002  -3.0430331
 -19.5900936 -33.9996758  -2.9175572 -19.7163925 -36.0818100  -3.4945223
 -20.7037945 -35.9681511  -3.8361814 -19.2172947 -36.7625694  -4.1900659
 -19.7577553 -36.6274567  -2.0557375 -18.7327194 -36.9524231  -1.7607098
 -20.0806732 -35.8380280  -1.3225203 -20.7668762 -37.7693787  -1.8740265
 -20.8277493 -37.9880791  -0.7848057 -21.8059711 -37.5050888  -2.1790197
 -20.3126316 -39.1040649  -2.5350940 -20.9714165 -39.9322548  -2.2864792
 -19.3162041 -39.3652611  -2.1795986 -20.2292423 -39.0088692  -3.6264656
  31.6940403 -13.4239159  -6.3848877  32.3133049 -12.6379309  -6.7862806
  30.6381416 -13.0426464  -6.4629364  31.8389301 -14.3453836  -6.9766612
  32.0037689 -13.6920300  -4.9248624  31.9592113 -12.7862110  -4.3785610
  33.0236816 -14.0710058  -4.8576765  31.0754089 -14.7168245  -4.2097545
  30.0911827 -14.2870903  -4.0366974  31.4651909 -14.8979521  -3.2085249
  30.9666061 -16.0752258  -4.9221039  31.9428062 -16.3437157  -5.2435045
  30.3392773 -15.9561272  -5.8171868  30.3208275 -17.1415176  -4.0003877
  29.5110168 -16.6749210  -3.4406714  31.0762329 -17.3498878  -3.2661102
  29.8233700 -18.4277458  -4.6456828  29.1656113 -18.2269897  -5.5351348
  29.1537285 -18.9944611  -3.9888597  30.9543648 -19.3692131  -5.0975475
  30.5434990 -20.2003651  -5.6743617  31.3932896 -19.7471218  -4.2340560
  32.0926857 -18.7903481  -5.9833298  32.7061920 -18.0526066  -5.4501700
  31.6972637 -18.3246250  -6.8734412  33.0397835 -19.8919334  -6.4625955
  32.4284592 -20.6311588  -6.9612975  33.4676514 -20.3749866  -5.5718489
  34.1615753 -19.5872192  -7.4048610  33.7776756 -19.5139160  -8.4433861
  34.8239098 -20.4579926  -7.4713140  35.0787735 -18.4348450  -6.9670825
  35.5794373 -18.6065922  -6.0103197  34.5211945 -17.4964008  -6.8254609
  36.1508026 -18.2415371  -8.0617561  36.3329773 -19.1134529  -8.7001305
  37.0501442 -17.9361954  -7.4989290  35.8612862 -17.0069714  -8.9800177
  36.7155151 -16.9305115  -9.6104708  35.8250961 -16.1137867  -8.3208923
  34.6084633 -17.0103111  -9.9073544  34.6288071 -16.0076103 -10.4107943
  33.7678680 -17.0680866  -9.2690191  34.5576134 -18.1985321 -10.8932152
  34.6956558 -19.1750088 -10.4877234  35.2870827 -18.1633415 -11.7430458
  33.1675453 -18.2255917 -11.5032673  32.3814201 -19.1576118 -11.3132772
  32.8568039 -17.0667095 -12.1571074  31.4406109 -16.8955517 -12.4548388
  30.9354286 -16.9497623 -11.5025568  31.0866909 -17.7144699 -13.0380259
  31.2409687 -15.6044188 -13.2872581  30.1806545 -15.5027885 -13.5124226
  31.9895210 -15.5583811 -14.6122112  33.1292648 -15.3812494 -14.4370079
  31.5716782 -14.7506332 -15.2891245  31.8439655 -16.8006592 -15.2837553
  32.6585999 -17.2553387 -16.6097507  33.7303619 -18.1766052 -16.0066147
  34.8366776 -17.7657185 -15.1610298  34.4562950 -17.4088879 -14.2260323
  35.4301987 -16.9789639 -15.6774235  35.7009392 -19.0487251 -14.9934101
  35.0579224 -19.8525562 -14.7064228  36.4760284 -18.9210167 -14.2362366
  36.4512024 -19.6756840 -16.1309013  37.1692429 -20.8686256 -15.5848351
  37.6178169 -20.6933594 -14.6244068  37.9109268 -21.3246136 -16.2392845
  36.4301338 -21.6359062 -15.4093208  35.6010857 -20.1463146 -17.2262421
  35.0926781 -19.3102379 -17.7599983  34.8490067 -20.8151035 -16.8491135
  36.2906418 -20.5885906 -17.9062576  37.4937897 -18.6784096 -16.6053848
  36.9452209 -17.7828178 -16.9124641  38.0891876 -19.0864697 -17.4636173
  38.1410522 -18.4716225 -15.7834949  31.7055893 -18.0996723 -17.3844757
  33.2740707 -16.1006927 -17.2704296  31.6401272 -14.3746777 -12.5674763
  30.9106045 -13.9778223 -11.5131779  29.9762039 -14.6383972 -11.0202065
  31.4870377 -12.6716223 -10.9410238  32.5108109 -12.8407898 -10.5658808
  31.5196304 -11.8758106 -11.6835728  30.6133690 -12.0805359  -9.8892727
  29.6036320 -11.9758024 -10.2652664  30.5660229 -12.7309313  -8.9938507
  31.2309761 -10.7304716  -9.4970188  32.3063622 -10.8302584  -9.1738491
  31.2064400 -10.0321770 -10.3596897  30.4583530 -10.0681200  -8.3264618
  29.4295673 -10.0497713  -8.6159973  30.5249386 -10.7849398  -7.4463124
  30.8954983  -8.6465673  -7.8722620  30.6816082  -8.0137396  -8.7003288
  30.2673798  -8.2974567  -7.0480199  32.3765488  -8.4392672  -7.4821491
  33.0111008  -8.7343750  -8.3136253  32.5452385  -7.3752909  -7.2972150
  32.7373238  -9.1851873  -6.2264709  32.0686722  -8.8365154  -5.4831676
  32.5733719 -10.2315426  -6.3065295  34.1318130  -8.8760233  -5.6892343
  34.4576187  -7.8740892  -5.9547753  34.9323883  -9.7464981  -5.0153594
  35.9097481  -9.4576635  -4.7664890  34.5832367 -11.1073437  -4.4214230
  33.5530319 -11.3220587  -4.5221252  35.1716957 -11.8362560  -4.9814796
  35.0212173 -11.1913576  -2.9646759  36.0656548 -11.0137234  -2.8334763
  34.4152679 -10.5039921  -2.3583407  34.6859932 -12.6064148  -2.3830695
  34.6165810 -12.5640106  -1.2630659  33.7099686 -12.8081627  -2.7740834
  35.6638756 -13.7394333  -2.7347419  35.6121216 -13.9637375  -3.7860463
  36.6578598 -13.5046329  -2.3981228  35.2093468 -15.0833549  -2.1220355
  34.4115715 -15.4808664  -2.6731775  36.0137329 -15.8134737  -2.2779610
  34.8933601 -15.0179424  -0.6250085  35.6438637 -14.3563604  -0.2067692
  33.9458351 -14.5338821  -0.4617916  34.8564453 -16.3336353   0.1845745
  34.1804466 -17.0400963  -0.3687265  35.8620110 -16.8302727   0.1746869
  34.2675591 -16.0164223   1.5711151  34.0146332 -16.9123325   2.1584148
  33.3485641 -15.4682446   1.4147919  34.8569565 -15.3602333   2.1726527
  28.8681774 -31.7554874   2.1930821  28.6716251 -31.0869617   3.0497727
  29.4963455 -31.1502476   1.5404541  29.3908615 -32.6662140   2.5637972
  27.5072746 -32.1513138   1.4851760  26.9506340 -31.2320786   1.3489957
  27.0108452 -32.8538933   2.1286643  27.8969040 -32.7850494   0.1338157
  28.5112286 -33.6416206   0.3072084  28.5094833 -32.0829048  -0.3899906
  26.7387218 -33.0757942  -0.8176649  26.1382294 -33.8844070  -0.4020935
  27.0701027 -33.4278984  -1.7944323  25.7213192 -31.9019547  -1.0075480
  26.1625099 -30.8912125  -0.8993961  24.9734879 -31.9942131  -0.2396593
  24.9937916 -31.9373817  -2.3731151  24.0342731 -31.4635677  -2.1933768
  24.7120018 -32.8957901  -2.7885725  25.7096653 -31.0482903  -3.4043360
  25.7227173 -30.0144653  -2.9839950  25.1755924 -31.0535603  -4.3896737
  27.2191467 -31.3572025  -3.6763456  27.3436832 -32.3988380  -4.0104356
  27.7754230 -31.4331989  -2.7226315  27.9384594 -30.4418449  -4.6492920
  29.0063095 -30.6522350  -4.5869608  27.7711945 -29.4466629  -4.4503951
  27.4555702 -30.7747631  -6.0842466  26.4126987 -30.4829578  -6.2280316
  27.4851112 -31.8717842  -6.2348795  28.3952751 -30.1287556  -7.1554403
  29.4405346 -30.5806828  -6.9905305  28.4502392 -29.0275593  -6.9519162
  27.8927402 -30.2945442  -8.6046219  27.8015327 -31.3560028  -8.8805075
  28.5958366 -29.8349476  -9.2533960  26.5731697 -29.5845585  -8.8525438
  26.7041054 -28.5091057  -8.5531101  25.7834034 -29.9485207  -8.2096977
  26.0769939 -29.6436787 -10.2912006  26.7731457 -29.0975971 -10.9276524
  25.0767746 -29.1699886 -10.3409281  25.9232635 -31.0851269 -10.8005629
  25.3857250 -31.6811409 -10.0814972  26.8741417 -31.5343018 -10.9287310
  25.1724606 -31.0638981 -12.1153736  23.9755249 -31.3730068 -12.2131596
  25.9431114 -30.6484985 -13.1029692  25.5404854 -30.5776005 -14.4665136
  24.8281479 -29.8722000 -14.5989361  25.0792484 -31.5227909 -14.7376528
  26.8003826 -30.2967644 -15.3569593  26.4686317 -29.8577728 -16.3099403
  27.6210518 -31.5615673 -15.6868382  27.5898151 -32.3024445 -14.8580227
  28.6538811 -31.2002468 -15.7865858  27.1723289 -32.1157265 -16.9226112
  27.9720383 -33.3818207 -17.6272259  29.1766548 -32.6091919 -18.3568497
  29.0850811 -31.7862778 -19.5616531  28.3889790 -32.2891502 -20.2455597
  30.0399590 -31.7475224 -20.0466919  28.5983582 -30.3727551 -19.2088165
  27.8780346 -30.4373722 -18.3814869  28.1605701 -29.9142075 -20.0983257
  29.6829987 -29.3857803 -18.7827892  30.9934406 -29.3077755 -19.5636635
  31.4566212 -30.2701683 -19.4414330  31.6429825 -28.4996300 -19.1049137
  30.6996841 -29.1785927 -20.6110477  29.0794220 -28.0476990 -18.7587090
  28.0407314 -28.1293144 -18.3651943  29.0798855 -27.6671772 -19.7532101
  29.7069912 -27.3490028 -18.2267971  30.1025753 -29.6763058 -17.3972855
  29.3586540 -29.2550735 -16.6877213  31.0918026 -29.1822224 -17.2368412
  30.2296677 -30.7400436 -17.2965164  28.5995941 -34.2032394 -16.5437126
  27.1822453 -34.0996971 -18.6602688  27.7491589 -29.3734932 -14.7559853
  27.3679428 -28.2187443 -14.2636671  26.4054661 -27.5938606 -14.6471586
  28.2665539 -27.7010002 -13.1637211  28.6498070 -28.5739689 -12.5511065
  29.1406269 -27.2152252 -13.5817165  27.6022453 -26.6909218 -12.2609177
  27.4909973 -25.8255672 -12.9391184  26.6100788 -26.9348145 -11.9427509
  28.4673576 -26.3623524 -11.0243044  28.4938984 -27.1856499 -10.3116980
  29.5236435 -26.1515026 -11.2970839  27.8516941 -25.1712990 -10.2610769
  28.6286430 -24.4353218  -9.9544439  27.2170639 -24.6053391 -10.9715834
  26.9351597 -25.5301094  -9.0759869  26.2857094 -24.6532326  -8.9680471
  26.2723961 -26.4049454  -9.2200413  27.6131229 -25.6778450  -7.7303309
  28.1362534 -26.6300507  -7.6910777  28.3680916 -24.8962193  -7.5799713
  26.7291565 -25.5531979  -6.4649324  27.3981934 -25.5506401  -5.5798731
  26.2189140 -24.6158314  -6.5310678  25.7613201 -26.7096901  -6.2965722
  25.4921055 -27.2631474  -7.2409291  25.2608509 -27.0677948  -5.1128774
  24.6617870 -27.9627609  -5.0841041  25.3044128 -26.2830906  -3.8341224
  25.7102184 -26.9069290  -3.0489538  26.0633945 -25.4720097  -3.9828119
  23.9358711 -25.6923294  -3.4185591  23.5588379 -24.9971409  -4.1931238
  23.2449417 -26.4949493  -3.2976568  24.0230598 -24.8970985  -2.1225502
  24.4406109 -23.9187832  -2.3948433  23.0462055 -24.6739941  -1.7633392
  24.9092789 -25.4234772  -0.9572688  25.9161015 -25.3739529  -1.2777770
  24.8023815 -24.7044067  -0.1495029  24.6764164 -26.8021622  -0.3963126
  24.8717670 -27.5719166  -1.1717407  25.4249935 -26.9838791   0.4051394
  23.2817554 -27.0218639   0.1709783  22.8735256 -26.0636883   0.5311896
  22.6059189 -27.2807808  -0.6286198  23.3306904 -28.0571270   1.3088710
  24.0042324 -27.6949596   2.1163874  22.3146095 -28.2064095   1.7525131
  23.7464523 -29.3951454   0.8196679  23.5911674 -30.1292591   1.6215574
  24.8869438 -29.4300461   0.6551514  23.1482697 -29.6826057  -0.0506480
  18.7712021 -11.2917709   1.3848625  19.4690819 -10.4302349   1.5516729
  18.5584335 -11.6632643   2.3751905  17.8192673 -11.0274410   0.8757329
  19.5143547 -12.4587622   0.6641293  20.3959064 -12.6433506   1.2759603
  19.8668900 -12.1690121  -0.3733629  18.6980190 -13.7543640   0.4650387
  17.8368206 -13.5427608  -0.2034653  18.2112083 -14.1133347   1.3985140
  19.5156517 -14.8730602  -0.1128462  20.3349419 -15.0846901   0.5515572
  19.9094601 -14.5456228  -1.0870060  18.6687946 -16.1626644  -0.3086639
  17.7063599 -15.9050360  -0.7775543  18.4421959 -16.5585403   0.6686652
  19.4100971 -17.3156910  -0.9907680  19.0691147 -18.2356739  -0.5143695
  20.5120087 -17.2015648  -0.8514556  19.0827503 -17.3973331  -2.5087075
  19.3942490 -16.4472046  -3.0586660  18.0185299 -17.4405479  -2.6470218
  19.7321167 -18.6157074  -3.2205322  19.4174805 -19.5859566  -2.8659270
  20.8030548 -18.6079235  -3.0473340  19.4627762 -18.5748672  -4.7733436
  18.4267635 -18.8226261  -4.8394303  20.0048351 -19.4002762  -5.2191687
  19.7425613 -17.2549343  -5.5146461  20.6076546 -16.8034859  -5.1227860
  18.9427547 -16.5318813  -5.3020101  20.0773640 -17.5340919  -7.0353932
  20.7798386 -18.3285313  -7.1563668  20.4934864 -16.6456718  -7.5615449
  18.8401794 -17.9758492  -7.8574347  18.4047852 -18.9043198  -7.4759860
  19.1250401 -18.1586571  -8.9522905  17.6903553 -16.9477348  -7.9406090
  17.2071362 -16.9129715  -6.9311185  16.9733276 -17.3052349  -8.6625786
  18.1625156 -15.5445328  -8.4103384  18.8085632 -15.6603765  -9.2814436
  18.6522350 -14.9906626  -7.6167307  17.0266056 -14.6179428  -8.9092379
  16.2314510 -14.8055782  -8.1635561  17.3133087 -13.5840530  -8.9468918
  16.4711380 -14.9527225 -10.2657080  17.1335163 -14.7819252 -11.2293043
  15.1600227 -15.3386402 -10.2133551  14.5578947 -15.6634521 -11.5051136
  14.8171520 -14.8180380 -12.1458902  13.4797859 -15.6437588 -11.3325987
  15.0581541 -16.9685326 -12.1158609  16.0445671 -16.7033367 -12.4284639
  14.1157484 -17.3678303 -13.2960882  13.0734673 -17.4130573 -12.9596758
  14.3745508 -18.3829651 -13.6525717  14.2286253 -16.4903946 -14.4103899
  13.5353661 -16.8613052 -15.7861576  14.6889648 -17.6483765 -16.5940742
  15.8705521 -16.9530468 -17.0288067  16.5637684 -17.6968155 -17.3503036
  16.3484135 -16.4416332 -16.1535149  15.7371826 -15.9879484 -18.2710934
  16.6868057 -15.4582396 -18.3306599  15.0079498 -15.2197256 -18.0061474
  15.4295654 -16.4904575 -19.6660023  14.1062822 -17.1233387 -19.7579842
  14.2265892 -18.1012707 -19.2506676  13.8336048 -17.2998199 -20.7660751
  13.2748594 -16.5185394 -19.2904263  15.4152241 -15.3158226 -20.5806065
  16.3899727 -14.8231564 -20.5835266  14.6384420 -14.6755905 -20.1363926
  15.1272192 -15.6524429 -21.5983410  16.5108128 -17.4296207 -20.1592941
  17.3919830 -16.8231812 -20.0870781  16.3549309 -17.7219219 -21.1728954
  16.6158218 -18.2612915 -19.4836082  12.4222584 -17.8193474 -15.5036440
  13.3113375 -15.6035185 -16.5552597  14.9222298 -18.0367584 -11.1031189
  15.9432135 -18.9342041 -10.9929514  17.0748367 -18.7222900 -11.4448442
  15.5636120 -20.2303429 -10.2698765  14.5294590 -20.4612713 -10.4476595
  16.2077923 -21.0691261 -10.6482649  15.7588997 -20.1803093  -8.7051525
  15.6721506 -21.2105598  -8.3226290  16.8104248 -19.8881741  -8.5781021
  14.8067245 -19.1846790  -8.0098381  14.9288940 -18.2487354  -8.4734421
  13.7117090 -19.4201641  -8.0312843  15.0987530 -19.0018482  -6.5181732
  14.9728193 -19.9415150  -5.9372234  16.1363544 -18.6968422  -6.4391990
  14.1774759 -17.8753605  -5.8875985  14.2494764 -17.0038109  -6.5351057
  13.1399193 -18.3154030  -5.9125214  14.4838152 -17.3016567  -4.4516330
  13.7358389 -16.5293789  -4.2997713  14.2972908 -18.0083885  -3.5820568
  15.8076248 -16.5021458  -4.4096727  15.9308348 -16.1501617  -3.3853679
  16.6450863 -17.1700363  -4.6058054  15.8369942 -15.2401180  -5.2842474
  15.4003391 -15.3965330  -6.2844086  16.1431580 -13.9779291  -4.9640875
  15.9964237 -13.2128611  -5.6721921  16.6603737 -13.5438433  -3.6356478
  15.9415588 -12.8062954  -3.1963298  16.6344948 -14.3866749  -2.9337859
  18.0585651 -12.9852953  -3.6900463  18.4534225 -12.9408312  -2.6645944
  18.7078400 -13.6720572  -4.2264566  18.2205906 -11.6105595  -4.3864708
  18.1837559 -11.6419659  -5.4878736  17.3195095 -11.0084352  -4.1566300
  19.3758144 -10.7467880  -3.8555944  19.2867241  -9.6730919  -4.0880461
  19.3871937 -10.7057495  -2.7457616  20.8163242 -11.2648792  -4.2426977
  20.8344917 -12.2110806  -3.8057659  20.8351040 -11.4886951  -5.2792149
  21.9726658 -10.3387890  -3.8309050  22.8670292 -10.9097815  -4.0037227
  22.0331573  -9.5106716  -4.4972095  22.0522614  -9.9383888  -2.3225117
  22.8272438  -9.0990057  -2.3157635  21.0959053  -9.5731440  -1.9034727
  22.5987797 -11.0805979  -1.4116336  22.6894302 -10.8150568  -0.3609699
  23.6273670 -11.3028440  -1.7657984  22.0368748 -11.9817543  -1.5669923
 -10.7430182  20.8800888   2.3349795 -10.9714470  21.2535000   3.3344934
  -9.7270184  21.0662880   2.1251235 -10.9335241  19.8002853   2.2272594
 -11.6738997  21.4921799   1.3064743 -11.8234501  22.5548363   1.4997518
 -12.6998844  21.0519638   1.3614689 -11.0849237  21.2980556  -0.1502074
 -11.1616983  20.2409668  -0.4179319 -10.0258675  21.5838032  -0.1658858
 -11.9577494  22.0646400  -1.1650828 -12.1286697  23.1187897  -0.8626356
 -12.9388103  21.6243534  -1.1536796 -11.3420057  21.9507008  -2.5749400
 -10.2941122  22.1557713  -2.4945333 -11.7628469  22.7463932  -3.1446586
 -11.5380802  20.6103115  -3.2364666 -12.5971022  20.4669590  -3.4544420
 -11.1117859  19.8430519  -2.6017084 -10.7690754  20.5557919  -4.6032248
 -10.7779875  19.5290737  -4.9807634  -9.6776285  20.8429127  -4.4776335
 -11.3668766  21.4886856  -5.6955009 -11.4161768  22.5137997  -5.2688336
 -12.3503008  21.1790695  -5.8851480 -10.5429211  21.4358902  -7.0239716
 -10.6441154  20.4423733  -7.5075006  -9.5178080  21.6913719  -6.8520498
 -11.1125422  22.4711056  -8.0278769 -11.0533915  23.4396591  -7.5418291
 -12.1251450  22.2663708  -8.2946911 -10.2782717  22.5974579  -9.2970314
 -10.4089870  21.6337280  -9.7862291  -9.1928997  22.6349945  -9.1205492
 -10.7035532  23.7447567 -10.1916800 -10.6339636  24.6893768  -9.5559578
 -11.7601166  23.6823120 -10.4524956  -9.8817148  23.9217930 -11.4815063
 -10.0077391  22.9929848 -11.9995117  -8.8122959  24.0384865 -11.1779785
 -10.2959728  25.0997543 -12.3618612 -10.0129452  26.0493164 -11.8509445
 -11.3880634  25.1446838 -12.5103779  -9.6752443  25.0472622 -13.8004723
  -9.6470594  24.0589886 -14.2378712 -10.2570715  25.6539936 -14.4547405
  -8.2690058  25.5577831 -13.8330641  -7.7612853  26.1816196 -12.9238977
  -7.6622825  25.2030792 -14.9422417  -6.1746311  25.1046276 -15.0248613
  -5.7183604  25.7889404 -14.3091002  -5.7804637  25.3944321 -15.9993896
  -5.7234902  23.5956421 -14.8575773  -4.6451607  23.5736275 -14.8753347
  -6.2496214  22.7620487 -16.0549831  -5.7113976  21.8024292 -16.0905533
  -6.1059551  23.3143616 -16.9648628  -7.7005510  22.4434357 -15.9520998
  -8.4738789  21.5649338 -17.0330791  -9.5089569  22.6182652 -17.7049084
  -8.9946117  23.6505623 -18.5685196  -8.7677374  23.2891369 -19.5626411
  -8.1479654  24.1829376 -18.1166477 -10.1599874  24.5835419 -18.8546104
 -10.9934177  24.0675468 -19.2819862  -9.8971252  25.3140373 -19.6291180
 -10.7413950  25.4271488 -17.7535820  -9.6331577  26.2225075 -17.1426964
  -9.1114464  25.4914093 -16.5207157 -10.0805225  27.0775452 -16.5694256
  -8.9860210  26.6375523 -17.9181175 -11.7762671  26.2983227 -18.3406086
 -12.5894365  25.6861801 -18.6487122 -11.4718399  26.9916172 -19.1824512
 -12.0603094  26.9462376 -17.4853172 -11.4491549  24.6071167 -16.7561073
 -12.2203341  24.0071983 -17.3195286 -11.9453716  25.2306843 -16.0618095
 -10.7239485  23.9492149 -16.2536888  -7.4758835  21.2170582 -18.1068954
  -9.2931414  20.5157204 -16.3817387  -6.1671491  23.0199795 -13.5572834
  -5.5086331  21.9306412 -13.0990171  -4.5843801  21.3809853 -13.6727858
  -5.9437470  21.3973141 -11.7357349  -7.0456667  21.2206364 -11.7874622
  -5.4073853  20.4263859 -11.6667404  -5.5652790  22.3572903 -10.5510340
  -4.4591980  22.4661045 -10.5682697  -6.0334105  23.3653164 -10.7011271
  -6.0258193  21.7129326  -9.2110586  -7.0475798  21.3879757  -9.3061438
  -5.5376077  20.7630825  -9.1001272  -5.9190731  22.6034203  -7.9932795
  -4.8662605  22.8025036  -7.8031535  -6.4672451  23.5073853  -8.1682339
  -6.5250835  21.8289356  -6.8225365  -7.5079603  21.4472942  -7.1170945
  -5.9806247  20.8968334  -6.5850282  -6.7909379  22.6331177  -5.5750589
  -7.3370609  23.5463409  -5.8912826  -7.4071369  21.9998589  -4.9390078
  -5.5326705  23.0578785  -4.7706566  -5.0093932  22.1354694  -4.5176196
  -4.8198996  23.7040424  -5.3608842  -5.9930902  23.6904888  -3.4725490
  -7.0235391  23.4173698  -3.2061458  -5.3830380  24.6365852  -2.7310302
  -5.8934460  25.1548119  -1.8912618  -3.9043880  24.9661102  -2.8068888
  -3.4074125  24.2253380  -3.4729438  -3.8149431  25.9647465  -3.1387317
  -3.2840607  24.8852005  -1.4166276  -3.2037652  23.8660088  -1.0526142
  -2.2264953  25.1513500  -1.5642065  -3.8434670  25.8261299  -0.3338808
  -4.9265656  25.6263161  -0.1862537  -3.3918617  25.5789452   0.6354300
  -3.6693013  27.3245449  -0.6069883  -4.1075597  27.5249290  -1.5883577
  -4.2299433  27.9196072   0.1373246  -2.2383397  27.8167610  -0.5165983
  -1.5807958  27.3164482  -1.2282202  -2.2190981  28.8692570  -0.8050395
  -1.8067212  27.6829605   0.9658155  -1.7854919  26.6337624   1.2970644
  -0.7402974  27.9675846   0.9655690  -2.5896776  28.6127872   1.9692011
  -2.5925522  29.6125240   1.6177666  -3.5899978  28.1711369   2.2527475
  -1.9062663  28.5636635   3.3465157  -2.2326393  29.4679375   3.8877473
  -0.8628642  28.6926117   3.2654550  -2.1918809  27.6745453   3.8928084
 -17.1150723  -5.6347437  -1.2653530 -17.0996094  -6.6053839  -0.8040630
 -18.1591187  -5.3415871  -1.3633585 -16.7066135  -4.8477387  -0.5779650
 -16.4486198  -5.6355162  -2.6348403 -16.9408436  -6.4125972  -3.3018913
 -15.4455299  -5.8702211  -2.4358132 -16.5219383  -4.2555828  -3.4020548
 -15.9815044  -4.4092293  -4.3545322 -15.9752617  -3.5443094  -2.8486338
 -17.9392910  -3.7265370  -3.6235409 -17.8890991  -2.9402766  -4.3083529
 -18.3597775  -3.3754804  -2.6914680 -18.9655457  -4.7407022  -4.2461286
 -19.0393448  -5.5918937  -3.5993302 -18.6551914  -5.0674129  -5.2444611
 -20.3801250  -4.1361780  -4.3716207 -20.2917213  -3.1921246  -4.9464431
 -20.7292595  -3.8715079  -3.3407638 -21.3643570  -5.0337992  -5.1079044
 -21.5183239  -5.9349895  -4.5132542 -20.9180813  -5.3639226  -6.0171061
 -22.7692451  -4.3818340  -5.3025799 -22.7233677  -3.5343339  -6.0502267
 -23.1847935  -4.0193553  -4.3401804 -23.8066483  -5.3920031  -5.7934303
 -24.8204041  -4.9443130  -5.7151442 -23.7870617  -6.3060899  -5.1580377
 -23.6714745  -5.8051853  -7.2468448 -24.2855721  -6.7559204  -7.3782377
 -22.6428642  -6.0525470  -7.4681897 -24.1317272  -4.8063693  -8.2880669
 -23.8528996  -3.7927904  -7.9791021 -25.1857681  -4.8140426  -8.4295759
 -23.4415436  -5.1343579  -9.6664314 -23.9625187  -4.5178361 -10.3446331
 -23.5969067  -6.2068987  -9.8779144 -21.9155331  -4.7751856  -9.6941929
 -21.3919563  -5.1887631  -8.7786856 -21.7711258  -3.7151086  -9.6624813
 -21.1921539  -5.3831301 -10.9391594 -21.7203903  -4.9450655 -11.7813587
 -21.2597160  -6.5101094 -10.9523344 -19.7658463  -4.9111271 -10.9635439
 -19.2114658  -5.4164557 -10.1522055 -19.6553459  -3.7990963 -10.9423695
 -19.0295181  -5.3677893 -12.2035608 -18.2289467  -6.2845950 -12.1795712
 -19.3737221  -4.7079592 -13.3255663 -18.8006802  -5.0140376 -14.6515741
 -17.7677956  -4.7142887 -14.6217241 -19.3561535  -4.4161835 -15.3807917
 -19.0006447  -6.5126081 -15.0582552 -18.3204861  -7.1789765 -14.5268717
 -18.7229652  -6.6955733 -16.5779495 -18.9496841  -7.7530293 -16.8625145
 -17.6262836  -6.6045718 -16.6661549 -19.4586277  -5.8251495 -17.4781342
 -21.0439281  -5.9653826 -17.8650017 -21.6668301  -4.8933158 -16.8649921
 -21.7743874  -3.4926245 -17.2547836 -22.0801182  -3.4694717 -18.3547077
 -20.8196049  -2.9473858 -17.0744057 -22.9328041  -2.9003181 -16.4065857
 -23.8827610  -3.3600426 -16.6939774 -23.0807495  -1.7803621 -16.6621876
 -22.8284740  -2.8671596 -14.9346638 -22.7574005  -4.2696090 -14.4297218
 -23.5488930  -4.7714195 -14.9737358 -23.0243397  -4.2906327 -13.3407421
 -21.7330379  -4.6847658 -14.5693970 -21.5290279  -2.2544718 -14.4551487
 -21.3527794  -1.3072207 -14.9655762 -20.7561989  -2.9960105 -14.6337500
 -21.6601791  -2.1616724 -13.3597364 -24.0718250  -2.2564130 -14.2325392
 -24.1849613  -1.2903394 -14.6190186 -23.7584534  -2.2722397 -13.2319927
 -24.8700504  -2.9405360 -14.4361801 -21.1823101  -5.4187484 -19.2500801
 -21.5302830  -7.3115773 -17.4948444 -20.3722458  -6.8981957 -14.6808376
 -20.6019878  -8.2019320 -14.5977898 -19.7583675  -9.0299644 -14.9286757
 -22.0296478  -8.5752745 -14.1784859 -22.4293346  -7.6737375 -13.8546238
 -22.5934448  -8.9189444 -15.0587282 -22.1112461  -9.6359777 -13.1423283
 -23.1722450  -9.8739443 -12.9194946 -21.5599747 -10.5101299 -13.5170641
 -21.4620419  -9.1658316 -11.8427963 -20.4881077  -8.7333574 -12.0173025
 -22.1297054  -8.4040012 -11.3955107 -21.2460117 -10.3740749 -10.9013548
 -22.1453075 -11.0200987 -10.9473515 -20.4445744 -11.0066891 -11.2717714
 -20.8844090  -9.9684010  -9.4597464 -21.7481422  -9.3629313  -9.0600882
 -20.8864784 -10.8245029  -8.8488121 -19.5803471  -9.1375551  -9.3182068
 -18.7785358  -9.6548100  -9.8462286 -19.6633549  -8.1060734  -9.7348766
 -19.2666016  -8.9912224  -7.8312492 -18.9553318  -9.9840136  -7.5120301
 -18.3374958  -8.4347773  -7.8705692 -20.3243046  -8.2958698  -7.0267305
 -21.0642796  -7.8149233  -7.6716256 -20.5907555  -8.4468575  -5.7329807
 -21.5054150  -8.0391150  -5.3067036 -19.8842640  -9.4119110  -4.7851734
 -20.5562973 -10.2582016  -4.7148504 -18.9673214  -9.8744955  -5.2085896
 -19.5414867  -8.7622757  -3.4114175 -18.8601665  -9.3986492  -2.8183210
 -19.0672398  -7.8051085  -3.6051455 -20.7887688  -8.4627810  -2.5260637
 -21.5896053  -8.0645885  -3.1169794 -21.1101131  -9.3766832  -1.9857402
 -20.3995495  -7.4261637  -1.4134794 -19.5461121  -7.8350186  -0.8736123
 -20.0541115  -6.4918323  -1.8007700 -21.5806675  -7.1395426  -0.4565155
 -22.1517925  -8.0252790  -0.3292522 -21.1765461  -6.8407202   0.5376546
 -22.5056000  -6.0466242  -1.0511885 -21.9668808  -5.0711017  -1.0211422
 -22.7817707  -6.2372804  -2.1103356 -23.7498169  -5.9428883  -0.1554006
 -24.3321419  -6.8323288  -0.1373365 -23.4355526  -5.8485417   0.8706962
 -24.8065090  -4.9023943  -0.6090946 -25.6962471  -5.0638180   0.0558163
 -25.0691509  -5.1473327  -1.6479732 -24.3700867  -3.8971684  -0.5389720
  18.6397057   4.5639215  -6.7683434  18.9241848   4.9261980  -5.7430263
  17.5441856   4.6538095  -6.8282652  19.1356831   5.2564020  -7.4657083
  19.1356220   3.1275632  -6.9077582  18.7074356   2.5060618  -6.0900707
  20.2304573   3.2404785  -6.8360019  18.7654991   2.5550845  -8.3146048
  19.1742382   3.2141614  -9.0553360  17.6475506   2.5540504  -8.4129829
  19.3007107   1.1096094  -8.5355339  18.8981056   0.4151887  -7.7544708
  20.3749676   1.1359065  -8.3955517  19.0892887   0.5426639  -9.9386044
  19.5597496  -0.4601633  -9.9395428  19.7453918   1.0752581 -10.5792227
  17.6869698   0.5449412 -10.5982647  17.2569504   1.5320833 -10.5688190
  17.0626965  -0.0142968  -9.9064045  17.5872822  -0.0990785 -11.9815674
  16.5022469   0.0117895 -12.1661434  17.8323135  -1.1828046 -11.9059200
  18.4215488   0.5185001 -13.0826197  19.4603424   0.2877658 -12.8496408
  18.3633919   1.6178181 -13.1365795  18.1195183   0.1592052 -14.5395432
  18.6869068   0.7821160 -15.2750072  17.0610523   0.3689698 -14.8102961
  18.4352074  -1.3308805 -14.8330126  18.0864506  -1.4951615 -15.8637953
  17.7407780  -1.9745697 -14.2973185  19.9261322  -1.6984023 -14.6284866
  19.9922066  -2.2142239 -13.6876631  20.5393429  -0.7661971 -14.5680046
  20.5637150  -2.5210609 -15.7757521  21.6283798  -2.5976465 -15.4816332
  20.7127266  -1.9227971 -16.7048607  19.9847183  -3.9056313 -16.1521435
  20.5693474  -4.3699331 -16.9449501  18.9945202  -3.7664793 -16.5309448
  19.9479847  -4.9808402 -14.9845161  20.8690643  -4.7754078 -14.3872833
  20.0198345  -5.9647822 -15.3517342  18.7580166  -4.9497595 -13.9996300
  18.5091896  -3.8665106 -13.7589731  19.0264988  -5.4946003 -13.0734272
  17.5473976  -5.6296725 -14.6270552  17.3204765  -6.8387566 -14.6411152
  16.6505318  -4.7506800 -15.1170015  15.4226723  -5.1984987 -15.7096195
  14.7948122  -5.5888076 -14.8902979  15.5716953  -5.9789319 -16.4710102
  14.8398447  -3.9581108 -16.4600506  13.8398972  -4.1975746 -16.9174175
  15.7491541  -3.5432744 -17.6198406  16.7698574  -3.5197256 -17.2128925
  15.4606810  -2.5600812 -18.0641117  15.7501707  -4.5421510 -18.6993713
  16.6717415  -4.3763633 -20.0364285  15.6782875  -3.6856773 -21.0692806
  15.6114693  -2.2490122 -21.1744900  15.6604376  -1.8102556 -20.2166538
  14.6879425  -1.9867949 -21.6814404  16.7733231  -1.7964798 -22.1248817
  17.7384434  -2.2023149 -21.7748547  16.8703728  -0.7019696 -22.0641117
  16.7278328  -2.2456598 -23.5751190  16.9251213  -3.7078524 -23.7509155
  17.8753262  -4.0090938 -23.2910004  16.8554134  -4.0021782 -24.8069611
  16.1323566  -4.1899252 -23.2076550  15.4722300  -1.8316236 -24.2922592
  15.3792000  -0.7562343 -24.2015476  14.6030340  -2.3224597 -23.7737465
  15.5934439  -2.1956627 -25.3013973  17.9471569  -1.6490232 -24.2903881
  17.9226761  -0.5329194 -24.2754822  17.9142208  -2.0599124 -25.3370399
  18.8611431  -1.9854522 -23.8056278  17.7625446  -3.4204137 -19.6956444
  16.9875946  -5.7567883 -20.5544643  14.6554079  -2.8296540 -15.5991068
  13.6391735  -2.8977702 -14.7319984  12.8490124  -3.8027444 -14.7283640
  13.5966129  -1.6714202 -13.8649864  14.5092001  -1.6638963 -13.2212057
  13.5854168  -0.7952264 -14.5232630  12.3121967  -1.6472497 -13.0211220
  11.4690075  -1.9938178 -13.6860046  12.4845238  -2.3566158 -12.2052975
  11.9610825  -0.2268624 -12.4663439  11.7444458   0.4618357 -13.3319321
  11.0055647  -0.3029414 -11.9563675  12.9536295   0.4675645 -11.4947882
  13.9451075   0.6105595 -11.9543638  12.5946808   1.4373100 -11.2216816
  13.1387901  -0.3580557 -10.2132320  12.2349834  -0.5676855  -9.7329931
  13.6713877  -1.2935119 -10.4629574  14.0471992   0.4007134  -9.2677402
  14.8861122   0.7632294  -9.8409863  13.5196266   1.2906041  -8.8719673
  14.5811501  -0.4007223  -8.0943565  15.0033178  -1.3463105  -8.4655361
  15.3817959   0.1267464  -7.6345677  13.5284042  -0.6392177  -7.0855885
  12.5913277  -1.0739769  -7.4886012  13.5970545  -0.2878305  -5.7817097
  12.7250099  -0.4880419  -5.0933380  14.7295179   0.4465784  -5.1244240
  15.2746000   1.0850642  -5.8223271  14.3120136   1.1361024  -4.4221730
  15.7098379  -0.5170935  -4.4488530  16.5261745  -0.0016362  -3.9393518
  15.1190014  -1.0616722  -3.7335830  16.2762127  -1.6030914  -5.3771381
  15.4980841  -2.2564008  -5.6791754  16.6235619  -1.1089884  -6.2707000
  17.4229641  -2.4744763  -4.8044138  17.0277824  -2.8866889  -3.8678215
  17.6015434  -3.3485615  -5.4384346  18.6739559  -1.6321467  -4.4816618
  19.0642128  -1.3233184  -5.4659123  18.4072342  -0.6586752  -4.0246410
  19.7702541  -2.2178671  -3.5341029  20.2090683  -3.1172702  -4.0234261
  20.5206852  -1.4358249  -3.3672950  19.3410892  -2.6777067  -2.0904253
  18.6624432  -3.5093215  -2.1470187  20.2791710  -3.1047940  -1.6243126
  18.7226334  -1.5728297  -1.2192489  18.4552803  -1.9368833  -0.2194195
  17.8262997  -1.1372819  -1.6505325  19.4643669  -0.7376766  -1.0830638
   9.6112127   5.7428460   0.2478570   9.5772715   4.8412352   0.8954444
  10.5736685   5.6929297  -0.2799702   8.7871227   5.6268740  -0.4758370
   9.3846016   7.0236979   1.0733939  10.0367088   7.0230818   1.9660848
   8.3924885   7.1461272   1.4671718   9.6379700   8.3619213   0.3848070
  10.7067413   8.5525284   0.2679973   9.3611135   9.1571093   1.0362492
   8.7954483   8.5541563  -0.8614081   8.5096188   9.5867414  -0.9608850
   7.8466868   8.0348234  -0.7628482   9.4000711   8.0801811  -2.1675534
   8.6470785   8.1939449  -2.9700134   9.5992241   7.0110245  -2.1335971
  10.7374897   8.7672844  -2.5516150  11.4730825   8.6605396  -1.7390149
  10.5411730   9.7810545  -2.6715925  11.2953615   8.2724962  -3.8510439
  11.5723028   7.2110581  -3.7933004  12.2604227   8.7435713  -3.9827111
  10.2946196   8.5383053  -5.0478172   9.9837704   9.5838099  -5.0144339
   9.4248495   7.8635044  -4.8450093  10.8519564   8.2172556  -6.4454503
   9.9783907   8.3005295  -7.0984983  11.1623869   7.1618791  -6.5269399
  12.0340338   9.0728483  -6.8640041  12.9512873   8.8263760  -6.2665887
  11.8393269  10.1085291  -6.6010151  12.2848749   8.9140902  -8.3578348
  11.3908720   9.2644777  -8.9600258  12.3257074   7.8279924  -8.5591412
  13.5753098   9.6680155  -8.7968245  14.3717756   9.3859138  -8.1262560
  13.4498968  10.7343426  -8.6474819  14.0143976   9.3334904 -10.2808380
  13.3037128   9.7848816 -10.9924841  14.0236712   8.2256155 -10.3844891
  15.4492493   9.8149824 -10.5598278  16.0519466   9.3566418  -9.7467098
  15.4502916  10.9291210 -10.4073572  16.0080223   9.4372606 -11.9789114
  15.9134092   8.3953133 -12.1583986  17.0705109   9.7505054 -12.0096550
  15.2594872  10.1275110 -13.1209803  14.6714296  11.1799240 -12.9450188
  15.3613844   9.3649111 -14.2656269  14.7346268   9.8441143 -15.5054779
  13.8330097  10.3987350 -15.2344170  14.5396919   8.9694033 -16.2046318
  15.6586924  10.7551155 -16.2773514  15.1592255  11.1189222 -17.1361694
  16.8926163   9.8839111 -16.6478615  16.5312366   8.9749889 -17.0910301
  17.4780502   9.6159191 -15.7577467  17.7539845  10.4895639 -17.5905685
  17.4291763  10.4414043 -19.1526299  17.3050785  11.9874468 -19.5338707
  16.0608978  12.7195082 -19.3207989  16.3432388  13.7589083 -19.3091164
  15.5245819  12.4852333 -18.4002514  15.1007690  12.5378084 -20.5104256
  14.2760096  13.2297039 -20.3834743  14.7074709  11.5297556 -20.4334106
  15.7009506  12.6874580 -21.8909302  14.5514336  12.7513885 -22.8148346
  13.9799776  11.8457403 -22.6200676  14.9484835  12.6778212 -23.8686657
  13.9450541  13.6519804 -22.5867443  16.6002274  13.8673229 -22.1019344
  17.5087490  13.7454119 -21.5678997  16.0447025  14.7465696 -21.7371025
  16.8299694  13.9525795 -23.1490555  16.3813515  11.4174480 -22.2851219
  17.2986622  11.4223785 -21.6457348  16.6978741  11.4429865 -23.3762341
  15.7294464  10.5548058 -22.0657005  18.5659657   9.9201202 -19.9777012
  16.0589943   9.8654356 -19.3502483  16.1653004  11.8587036 -15.5179110
  15.4861374  13.0256224 -15.4201469  14.3101454  13.1749430 -15.7996359
  16.3075218  14.1551218 -14.7882795  17.0270367  13.7262936 -14.0803719
  16.8069344  14.5900831 -15.6546888  15.4491377  15.2108707 -14.0525742
  15.9923258  16.0902977 -13.8431444  14.6009150  15.4705896 -14.6641483
  14.8380146  14.6749821 -12.7653694  14.1430492  15.3938637 -12.4612713
  14.2599926  13.7308521 -12.8949080  15.8807421  14.4052896 -11.6577835
  16.5914459  13.6786575 -12.0269966  16.4130096  15.3029490 -11.4713945
  15.3553123  13.9006605 -10.3371038  14.6578074  14.6809521  -9.9827051
  14.8031464  12.9652710 -10.4626293  16.4361744  13.5678663  -9.2683506
  17.1718807  12.8820763  -9.6820183  16.9434566  14.4974670  -9.0689964
  16.0392189  12.8243504  -7.9620366  15.7480288  11.8408394  -8.2422247
  16.8694229  12.6819439  -7.2804742  14.9096193  13.4753656  -7.1920252
  14.2699614  14.1071091  -7.7975006  14.5979347  13.2416620  -5.9321022
  13.7114716  13.7338295  -5.5014286  15.4116745  12.3903646  -5.0169811
  16.2036819  11.8729801  -5.5743003  15.9259977  12.9791985  -4.1876597
  14.4678612  11.3522949  -4.3850832  14.2175503  10.4908905  -5.0781088
  15.0377808  10.7988396  -3.6203351  13.2242060  11.8852606  -3.6417606
  12.5652781  12.2674608  -4.4426336  12.6680288  11.0317888  -3.3143566
  13.5749207  12.9015112  -2.5660467  14.2413473  12.4024000  -1.8256183
  14.1974058  13.6674500  -3.0249224  12.3567677  13.6221142  -1.8996714
  12.6854458  14.1196823  -0.9844227  12.0221891  14.3671846  -2.5971923
  11.1357298  12.7116251  -1.5346658  10.7615938  12.2987843  -2.4819007
  11.5609283  11.8406811  -0.9322527  10.0400686  13.4711351  -0.7421205
  10.3988161  13.6647930   0.2589160   9.8203154  14.4063864  -1.1965272
   8.6927738  12.6275244  -0.6018254   8.5694361  12.0979681  -1.5447217
   7.8610511  13.2638550  -0.4465365   8.7153416  11.9073296   0.2609004
 -39.0713501  -5.1650887  -0.6209040 -39.7071571  -4.9997125   0.3058001
 -39.4956779  -4.4466333  -1.3589638 -38.0166855  -4.9429541  -0.5564568
 -39.2772827  -6.6155434  -1.1698322 -40.2613907  -6.7472510  -1.6057132
 -39.1737595  -7.3172865  -0.3512005 -38.2762070  -6.9110370  -2.3460414
 -38.2295685  -7.9707003  -2.5412974 -37.2503128  -6.6686850  -2.0056591
 -38.5126152  -6.0797238  -3.6289153 -38.4940948  -5.0177298  -3.4975960
 -39.5261803  -6.3309712  -3.9497151 -37.5226288  -6.4730663  -4.7425313
 -37.5248871  -7.5590377  -4.8653178 -36.5306892  -6.2055354  -4.4369869
 -37.9008255  -5.8738871  -6.0955391 -38.0794563  -4.7745228  -6.0786920
 -38.9048805  -6.2894630  -6.3643894 -36.8647079  -6.1660938  -7.1838851
 -36.7168884  -7.2496176  -7.2650890 -35.9370346  -5.7074623  -6.9214249
 -37.2619667  -5.5769639  -8.5586920 -36.5571671  -5.7948647  -9.2981586
 -37.3470039  -4.5272856  -8.4669123 -38.6126938  -6.1669273  -8.9746780
 -39.4381409  -5.7506952  -8.3649368 -38.6058083  -7.1971612  -8.7530661
 -38.9699326  -5.8494191 -10.4560175 -38.2406082  -6.2077141 -11.1298456
 -39.0068741  -4.7736292 -10.5565062 -40.3429222  -6.4545016 -10.7995281
 -41.0683784  -6.2327952 -10.0325489 -40.1509857  -7.5237556 -10.7787724
 -40.9709511  -6.0359120 -12.2042265 -41.6158295  -6.7977424 -12.5352945
 -40.1805344  -6.0612774 -13.0099201 -41.6345253  -4.6613817 -12.1791935
 -40.8189850  -3.9868367 -12.1530066 -42.2673759  -4.4511461 -11.3432684
 -42.4480896  -4.4766717 -13.5142384 -43.3155441  -5.1465058 -13.6361809
 -41.8227577  -4.7102518 -14.4072819 -43.0550156  -3.0247281 -13.6428604
 -43.6022339  -2.7663395 -12.7234507 -43.7520561  -2.9509726 -14.4777212
 -41.9890366  -1.9563566 -13.8396568 -41.9664726  -0.9431125 -13.1404581
 -41.2408638  -2.1999903 -14.8937702 -40.1086617  -1.3719593 -15.2431440
 -39.6150932  -1.0196159 -14.3244038 -40.4460678  -0.5754964 -15.8993769
 -39.0952263  -2.2000177 -16.0949326 -38.4054718  -1.4602059 -16.5399971
 -39.7196312  -3.0444834 -17.2429638 -40.2463226  -2.4332442 -17.9775410
 -40.4497566  -3.7471116 -16.7842083 -38.7079086  -3.8927505 -17.8791180
 -38.8350525  -5.5317950 -17.7456837 -37.7332115  -6.0001607 -18.8543987
 -36.3045273  -6.2014732 -18.4913445 -36.0607185  -7.2096519 -18.1708870
 -36.1451454  -5.6391239 -17.5691586 -35.3416023  -5.6632395 -19.5880661
 -35.5544815  -6.2162380 -20.4921951 -34.3217125  -5.7756643 -19.3051453
 -35.4030113  -4.1551433 -19.8968334 -36.6834297  -3.7316861 -20.4774513
 -36.8795738  -4.3686175 -21.2987213 -36.6267204  -2.6743474 -20.7694893
 -37.4864349  -3.8089333 -19.7692375 -35.1419830  -3.3561933 -18.6983509
 -34.4210930  -3.8804195 -18.0971279 -36.0358124  -3.3359501 -18.0157280
 -34.8690834  -2.3363955 -18.9523296 -34.3651733  -3.7861881 -20.8943367
 -33.4119720  -4.1638079 -20.4921799 -34.3312798  -2.7468421 -20.9682732
 -34.6768188  -4.2299857 -21.8459339 -38.3429260  -5.8671064 -16.4038792
 -40.1804771  -5.9911342 -18.1756935 -38.3687935  -3.0588102 -15.1379824
 -37.0182686  -3.1457222 -15.2768288 -36.3558846  -2.4725142 -16.0411530
 -36.4886780  -4.0915275 -14.2290926 -36.8166199  -3.7219791 -13.3033991
 -36.8877678  -5.0747008 -14.3503819 -34.9692497  -4.1572886 -14.2340775
 -34.6676559  -4.8966970 -14.9666519 -34.5101242  -3.1828103 -14.5032587
 -34.5407944  -4.6341333 -12.8439035 -34.9365768  -4.0104065 -12.0668783
 -34.9595413  -5.6279302 -12.7247295 -33.0207367  -4.7957649 -12.7082453
 -32.6148224  -5.6322961 -13.3649206 -32.5718727  -3.8454864 -13.0445528
 -32.6760864  -5.0121975 -11.2253227 -33.5568581  -5.4304895 -10.7548704
 -31.8296413  -5.6738329 -11.1535206 -32.3934135  -3.7134993 -10.4613581
 -31.4401455  -3.2907798 -10.6996012 -33.1702042  -2.9690490 -10.7018366
 -32.3842087  -3.9717183  -8.9775038 -31.7367344  -4.8306503  -8.7532473
 -31.9275970  -3.1517217  -8.3914852 -33.7644424  -4.2360730  -8.4676924
 -34.0939217  -5.2353449  -8.5763273 -34.4756660  -3.3362794  -7.8309817
 -35.4665680  -3.5968866  -7.5528030 -34.0669632  -1.9719189  -7.4221034
 -32.9911118  -1.7998873  -7.6093178 -34.6986465  -1.2432790  -7.9320984
 -34.2616615  -1.8153256  -5.9032135 -33.6611404  -2.5801492  -5.3705912
 -33.8810081  -0.8278077  -5.6529713 -35.7394638  -2.0265329  -5.4862041
 -36.3222427  -1.4040711  -6.1444402 -36.0448952  -3.0832503  -5.6302071
 -36.0740318  -1.5940875  -4.0482287 -35.3223114  -2.0747647  -3.3960285
 -36.0242119  -0.4812288  -4.0502386 -37.5183258  -2.0590332  -3.7013602
 -38.2137451  -1.8028258  -4.4893093 -37.5016823  -3.1969240  -3.6192725
 -38.0146790  -1.4563005  -2.3466001 -38.0351410  -0.3589799  -2.3800843
 -39.0222969  -1.8087608  -2.2499468 -37.1811409  -1.9532503  -1.1502362
 -37.2645988  -3.0492282  -1.0599562 -36.1760139  -1.6623576  -1.2998323
 -37.7070274  -1.3544555   0.1851738 -37.0174179  -1.6813805   0.9672701
 -38.7230377  -1.7695349   0.3556967 -37.6855354  -0.2240606   0.1472715
  34.2953110 -26.3665028   0.6184021  34.9038353 -26.6971989   1.4922388
  34.9381599 -26.3299160  -0.2560415  33.4872398 -27.0890465   0.5285312
  33.6314659 -24.9999981   0.9273091  34.4474831 -24.2673092   1.1393354
  33.0374298 -25.1241512   1.8430202  32.6796188 -24.4440098  -0.1128040
  32.3264084 -23.4228535   0.1458957  31.8234348 -25.1094513  -0.1558625
  33.2220459 -24.3496819  -1.5278747  33.4863319 -25.3393440  -1.9134284
  34.1563263 -23.7621784  -1.4831061  32.2647896 -23.6787777  -2.5581515
  32.1462555 -22.5979023  -2.2923889  31.3069916 -24.1739254  -2.5666354
  32.8602982 -23.7488003  -3.9157126  33.2135353 -24.7544556  -4.0943308
  33.7538834 -23.1452732  -3.9291546  31.8597069 -23.2030983  -4.9273629
  31.7887535 -22.1615772  -4.8021216  30.8632355 -23.5562878  -4.6594758
  32.2202873 -23.6455345  -6.3382840  32.2468719 -24.7253017  -6.2653494
  33.1977997 -23.2493191  -6.7222161  31.1156826 -23.2724285  -7.3454018
  31.0396976 -22.1823902  -7.3201060  30.1541367 -23.5765934  -6.9345407
  31.5331535 -23.8034649  -8.7103662  30.9484463 -23.2511711  -9.4167595
  31.2446136 -24.8858662  -8.7725115  32.9797401 -23.6749859  -9.1204739
  33.5975876 -24.2438507  -8.4647827  33.3342400 -22.6334610  -9.0695257
  33.0920601 -24.2190342 -10.5351686  32.3091621 -23.7851887 -11.1561098
  33.0196915 -25.3398361 -10.5567799  34.4906807 -23.8628120 -11.0936661
  35.1749916 -24.2207985 -10.3583860  34.6982574 -22.7761765 -11.0938845
  34.7417259 -24.4200497 -12.4693384  33.9808731 -24.0914822 -13.1322870
  34.5659409 -25.4677296 -12.4290800  36.0898514 -24.0296345 -13.0134249
  36.9088135 -24.1955738 -12.3239145  36.1488037 -22.9606533 -13.2201948
  36.4070969 -24.7472801 -14.3269596  36.7831993 -25.8968849 -14.3221684
  36.1818695 -23.9498062 -15.4131699  35.9525833 -24.5277061 -16.7641869
  36.7808113 -25.2245693 -17.0960217  36.0064583 -23.6714916 -17.4455357
  34.5319443 -25.1406288 -16.9192524  34.4101143 -25.5159359 -17.9389362
  33.4632721 -24.0692177 -16.5262547  33.5466919 -23.2247963 -17.1859207
  33.6755562 -23.5785580 -15.5536861  32.1032639 -24.5480042 -16.5825424
  30.8850861 -23.6175556 -17.1215553  30.4101486 -22.7961903 -15.8365774
  31.1194077 -21.6826077 -15.3072119  32.1326256 -21.7522926 -15.6655712
  31.1632614 -21.8604774 -14.2259493  30.5903797 -20.2595043 -15.6667566
  30.6371956 -20.1264591 -16.7467976  31.1901398 -19.5329704 -15.2268972
  29.1395111 -19.8850098 -15.4154825  28.9934082 -18.4639740 -15.7878551
  29.5617027 -17.8049583 -15.0727215  27.8969193 -18.2218189 -15.8182869
  29.4049549 -18.3332977 -16.7714176  28.2404881 -20.5796852 -16.3879223
  28.3904495 -21.6583557 -16.3115273  28.5043240 -20.3906841 -17.4314728
  27.1941929 -20.3880997 -16.1637287  28.7006226 -20.1813412 -14.0105295
  28.5760975 -21.2037449 -13.8574972  27.7903061 -19.6981564 -13.7888384
  29.4639053 -19.8247261 -13.3543911  31.4010429 -22.7375431 -18.1943398
  29.7850304 -24.5827274 -17.5252037  34.3395462 -26.2250919 -15.9549284
  33.5450974 -27.2449665 -16.2418194  32.9822311 -27.4426746 -17.3606606
  33.3683739 -28.1030655 -15.0420294  33.2975540 -29.1586800 -15.3370562
  34.2869873 -28.0596466 -14.4592619  32.1435280 -27.7008362 -14.1758146
  32.3473396 -26.7860775 -13.6352673  31.2020302 -27.5700798 -14.8254957
  31.7059116 -28.7225189 -13.1114283  30.7154255 -28.4645252 -12.7144670
  31.6336670 -29.7396927 -13.5622139  32.7826309 -28.8893127 -12.0231972
  33.6920967 -29.3548012 -12.3731756  33.0288277 -27.9207497 -11.5691223
  32.2563591 -29.7688026 -10.8998814  31.8680210 -30.7089500 -11.3317604
  33.1519623 -29.9845734 -10.2558050  31.0973721 -29.2320328 -10.0430431
  30.1469059 -29.0550156 -10.6063089  30.8893299 -29.9324512  -9.2605743
  31.4300652 -27.8873920  -9.3543873  31.5653076 -27.0901527 -10.0825615
  30.5628777 -27.6372509  -8.7394028  32.7402420 -28.0392189  -8.4967966
  33.6003914 -28.2329082  -9.0979948  32.8691559 -27.8881760  -7.1649690
  33.7889938 -27.9511051  -6.6316276  31.6735096 -27.6249390  -6.2450547
  31.1081867 -26.7531204  -6.5390158  30.9925175 -28.4257145  -6.2498808
  32.0723114 -27.3841858  -4.7757034  32.2977715 -28.3384895  -4.3011627
  32.9603996 -26.7389030  -4.7714896  30.9739399 -26.6636734  -3.9242187
  31.4776268 -26.5015240  -2.9636028  30.7726746 -25.6782532  -4.2992625
  29.6615448 -27.4765244  -3.8692117  29.2721539 -27.6243896  -4.9278345
  29.9649448 -28.4422493  -3.4419405  28.5381241 -26.7904587  -3.0236177
  28.2595234 -25.8933716  -3.5056138  27.6604919 -27.4442291  -3.0094049
  28.9354305 -26.5580921  -1.5481896  29.6842976 -25.8187962  -1.5832269
  28.0892391 -26.1066246  -1.0132071  29.4822578 -27.8012486  -0.8681595
  30.3939419 -28.1940632  -1.3079070  29.7205276 -27.5432625   0.1699650
  28.5408382 -29.0196419  -0.8518788  29.0898991 -29.8349171  -0.4038922
  28.1356354 -29.2320423  -1.8420385  27.7030258 -28.8435478  -0.2362786
  37.9316483  -7.3238807  -1.4252532  38.3844757  -8.0093346  -0.6725535
  38.7151146  -7.0297379  -2.1653662  37.1917839  -7.8972111  -1.9865160
  37.2121964  -6.1413903  -0.7784468  37.8954277  -5.6576977  -0.1274774
  36.3796158  -6.4550309  -0.1282142  36.6171913  -5.2034931  -1.8268728
  36.0121346  -5.7670064  -2.5335488  37.4012146  -4.6720176  -2.3924201
  35.7323341  -4.1319280  -1.1017848  36.3928299  -3.5280511  -0.4717221
  35.0040321  -4.6473293  -0.4587398  34.9560509  -3.2748580  -2.0791302
  34.1920013  -2.8410802  -1.4970745  34.4644890  -3.8828757  -2.8162978
  35.8501434  -2.2174299  -2.8080950  36.7095222  -2.7603290  -3.2002554
  36.2596741  -1.6343523  -2.0237241  35.1341057  -1.3045894  -3.7812548
  35.0372543  -1.8590146  -4.6606283  35.7607956  -0.3768774  -3.9521685
  33.7028542  -0.9191839  -3.3107388  33.7084885  -0.6526444  -2.2741065
  33.0834084  -1.7854016  -3.4023776  32.9979553   0.1550247  -4.1806445
  33.4132538   1.1674701  -4.0364466  31.9608307   0.2059393  -3.9096155
  33.0504913  -0.2386329  -5.6781321  32.6842041  -1.2459021  -5.7790809
  34.1025352  -0.1323772  -6.0383387  32.1685562   0.7148492  -6.5471501
  32.6550636   1.6801338  -6.4595218  31.1276093   0.7877395  -6.1786218
  32.1542397   0.3185218  -8.0774240  31.7472649  -0.7019258  -8.1311455
  33.1920242   0.2897395  -8.4470930  31.3004284   1.2421460  -9.0289650
  31.8493309   2.1842444  -9.1574106  30.3004074   1.3996580  -8.5161533
  31.1116505   0.6064426 -10.3951540  30.3094692   1.0371854 -10.9716311
  30.8235016  -0.4193958 -10.1193047  32.3657341   0.4493006 -11.3282194
  33.1042023  -0.1106932 -10.8147526  32.7372665   1.4401113 -11.6380301
  31.9518280  -0.2937339 -12.5311670  31.6219597  -1.4495455 -12.5144253
  32.0077591   0.4708834 -13.6674328  31.6551228  -0.0920978 -14.9705210
  31.5981884   0.7478940 -15.6661930  30.7045727  -0.6221765 -14.9896059
  32.8343849  -0.9331521 -15.5806017  33.7532043  -0.4801735 -15.3172512
  32.9075546  -0.9999394 -17.1043205  33.8841324  -1.4541268 -17.3937969
  32.8593636   0.0833870 -17.4372616  31.8626614  -1.7358708 -17.7571259
  30.3489227  -1.2355447 -18.0740089  29.4954948  -1.8359448 -16.9038448
  29.3791790  -3.2534990 -16.7924862  29.8544903  -3.8136230 -17.5903606
  28.3502102  -3.5258369 -16.8541412  29.8953285  -3.6843970 -15.3903723
  30.7621498  -3.1132624 -15.1006126  30.1692429  -4.7150936 -15.4525461
  28.9317684  -3.6731470 -14.1711178  27.7402401  -4.5523090 -14.3586874
  27.1284962  -4.1634264 -15.1956091  27.0978279  -4.5141764 -13.4786186
  28.1326199  -5.5552335 -14.5745649  29.7426205  -4.1176553 -13.0323305
  30.5747776  -3.4579968 -12.8660383  30.1152782  -5.1270771 -13.3069468
  29.0702419  -4.2151690 -12.1163788  28.5063972  -2.3358541 -13.8172483
  29.3606167  -1.8734915 -13.3320999  27.7049809  -2.4504120 -13.0759830
  28.1285458  -1.8069346 -14.7257385  30.2999020   0.2428097 -17.8566532
  29.8824043  -1.8975734 -19.3652039  32.7202034  -2.3039374 -15.0817575
  33.6459007  -2.8380475 -14.3011465  34.5279999  -2.2334104 -13.7979240
  33.4858856  -4.3364348 -14.2152615  32.4588242  -4.5628648 -14.1664686
  33.8672218  -4.8203459 -15.1302204  34.1961060  -4.9749560 -12.9890919
  34.1818771  -6.0724730 -12.9526711  35.2463646  -4.6908479 -12.9344740
  33.7129059  -4.5144982 -11.6387129  33.9106483  -3.4553132 -11.5288916
  32.6346397  -4.5870075 -11.5412674  34.4127388  -5.2908430 -10.5122461
  34.1151810  -6.3203378 -10.6041288  35.5028572  -5.3103185 -10.5572529
  33.9705276  -4.8450241  -9.1311560  32.9000359  -4.8757033  -8.8939104
  34.4302826  -5.5403523  -8.4519033  34.3914719  -3.4061518  -8.7366371
  35.4329796  -3.3133793  -9.0001297  33.8215408  -2.7569902  -9.3718376
  34.1598358  -3.1366763  -7.2302685  34.3978157  -2.0880494  -7.0637388
  33.0977249  -3.1970539  -7.0053587  35.0045433  -4.0152960  -6.3510523
  36.1017151  -3.9396763  -6.4708328  34.4813614  -4.8754110  -5.4362035
  35.1853333  -5.5435796  -4.8610311  32.9906006  -4.9487519  -5.1045179
  32.6298370  -3.9901664  -4.6476402  32.4950066  -5.1670132  -6.0100327
  32.7110748  -6.0867715  -4.1095028  32.8665123  -6.9852753  -4.6046200
  33.3795471  -6.1165338  -3.2993627  31.2652302  -6.0031886  -3.5630422
  30.5426865  -5.6465812  -4.3343878  31.0327530  -6.9941382  -3.2062767
  31.1701565  -5.0907140  -2.3251107  32.0170937  -5.3310590  -1.6727232
  31.2731838  -4.1073470  -2.7003109  29.9187183  -5.2439709  -1.4534230
  29.1455383  -4.7733417  -1.9538325  29.7361393  -6.3353319  -1.2760508
  30.0028419  -4.4989538  -0.1227142  30.8599510  -4.9248075   0.3946403
  30.1352615  -3.4874437  -0.3944149  28.7154369  -4.4622407   0.7751979
  28.4621601  -5.4890490   1.0262767  29.0177345  -4.0031066   1.7045628
  27.4441128  -3.7820272   0.2107882  26.5617161  -3.9575844   0.7888871
  27.2487087  -4.1095028  -0.7617722  27.5910683  -2.6999083   0.1404906
 -17.2267399   1.7305721   0.1108781 -17.9575176   2.5190997   0.4380045
 -16.9190350   2.0510693  -0.8765507 -16.4045582   1.7227067   0.8096874
 -17.8725376   0.3760401   0.0210276 -18.7436848   0.4510036  -0.5908210
 -18.1509018   0.0090093   1.0155065 -16.9669418  -0.7038772  -0.5432161
 -17.5305042  -1.6461468  -0.4292232 -16.0921631  -0.8296093   0.1031289
 -16.4601593  -0.5279228  -1.9924104 -15.8417311  -1.3347493  -2.3315649
 -15.8255377   0.3212535  -1.9759117 -17.5854378  -0.2879727  -3.0050647
 -18.0396805   0.6681920  -2.7981040 -18.3985672  -1.0746303  -2.9217365
 -17.1205635  -0.2532501  -4.5001497 -17.9603138  -0.3555306  -5.1731181
 -16.5371456  -1.1927582  -4.6229491 -16.3199062   1.0407498  -4.8866758
 -15.4475679   1.1065359  -4.2305369 -16.9410152   1.8855875  -4.6843047
 -15.8922691   1.0133195  -6.3706503 -16.7894173   0.8227677  -6.9911714
 -15.1750269   0.1996336  -6.5008397 -15.4304371   2.3773131  -6.8716049
 -14.5032225   2.6666152  -6.4922123 -16.2050591   3.0752552  -6.5258999
 -15.2698336   2.3392091  -8.4036360 -16.2959881   2.1948950  -8.7651634
 -14.6540604   1.5126479  -8.6927452 -14.7590151   3.6221049  -9.1257887
 -14.8601999   3.5575149 -10.1930389 -13.6676836   3.6277938  -8.9755650
 -15.3422298   4.9883170  -8.7318420 -14.9313917   5.7162499  -9.4325504
 -14.9333181   5.2132249  -7.7259789 -16.8769608   5.1520510  -8.6171265
 -17.0168781   6.1781950  -8.1830521 -17.2716370   4.4667258  -7.8439136
 -17.7522888   5.0782318  -9.8602018 -17.4015408   5.8661389 -10.5587921
 -18.7437420   5.3709054  -9.5967588 -17.8363266   3.7131464 -10.5768576
 -17.9817276   2.8699865  -9.8840199 -16.8935795   3.4328713 -11.0683117
 -18.9410458   3.5993700 -11.6115570 -18.8675423   3.9303741 -12.7526197
 -20.0473766   3.0462849 -11.0402765 -21.2710609   2.8808582 -11.7665205
 -21.5928154   3.8218985 -12.1953392 -22.0393543   2.5320613 -11.0017195
 -21.1713047   1.8622568 -12.8846445 -20.4694576   2.2325287 -13.6521902
 -22.5502129   1.6950943 -13.5801210 -22.9508762   2.6762235 -13.8255548
 -23.2095604   1.2251041 -12.8938103 -22.4814796   0.8392805 -14.7537823
 -22.0620518   1.3552804 -16.2217693 -23.3997612   1.7175697 -16.9200821
 -24.3858185   0.7265934 -17.1802349 -25.3719311   1.1730406 -17.2540874
 -24.4430065  -0.0314503 -16.3403244 -23.9571953  -0.0139402 -18.4280014
 -24.6419888  -0.8400649 -18.6550789 -22.8893261  -0.3576232 -18.3591385
 -23.9831562   0.8023161 -19.6948795 -25.2792435   1.4643573 -19.8616867
 -25.9585743   0.6223956 -19.8144379 -25.3385086   2.0153699 -20.8130245
 -25.4036140   2.1079040 -19.0262394 -22.8857212   1.7838746 -19.6861420
 -21.9821205   1.2268431 -19.4015198 -23.1016426   2.5223217 -18.8811855
 -22.7973766   2.2495387 -20.6463718 -23.7684460  -0.1427585 -20.8669090
 -22.6996021  -0.3585115 -20.9222507 -24.0227318   0.3452802 -21.8434696
 -24.3917255  -1.0415899 -20.7162266 -21.2766247   2.5597861 -16.0068588
 -21.3926506   0.1892574 -16.8132229 -20.7372112   0.5560150 -12.3014975
 -19.6135864   0.0021824 -12.8156462 -18.9415970   0.4408453 -13.7172127
 -19.3142662  -1.3436165 -12.1482372 -20.1811638  -1.6621723 -11.5699282
 -19.0965939  -2.0318725 -12.9538927 -18.1314678  -1.2043153 -11.2348995
 -17.8998642  -2.1785092 -10.7295456 -17.2341518  -1.0048903 -11.8291140
 -18.3201942  -0.2104144 -10.1237783 -17.4677944  -0.2713330  -9.4496241
 -18.2938671   0.7509727 -10.5790901 -19.5890408  -0.3562017  -9.2716999
 -20.4430618  -0.2317959  -9.8786440 -19.6274986  -1.3427081  -8.8797293
 -19.6465702   0.6931463  -8.1443605 -18.7259140   0.8243976  -7.6072330
 -19.9565601   1.6285985  -8.6016178 -20.7260685   0.3452833  -7.1282578
 -20.4836483  -0.5767901  -6.5960164 -20.7715645   1.0616719  -6.3553882
 -22.1545391   0.2934500  -7.7154202 -22.8204708   0.5611039  -6.9177289
 -22.2045536   1.0549891  -8.5398569 -22.5853825  -1.0414921  -8.2178679
 -22.5067635  -1.8567472  -7.4918470 -23.0817432  -1.3545321  -9.3979397
 -23.4356327  -2.3702908  -9.5972834 -23.4632530  -0.4217572 -10.5434856
 -23.0713959   0.5571118 -10.3488626 -22.9500999  -0.7821053 -11.4747763
 -24.9786968  -0.4643282 -10.8831158 -25.1537704   0.0089241 -11.8809566
 -25.3189678  -1.5134268 -10.9895029 -25.8682747   0.2634096  -9.8378696
 -26.9226284  -0.0198088  -9.9846487 -25.5600147  -0.0549584  -8.8745756
 -25.6191444   1.7864158  -9.9356642 -24.6034908   2.0944145  -9.7826948
 -25.8700371   2.0880733 -10.9240904 -26.4885883   2.5958705  -8.9266176
 -26.4116840   3.6358271  -9.1790915 -27.5442905   2.4092212  -9.0343103
 -26.0913830   2.3845289  -7.4351406 -26.2183990   1.3444903  -7.1694641
 -25.0533009   2.6499271  -7.3334546 -26.9434624   3.2825146  -6.5141697
 -26.8254776   4.2816300  -6.7840624 -27.9539509   2.9714487  -6.5318532
 -26.4120312   3.2098482  -5.0687380 -27.0730705   3.7256055  -4.3627105
 -25.3968315   3.6005414  -5.0381680 -26.5161724   2.1676040  -4.7223191
  26.4271088  35.8490334  -1.6329002  26.3703136  34.7751427  -1.6808727
  26.5961113  36.2429924  -0.6331521  27.2721367  36.2432709  -2.1692448
  25.1710491  36.5265923  -2.1382453  24.2836475  36.1465225  -1.6881620
  25.0945072  36.2959137  -3.2287955  25.2272720  38.0881271  -1.8924422
  26.1184292  38.5434570  -2.3532763  25.3118820  38.2464066  -0.7907364
  24.0574245  38.8592072  -2.4348381  24.2494812  39.8848114  -2.0920224
  23.0967064  38.5145035  -1.9774173  24.0378265  38.7965279  -3.9395628
  23.7037506  37.8221703  -4.2292781  25.0479507  38.9804573  -4.3793969
  23.0123329  39.8179169  -4.5531936  23.4209862  40.8201370  -4.3732343
  21.9986897  39.8130188  -4.0504689  22.8463974  39.6645012  -6.0954146
  22.4746246  38.6583672  -6.2940226  23.8697796  39.6930580  -6.4993663
  21.9000893  40.7420006  -6.6654749  21.8604164  40.6226349  -7.7257519
  22.3125725  41.7371445  -6.4551039  20.5251732  40.8878517  -6.0382299
  19.9067593  41.5573463  -6.6844363  20.5297546  41.3559494  -5.0811024
  19.7086849  39.6116180  -5.8590770  18.7561779  39.8919601  -5.4068203
  20.1698380  38.9035263  -5.2106600  19.4409466  38.8265686  -7.1058750
  20.3436756  38.2828484  -7.3732786  19.1505299  39.4732742  -7.9319019
  18.3188610  37.8104515  -6.9257183  17.4454308  38.3475494  -6.6268449
  18.5338287  37.1663589  -6.0255427  17.9701653  36.9243851  -8.1415405
  17.1037922  36.3118896  -7.9508495  18.8035049  36.2226677  -8.3895979
  17.7213497  37.7173576  -9.4498997  18.6336308  38.2768860  -9.7137699
  17.0005531  38.4495316  -9.1622238  17.1723919  37.0013771 -10.6953049
  16.0565472  36.8810310 -10.6892385  17.3601170  37.5910797 -11.5683098
  17.8404465  35.6124992 -10.7710829  18.9397831  35.4578781 -11.2231359
  17.1207466  34.6250763 -10.2634659  17.4084396  33.1912575 -10.6008377
  17.4351578  32.5983963  -9.6919699  18.3586731  33.1368713 -11.0946960
  16.3121872  32.6353378 -11.5632725  16.2645264  31.5595245 -11.4551249
  16.5875511  32.8977089 -13.0717888  15.7419109  32.3738365 -13.5143652
  17.5149517  32.3791466 -13.2967005  16.6061954  34.3071404 -13.4982405
  15.9296341  34.8130760 -14.8554344  16.8701305  34.2289238 -16.0285454
  16.7135220  32.8233032 -16.4838276  15.7067318  32.6824684 -16.8347607
  16.8840904  32.1443100 -15.6263313  17.8660641  32.4442825 -17.4754505
  17.7440472  31.3607388 -17.6336021  18.8617954  32.5348129 -17.0378189
  17.9351387  33.1369934 -18.8650360  16.5811062  32.9036636 -19.3906574
  16.3505135  31.8680191 -19.3538799  16.6541424  33.2598534 -20.4242916
  15.7908621  33.4435806 -18.9026394  18.2151527  34.5548553 -18.7923203
  19.1917839  34.7288551 -18.3090477  17.4506512  35.0441437 -18.1448002
  18.1797237  34.9977989 -19.7759228  19.0329456  32.5528831 -19.7466106
  20.0292320  32.8012924 -19.3671608  18.9013577  33.0196953 -20.7232304
  18.9965801  31.4977818 -19.9188786  14.5744905  34.2101135 -14.9259052
  16.0704212  36.3036537 -14.8646164  14.9854755  33.1264534 -11.1814871
  14.5002031  32.7785225  -9.9765034  15.0483074  31.9685574  -9.2306919
  13.1612320  33.3477669  -9.6897383  12.6676712  33.5593910 -10.6622744
  12.4860182  32.5997009  -9.2933435  13.3083000  34.6531601  -8.9049072
  13.8984547  35.3505592  -9.4157715  12.2894907  35.1186028  -8.7893400
  13.8967476  34.4821396  -7.4477158  13.2650604  33.7061005  -6.9314842
  14.9643049  34.0831604  -7.4610949  13.8319921  35.8270111  -6.6597819
  14.3935890  36.5711479  -7.1394114  12.7983675  36.1159096  -6.7068100
  14.2081060  35.7604790  -5.1424785  13.7675657  36.6569366  -4.7414269
  13.6938095  34.8913422  -4.7178907  15.6725016  35.8105049  -4.7228045
  16.1267452  36.5947609  -5.2453470  15.6758108  36.1787987  -3.6577818
  16.5398865  34.5507202  -5.0668240  16.7759876  34.5524139  -6.1347604
  17.5044441  34.6318741  -4.5400467  15.8391562  33.2480011  -4.7001791
  15.3309298  32.8044548  -5.5268965  15.9831247  32.5296097  -3.6039054
  15.5516043  31.5230293  -3.5530405  16.7489738  32.8828087  -2.3431137
  17.2596893  33.8195381  -2.4551950  16.0897808  33.0791473  -1.4998665
  17.5990868  31.6356678  -1.9952769  16.9424648  30.7293224  -2.0302315
  18.3719463  31.5476513  -2.7821360  18.3748417  31.5937233  -0.6224887
  17.6911030  31.4471703   0.2287428  18.9691257  30.6815891  -0.6267468
  19.3536816  32.7364426  -0.2387176  20.0249767  33.0395432  -1.0758756
  18.6888294  33.5514221  -0.0022195  20.2785759  32.2829437   0.9517646
  19.7043076  32.2684174   1.8326174  20.6061573  31.2445183   0.7495708
  21.5022354  33.1957054   1.0843499  21.8700314  33.4995880   0.0755955
  21.2598324  34.0774498   1.6595806  22.6686954  32.4879608   1.8430519
  22.9937153  31.5983372   1.2340362  23.5519238  33.1506920   1.8239744
  22.3312988  32.1564941   3.2971673  23.1441288  31.6205387   3.7350564
  21.3992119  31.6110134   3.4027448  22.1526318  33.1070747   3.8252056
 -32.7660713 -20.6592255  -1.4739692 -32.5909081 -21.2086773  -0.5310612
 -31.8003483 -20.3258133  -1.8028499 -33.1673965 -21.4080791  -2.2004614
 -33.6661072 -19.4135437  -1.2947820 -33.1742744 -18.7197914  -0.6131857
 -34.6363487 -19.7123547  -0.8393293 -34.0078278 -18.6794224  -2.5865035
 -33.1225433 -18.7433701  -3.2904818 -34.2185364 -17.6256866  -2.3348045
 -35.2527390 -19.2564163  -3.2990944 -36.1477623 -19.0006294  -2.7336144
 -35.1387711 -20.3285809  -3.2431087 -35.4729843 -18.8182068  -4.7569818
 -36.4373360 -19.2798271  -5.0440688 -34.6045380 -19.1761646  -5.3290710
 -35.3868675 -17.2954540  -4.8359127 -34.3410034 -17.0369587  -4.7580724
 -35.9627075 -16.8327560  -4.0042815 -35.8894119 -16.7727013  -6.1565351
 -35.9611320 -15.6523123  -6.0306573 -36.9117050 -17.0911407  -6.2911091
 -35.1329041 -17.1128063  -7.4396367 -34.0254478 -17.0040016  -7.2772889
 -35.3435822 -16.3340111  -8.1811180 -35.5236359 -18.4824791  -8.1283064
 -36.5102539 -18.4331284  -8.5316811 -35.4663239 -19.2189579  -7.3740025
 -34.4414749 -18.8471260  -9.2019091 -33.4719429 -19.1179276  -8.7773819
 -34.3038635 -17.9748611  -9.8538494 -34.8337288 -20.0146179 -10.0942469
 -35.7448196 -19.6197166 -10.6037149 -35.0868568 -20.9299831  -9.5805941
 -33.6803932 -20.3433781 -11.1323795 -32.7511139 -20.4803753 -10.6016102
 -33.5109825 -19.5696220 -11.8864403 -33.9291801 -21.5863819 -11.9716024
 -33.7045784 -22.5336933 -11.3817539 -33.2502098 -21.5358391 -12.8147259
 -35.3965340 -21.6092281 -12.4025145 -35.6792488 -20.6406670 -12.7794399
 -36.0357895 -21.7209663 -11.5638647 -35.8065834 -22.7188702 -13.4000578
 -36.8155632 -22.6283360 -13.7142363 -35.7961197 -23.7267570 -12.9131813
 -34.9535828 -22.7137794 -14.6647835 -35.2213516 -22.1254749 -15.7019892
 -33.7753868 -23.4200764 -14.4271030 -32.7593422 -23.4115829 -15.4353666
 -32.7527466 -22.4157066 -15.8362446 -32.9487915 -24.1785221 -16.2297077
 -31.3986816 -23.7000008 -14.8177872 -30.6685524 -23.7905769 -15.6177053
 -31.5037441 -25.0552864 -14.0193691 -32.5263710 -25.3314762 -13.8672981
 -31.1432724 -24.8978424 -13.0187693 -30.6882362 -26.1218929 -14.5339441
 -30.9005260 -26.7774315 -16.0134678 -29.9845695 -25.8126354 -16.9604492
 -30.5304031 -25.1984386 -18.1664543 -31.3599663 -24.5227623 -17.8315086
 -30.8658390 -25.9680538 -18.8517761 -29.4520359 -24.3243599 -18.8226929
 -29.1952991 -23.4946709 -18.1328640 -29.8946590 -23.9048100 -19.7549744
 -28.1739330 -25.0759106 -19.1720657 -27.2537594 -25.3074360 -18.0045547
 -27.0179863 -24.2880516 -17.6588516 -26.3321152 -25.7399349 -18.3215561
 -27.7897243 -25.8575840 -17.2437210 -28.4532185 -26.4283085 -19.7179813
 -29.1946774 -26.1958408 -20.4791050 -28.8035297 -27.0131474 -18.8551064
 -27.5119953 -26.8686848 -20.0630417 -27.4454479 -24.3762283 -20.2475834
 -28.1193619 -24.1852741 -21.1148834 -26.6109066 -24.9809341 -20.5139332
 -27.1031933 -23.4112930 -19.9137840 -30.2889042 -28.1320477 -16.0658951
 -32.3394928 -26.6584625 -16.4330273 -31.0133839 -22.7152081 -13.8137102
 -30.2528648 -21.6719093 -14.1560364 -29.6561623 -21.6038227 -15.2108870
 -30.2115040 -20.6342525 -13.0860920 -30.1916046 -19.6643009 -13.6502352
 -31.1732407 -20.6628399 -12.5377893 -28.9470196 -20.7077789 -12.1358385
 -28.9104557 -21.6889229 -11.6212740 -28.0148964 -20.6356163 -12.6949778
 -28.8631077 -19.5696716 -11.1557331 -28.0047302 -19.7294445 -10.5453243
 -28.6172523 -18.6571770 -11.6955290 -30.0957794 -19.4224205 -10.2920818
 -30.9694748 -19.3450451 -10.9278097 -30.1946735 -20.2488327  -9.6856766
 -30.0308914 -18.1159840  -9.4032059 -30.9944839 -17.8272266  -8.9920864
 -29.4344330 -18.3202991  -8.5224161 -29.5547104 -16.8668118 -10.1807165
 -29.8041801 -16.0298481  -9.5630703 -28.4436607 -16.8920670 -10.2774706
 -30.2595692 -16.4932652 -11.5168686 -30.0045090 -15.4643211 -11.7733335
 -29.8231525 -17.1025810 -12.3255024 -31.7721558 -16.6285725 -11.4808407
 -32.1370926 -17.4449577 -12.0776367 -32.5859871 -16.0474949 -10.5770350
 -33.6716919 -16.3711147 -10.5856657 -32.2405777 -14.8550978  -9.6889687
 -32.3554001 -15.1578951  -8.6108103 -31.2177010 -14.6014128  -9.8909540
 -33.1341209 -13.6057529  -9.8857155 -33.1472092 -13.2722282 -10.9490070
 -34.1595192 -13.8933172  -9.6998234 -32.7519150 -12.4203978  -8.9780760
 -31.8085861 -12.0472450  -9.3441925 -33.4816132 -11.6024742  -9.1094055
 -32.5977631 -12.7606440  -7.4909992 -31.8006153 -13.4583054  -7.3830056
 -32.2843590 -11.9020071  -6.9463582 -33.8338547 -13.4057989  -6.7591486
 -34.2785873 -14.2568359  -7.3344083 -33.4458313 -13.8816729  -5.8377500
 -34.8443985 -12.3718777  -6.2222695 -35.4414062 -12.7952185  -5.4166322
 -34.3327446 -11.5132809  -5.7704573 -35.8471603 -11.9534979  -7.3073025
 -35.2811470 -11.2939587  -8.0125570 -36.1869011 -12.8783855  -7.8463268
 -36.9353142 -11.0749569  -6.7118030 -37.6071129 -10.6423178  -7.4783373
 -36.5229034 -10.1880789  -6.2054596 -37.5111809 -11.6810741  -6.0044355
  37.5654526   8.5134907  -7.0218415  38.0288544   9.1834536  -6.3123221
  37.3950996   7.5594659  -6.5693879  36.6248474   8.9096899  -7.2876797
  38.4439812   8.5232430  -8.3027630  39.3978920   8.0656834  -8.1836233
  38.6880684   9.5542707  -8.5748978  37.7208290   7.7733493  -9.4652863
  38.1516991   8.1293192 -10.3982086  36.6813011   8.0583687  -9.5728207
  37.8023453   6.2436967  -9.3871098  37.1606255   5.8607788  -8.5681887
  38.7962837   5.9495215  -9.2296133  37.4185524   5.5633645 -10.7508297
  36.4325256   5.9276748 -11.0148993  37.3735809   4.4202652 -10.5557928
  38.4262772   5.8754044 -11.8782387  39.3812790   5.4533691 -11.5983448
  38.5533066   6.9428301 -12.0641756  38.0886421   5.2545161 -13.2886276
  38.0149803   4.1573648 -13.0885620  38.9764633   5.3557520 -13.9425936
  36.7871056   5.7611151 -13.9285431  36.8546638   6.8512440 -14.1441593
  35.9492149   5.6401424 -13.2477283  36.4995155   5.0758834 -15.1969900
  36.4656487   3.9753792 -14.9750366  37.3095245   5.2521701 -15.8466663
  35.1441116   5.5377917 -15.8359137  35.2840996   5.4506359 -16.9156437
  34.9909439   6.5838318 -15.6795025  33.8805428   4.7083316 -15.4064312
  34.0152702   3.6098840 -15.6031885  33.0396004   5.0414877 -15.9984531
  33.4192047   4.7859139 -13.9057531  33.5686531   5.8251758 -13.6319218
  34.0776711   4.1754827 -13.3003950  31.9733543   4.3060341 -13.4961643
  31.7877579   4.4466348 -12.4292803  31.8676472   3.2061491 -13.6559772
  30.9386940   5.0856562 -14.2930689  29.9300194   4.7085366 -14.0204105
  31.1534920   4.9188681 -15.3330240  30.8800106   6.5803595 -14.0197372
  31.8657951   7.0589447 -14.0841398  30.4315605   6.7460465 -13.0461931
  29.9694843   7.3050904 -15.0050631  29.0754681   8.0284662 -14.6208115
  30.4404297   7.2322865 -16.2885132  29.7866859   8.0023975 -17.3198681
  29.7380714   9.0511341 -17.0095615  28.7716656   7.6729178 -17.3956032
  30.6162281   7.9478941 -18.6470108  30.1701641   8.5926647 -19.4183331
  30.6658535   6.5454679 -19.2640228  29.6559925   6.2397795 -19.4247780
  31.1847496   5.8366876 -18.5635681  31.3028507   6.5520725 -20.6178493
  30.4613476   6.7192416 -22.0090275  29.9316502   5.1816173 -22.2382145
  30.7145863   4.3306985 -23.0847721  31.7896080   4.4907947 -22.9280949
  30.5570812   4.5359669 -24.1740913  30.3059883   2.8616762 -22.8195114
  30.8531933   2.2164021 -23.4696693  29.2522640   2.7083347 -23.0968380
  30.4488831   2.3589914 -21.3930550  30.3358746   0.9020790 -21.3949184
  29.2928391   0.6250953 -21.6452961  30.5440369   0.5260927 -20.3622036
  31.0981922   0.4320079 -22.0676899  31.7491837   2.7136340 -20.8713188
  31.8745270   3.8083367 -20.9803181  32.4503021   2.1308711 -21.4895172
  31.7553692   2.4087744 -19.8144779  29.3962936   2.8452766 -20.4375858
  29.3611050   3.9113233 -20.4760456  29.5592861   2.4437990 -19.4715843
  28.4780025   2.4464633 -20.8021431  29.2981815   7.5981426 -21.8155384
  31.3848991   7.0483799 -23.0889683  31.9761829   8.4258690 -18.4565945
  32.1711311   9.7024708 -18.1789875  31.3012238  10.5918970 -18.1771870
  33.6090736   9.8658743 -17.6649704  34.2221222   9.0188427 -18.0435543
  33.9623184  10.7977953 -18.0766830  33.6556282   9.8744936 -16.1785488
  33.2874336  10.8492317 -15.8332243  32.9830322   9.1088572 -15.7399454
  35.0876923   9.6069317 -15.7627487  35.3860130   8.5730677 -16.0118885
  35.7489815  10.2894011 -16.2895527  35.1943932   9.8261366 -14.2292967
  36.2738419   9.7013388 -14.0180960  35.0267754  10.8469210 -14.0524883
  34.2846603   8.9147501 -13.3723345  33.2045364   9.1745787 -13.5518665
  34.3651581   7.9165993 -13.7309551  34.6328201   8.9890814 -11.8954172
  35.7211838   8.9528189 -11.8429193  34.3155441   9.9355707 -11.3744869
  34.0724907   7.8383870 -11.0760221  34.5371323   6.8777037 -11.3889208
  34.3808289   7.9817638 -10.0521955  32.5430641   7.7779622 -11.1230745
  32.1006813   8.6475773 -11.5969467  31.7765312   6.8279028 -10.6132803
  30.6547661   6.9291849 -10.6758776  32.2855682   5.5620337  -9.9294930
  31.7694702   4.7123566 -10.3822060  33.3670502   5.3868637 -10.0689135
  31.9621754   5.5662036  -8.3814688  32.2013130   6.5436506  -8.0129528
  30.8569164   5.4239445  -8.2358208  32.6961594   4.4939709  -7.5307245
  32.4682770   4.6231041  -6.4830260  32.3361359   3.5306094  -7.8499765
  34.2534180   4.5512099  -7.6741023  34.5275841   4.3774486  -8.7136641
  34.5937576   5.5591483  -7.3495312  35.0732231   3.5711467  -6.8037839
  34.7501526   2.5421777  -7.0045929  36.0605087   3.6067324  -7.2254047
  35.0335808   3.8825164  -5.3401957  35.2669678   4.9439230  -5.2368712
  34.0454865   3.7194779  -4.9146252  36.0324516   3.0040889  -4.5779462
  35.7849655   1.9355811  -4.7494655  37.0386047   3.1871459  -4.9438896
  35.9613190   3.2469325  -3.0575058  36.9630394   3.0259631  -2.6073229
  35.1357727   2.6985857  -2.5856588  35.7635231   4.3071465  -2.9612961
  15.5319042  -4.4847255  -0.0648742  15.2697144  -3.4566114   0.1052273
  16.5896950  -4.6171756   0.0499435  14.8987665  -5.1423616   0.5467299
  15.1389427  -4.7836528  -1.5271158  15.4787397  -4.0400400  -2.2182763
  14.0409298  -4.6807327  -1.5698702  15.5603561  -6.1928487  -1.9945922
  15.1062193  -6.9458461  -1.4031703  16.6552525  -6.3494058  -1.8550141
  15.1384535  -6.5344577  -3.4511638  14.0616226  -6.2929993  -3.6304138
  15.2455425  -7.5809999  -3.5365417  16.0208340  -5.8108611  -4.4692535
  17.0639095  -5.9216709  -4.1971946  15.8125153  -4.7385116  -4.4413028
  15.8799782  -6.3335042  -5.9377551  16.4231987  -5.6350656  -6.6205435
  14.7874632  -6.4315586  -6.1770487  16.6350403  -7.7037454  -5.9913821
  16.0445442  -8.5061522  -5.4362516  17.6439400  -7.5424795  -5.6317739
  16.7830963  -8.1334801  -7.4207735  17.2820511  -7.3577328  -7.9551082
  15.8276482  -8.3238668  -7.8825145  17.6005783  -9.4748316  -7.5529871
  16.9967728 -10.2312288  -7.0404921  18.5671768  -9.4416046  -6.9849691
  17.8600063  -9.9499674  -8.9931736  16.9020481 -10.0810738  -9.5079956
  18.3158436 -10.9484434  -8.9772663  18.8386135  -9.0343933  -9.8326340
  19.7459526  -8.8591442  -9.2530212  18.3313904  -8.0652914 -10.0251293
  19.2251987  -9.6018429 -11.1650229  18.3812733  -9.8668327 -11.8091345
  19.7180424 -10.5676222 -10.9194527  20.2303524  -8.7405605 -11.9421911
  21.0917645  -8.4332714 -11.2822361  19.7438354  -7.8488755 -12.3060503
  20.8639889  -9.4863892 -13.1346569  21.4757233 -10.2761497 -12.7118912
  21.5225487  -8.7378969 -13.5978565  19.8134003  -9.9861317 -14.1736946
  19.1007957  -9.1780720 -14.2481699  20.2296143  -9.9931421 -15.2017307
  19.1897163 -11.2946119 -13.8573456  19.7371235 -12.1838655 -13.2540312
  17.9598618 -11.4329100 -14.4151878  17.2613831 -12.7000866 -14.2072353
  17.2735920 -12.7936554 -13.1500721  17.7490463 -13.6203184 -14.6010418
  15.7660189 -12.5750456 -14.5970259  15.1957808 -13.2506275 -13.9574442
  15.4344101 -13.0566397 -16.0401764  14.3539896 -12.9541245 -16.1471939
  15.6141424 -14.1592264 -16.1309338  16.0694847 -12.3360720 -17.1620922
  17.4816780 -12.7949057 -17.7386951  18.4360008 -11.5801945 -17.2866974
  18.8612137 -10.5081930 -18.2098160  19.4403381 -11.0113087 -19.0136986
  19.5425148  -9.8624907 -17.6231937  17.6185837  -9.6856451 -18.6801777
  16.7801456 -10.3507614 -18.9463997  17.8462982  -9.2042437 -19.6303387
  17.0514603  -8.6918459 -17.7660236  15.8264551  -8.2451773 -18.4556179
  16.1157532  -7.7743225 -19.4100952  15.2970972  -7.4352403 -17.9341908
  15.1735582  -9.1179132 -18.6595707  16.7661648  -9.2496185 -16.4266033
  17.6460629  -9.5493660 -15.9083462  16.1407700 -10.1314554 -16.5470409
  16.2184315  -8.5276642 -15.8126307  17.9793072  -7.5763760 -17.6360340
  19.0023613  -7.8572125 -17.3557110  17.6532745  -6.9150324 -16.8172436
  18.1029968  -7.0587988 -18.5792274  17.9007950 -13.9312611 -16.9888802
  17.4632950 -12.8991842 -19.2049198  15.3649292 -11.1719122 -14.2605839
  15.3291035 -10.7597637 -12.9704037  15.2903519 -11.4837561 -11.9844074
  15.4676962  -9.2590399 -12.8842077  16.5244255  -9.1205931 -12.6861658
  15.2605858  -8.7960701 -13.8356485  14.7273560  -8.6291399 -11.6689672
  13.6445055  -8.6275148 -11.7911615  15.0594101  -9.1671972 -10.7878962
  15.1606264  -7.2031145 -11.3475761  16.2314949  -7.2215176 -11.2622604
  14.8963594  -6.6181831 -12.2565117  14.4548607  -6.6192589 -10.0970640
  13.4160242  -6.3576322 -10.2743454  14.5519056  -7.3445268  -9.2927570
  15.2715693  -5.4200797  -9.5861120  14.9184742  -5.1937456  -8.5789785
  16.2976761  -5.7488604  -9.4979773  15.1451960  -4.2080326 -10.4713335
  15.0393877  -4.5567622 -11.5157270  14.1832943  -3.7445927 -10.2599096
  16.2813854  -3.1604161 -10.3081083  15.9616652  -2.2693820 -10.8285923
  16.4418240  -2.9326301  -9.2907705  17.6131134  -3.7113760 -10.8771858
  17.6991310  -3.7598894 -11.9499006  18.6666641  -4.2089691 -10.1838865
  19.5762558  -4.5299168 -10.7471218  18.8220367  -4.1846418  -8.6777325
  19.4516411  -3.3358052  -8.4693565  17.8924599  -3.9683247  -8.1523819
  19.5686512  -5.4156423  -8.1564350  19.1646004  -6.2634640  -8.6571102
  20.5613613  -5.2862005  -8.5741196  19.6647186  -5.4439540  -6.5947890
  20.1223564  -4.5363045  -6.1936421  18.6777248  -5.5544801  -6.1418791
  20.5193825  -6.6703939  -6.1516862  20.0777798  -7.6394744  -6.3169904
  21.4457912  -6.6580129  -6.7370825  20.9882927  -6.5602283  -4.6741929
  21.5706100  -7.4370527  -4.4016695  21.5726299  -5.6165128  -4.5598426
  19.8831139  -6.5635414  -3.5933619  19.2537766  -5.6984048  -3.7969770
  19.2232056  -7.4387164  -3.7324560  20.4894562  -6.4654441  -2.1488104
  21.0677166  -7.3832302  -1.8880032  21.2186832  -5.6372209  -2.1312842
  19.4234543  -6.3126950  -1.0362167  19.8556404  -6.5913482  -0.0890196
  18.5511703  -6.8997622  -1.3346332  19.1774273  -5.2504086  -1.0204679
  33.0806999  30.4288788  -0.2384006  34.0148506  31.0944080  -0.2137288
  33.1398506  29.6763592   0.5479373  32.2865982  31.1449413   0.0230182
  32.8864861  29.8505001  -1.6473759  33.7509651  29.2810364  -1.9730933
  32.8595123  30.7224636  -2.3064127  31.6111012  29.0239143  -1.8246081
  30.8115082  29.6473885  -1.5158129  31.6238899  28.0958652  -1.2087400
  31.3775234  28.6236191  -3.2643578  32.2902985  28.0165024  -3.5129597
  31.3766956  29.5085449  -3.9120650  30.1487160  27.7590275  -3.5225568
  29.2371845  28.2429962  -3.1397777  30.2007008  26.8394928  -2.9617229
  29.9775810  27.5496216  -5.0296049  30.7582779  26.8955994  -5.3633475
  30.0756683  28.4772148  -5.6924801  28.6004620  26.8355350  -5.2603574
  27.8654327  27.4706001  -4.7702384  28.6334839  25.9153919  -4.6849561
  28.1660080  26.4853935  -6.7018909  28.8346291  25.7423191  -7.1575899
  28.2070942  27.3951950  -7.2513337  26.6826611  26.0599709  -6.7961030
  26.0868759  26.8572502  -6.3467841  26.5401630  25.1154346  -6.3108735
  26.1464043  25.9197121  -8.2609968  25.2276974  25.3468170  -8.2615376
  26.8392944  25.2965164  -8.7703609  25.9184532  27.1964722  -9.0405388
  26.8228436  27.8420677  -8.8696194  25.0670223  27.6723099  -8.6187515
  25.7111626  26.9288368 -10.5054712  24.9292164  26.1795616 -10.6935110
  26.6255684  26.4656849 -10.8664074  25.3668957  28.2000732 -11.3172426
  24.3752460  28.5930672 -11.1186142  25.2736282  27.8207226 -12.3586330
  26.4232101  29.3606396 -11.1869478  27.4204102  29.0286541 -11.6114044
  26.5392475  29.7423401 -10.1731577  25.9207382  30.6179523 -11.9845953
  24.9844913  30.9211960 -11.6646471  25.8226871  30.3043919 -13.0438128
  26.8661957  31.7566853 -11.7856731  26.6839027  32.8637199 -11.2685061
  28.1069469  31.3121624 -12.0848379  29.2649574  32.0056953 -11.4935799
  29.1454334  31.9243431 -10.3901157  29.2310562  33.0961952 -11.7339506
  30.6000347  31.3913002 -11.9993839  31.4549656  31.7534828 -11.4743328
  31.0237389  31.7759686 -13.4237289  31.8801861  31.1279373 -13.6047134
  31.3995209  32.8098106 -13.4884024  29.9978848  31.6186886 -14.4632473
  30.1428127  30.5352421 -15.6288948  29.5880013  29.2272396 -14.8590965
  28.1975021  29.0529079 -14.7992411  27.6790085  29.0218086 -15.8195486
  27.8363247  29.9390240 -14.2246208  27.8822517  27.8402138 -13.9252748
  26.7832279  28.0077362 -13.7732277  28.3388634  27.8279610 -12.9596233
  28.0609341  26.4987736 -14.5688171  29.5096874  26.3423443 -14.8020754
  29.7712784  27.0379677 -15.6014547  29.7668457  25.3138084 -15.0951252
  30.0609951  26.6242390 -13.8881674  27.4850254  25.4991627 -13.6280594
  26.4086266  25.6478577 -13.4886789  27.9956074  25.6953468 -12.6898632
  27.7114582  24.4856548 -13.9548693  27.3442287  26.4214687 -15.8612118
  26.3470917  26.6583042 -15.6145802  27.4426689  25.3906364 -16.2522297
  27.7487411  27.1324444 -16.5691452  29.1559010  30.8553677 -16.6680260
  31.5492172  30.4098587 -16.0543842  30.5343857  29.9200325 -11.9678793
  30.6122665  29.2551708 -10.7891092  30.8232136  29.7822647  -9.7209482
  30.3735771  27.7625465 -10.8887215  29.3282547  27.5452652 -10.9112549
  30.7970505  27.4057655 -11.8511858  30.9990673  27.0004349  -9.6828661
  32.0338020  27.3874493  -9.5651274  30.4080048  27.2708702  -8.7736530
  31.0447807  25.4806061  -9.9012318  29.9944477  25.1843452 -10.0797071
  31.6699886  25.3376560 -10.7436666  31.6050243  24.6395473  -8.7315016
  30.8460808  24.6250324  -7.9111271  31.7454319  23.5721588  -9.0799866
  32.8837013  25.2183075  -8.0692358  33.6465225  25.3067036  -8.8392744
  32.7278786  26.2329521  -7.5970416  33.3966064  24.1355114  -7.0336719
  32.6875114  23.6711025  -6.3886905  33.7883987  23.2943459  -7.5922389
  34.5267372  24.6736412  -6.1369176  34.9660034  23.8562012  -5.6181021
  35.3157654  25.1244831  -6.7437816  33.9533844  25.6880550  -5.1993136
  33.3954430  26.5019913  -5.7035732  34.0383568  25.7058792  -3.8827186
  33.5315781  26.5371246  -3.4028888  34.7727318  24.7790508  -2.9543214
  34.1393242  24.0234795  -2.5135303  35.5694885  24.2697563  -3.4536669
  35.4307442  25.5438881  -1.7567647  35.9155807  24.7666149  -1.1055837
  36.2654228  26.1892624  -2.0808728  34.4676170  26.3156414  -0.8761734
  35.0322151  26.8432407  -0.1198625  33.8704338  27.0641727  -1.4161004
  33.4477768  25.4072170  -0.1596203  32.8685722  24.8416023  -0.8910369
  34.0605698  24.6768990   0.3655855  32.4398003  26.1285610   0.7912928
  33.0794220  26.8169613   1.3034178  31.6723232  26.6797733   0.1954717
  31.5634441  25.2448254   1.6659082  30.7280426  25.7548618   2.0917587
  31.0521622  24.4967384   0.9903917  32.3636169  24.4496746   2.7361894
  31.7679043  23.6963882   3.2201490  33.1675110  23.9361763   2.2353466
  32.9211426  25.3891373   3.8140988  33.5299683  24.7974682   4.4798775
  32.0867767  25.7947330   4.3513598  33.5794678  26.1806564   3.3861325
 -39.9958801   8.9340897  -5.7339296 -40.4650841   9.8506632  -5.4052730
 -40.0852737   8.9009962  -6.8233771 -38.9694481   8.9835701  -5.4903431
 -40.5965767   7.6827593  -5.1643414 -41.6664543   7.7364535  -5.3845334
 -40.4752426   7.6932335  -4.0778604 -40.0526009   6.4109273  -5.8860803
 -40.0125198   6.5923696  -6.9606547 -40.7174721   5.5972047  -5.6007819
 -38.6218948   6.1318831  -5.4360495 -38.6442184   6.3380384  -4.3421869
 -37.8920860   6.8062572  -5.8919954 -38.2545624   4.6727066  -5.7483864
 -38.8415604   3.9984264  -5.1592607 -37.2750130   4.4880495  -5.3940058
 -38.4334335   4.1656418  -7.1557951 -39.4802208   4.2179193  -7.3601432
 -38.1920929   3.1233811  -7.1486340 -37.5598145   4.9286861  -8.1705875
 -36.5536804   4.6933784  -7.8724957 -37.7015076   5.9752936  -7.9189997
 -37.6727257   4.6234827  -9.6738071 -37.5508270   3.5324810  -9.8257771
 -36.9467392   5.1448913 -10.2809486 -39.0704117   5.0491400 -10.1735077
 -39.2105408   6.1359973 -10.1091394 -39.8059883   4.6081152  -9.5001135
 -39.3636093   4.6977525 -11.6799183 -38.5343971   5.0589809 -12.3174906
 -40.2662888   5.2848763 -11.9569645 -39.6510468   3.2119265 -11.8704472
 -40.3544579   2.8687584 -11.1153278 -38.7190933   2.6069975 -11.7428007
 -40.2544594   2.8733158 -13.2537460 -41.1612663   3.4446142 -13.4016323
 -40.5688133   1.8165417 -13.3128204 -39.3203468   3.0867152 -14.4598780
 -38.6219101   2.2090235 -14.5052061 -38.7950974   4.0373812 -14.3755569
 -40.1954269   3.1184747 -15.6670866 -40.8691406   4.0011163 -15.6639671
 -40.8428230   2.2214615 -15.6456394 -39.3831673   3.2273147 -16.9709167
 -40.0789452   3.0965197 -17.8081875 -38.7099838   2.3978515 -17.0702610
 -38.5833778   4.4865789 -17.0869846 -39.0910873   5.5548773 -17.4434586
 -37.3538399   4.3577962 -16.5892372 -36.4595909   5.5324645 -16.7283726
 -36.7413940   6.1878281 -15.8762417 -36.6124001   6.0590434 -17.6731148
 -34.9710922   5.1538582 -16.7155571 -34.3449821   6.0156174 -16.8994980
 -34.5646629   4.0977693 -17.7830791 -35.4270706   3.4630311 -17.9650326
 -33.7146225   3.5130944 -17.3924465 -34.0441666   4.6522117 -18.9881363
 -34.9426575   4.9624057 -20.2704792 -34.6863480   6.5051699 -20.5926609
 -35.1144753   7.4712286 -19.6846790 -34.5566406   8.3925028 -19.9282360
 -34.7982826   7.1431704 -18.7212353 -36.6128845   7.7507491 -19.7719383
 -36.8795471   8.6308365 -19.1391411 -37.1409149   6.8588743 -19.4963303
 -37.1743584   8.1471643 -21.1718102 -38.5642815   8.5690107 -20.9617786
 -39.0821686   7.8258853 -20.3367615 -39.0272560   8.6916313 -21.9862347
 -38.4703712   9.5490685 -20.4580917 -36.4253311   9.2714558 -21.8121223
 -35.3869438   9.0162868 -21.8354645 -36.5511208  10.1434603 -21.1738472
 -36.8275146   9.4795380 -22.7899837 -37.1055260   6.9811583 -22.1179008
 -36.0633926   6.8582487 -22.4779491 -37.7627525   7.0599489 -22.9887600
 -37.2975693   6.1677308 -21.5010567 -34.3326607   4.2123795 -21.4146595
 -36.3897552   4.7013001 -20.0333672 -34.6685104   4.7644019 -15.2866497
 -34.9331741   3.4933815 -14.7860518 -35.3742561   2.5847781 -15.4432774
 -34.6115341   3.4237728 -13.2998266 -33.6610451   2.8798506 -13.1393995
 -34.5081367   4.4532866 -12.9167480 -35.6488533   2.6172254 -12.4512434
 -35.4058418   2.8691542 -11.4136810 -36.6657028   2.8477411 -12.6258554
 -35.5328903   1.0629810 -12.6127615 -35.7004700   0.7847425 -13.6305161
 -34.4996223   0.7058992 -12.4898872 -36.4985542   0.3627881 -11.6905031
 -36.2401276   0.5791411 -10.6466484 -37.4580383   0.8209798 -11.9105091
 -36.6444435  -1.1617168 -11.8046083 -36.9688072  -1.4802014 -12.8087187
 -35.6606522  -1.6227369 -11.7194471 -37.5410728  -1.7818100 -10.7427731
 -37.3920975  -2.8587499 -10.8022652 -37.2222557  -1.4510721  -9.7334042
 -39.0368385  -1.4436780 -10.8635635 -39.2676659  -1.3934293 -11.9276276
 -39.6444740  -2.2734878 -10.4506912 -39.3682747  -0.0920252 -10.1810884
 -39.1400337   0.7718579 -10.7808266 -39.9005661   0.1508071  -8.9619246
 -39.9758987   1.1844555  -8.6779747 -40.3811035  -0.8248765  -7.9388285
 -41.4795837  -0.8767664  -7.9080973 -39.9124069  -1.7745830  -8.1544456
 -39.8105011  -0.4146001  -6.5654902 -39.8442001  -1.3810627  -6.0714717
 -38.7378235  -0.1830171  -6.7416263 -40.6635857   0.6736840  -5.8904691
 -40.7075920   1.5141963  -6.5402942 -41.6950264   0.3817264  -5.7737989
 -40.0592270   1.2168500  -4.5826311 -39.9882584   0.4513886  -3.8014512
 -39.0353775   1.4267106  -4.7696838 -40.8408394   2.4597003  -4.0759940
 -40.8700371   3.1527719  -4.9016881 -41.8665695   2.3211334  -3.8275204
 -40.1791611   3.0968795  -2.8380661 -40.2035866   2.3610034  -2.0458488
 -39.1524734   3.3694723  -3.0716858 -41.0041389   4.3292518  -2.3975804
 -41.0232925   5.0765748  -3.1795037 -42.0077553   4.0298491  -2.1343191
 -40.2733688   5.0137243  -1.2571921 -40.7370758   5.9767079  -1.0520571
 -39.2079353   5.2250443  -1.4475150 -40.3926163   4.3765678  -0.3680206
  -4.2200050 -23.6015244   2.2441945  -3.4857581 -23.3476524   3.0063200
  -5.1794538 -23.8653564   2.6867363  -4.4148989 -22.7365322   1.6362565
  -3.6650062 -24.7694511   1.3265758  -4.3749518 -24.9735546   0.5333550
  -3.5146449 -25.6228733   1.9501203  -2.2733591 -24.4870358   0.6966445
  -1.6575311 -24.0937157   1.4849379  -2.3843787 -23.6758842  -0.0095790
  -1.5600444 -25.7102852   0.0392656  -2.1147301 -26.0867901  -0.7868290
  -1.4232125 -26.5163155   0.7807440  -0.1174472 -25.4069233  -0.4120848
   0.3700596 -26.3618183  -0.6423437   0.4728547 -24.9443512   0.3775912
   0.0438387 -24.5157909  -1.6515476  -0.5935807 -23.6446419  -1.5140438
  -0.3687887 -25.0573235  -2.4827130   1.5254653 -24.1827183  -1.9346179
   2.1245317 -25.1049137  -2.0023139   1.9389795 -23.5792828  -1.1522639
   1.6850668 -23.4305115  -3.2523193   2.7830963 -23.2023544  -3.3569088
   1.2020283 -22.4351387  -3.1609449   1.2316456 -24.1411591  -4.5392685
   0.1439490 -24.0420189  -4.7169852   1.4432203 -25.2061672  -4.3966799
   1.8389564 -23.5912056  -5.8336401   2.9527903 -23.5204525  -5.8284073
   1.5396574 -22.5458698  -5.9826713   1.4509283 -24.4027824  -7.0877609
   0.3895885 -24.6531315  -7.0629358   1.9389682 -25.3774185  -7.0099282
   1.8268698 -23.8451214  -8.4809704   2.8748732 -23.8916569  -8.6203423
   1.4846864 -22.8132839  -8.6129313   1.1897590 -24.7370071  -9.5440769
   0.1600247 -24.4768124  -9.5438328   1.2467155 -25.7371998  -9.2087612
   1.7596239 -24.6726818 -10.9727011   2.7583199 -25.1591721 -10.9435949
   1.8010801 -23.6381435 -11.2518587   0.8978168 -25.4889145 -11.9629402
  -0.1217384 -24.9593849 -12.0706024   0.7820385 -26.5109825 -11.6413260
   1.5605606 -25.3906155 -13.3693829   2.0421035 -26.3240147 -13.9838314
   1.3448106 -24.2308350 -13.9547358   1.9803035 -23.7887268 -15.1857042
   1.6705489 -22.7980213 -15.3411121   1.5908147 -24.3830299 -15.9576836
   3.5136127 -23.7712193 -15.1292849   3.8933351 -22.9523640 -15.8121166
   4.1676359 -25.0188942 -15.6473255   3.4287081 -25.7458420 -15.9824371
   4.6520667 -25.5187302 -14.8003435   5.0306792 -24.7249451 -16.7318993
   4.5216899 -24.3814888 -18.2020206   5.4508643 -23.1427956 -18.5988197
   6.7850924 -23.3294086 -19.0452156   6.8889718 -23.6299248 -20.0862026
   7.1946497 -24.2001896 -18.4551125   7.6362519 -22.0525932 -18.6968498
   7.3887210 -21.2515812 -19.4444122   8.6932039 -22.3212337 -18.8640804
   7.6022644 -21.5079479 -17.2465878   6.2962551 -20.7943649 -16.9617577
   6.1817546 -19.9267654 -17.6586075   6.4335389 -20.3752117 -15.9628954
   5.4331188 -21.4932175 -17.0902119   7.8356318 -22.5535183 -16.2081394
   8.7139702 -23.1586266 -16.4971142   7.0002465 -23.2074337 -16.0628777
   8.0697165 -22.0850067 -15.2915096   8.6792259 -20.4592628 -17.1322365
   9.6234884 -20.8953190 -17.4615650   8.7393379 -20.1638222 -16.0906277
   8.3715200 -19.6211205 -17.8324814   4.8187313 -25.5328274 -19.1036873
   3.1512141 -23.8929367 -18.1226978   3.9352393 -23.4755497 -13.7689390
   3.9036975 -22.2135181 -13.3662596   3.6377623 -21.2642212 -14.0977802
   4.3716955 -22.0629158 -11.9631433   3.7402389 -21.3225861 -11.4031830
   4.1950097 -23.0201607 -11.4755764   5.8088560 -21.5297718 -11.8755426
   6.4306421 -22.0895386 -12.5252714   5.8681726 -20.5168571 -12.3001900
   6.2471032 -21.6173534 -10.4487505   6.2689018 -22.6857948 -10.1353350
   7.2582102 -21.2710743 -10.3704729   5.5149841 -20.7102184  -9.4348707
   6.2600403 -20.3864708  -8.6458168   5.1921177 -19.8227921  -9.9454927
   4.2967815 -21.3213902  -8.7411394   3.5402789 -21.6505222  -9.4566011
   4.5304799 -22.2125797  -8.1846819   3.7440441 -20.3922863  -7.6459904
   2.8299716 -20.8122673  -7.1783466   4.5003519 -20.4015999  -6.8047476
   3.4470606 -18.9077206  -8.0279083   3.3434179 -18.3241024  -7.1160507
   4.2699285 -18.5327358  -8.6357784   2.2291939 -18.8038483  -8.9411573
   2.4906082 -18.7566967 -10.0124378   0.9464633 -18.6451893  -8.6362762
   0.2184855 -18.4498196  -9.4072199   0.4001716 -18.5507774  -7.2201653
   1.1835732 -18.5278912  -6.4580269  -0.0942870 -17.6185970  -7.1491928
  -0.5447759 -19.7013683  -6.9706163  -1.1521418 -19.8248272  -7.8553371
   0.0740135 -20.5923309  -6.9274707  -1.5408006 -19.5309906  -5.8046265
  -2.0955234 -18.6183739  -5.9363699  -2.2825561 -20.3200645  -5.8331132
  -0.8729715 -19.4406681  -4.4278727  -0.5337439 -20.4270344  -4.1429896
  -0.0162448 -18.7325497  -4.5027142  -1.8127118 -18.9272881  -3.3607066
  -2.3763371 -18.0399971  -3.7040877  -2.5050690 -19.7337570  -3.0912530
  -0.9872714 -18.5413647  -2.0869951  -0.2546220 -17.7761269  -2.3459170
  -1.6057407 -18.0626526  -1.3690001  -0.2005317 -19.6699791  -1.3788539
   0.6344956 -19.9654064  -1.9800013   0.2381206 -19.2670383  -0.4292960
  -1.0350560 -20.8655148  -0.9260317  -0.4281147 -21.5792847  -0.3882166
  -1.5118712 -21.3986187  -1.7879373  -1.8029608 -20.6057339  -0.2235389
  -5.0567312  42.3873940   2.3477976  -4.3511071  43.1936264   2.3037548
  -5.0428004  41.9972801   3.3739505  -5.9977274  42.7363739   2.1134636
  -4.5755076  41.3517189   1.2955083  -3.6144032  40.9169197   1.6604410
  -4.4382486  41.7568932   0.3057674  -5.5460458  40.1605072   1.2435889
  -5.8290677  39.9263115   2.2779486  -5.0442314  39.3077850   0.8314115
  -6.8999643  40.4763374   0.5210428  -7.2899027  41.4388847   0.8680857
  -7.6534748  39.7284317   0.7551035  -6.6293283  40.7095108  -1.0143814
  -5.8252597  41.4205742  -1.1997234  -7.5045438  41.1240463  -1.4603795
  -6.2582998  39.4926109  -1.8628991  -6.9407697  38.6790047  -1.7511828
  -5.3015623  39.1093140  -1.5108889  -6.1343055  39.7850075  -3.3100095
  -5.4093270  40.6082497  -3.3764088  -7.0625210  40.1699142  -3.7470891
  -5.6998854  38.5635719  -4.1318488  -6.4386411  37.7833405  -4.0281587
  -4.7701602  38.1483421  -3.7008569  -5.5035110  38.9402237  -5.6306882
  -4.8426027  39.8675690  -5.7046680  -6.4413209  39.1288033  -6.1210465
  -4.7462487  37.7941208  -6.3652058  -5.3900151  36.8991890  -6.3890362
  -3.8314829  37.5531578  -5.7534451  -4.3122091  38.1244812  -7.7636523
  -3.8734934  37.2418785  -8.2206573  -3.4796903  38.8326607  -7.7438684
  -5.3975863  38.6342773  -8.7231722  -6.3552165  38.3530197  -8.3710566
  -5.2428312  38.2562637  -9.7126560  -5.4381747  40.1510696  -8.9165277
  -4.4439178  40.5641594  -9.2181702  -5.7241077  40.6387024  -7.9681740
  -6.4547448  40.5567322 -10.0005112  -7.3507099  39.9358978  -9.8711052
  -6.0680909  40.4009209 -11.0137806  -6.8253541  42.0796738  -9.8457737
  -7.7616024  42.2408485 -10.4055586  -7.0883799  42.2582207  -8.8202677
  -5.7579756  43.0288925 -10.3391323  -4.5824065  42.9115067 -10.0834904
  -6.3332233  44.0708923 -10.9665356  -5.5985160  44.9161873 -11.8579283
  -4.5477471  45.0064430 -11.5523138  -6.1222930  45.8775711 -11.7471352
  -5.7399220  44.4769821 -13.3672533  -5.0468488  45.0560951 -13.9588566
  -7.1828279  44.6247139 -13.8422441  -7.6119356  45.5771332 -13.5184202
  -7.7180533  43.7612762 -13.4063349  -7.2692108  44.5516548 -15.2729788
  -8.6805143  44.5763054 -16.0277920  -9.2235174  43.0572968 -15.7586975
  -9.2964001  42.1151123 -16.8530121  -8.3829546  42.0787392 -17.4076195
 -10.1117344  42.3411407 -17.5101891  -9.6396770  40.7504997 -16.2040520
  -9.9290695  40.0659599 -17.0140686 -10.4556551  40.9041290 -15.5072775
  -8.5718975  40.0555458 -15.4024115  -8.7354155  40.3917503 -13.9442005
  -8.6404390  41.5077057 -13.8997707  -8.0469589  39.8432274 -13.3100309
  -9.7381649  40.0839272 -13.5958328  -8.7040195  38.5892334 -15.5163012
  -8.4445553  38.2948608 -16.5359993  -9.7720518  38.3995895 -15.3213587
  -8.0209656  38.1277313 -14.8048248  -7.2007198  40.3712883 -15.9433260
  -7.1989756  40.1557884 -17.0437603  -6.4637990  39.7338257 -15.4469500
  -7.0051308  41.4336739 -15.7152958  -9.6435909  45.5295258 -15.3718805
  -8.4188566  44.6683884 -17.4526100  -5.3450413  43.0673180 -13.4224834
  -3.9929736  42.8098831 -13.4997549  -3.0784175  43.6164436 -13.6799393
  -3.7325647  41.3023186 -13.3710709  -4.2640429  40.9493599 -12.4712906
  -4.1104469  40.7510719 -14.2449007  -2.2160397  40.9350433 -13.2662125
  -2.1426511  39.8858566 -13.5957642  -1.6715795  41.5353737 -13.9936275
  -1.5955837  41.2456512 -11.8721161  -0.5472494  41.3429413 -12.0010967
  -1.9510796  42.2278557 -11.4980526  -1.9213594  40.1145706 -10.8205690
  -2.9885006  40.0061378 -10.7720671  -1.4517825  39.1924477 -11.1799135
  -1.4028977  40.4044418  -9.4019327  -2.0120378  41.2068901  -9.0615273
  -1.6685565  39.5792542  -8.7286272   0.0856633  40.8564186  -9.3433094
   0.7631653  40.0443344  -9.7413197   0.3380556  41.7275810  -9.9111719
   0.4292939  41.0765800  -7.8645926   0.2350780  40.1759872  -7.3370609
   1.5093075  41.1185417  -7.7452207  -0.2970458  42.2947273  -7.3161054
  -0.1501586  43.2253723  -7.8548312  -1.1593325  42.2824516  -6.2900686
  -1.5771042  43.2089005  -5.9485102  -1.4694400  41.0220108  -5.4511242
  -2.3759341  40.4889259  -5.8566470  -0.6056659  40.3041801  -5.4903846
  -1.7567855  41.4722977  -3.9846194  -0.8796042  41.9711647  -3.6709378
  -2.5381103  42.2503281  -3.9976768  -2.1219809  40.3045349  -3.0030503
  -2.3714504  40.7987671  -2.0631635  -3.0054507  39.7434273  -3.3967364
  -1.0190240  39.3354759  -2.6510322  -0.3524400  39.1173477  -3.4856186
  -0.4200031  39.9019203  -1.9088423  -1.3933969  37.9549026  -2.1266537
  -0.4731459  37.4459190  -1.7696589  -2.1139314  38.0566063  -1.3243102
  -2.0163867  37.0649948  -3.2167933  -2.8655007  37.5589218  -3.6908267
  -1.2736483  36.9334297  -3.9739249  -2.4409029  35.5911446  -2.7473238
  -2.9685235  35.6785507  -1.7945236  -3.0517685  35.1154175  -3.5244498
  -1.2655722  34.6421776  -2.4383841  -1.4017516  34.0290146  -1.6103898
  -0.3480851  35.2456360  -2.1543517  -1.0235554  34.0411987  -3.2423151
   9.7690659  41.1917343   1.7111164  10.2357874  40.5311584   2.4486854
   9.1495409  40.5582809   1.0524098   9.2128191  41.9587173   2.2235410
  10.8362398  41.8665085   0.8808805  11.4478683  41.1621819   0.3938063
  11.5055599  42.4042168   1.5788530  10.2005377  42.8835106  -0.0782250
  10.9117308  43.6013031  -0.5180172   9.5665932  43.4819870   0.5268795
   9.4041290  42.2015038  -1.2348683   8.6783895  41.4341316  -0.8864209
  10.1621962  41.7168617  -1.8693664   8.6810045  43.3411560  -1.9873147
   9.3533268  44.1587601  -2.2279563   7.9654846  43.6896095  -1.1701334
   7.9581432  42.8986740  -3.2325456   7.2968383  43.6730919  -3.5751872
   7.3882647  42.0222168  -2.9805362   8.9914265  42.5661278  -4.2839174
   9.4571304  41.6477356  -4.0765500   9.6762867  43.4059372  -4.3660021
   8.2458935  42.2698784  -5.6402345   7.6614337  43.1243706  -5.9446282
   7.4867229  41.5202332  -5.3911452   9.1741266  41.8226433  -6.8130355
   9.6299410  40.8773384  -6.5668163   9.9482536  42.5833893  -7.0254202
   8.3564177  41.7203712  -8.1057243   7.8263407  42.6692429  -8.3017645
   7.5593371  41.0069695  -7.9549413   9.1537209  41.4099693  -9.4018517
   9.7462883  42.2382011  -9.7243185   8.5005388  41.1282730 -10.2280626
  10.0837374  40.1939735  -9.1479387   9.5408049  39.3815002  -8.6026754
  10.9510536  40.4138718  -8.5063295  10.6309547  39.5831909 -10.4565039
  11.0667048  40.3694344 -11.1065922   9.7966347  39.1946487 -11.0741663
  11.6851912  38.4871292 -10.2605057  11.2951651  37.7613373  -9.5374451
  12.5634375  38.9692650  -9.7449465  12.1175117  37.7210655 -11.5000238
  12.9945126  37.1277695 -11.3016567  12.3339520  38.4211502 -12.2722063
  11.0964222  36.6960716 -11.9164934  10.7513380  35.7283554 -11.2239180
  10.6379356  36.9205933 -13.1538286   9.5820122  36.1344452 -13.6804256
   9.3703146  35.2791557 -13.0632257   9.9471607  35.6784554 -14.6135902
   8.2593365  36.9402924 -13.8673878   7.4974580  36.2553368 -14.2623577
   8.4771061  37.9707756 -14.9901972   8.7817345  37.4428520 -15.8824062
   9.2617235  38.6815376 -14.6660433   7.2657938  38.7306976 -15.3762827
   6.1249456  38.1871719 -16.4073486   5.1575012  37.3388748 -15.4103937
   5.1008320  35.8987732 -15.3327036   4.7906427  35.5973206 -14.3037233
   6.0590572  35.5138168 -15.5409040   4.0778232  35.3852158 -16.3977413
   3.8724957  34.3334923 -16.2266521   4.5092192  35.5135918 -17.3999577
   2.6745536  35.9423637 -16.4543362   2.7169209  37.1908150 -17.2853832
   3.4418302  37.8678474 -16.9014664   1.7876052  37.6976089 -17.2456608
   2.9346025  36.9384995 -18.3490295   1.7640485  35.0160904 -17.1225700
   1.6777031  34.1483917 -16.4863224   2.1922791  34.6683960 -18.0677586
   0.8650533  35.5792274 -17.4090176   2.0642099  36.1961021 -15.1175013
   1.8896532  35.2680893 -14.6148348   1.1358621  36.7680359 -15.2363224
   2.7193453  36.8145027 -14.5417881   5.3485651  39.4120865 -16.9008808
   6.8096313  37.3259277 -17.4366722   7.8018198  37.5424538 -12.6474571
   6.9622092  36.8655319 -11.8605146   6.5838861  35.7560616 -12.1053696
   6.6070647  37.5058136 -10.5635166   6.7234368  38.5608139 -10.7121601
   5.5590754  37.4033318 -10.4068489   7.4475079  36.9391289  -9.4550257
   7.4979615  35.8506699  -9.4932032   8.4619989  37.3388557  -9.5736303
   6.9854779  37.4363251  -8.1014462   7.8729482  37.4114914  -7.4106936
   6.6969724  38.4949799  -8.1850548   5.8524704  36.6041298  -7.4647217
   4.9211164  36.6558533  -8.0442820   6.2072906  35.5641022  -7.4945879
   5.6609364  36.9831505  -5.9849257   4.8510342  36.3165550  -5.5459304
   6.6292477  36.7891579  -5.5089579   5.2607994  38.4095306  -5.7112379
   5.1643510  38.5322723  -4.6506081   6.0821733  39.0960274  -6.0251665
   3.9167819  38.8807335  -6.3112063   3.7122486  39.9623528  -6.0191770
   3.9956686  38.7859306  -7.3747783   2.7174997  37.9923744  -5.9850044
   2.2114739  37.4888535  -6.8199234   2.1433675  37.8972206  -4.7920642
   1.2327378  37.3041077  -4.5831099   2.5393531  38.6761017  -3.5825598
   3.3204808  39.3595772  -3.8435731   1.7447603  39.3267860  -3.2046964
   2.9879258  37.7107964  -2.4877553   2.0952299  37.2894058  -1.9598668
   3.4239123  36.8536949  -3.0221081   3.8851337  38.3406601  -1.4943521
   4.5237331  39.0792122  -2.0224607   3.2723210  38.9147301  -0.8169624
   4.6441121  37.3685112  -0.6136400   5.2279787  36.7320404  -1.2636293
   5.3701124  37.9250374   0.0079123   3.6496603  36.5729980   0.3014297
   3.1044731  37.2670326   0.9866714   2.9775701  35.9982338  -0.3192886
   4.4517622  35.5930252   1.1933423   4.9609776  34.8474464   0.5606323
   5.2100511  36.2336426   1.7038469   3.6837416  34.9038658   2.2747264
   2.7515695  34.5128593   1.8840766   4.2956357  34.0015182   2.6319542
   3.3491244  35.8177223   3.4551148   2.5581205  36.5101776   3.1603551
   4.2486639  36.3027725   3.7974253   2.9718142  35.2610779   4.2589226
 -39.4306107 -15.3401480   3.1580307 -39.9519043 -16.1509743   3.6770597
 -40.1807938 -14.7250795   2.6016829 -38.9004555 -14.7607727   3.8932872
 -38.4813995 -15.8901834   2.0758138 -38.9910851 -16.5757351   1.4240353
 -37.7208595 -16.4519539   2.6323438 -37.8453064 -14.8070955   1.1481537
 -37.3706017 -14.0259323   1.7868555 -38.6563187 -14.2993469   0.6056579
 -36.7936096 -15.4543257   0.1798527 -35.8750687 -15.7008657   0.7040957
 -36.4613647 -14.6915493  -0.5392706 -37.2144012 -16.6618843  -0.6959814
 -37.5880241 -17.4686413  -0.0630879 -36.3115616 -16.9025688  -1.3185127
 -38.3210793 -16.3553562  -1.7256632 -38.0930634 -15.4558706  -2.3552756
 -39.2563591 -16.0676365  -1.2227215 -38.6940155 -17.5107365  -2.6575849
 -38.9209976 -18.4041481  -2.1051266 -37.8762093 -17.7467728  -3.3238266
 -39.9481125 -17.0872707  -3.4904048 -40.7144775 -16.8000908  -2.7960873
 -40.2963600 -17.9673347  -4.0659866 -39.6394005 -15.9282255  -4.4554787
 -38.6436577 -16.1029339  -4.8664246 -39.6358604 -14.9933138  -3.9089308
 -40.6702576 -15.7838440  -5.5731483 -41.6577721 -15.5755901  -5.1877279
 -40.7040443 -16.7584209  -6.1158509 -40.4117775 -14.6164093  -6.5400577
 -40.1537552 -13.6974926  -6.0210657 -41.3470650 -14.4140062  -7.1133089
 -39.3557510 -15.1071682  -7.5732617 -39.6465111 -16.0724487  -7.9730268
 -38.4351120 -15.2379475  -7.0649219 -39.0533905 -14.0211735  -8.6005316
 -38.5719337 -13.1833649  -8.0914612 -40.0223618 -13.6075888  -8.9904127
 -38.1703415 -14.6330748  -9.7146950 -38.7439461 -15.2965975 -10.3531113
 -37.3644676 -15.2626085  -9.2704897 -37.4551468 -13.5205832 -10.5532932
 -36.6746559 -13.0808439  -9.9169111 -38.1675034 -12.7795620 -10.7979431
 -36.9133835 -14.0743027 -11.8328333 -37.5737228 -14.3120823 -12.8296051
 -35.5686836 -14.2615023 -11.8384495 -34.8406181 -14.5816631 -13.0183468
 -35.3582611 -15.4006290 -13.5577497 -33.8707008 -14.9360523 -12.7206993
 -34.6553726 -13.2798529 -13.9270926 -35.6332054 -12.8627529 -14.1824617
 -33.9364624 -13.6353588 -15.2513790 -34.5074883 -14.4296741 -15.7357311
 -32.8677063 -13.9261951 -15.0381241 -33.8281670 -12.4657621 -16.1124668
 -35.0332489 -11.9205093 -16.9882050 -35.9288177 -11.0128107 -16.0113869
 -35.7592468  -9.6305075 -15.7381449 -35.0545235  -9.1972609 -16.4184170
 -35.3497734  -9.5294294 -14.6843576 -37.1547890  -8.9770679 -15.9217310
 -37.6106529  -9.2855511 -16.8592358 -37.0765381  -7.8916640 -15.9588537
 -38.2469749  -9.3384342 -14.8772287 -38.0623436  -8.6672955 -13.5523500
 -37.3216972  -9.2025290 -12.9343405 -39.0567436  -8.7288017 -13.0571737
 -37.6665993  -7.6958876 -13.7264938 -39.5003433  -8.8247595 -15.4889545
 -39.5068054  -9.1600113 -16.5460091 -39.5078354  -7.7852154 -15.3724661
 -40.3709106  -9.2427759 -15.0141296 -38.4018745 -10.8074493 -14.5908356
 -38.6575699 -11.3762474 -15.5077095 -39.1567612 -10.9151449 -13.8336296
 -37.3804436 -11.0969028 -14.1794443 -34.4695663 -11.0283909 -18.0376778
 -35.9595413 -13.0195799 -17.3579102 -33.7915688 -12.3709631 -13.2413301
 -34.3889046 -11.3671494 -12.6171961 -35.5869637 -11.2601776 -12.4571714
 -33.3377914 -10.3571043 -12.1958342 -32.3964272 -10.8581209 -11.9649115
 -33.1868820  -9.7327166 -13.0759277 -33.7211914  -9.4898567 -10.9551630
 -34.6016998  -8.8328733 -11.1756191 -34.1300697 -10.2227879 -10.2669630
 -32.4566269  -8.8367882 -10.2964134 -31.7500687  -9.6072559 -10.0186024
 -31.9616699  -8.2762318 -11.0634413 -32.7245941  -8.0687122  -9.0109425
 -31.7644730  -7.8421888  -8.5098763 -33.2211342  -7.1206245  -9.3406572
 -33.6933823  -8.7081547  -7.9683800 -34.6388168  -8.7505245  -8.4463797
 -33.3425827  -9.7352705  -7.7582312 -33.7519150  -7.9271097  -6.6072707
 -34.0237541  -6.9035559  -6.7510767 -34.5275078  -8.4022188  -6.0147476
 -32.4188843  -7.9386864  -5.7915835 -31.9279099  -8.8994169  -5.8165603
 -31.6904106  -7.3133335  -6.3039284 -32.5843964  -7.2841306  -4.4525118
 -32.3339195  -6.2354441  -4.3478532 -32.9892006  -7.8806376  -3.3154309
 -32.9473267  -7.2144933  -2.4661646 -33.4969902  -9.2712326  -3.1924777
 -33.2432671  -9.8751268  -4.0530958 -32.9981651  -9.8083906  -2.3735847
 -35.0438004  -9.2362385  -2.9242992 -35.3008423  -8.7474337  -2.0065026
 -35.5498085  -8.6543531  -3.7040174 -35.5404701 -10.6617413  -2.8086064
 -35.2482567 -11.2826748  -3.6614249 -35.1128235 -11.1301250  -1.9033587
 -37.0773048 -10.7808294  -2.6915004 -37.4186630 -10.0896893  -1.9084733
 -37.5426750 -10.4186363  -3.6358895 -37.5887260 -12.2161427  -2.3285825
 -37.2068901 -12.9248104  -3.1128275 -37.1400108 -12.4962807  -1.3980932
 -39.1225090 -12.2884045  -2.2550645 -39.4938583 -12.0622969  -3.2806718
 -39.4471741 -13.3460855  -2.0352335 -39.8871918 -11.2999525  -1.3586067
 -39.5821800 -10.2816782  -1.7276478 -40.8964500 -11.6404591  -1.3422440
 -39.4298592 -11.2795935   0.1103448 -39.9094238 -10.4735231   0.6403267
 -38.3462944 -11.1508837   0.2153729 -39.6941261 -12.2315998   0.5770617
  29.0511551  15.6212139  -1.6621256  28.0455513  15.1740541  -1.7591609
  29.3013687  15.7529821  -0.6400896  29.6967869  14.8538313  -2.0510077
  29.1615658  16.8949318  -2.5013428  28.3548203  17.5630760  -2.2587397
  28.9653015  16.5683727  -3.5647225  30.5105000  17.5540047  -2.3403285
  31.2533035  16.7686787  -2.5635860  30.6565380  17.8803101  -1.3132877
  30.7319241  18.7023849  -3.3151386  31.6325550  19.2966213  -3.0732038
  29.8916416  19.3592987  -3.1202352  30.6470528  18.2754612  -4.7633996
  29.5642643  18.2267151  -4.9362483  31.1242371  17.3214989  -4.9489560
  31.2177544  19.3952770  -5.6695871  32.3188896  19.3970413  -5.6131501
  30.8255482  20.3461266  -5.3269596  30.8163490  19.2498512  -7.1785874
  29.6935272  19.2123566  -7.2225294  31.1983757  18.2106190  -7.4510241
  31.3639183  20.3906250  -8.0804901  32.4512062  20.4896049  -7.9941773
  30.9322205  21.3185043  -7.7313900  30.9882183  20.0792694  -9.5448647
  31.1031570  20.9403152 -10.1813307  29.9347095  19.7371254  -9.5645943
  31.8654613  18.9604149 -10.1350698  31.5450287  17.9834766  -9.7810707
  32.9175034  19.0832729  -9.8079634  31.7520370  19.0659485 -11.6819019
  32.1980858  20.0569229 -11.9936390  30.7303791  19.0258217 -12.0975389
  32.5405922  17.8591652 -12.3041105  32.3423233  17.7868958 -13.3443871
  32.1014366  16.9195137 -11.9562550  34.0481644  17.8550320 -12.0777311
  34.2848053  17.7624817 -11.0315895  34.4300461  18.8255978 -12.4018488
  34.7586479  16.6984215 -12.8441257  34.2874069  16.5908127 -13.7870407
  34.6934242  15.7722912 -12.2828207  36.2510071  16.9483147 -13.0891600
  36.7379913  16.0021744 -13.4413424  36.7722282  17.2345409 -12.1331177
  36.3839264  17.9666862 -14.2250462  36.6617584  19.1301498 -14.1248894
  36.1167107  17.3432369 -15.3637600  35.9996147  18.1134357 -16.5798817
  36.2789230  17.5144920 -17.4581642  36.6672897  18.9516239 -16.5793285
  34.5376930  18.6361942 -16.8094120  33.8232155  17.7928619 -16.6925774
  34.4101181  19.2270794 -18.2672081  33.6210022  19.9672375 -18.3068676
  34.2246399  18.4126263 -18.9588375  35.6502228  19.9001102 -18.6693497
  35.7690620  21.5090160 -18.4701805  36.3783112  21.6567326 -17.0037041
  37.7983894  21.4758720 -16.7591457  38.2723618  20.8601227 -17.5156898
  37.9532547  20.9304810 -15.8298073  38.5091095  22.8449326 -16.6807785
  38.3887177  23.3133297 -17.6524010  39.5817871  22.6917763 -16.5531940
  38.0678291  23.8442783 -15.6402540  37.9959145  23.2687645 -14.2250967
  37.3327484  22.4087887 -14.2317066  37.6660881  24.0650463 -13.5833845
  39.0036125  23.0066147 -13.9466105  39.1085472  24.9748688 -15.6952419
  39.2694969  25.3086262 -16.7451591  40.1180611  24.5376434 -15.4006329
  38.8726616  25.8267212 -15.0299635  36.7589493  24.4063740 -15.9739103
  36.8030815  24.5327015 -17.0833473  36.6279373  25.3073711 -15.4252100
  36.0892448  23.5959263 -15.6848621  36.8390312  21.9733143 -19.3888683
  34.4203491  22.2009182 -18.5470028  34.2517929  19.6539955 -15.8244381
  32.9886551  20.1149769 -15.7593298  32.0328636  19.7322044 -16.4232788
  32.8321190  21.0838051 -14.6238136  31.8177834  21.0354691 -14.2686129
  33.5373802  20.8283730 -13.7958622  33.1495094  22.5282383 -15.0978994
  34.2289238  22.6271915 -15.3070946  32.6093102  22.6932716 -16.0362396
  32.7021942  23.5780411 -13.9986744  32.9231644  24.5647793 -14.4123640
  31.6246777  23.5811920 -13.7486038  33.3978119  23.4017563 -12.6370354
  33.1630821  24.2905655 -12.0078859  33.0012817  22.5694733 -12.0648994
  34.9269524  23.2497692 -12.7342854  35.0882607  22.2490292 -13.2016802
  35.3272667  24.0316811 -13.3472176  35.6178246  23.2787685 -11.3002014
  36.6459808  23.5049648 -11.3150940  35.1791916  24.1169834 -10.7888908
  35.4217567  22.0017929 -10.4150877  35.3598595  22.2007160  -9.3480701
  34.4469299  21.6098137 -10.7102594  36.4292259  20.9478016 -10.7600203
  36.5617523  20.7836552 -11.8557348  36.9385452  20.0422745  -9.9235411
  37.5663681  19.2698441 -10.3781233  36.7159576  19.9202919  -8.4180717
  37.5405769  20.3492947  -7.8144956  35.8031120  20.4851742  -8.1598654
  36.5095825  18.5142117  -7.9469166  35.8685837  17.9610672  -8.6627007
  37.5066032  18.0654030  -7.7904272  35.7959595  18.5571938  -6.5546150
  36.4429626  19.1175175  -5.8441634  34.8146896  19.0559769  -6.6692739
  35.5150414  17.1103649  -6.0356531  34.9386292  16.4421463  -6.6907177
  36.4872932  16.6411495  -5.9069777  34.8179131  17.0881138  -4.6416864
  35.3425789  17.8118916  -3.9809010  33.8312836  17.4274178  -4.7884579
  34.8749962  15.7176514  -3.9231789  35.9439659  15.4758062  -3.7543700
  34.3107414  15.8222408  -2.9507205  34.2386551  14.5499516  -4.5687809
  34.8160400  14.2693510  -5.4421563  34.3562126  13.6547813  -3.8625102
  32.7624702  14.6405592  -4.9327068  32.4366722  13.7835026  -5.5223866
  32.6366959  15.5091333  -5.5777926  32.1313210  14.6392212  -4.0044603
  40.6716156  10.0765333  -5.2257032  41.6722260   9.6737089  -5.5106850
  40.3008232  10.6709490  -6.0473704  40.0371628   9.1765957  -5.0255828
  40.8187256  10.9210510  -3.9759192  41.6184807  11.6785564  -4.1991477
  41.1349335  10.2236547  -3.1430140  39.5538712  11.6214075  -3.4968874
  38.9988823  12.0959997  -4.3961215  39.8101349  12.4613485  -2.8272843
  38.6305656  10.7035866  -2.7181625  39.1593513  10.2757015  -1.8823646
  38.4323769   9.8722687  -3.3825784  37.2660408  11.2932596  -2.2804568
  37.3957100  12.4041185  -2.0865407  36.9554062  10.7981052  -1.3749958
  36.1779709  10.9924812  -3.3239863  35.2730446  11.5353031  -3.0543253
  35.9671860   9.9493017  -3.3243599  36.5067444  11.4624395  -4.7153902
  37.4038734  10.9599533  -5.0421376  36.7339020  12.5299063  -4.6839767
  35.5063324  11.2206259  -5.8312531  34.5104218  11.5963078  -5.5691738
  35.4043083  10.1842356  -6.0144563  36.0266533  11.8894472  -7.1111112
  36.9915733  11.4444370  -7.3574214  36.2274437  12.9619026  -6.8972535
  35.0878830  11.7406120  -8.3153801  34.2232285  12.3732243  -8.2134581
  34.6525688  10.7173300  -8.3946791  35.7151871  12.0411673  -9.6937780
  34.9481888  11.8612633 -10.4236937  36.5049706  11.3149252  -9.8587227
  36.2083969  13.4509869  -9.9227514  36.7193069  13.8086462  -9.0228643
  35.3667488  14.1419897 -10.0733528  37.2421646  13.4245453 -11.0810041
  38.0198479  12.6859093 -10.8939848  37.7067986  14.4203510 -11.0056629
  36.6896019  13.1752396 -12.4925270  35.9925613  14.0466366 -12.7775574
  36.0884628  12.2792873 -12.6157093  37.9042206  13.2112713 -13.4611626
  38.5986633  12.3405924 -13.2952156  38.4631538  14.1140070 -13.2926226
  37.4033279  13.1903696 -14.8789978  36.2578392  13.1800137 -15.2076340
  38.4476700  13.1977987 -15.7727242  38.2538757  12.6584806 -17.0603981
  37.4520645  11.8785563 -17.1345425  39.1522446  12.1090450 -17.2896595
  38.0897217  13.7629938 -18.1241894  37.9676590  13.3126354 -19.1057682
  39.3106384  14.6943464 -18.1358070  39.7667542  14.8370733 -17.1859341
  38.9796600  15.6716633 -18.4257965  40.2032509  14.3630829 -19.2377281
  41.3664780  15.4153290 -19.7511864  40.5313110  16.6508465 -20.3049698
  39.7017212  16.5097771 -21.4842014  38.8210640  15.9415140 -21.2012558
  40.1755219  15.9356728 -22.2673321  39.2351875  17.8437271 -22.0976181
  38.7028427  17.6243305 -23.0071278  40.0735321  18.4994316 -22.2837048
  38.3024864  18.6692696 -21.2134399  37.0219498  17.8513794 -21.1054688
  36.5955391  17.6261292 -22.1070137  36.2726784  18.4525757 -20.5057144
  37.2244873  16.9881992 -20.4864521  38.7875595  19.0170937 -19.8073025
  39.6904755  19.5940742 -19.8916206  38.8795471  18.0728512 -19.2110500
  37.9613609  19.6327419 -19.3434067  37.9932175  19.9246063 -21.9634743
  38.9634666  20.3909187 -22.1349812  37.3490601  20.5995197 -21.3942451
  37.5505638  19.6160717 -22.8952999  42.0910492  15.8776846 -18.5275249
  42.1260986  14.7933569 -20.8649635  36.9489861  14.5883083 -17.7870541
  35.7090149  14.1169157 -18.1461926  35.5462341  13.0792322 -18.8026085
  34.6007309  15.0825233 -17.7091579  34.8786125  15.4696712 -16.7527218
  34.6278152  15.8839722 -18.4337502  33.2072296  14.4357529 -17.7107925
  32.4777603  15.2404900 -17.7747211  33.0671234  13.8095856 -18.6067524
  32.8859825  13.5721922 -16.4891071  31.9953651  12.9624739 -16.7328224
  33.7036591  12.9010000 -16.2470837  32.5496521  14.4571609 -15.2339125
  33.4749641  14.9329615 -14.8777685  31.8252602  15.2497215 -15.5721750
  31.8681335  13.6945477 -14.1504383  31.1863918  14.3722639 -13.5839195
  31.1757889  12.9041090 -14.5446730  32.9331894  13.1822243 -13.1559172
  33.5209312  12.4755087 -13.7417421  33.5342941  14.0199490 -12.8266993
  32.3011742  12.4718971 -11.9013548  33.1395187  12.0724297 -11.3031635
  31.6691685  13.1605740 -11.3632355  31.5698071  11.2562218 -12.2838078
  32.0161819  10.6714811 -13.0668726  30.4963093  10.7381382 -11.6861391
  30.2257385   9.7029810 -11.9253349  29.7472458  11.3566484 -10.5261240
  30.0872402  12.3169899 -10.1650724  28.7369137  11.4888401 -10.8631382
  29.6756725  10.3378973  -9.3532200  29.0049591  10.8158312  -8.6339951
  29.1708927   9.3593473  -9.6259785  31.0220928  10.1362095  -8.6512337
  31.7934589   9.7494469  -9.2857227  31.2918835  11.1528816  -8.3894167
  30.8797150   9.2545395  -7.3755164  30.0509281   9.6488295  -6.7406321
  30.6921597   8.2662277  -7.7399058  32.1741180   9.3738327  -6.5368323
  33.0588531   9.3978930  -7.1823606  32.1186104  10.3146477  -6.0031886
  32.4130287   8.3243599  -5.4055829  32.7243347   7.4081779  -5.9274096
  33.2668991   8.5591040  -4.8067579  31.2066936   8.1299772  -4.4608145
  30.9606190   9.0665646  -3.8826039  30.3110313   7.9711151  -5.0498056
  31.3218670   6.9569664  -3.4717367  30.3915710   6.9490314  -2.9159346
  32.1341782   7.1267862  -2.7781246  31.3766365   6.0271330  -3.9778404
 -25.9987659  21.6974373   3.9035237 -25.4687099  20.9255581   4.5391412
 -25.8184433  22.6871471   4.3248420 -25.5498810  21.6077709   2.9237521
 -27.4818249  21.3818817   3.7255824 -28.0129452  21.4342861   4.7113056
 -27.5986176  20.3440075   3.3972762 -28.1894665  22.2466068   2.6298981
 -27.4981804  22.2472763   1.7528747 -28.1874294  23.2573795   2.9491582
 -29.6243687  21.8019905   2.2978597 -30.3138351  21.7169361   3.1239102
 -29.5187206  20.7569141   1.9464673 -30.3440189  22.6648521   1.2817621
 -30.6451817  23.5994225   1.7141728 -31.2753277  22.1404686   1.0526001
 -29.5961380  22.9736881  -0.0602399 -28.7184505  23.5562534   0.1032623
 -30.3134174  23.6778278  -0.5788665 -29.2898560  21.7565517  -0.9770476
 -30.2089863  21.1489372  -0.9983348 -28.4533291  21.1299171  -0.5697787
 -28.9466839  22.1089363  -2.4151001 -28.0660229  22.7794876  -2.4362988
 -29.8081055  22.6532917  -2.7925682 -28.7289276  20.8142128  -3.2278278
 -29.6561794  20.3573627  -3.5234013 -28.2186546  20.1178474  -2.5332663
 -27.8005829  20.9797974  -4.4316983 -27.7345734  20.0086098  -4.9243526
 -26.7925434  21.2033577  -4.1384606 -28.1285362  21.9820385  -5.5010805
 -28.4919624  22.9276867  -5.1052613 -28.9928246  21.5663166  -6.0001755
 -27.0394688  22.1928692  -6.5550814 -26.8020802  21.2589474  -7.0824223
 -26.0724277  22.4454994  -6.0438132 -27.4128036  23.3726578  -7.4812822
 -26.7264385  23.2699947  -8.3114977 -27.2802238  24.3627262  -7.0558910
 -28.8413849  23.2836800  -8.0129538 -29.5584183  23.5679169  -7.2537737
 -29.0804520  22.2786217  -8.3324156 -29.0041428  24.1705112  -9.2718430
 -28.3747978  23.7816334 -10.0517473 -28.7091484  25.2124100  -9.0333519
 -30.4622459  24.1033154  -9.7019377 -31.3815765  24.3508167  -8.9434223
 -30.6199150  23.6977310 -10.9811068 -31.8869514  23.7770824 -11.6780663
 -32.7197113  23.7692547 -10.9563179 -31.9382668  22.8564816 -12.2854128
 -31.8198395  25.1414032 -12.4050236 -32.8129845  25.3724461 -12.8380241
 -30.7436924  25.0761585 -13.5245657 -29.8829384  24.5824337 -13.1138430
 -30.4186726  26.1011791 -13.8123226 -31.2318897  24.3670635 -14.7019396
 -31.7829151  25.1549149 -16.0549278 -33.3195915  25.4936905 -15.7194538
 -33.8026810  26.8434830 -15.4528484 -33.0356178  27.3398628 -14.8160124
 -34.7174416  26.7580223 -14.8193502 -33.9914398  27.6164608 -16.7635994
 -33.1125755  27.4071198 -17.3702660 -34.0333252  28.6968117 -16.6091404
 -35.1804314  27.2557297 -17.6391811 -36.3828773  27.9903774 -17.1860962
 -36.6129150  27.5761833 -16.1470451 -37.2523804  27.8561192 -17.8986397
 -36.0760880  29.0482311 -17.1076126 -34.7534485  27.7004890 -18.9964867
 -34.0578575  27.0533199 -19.4849186 -34.3968239  28.7466640 -19.0466385
 -35.6232452  27.4987621 -19.6138649 -35.4499893  25.7671471 -17.7749729
 -34.5380135  25.2491741 -18.1751156 -36.3873062  25.6634731 -18.3209400
 -35.5904999  25.3485470 -16.7892799 -30.9735222  26.3915081 -16.2386913
 -31.8105221  24.1754513 -17.1522980 -31.3436794  26.2180920 -11.5000048
 -32.2328415  26.7749195 -10.7076502 -33.4037933  26.4406109 -10.7204056
 -31.5956860  27.9312553  -9.9137850 -30.5368500  27.6266499  -9.6783571
 -31.5326862  28.8407345 -10.5388107 -32.3188133  28.2889862  -8.5939608
 -32.1496429  29.3571930  -8.3430033 -33.4072151  28.1284218  -8.7460947
 -31.8975658  27.3699551  -7.3995252 -32.1793327  26.3672237  -7.5224690
 -30.8440304  27.4028015  -7.2974544 -32.5616837  27.9013901  -6.1251078
 -32.5582123  28.9835854  -6.2207079 -33.5930862  27.5742893  -6.1343155
 -31.8451214  27.5643635  -4.7912436 -30.9284954  28.1259899  -4.7221622
 -32.5081787  27.8238392  -3.9672401 -31.4972343  26.0769958  -4.6746798
 -32.3492508  25.3974457  -4.8017330 -30.7231617  25.8653488  -5.4563694
 -30.8276005  25.7409210  -3.3047056 -30.5356388  24.6952610  -3.2174268
 -30.0253296  26.4440765  -3.2124951 -31.8217068  25.9165573  -2.1356750
 -32.7819328  25.4025879  -2.2601426 -31.5574532  26.5317631  -0.9701976
 -32.3067627  26.6142635  -0.1993316 -30.1680984  27.0077133  -0.5625708
 -29.3475647  26.5658264  -1.1607405 -30.0643902  28.0699368  -0.7741047
 -29.9230747  26.6978626   0.9281081 -30.8437519  26.9742565   1.5484440
 -29.8161354  25.6215649   1.0145495 -28.6051254  27.3153667   1.4342654
 -28.4451771  28.3168259   1.0332371 -28.6435528  27.3250980   2.5581465
 -27.4244671  26.4294472   0.9858456 -27.5957146  25.3872757   1.2750875
 -27.2576618  26.4804173  -0.0865883 -26.0755749  26.8628674   1.6081660
 -25.2050018  26.3830738   1.1036999 -25.9128361  27.9471474   1.4482362
 -25.9788780  26.5889359   3.1250896 -26.6222420  27.2667599   3.6153893
 -26.3812046  25.6472378   3.4510717 -24.5647411  26.8728809   3.7157214
 -24.0525360  27.7268429   3.2643871 -24.6111965  27.1045017   4.7631545
 -23.6776009  25.6419258   3.6023524 -22.7747650  25.7246208   4.2257957
 -23.3966236  25.4859524   2.5623810 -24.3087597  24.7695637   3.8948994
 -34.4094620  23.0927467   0.1027481 -34.9236450  24.0177574   0.0862194
 -33.4985733  23.2381325   0.7170358 -35.0818939  22.3267384   0.5519939
 -34.0706558  22.6416950  -1.3369900 -33.4288712  23.4279652  -1.7974551
 -35.0360069  22.5654259  -1.8249010 -33.2273407  21.3608913  -1.5198553
 -33.8227882  20.5465050  -1.1635867 -32.3857994  21.5611916  -0.8596990
 -32.7787628  21.0238552  -2.9891560 -31.8868713  20.3891735  -2.9634881
 -32.4093933  21.8992786  -3.5098288 -33.8436890  20.2774792  -3.9131293
 -33.9715996  19.2193947  -3.6103406 -33.4240952  20.2628422  -4.8799653
 -35.2229080  20.9412766  -4.0061665 -35.1561584  21.9368725  -4.2514915
 -35.5454102  20.9178772  -2.9633567 -36.2782784  20.1651287  -4.8066540
 -37.2550316  20.6651325  -4.6174965 -36.4127274  19.1311150  -4.4852028
 -36.0037842  20.1955967  -6.2980862 -35.1415901  19.5739136  -6.5040774
 -35.7235146  21.1865158  -6.6030788 -37.3064117  19.6989231  -7.0150142
 -38.0691681  20.4407482  -6.7636347 -37.6377563  18.7616177  -6.5373135
 -37.2155380  19.5809555  -8.5461483 -38.2065620  19.2449150  -8.8782768
 -36.4764938  18.8519497  -8.8413725 -36.9810486  20.9275360  -9.2690248
 -36.0117874  21.3677197  -8.9413757 -37.7564545  21.6013317  -9.0303249
 -37.1212845  20.7255287 -10.7793417 -38.0723114  20.2729244 -10.9775105
 -36.3915329  19.9830227 -11.1608210 -36.8345490  22.0110493 -11.4973440
 -35.8017769  22.3234081 -11.5180864 -37.3904305  22.7542000 -10.9561834
 -37.4593391  21.8946247 -12.8424025 -38.5338402  21.7195816 -12.6536455
 -36.9827232  21.0751038 -13.4267941 -37.2889252  23.1379967 -13.7159271
 -37.7065239  24.0222092 -13.1813574 -37.8874779  22.9929256 -14.6404705
 -35.8508453  23.3057480 -14.1539774 -34.9957886  23.7831974 -13.4792938
 -35.6733093  22.7520008 -15.3647060 -34.3112526  22.5522251 -15.8178225
 -33.5723267  22.8158989 -15.0790691 -34.0546875  23.1138840 -16.7200260
 -34.0255280  21.0132504 -15.9193792 -32.9651451  20.9761086 -16.3319569
 -34.9678841  20.3497295 -16.9532833 -35.0524864  20.8401279 -17.9179630
 -36.0122795  20.3068066 -16.5602894 -34.4585571  18.9892406 -17.1743374
 -33.7233124  18.4835129 -18.5700645 -32.2416992  19.1323643 -18.5042744
 -31.9686298  20.4707699 -18.9834671 -31.6170788  21.1249466 -18.1598377
 -32.8370209  20.9465580 -19.3745155 -30.8524551  20.4711132 -20.0148239
 -29.9836159  19.9110298 -19.6360283 -30.4936905  21.5160599 -20.2133179
 -31.0506229  19.8640099 -21.3680534 -32.1640778  20.5676250 -22.1205788
 -33.0026398  20.3939247 -21.4997082 -32.2371826  20.1652126 -23.1225853
 -31.9766140  21.6478748 -22.1357536 -29.7729568  20.0726738 -22.1408176
 -28.9736195  19.6038609 -21.5658932 -29.4944572  21.0977974 -22.3208847
 -29.8076668  19.6112537 -23.1463528 -31.4185257  18.4420128 -21.3196106
 -31.1716003  18.1326790 -20.3116207 -30.9031219  17.9356384 -22.1028423
 -32.5027237  18.3411083 -21.3897324 -33.4993019  16.9832764 -18.4600792
 -34.5081902  19.0411167 -19.7284241 -34.1051331  20.4152603 -14.5653648
 -33.1509857  19.5317230 -14.1523647 -32.1223297  19.2993622 -14.7225037
 -33.4887390  18.9424210 -12.7729530 -34.5440903  18.6232204 -12.7696753
 -32.8488197  18.0483017 -12.6080170 -33.1268768  20.0775795 -11.7779217
 -32.2552757  20.6206036 -12.0965853 -33.9396362  20.8319263 -11.6581526
 -32.7762718  19.4441071 -10.4010401 -33.6646652  18.9411469  -9.9696817
 -31.9909458  18.6689529 -10.4970894 -32.4147072  20.5743294  -9.4127378
 -31.9306107  21.4154472  -9.9175968 -33.2847900  21.0142021  -8.9796867
 -31.4807301  20.1849194  -8.2446671 -30.5200291  20.0724411  -8.6960459
 -31.3812237  21.0616894  -7.6098471 -31.9596977  18.9700146  -7.4487076
 -33.0194397  19.2300205  -7.3002934 -31.9005203  18.0610733  -8.0490007
 -31.2214584  18.8070469  -6.1448259 -30.9426155  19.7411079  -5.7837934
 -31.8680401  18.3840904  -5.4107399 -29.9695435  17.9822750  -6.3549585
 -29.5338230  17.9819946  -7.3226304 -29.4348354  17.1686630  -5.4268990
 -28.6450996  16.4680901  -5.7191448 -29.9638786  16.9379959  -4.0036783
 -30.6052094  17.7430515  -3.6504660 -30.4961815  16.0015411  -3.9647064
 -28.7876682  16.8146725  -3.0419538 -28.2091827  16.0694141  -3.5894728
 -28.1937981  17.7292690  -3.0193381 -29.0643291  16.3642006  -1.5727229
 -29.6469975  15.4326591  -1.5154364 -28.1965046  16.2485828  -1.0040061
 -29.8643761  17.4550133  -0.9528010 -29.2358627  18.3646564  -1.0306276
 -30.8231716  17.7170391  -1.5067520 -30.3040924  17.0308971   0.4733145
 -30.9638252  16.1832714   0.3610986 -29.4186134  16.7137260   1.0617468
 -31.0383797  18.1473961   1.2000756 -30.3892975  18.9874020   1.2802647
 -31.8848267  18.4598160   0.5512319 -31.6420460  17.8481789   2.6132216
 -32.2928543  18.6647682   2.9622099 -32.2597275  16.9728889   2.4841692
 -30.7020931  17.4926319   3.7697339 -31.3154907  17.0985336   4.5474238
 -30.1408176  18.3446903   4.1152062 -29.9949245  16.7631512   3.4548407
 -15.5143843  30.9734554  -1.9111478 -14.6528139  30.6277943  -2.4750142
 -15.3781223  30.6551285  -0.8980575 -15.5980053  32.0272942  -2.0558155
 -16.7493420  30.3487091  -2.5221179 -16.6114712  29.2580395  -2.6247048
 -16.8607445  30.7396889  -3.5311942 -18.0790062  30.5568714  -1.6973287
 -17.9288960  30.1762791  -0.6858689 -18.8700714  29.9912052  -2.1105609
 -18.4396076  32.1040344  -1.6384357 -17.6161957  32.6179924  -1.0811604
 -19.3944817  32.1527901  -1.1436821 -18.5498352  32.6939087  -3.0413387
 -17.5124130  32.8487511  -3.3891723 -18.9384060  33.7135239  -2.9661629
 -19.3722134  31.8391876  -4.0261278 -20.3368473  31.6214600  -3.5486877
 -18.8785439  30.8522587  -4.1411324 -19.6286354  32.4953117  -5.3876324
 -20.4415722  33.2224808  -5.3468604 -20.0212841  31.7279282  -6.0273461
 -18.3623466  33.1350784  -5.9869761 -17.6363354  32.3733292  -5.9424467
 -18.0128269  33.9868164  -5.4045544 -18.4907608  33.5413551  -7.4978900
 -19.2434788  34.3188896  -7.6686521 -18.8023014  32.6665535  -8.0405931
 -17.1712971  33.9586029  -8.1064692 -16.4345093  33.1340446  -8.0840483
 -16.7348270  34.7719383  -7.5157876 -17.2987919  34.4088287  -9.5926094
 -17.7942257  33.5682068 -10.0257683 -16.3002033  34.5040855  -9.9322271
 -18.1443005  35.7015610  -9.8130884 -17.7523842  36.5156403  -9.2256947
 -19.1447811  35.5306664  -9.5241432 -18.0438042  36.2285843 -11.2689705
 -18.5281105  35.4652367 -11.8601799 -16.9813690  36.2814369 -11.6189251
 -18.7443199  37.5454903 -11.6111774 -19.7927170  37.3925514 -11.3310490
 -18.7554283  37.7139702 -12.6621580 -18.2105522  38.8089333 -10.9421530
 -17.1871834  38.8838043 -11.2205210 -18.1607265  38.8898392  -9.8619633
 -18.9276829  39.9732246 -11.4943161 -19.9821644  40.3816032 -11.0187569
 -18.3313408  40.5324516 -12.5679770 -19.0036716  41.5842018 -13.2992077
 -18.2963905  42.2503433 -13.8283148 -19.6214695  42.1929741 -12.5626383
 -19.9683418  40.9322929 -14.3439140 -19.4646301  40.0994568 -14.8268328
 -20.5042114  41.9888496 -15.3889122 -21.1968117  41.4768829 -16.1166496
 -19.7091045  42.3859367 -16.0081272 -21.2149029  43.1341133 -14.8363161
 -22.7664471  43.1706200 -14.4121799 -22.6102848  42.9492950 -12.8161259
 -21.8804283  43.8903008 -11.9771156 -21.4612217  44.6364212 -12.6094933
 -21.0957050  43.2664719 -11.4717522 -22.7034740  44.5126305 -10.8393526
 -23.5030270  45.1132011 -11.2389765 -22.0748329  45.1575699 -10.2625751
 -23.3585014  43.5796890  -9.8547468 -22.3810673  42.5989342  -9.2504683
 -21.9364567  42.0774231 -10.0878773 -22.9788189  41.8796005  -8.6900949
 -21.6488628  43.0533028  -8.6015692 -23.9883728  44.3843040  -8.7240543
 -24.5914764  45.1986160  -9.1156759 -23.1917019  44.8276901  -8.1382360
 -24.5979900  43.7654457  -8.0144453 -24.4618587  42.8575211 -10.5841970
 -25.1027660  43.5687599 -11.0961447 -25.0343113  42.2460632  -9.8594894
 -24.0125256  42.2075615 -11.3601694 -23.3010674  44.5742798 -14.5873594
 -23.4650078  41.9764671 -14.9990225 -21.0393314  40.3960648 -13.5862341
 -21.7699032  39.3743553 -14.0426970 -21.5266438  38.7735329 -15.1036940
 -22.9684639  39.1426277 -13.1748438 -22.9157257  39.8127594 -12.2872267
 -23.8907547  39.4436340 -13.6814966 -23.0020905  37.6751633 -12.7061853
 -22.9990177  37.0207901 -13.5784721 -22.0726013  37.4954643 -12.1707497
 -24.2504406  37.2109833 -11.9058561 -25.0747280  37.4885216 -12.6003799
 -24.1323280  36.1300812 -11.8131542 -24.4666023  37.8820457 -10.5518713
 -24.3919086  38.9795990 -10.7003937 -25.4857330  37.6550217 -10.2065039
 -23.5976982  37.4102783  -9.3616686 -24.2339306  37.4924927  -8.4866676
 -23.3201408  36.3961372  -9.5537128 -22.2676563  38.1548271  -9.2028618
 -21.5871124  37.8776741  -9.9918289 -22.4180012  39.2387238  -9.2310085
 -21.6005211  37.8769608  -7.8534074 -22.2849693  38.0097923  -7.0544596
 -21.2905674  36.8121338  -7.8375335 -20.4881763  38.8412323  -7.6957960
 -20.8048706  39.8644028  -7.9615684 -19.3088703  38.6445160  -7.1856542
 -18.6554165  39.5238953  -7.0831985 -18.7083778  37.2849770  -6.7308974
 -19.3210201  36.4146042  -6.9708109 -17.7074718  37.1936111  -7.2164879
 -18.3814125  37.1648750  -5.2166901 -17.7822380  36.2705154  -4.9875946
 -17.6866112  38.0263100  -4.9196095 -19.6188755  37.2915230  -4.2985744
 -19.1966934  37.1329155  -3.2876155 -20.0219173  38.2933464  -4.2921271
 -20.7330360  36.2208786  -4.5701995 -21.2134724  36.4910812  -5.5257702
 -20.2683735  35.2547226  -4.6718636 -21.7776337  36.2894363  -3.4247828
 -21.2721558  36.2073288  -2.3969760 -22.3653107  37.1943626  -3.4677932
 -22.7484207  35.1296272  -3.4013500 -23.6945896  35.3550186  -2.8408766
 -23.0563660  34.9760361  -4.4389400 -22.1478462  33.8636055  -2.7120523
 -22.6026077  32.8796806  -2.9611139 -21.1264591  33.8825264  -3.0218589
 -22.0303268  33.8828545  -1.1635358 -22.9719143  34.2538033  -0.7679600
 -21.2615623  34.6325607  -0.8923402 -21.8001652  32.8952560  -0.7273676
 -16.2503090  38.4702606  -0.2768307 -16.6705112  38.3605614   0.7416651
 -16.9821854  38.1462708  -1.0241317 -16.0529652  39.5519943  -0.4404382
 -14.9334288  37.6229477  -0.4196974 -15.0745382  36.6452065  -0.0153372
 -14.2289639  38.0365181   0.2901550 -14.3055010  37.5046577  -1.8655376
 -13.3345146  36.9997864  -1.7507570 -14.0614815  38.4712372  -2.2941053
 -15.2475834  36.6590080  -2.7725015 -16.2144070  37.1040001  -2.8242812
 -15.3872252  35.6636162  -2.3365905 -14.7592249  36.4657555  -4.2341890
 -14.4276991  37.4507751  -4.6237774 -15.5809011  36.1121826  -4.8670049
 -13.5954666  35.5319176  -4.3591518 -12.7484121  35.8292542  -3.7014925
 -13.2368517  35.6253471  -5.3491926 -14.0277281  34.0662689  -4.1026459
 -14.8294506  33.8662033  -4.8521891 -14.4666634  33.9797935  -3.1301999
 -12.9586639  33.0280151  -4.1753335 -13.3630190  32.0094147  -4.0870390
 -12.2349663  33.2381287  -3.3798223 -12.0585957  33.0699692  -5.4487443
 -11.3549538  32.2972641  -5.3431029 -11.5661488  34.0510902  -5.5250092
 -12.8094482  32.8197784  -6.8345375 -13.7958136  33.1836243  -6.7507000
 -12.7981567  31.7046909  -6.8999605 -12.0943203  33.2987366  -8.1217442
 -12.0144987  32.4139290  -8.7811108 -11.0485544  33.7111435  -7.8975115
 -12.9136572  34.3551865  -8.8932648 -13.8512888  33.9196205  -9.1391020
 -12.4536266  34.6786156  -9.8396940 -13.1608438  35.5474854  -7.9603453
 -12.2663202  35.8384933  -7.4202800 -13.9123955  35.3165169  -7.1848149
 -13.7543888  36.7642326  -8.7374392 -14.4939432  36.4532890  -9.4860573
 -12.8634634  37.2173805  -9.2372427 -14.3467417  37.8239861  -7.8632956
 -13.7303839  37.9815140  -6.9923635 -15.3354492  37.5808182  -7.5503941
 -14.3891611  39.1725311  -8.5206881 -13.9308414  40.1687241  -7.9611249
 -14.9143085  39.0943832  -9.7351665 -14.4330616  40.0255585 -10.7625027
 -14.3391123  41.0492325 -10.4087925 -15.2026711  40.1499252 -11.5445004
 -13.1372728  39.5629578 -11.4284983 -12.7769966  40.3493843 -12.1165943
 -13.3622446  38.3011513 -12.2751036 -13.9113579  37.5410423 -11.6751242
 -12.4100294  37.8933487 -12.5128365 -14.1452799  38.5875130 -13.5119286
 -13.5115671  39.3569527 -14.8307457 -13.1807127  40.8116760 -14.2228899
 -14.2452612  41.7859802 -14.1228790 -15.1096268  41.2536392 -13.6344280
 -14.5130453  42.1772804 -15.1475706 -13.7459679  42.9177666 -13.1657410
 -13.2191267  42.4272728 -12.2960987 -14.6036139  43.4818497 -12.8345156
 -12.7937527  43.9704971 -13.6927357 -13.3929491  44.6300507 -14.9110527
 -13.5224304  43.9052620 -15.7117071 -12.6311073  45.3249321 -15.2669106
 -14.2734003  45.1042786 -14.5456400 -12.6383009  45.0570068 -12.6666918
 -12.4453869  44.6079254 -11.7118559 -13.4913731  45.7267342 -12.6812382
 -11.7795744  45.6715355 -12.9356518 -11.4766169  43.3114967 -13.9821482
 -11.2237797  42.6493607 -13.1961060 -10.7673693  44.1093979 -14.0662041
 -11.6123571  42.6682434 -14.8735657 -12.2439442  38.6599045 -15.2672281
 -14.6924458  39.4489708 -15.7537327 -12.0750542  39.2669525 -10.4785051
 -11.2913246  40.3079643 -10.0464621 -11.5239248  41.5021095 -10.3203878
 -10.0719547  39.8285637  -9.2424412  -9.4720135  39.0870743  -9.7937126
  -9.4161358  40.6670227  -9.0243921 -10.4187098  39.2147713  -7.8989458
 -11.0737791  39.8744125  -7.3597317 -10.9679050  38.2732162  -7.9444122
  -9.1293335  38.9425240  -7.0602531  -8.5918684  38.0733719  -7.4667602
  -8.4744158  39.8293648  -7.1105218  -9.4604006  38.6695518  -5.5996604
  -8.5406628  38.8005333  -5.0670786 -10.1144619  39.4274559  -5.1850948
 -10.0037966  37.2126312  -5.3085384 -10.9771452  37.2237244  -5.7166224
  -9.3972158  36.4522095  -5.7860188 -10.0196323  36.7620621  -3.8067148
 -10.5136881  35.7565880  -3.6684537  -9.0044327  36.7271500  -3.3755102
 -10.8520126  37.6794586  -2.9208539 -11.6942329  38.0667191  -3.4838831
 -11.3402386  37.0071297  -2.2152529 -10.0516796  38.7535706  -2.2230408
  -9.4479570  39.3935242  -2.9050756  -9.9527121  38.8888016  -0.9093249
  -9.3106689  39.6398773  -0.5352641 -10.7935257  38.1941261   0.1558693
 -11.3109741  38.9319954   0.7919311 -11.6174908  37.6031723  -0.2360520
  -9.8806105  37.3447533   1.0347189  -9.3785419  36.6066780   0.4342052
  -9.1082821  37.9524193   1.5187614 -10.6755104  36.4907837   2.0966806
 -11.2418041  37.1329956   2.8114476 -11.3778677  35.9057808   1.4817880
  -9.8047371  35.4971848   2.8924475 -10.5306072  34.8209572   3.3775327
  -9.2001476  34.8651123   2.2570565  -8.9156055  36.2739716   3.9133885
  -8.3012619  36.9543228   3.3352122  -9.6240911  36.8616371   4.5092793
  -8.1140881  35.3280334   4.8054862  -7.5097890  34.7063103   4.0938087
  -7.4110217  35.8555031   5.5044947  -8.9494648  34.3487129   5.5915852
  -9.5112476  33.7160988   4.8535962  -8.3162479  33.6522141   6.1647148
  -9.9413280  35.0632401   6.5306907 -10.5020857  34.3503036   7.1045494
 -10.6537046  35.6668129   5.9949789  -9.4055462  35.6912003   7.2709246
  16.7689533   3.9740956   0.6631113  16.1230755   4.2948675   1.4863896
  17.5215607   4.7829723   0.4488932  17.2952881   3.0884421   1.0021522
  15.9951725   3.6671689  -0.6456984  15.4318762   4.5201440  -0.9507698
  15.2695389   2.8432593  -0.4534137  16.9548016   3.3292208  -1.8145775
  17.4854965   2.4339719  -1.5009509  17.6977768   4.0795050  -1.9097662
  16.2483311   3.0147510  -3.1303983  15.3932667   2.3952086  -2.9621496
  16.8169498   2.3411589  -3.7344017  15.8302727   4.2790804  -3.8720021
  16.7053814   4.8477974  -4.1150093  15.2859221   4.8456368  -3.0962431
  14.9541960   4.0684853  -5.0974202  14.0727329   3.5095215  -4.8204274
  15.5133648   3.4520087  -5.8197575  14.5313749   5.3949718  -5.6875772
  15.4211102   5.9313631  -5.9623070  14.0419445   5.9112768  -4.8395395
  13.6212053   5.2942710  -6.9285688  13.2924461   6.2933822  -7.1526699
  12.7060909   4.7043114  -6.7449207  14.3223572   4.6924186  -8.1732206
  14.6396055   3.6248422  -8.0033340  15.1973448   5.3028488  -8.4130373
  13.4172812   4.7542887  -9.4366350  13.2173500   5.8104153  -9.7623777
  12.4724045   4.2788553  -9.1113605  13.9633865   3.8575003 -10.5786123
  13.0871544   3.7343934 -11.2425175  14.2539892   2.8813932 -10.2799978
  14.9674711   4.6023564 -11.4535484  15.9348192   4.7852292 -10.9560108
  14.5684185   5.6218061 -11.6954718  15.1094303   3.8333604 -12.8087387
  14.1547003   3.6237206 -13.2971478  15.4602394   2.8351116 -12.5422478
  16.0428085   4.4424663 -13.8690710  16.0426826   3.7696323 -14.7354040
  17.0529346   4.4772635 -13.4054079  15.6315145   5.8376656 -14.3527641
  15.5844641   6.4884348 -13.4497652  14.6643057   5.8205552 -14.8321333
  16.6334362   6.3968611 -15.3086605  17.7614574   6.6888280 -14.9786177
  16.1208897   6.5024133 -16.5781403  17.0273380   6.5863280 -17.7044926
  17.9179668   7.1700211 -17.3900585  16.5721817   7.1502275 -18.5382557
  17.4531326   5.1408620 -18.1896019  18.1312752   5.2250834 -19.0708828
  16.2333508   4.1918974 -18.4639950  15.5543766   4.6460719 -19.1671848
  15.7059908   4.0144291 -17.5446491  16.7055626   2.8985953 -19.0141144
  15.6336031   1.7532527 -19.3649673  16.6096611   0.4965807 -19.6416550
  17.4195690  -0.0844608 -18.5815239  17.6067238  -1.1301206 -18.7419052
  16.7853012   0.0267156 -17.6732693  18.7589092   0.6454298 -18.4114666
  19.2786846   0.2076714 -17.5705318  18.5291500   1.7145598 -18.1941586
  19.7259521   0.5664632 -19.5165024  19.3192692   1.2563999 -20.7753067
  18.5492134   0.6635088 -21.2454872  20.1440086   1.3400702 -21.4589024
  19.0942593   2.3198829 -20.5764751  20.9387436   1.3301109 -19.0459461
  21.2026386   0.9532405 -18.0593071  20.6715469   2.3706977 -18.9530087
  21.7932625   1.1832765 -19.6939068  20.0904751  -0.8612102 -19.8218994
  20.4583149  -1.3695358 -18.9616489  20.8564472  -0.8379123 -20.6008053
  19.2005138  -1.3779695 -20.2654495  14.8564014   1.4048510 -18.1667938
  14.9871550   2.0804760 -20.6405563  18.2463818   4.5605388 -17.1487160
  19.5960426   4.6536913 -17.1215153  20.2653294   5.3040338 -17.9034386
  20.1830502   3.7267838 -16.0831528  19.7973099   2.6973703 -16.1821575
  21.2587528   3.8164427 -16.0514755  19.6982689   4.2076631 -14.7076530
  19.6334820   5.2844524 -14.6680155  18.6899719   3.7947989 -14.5507526
  20.5268574   3.7102780 -13.4711227  20.7274437   2.6842878 -13.5725613
  21.4979343   4.2385659 -13.5186472  19.8250561   4.0136142 -12.1387911
  18.8428917   3.5431063 -12.1248140  20.4011517   3.4805584 -11.3742409
  19.6888466   5.5053515 -11.8624363  20.6218452   5.9805770 -11.8466768
  19.0690880   5.9958725 -12.6277981  18.9572792   5.6647739 -10.4355659
  17.9944630   5.1644773 -10.3983364  19.6393909   5.3436618  -9.6772928
  18.7103539   7.1774430 -10.1438847  18.4419956   7.6621971 -11.1353731
  17.8419533   7.2283812  -9.5020409  19.9602909   7.7108259  -9.5628309
  20.8201447   7.1233950  -9.8210678  20.1213951   8.7925138  -8.8489742
  21.1578922   8.9938831  -8.6237392  19.1317215   9.8203115  -8.4036617
  19.6232147  10.7540369  -8.1169710  18.4956741  10.1324549  -9.2979584
  18.1687660   9.3776045  -7.2535729  17.3403759  10.1170101  -7.1986575
  17.8040390   8.4011116  -7.5778122  18.7359924   9.1705723  -5.8290267
  19.6779232   8.7248335  -5.8103352  18.7637119  10.1955976  -5.4323411
  17.7855148   8.2625208  -4.9796095  16.7791481   8.6160021  -5.2050133
  18.0131359   7.2706232  -5.2689409  17.9349060   8.3155613  -3.4937916
  17.8579159   9.3819714  -3.2139328  17.1045227   7.7577076  -2.9940784
  19.3167076   7.8022785  -2.9920468  19.5228138   6.8766022  -3.4993091
  20.1255245   8.4637146  -3.2532976  19.4508247   7.5600338  -1.4862735
  18.8931885   6.6805882  -1.1275994  20.4810944   7.3566580  -1.3157289
  19.0608921   8.7914448  -0.6819659  19.3001957   8.7257385   0.3706500
  18.0291328   9.0411425  -0.8150110  19.6866512   9.6125307  -1.0742815
  -9.1313887  25.2018528  -1.4693974  -8.6582670  24.2152882  -1.2547385
 -10.0928583  25.2688389  -0.9273025  -8.5109892  26.0258656  -1.1208175
  -9.2969694  25.2686958  -2.9820600  -9.8752480  24.3874245  -3.3194757
  -8.3374672  25.2220249  -3.4395216  -9.9739285  26.5257282  -3.4555736
  -9.9866285  26.5257664  -4.5495329  -9.3860197  27.4028091  -3.2006431
 -11.3678207  26.7709427  -2.9290943 -11.2937746  26.9713593  -1.8507986
 -12.0198908  25.9230442  -3.1004291 -12.0475826  28.0357361  -3.5251496
 -11.3285151  28.8127518  -3.3460453 -12.9476681  28.2459850  -2.9428797
 -12.4037313  27.9782372  -4.9688869 -13.0024376  27.0939713  -5.1570320
 -11.4761105  27.8460903  -5.5589991 -13.0967445  29.2501354  -5.5142174
 -12.9858818  29.2127495  -6.5814185 -12.5413370  30.0926762  -5.1459217
 -14.5725784  29.3686085  -5.1357107 -14.8081932  30.4336071  -5.1191802
 -14.6823587  29.0345078  -4.0935030 -15.5063820  28.7298222  -6.1414299
 -15.1820745  27.7053261  -6.4660001 -15.4668083  29.3740253  -7.0430737
 -16.9457626  28.5866203  -5.6338077 -17.1955528  29.6352692  -5.3285689
 -16.9844017  27.9387646  -4.7350054 -18.0491600  28.0930443  -6.6409407
 -18.9665966  28.1175404  -6.0570788 -17.9150410  27.0139599  -6.8531370
 -18.3146744  28.8346844  -7.9679852 -17.3545723  28.8561516  -8.4535074
 -18.6497154  29.8239040  -7.8014870 -19.2966557  28.1240501  -8.9178495
 -19.3330784  28.7330132  -9.7657957 -20.3118057  28.1539936  -8.5012445
 -18.9512672  26.7042561  -9.4105062 -19.9163990  26.2404327  -9.6610785
 -18.5316505  26.1044960  -8.5845652 -18.0982189  26.6087189 -10.7082806
 -17.6448078  25.6042938 -10.8014336 -17.3566742  27.4547577 -10.6721458
 -18.9021072  26.7172241 -11.9250832 -19.2464218  25.7656898 -12.5999107
 -19.3728428  27.9720020 -12.1305952 -20.1682186  28.2879238 -13.3654156
 -21.1281967  27.7876778 -13.3316917 -19.6182995  27.9729671 -14.2632570
 -20.2883892  29.8546486 -13.3549223 -20.8245831  30.1261311 -12.4595060
 -21.0844536  30.4471569 -14.5682735 -20.7831173  31.5092354 -14.7283287
 -22.1639042  30.3853645 -14.3436642 -20.9142570  29.6821690 -15.7432280
 -19.5744915  29.8934269 -16.6945305 -18.4083481  28.9548340 -16.0244064
 -17.0637970  29.1681480 -16.4094315 -16.7850418  30.2189903 -16.2341537
 -17.1168556  29.0506649 -17.4775581 -16.0747166  28.1684399 -15.8575201
 -15.9991207  28.4128399 -14.7779408 -15.0878668  28.3286324 -16.2770748
 -16.2965088  26.6715126 -15.9962769 -16.2160263  26.2911205 -17.4308891
 -17.0795517  26.5642586 -18.0534477 -16.0421963  25.2312508 -17.4373932
 -15.2726984  26.7202168 -17.7750378 -15.2386703  25.9446888 -15.2829351
 -15.4368391  26.0454979 -14.2341051 -14.2661753  26.2887745 -15.5633640
 -15.3805733  24.9215889 -15.6344995 -17.5499153  26.1643391 -15.3832140
 -17.5280819  26.4704914 -14.3393822 -17.6711502  25.1254635 -15.5450621
 -18.3328018  26.5990257 -15.9783020 -19.9132156  29.3423824 -17.9992504
 -19.1476326  31.3365078 -16.5521011 -18.9280815  30.4114532 -13.2386866
 -18.7275944  31.5405483 -12.5929375 -19.6741829  32.1685867 -12.1306715
 -17.2554283  31.8875141 -12.4331722 -16.7430286  31.6585388 -13.3724499
 -17.1314564  32.9714355 -12.2344303 -16.6919289  31.0832291 -11.2795734
 -17.3175297  31.2734203 -10.3910198 -16.8381100  30.0349636 -11.4156570
 -15.1967249  31.4553719 -11.0565233 -14.6998749  31.1237621 -11.9350376
 -15.0459623  32.5427742 -11.0084877 -14.5973969  30.9064274  -9.8051434
 -13.6389818  31.3180523  -9.6377869 -15.2791548  31.1757450  -9.0211849
 -14.4668531  29.3806248  -9.6797237 -14.2998829  29.0490265  -8.6659918
 -15.3419542  28.9603634 -10.0526352 -13.2372189  28.7701321 -10.3622742
 -13.2640409  28.8448639 -11.4785500 -12.3798361  29.3715267 -10.0359354
 -12.9892740  27.2612858 -10.0967655 -12.0048771  27.1156311 -10.5024166
 -12.9147968  26.9918251  -9.0175705 -13.9394703  26.4010048 -10.8832979
 -14.1503325  26.6922016 -11.9302330 -14.6391029  25.4031487 -10.3580112
 -15.4591084  24.8654251 -10.8804607 -14.3637857  24.7477722  -9.0113697
 -14.2983570  23.6844902  -9.1411762 -13.4284019  25.0471401  -8.5748215
 -15.5622540  25.0005646  -8.0634775 -15.5767765  26.0710335  -7.8229260
 -16.4689217  24.7839069  -8.5990677 -15.5300989  24.1702728  -6.7576432
 -16.3713951  24.4161987  -6.1040444 -15.5612812  23.0931664  -6.9639587
 -14.2569447  24.5184212  -5.9521623 -13.3698359  24.1893120  -6.4990625
 -14.1477814  25.6293983  -5.9009910 -14.2743502  23.9055805  -4.4955201
 -14.3234682  22.8245907  -4.5398026 -13.2871141  24.1650772  -4.1290131
 -15.4004183  24.4069080  -3.4888575 -16.3490410  24.1835766  -4.0028458
 -15.3718281  23.7707424  -2.6331294 -15.3927326  25.8687248  -3.1732569
 -14.3789434  26.0763760  -2.8023193 -15.5140114  26.4523544  -4.0811815
 -16.4628124  26.2493229  -2.1678278 -17.4749870  26.0193844  -2.5320258
 -16.3009491  25.6005688  -1.3030957 -16.4211178  27.2920837  -1.8306397
 -24.3614464 -20.7956352   1.4638054 -24.3558731 -19.7762241   1.0548944
 -25.1285210 -20.9476757   2.2278748 -24.6026154 -21.4637737   0.6639764
 -22.9372997 -21.1876850   1.9904304 -22.5349026 -20.4990234   2.7698522
 -22.3001270 -21.2545490   1.0979071 -22.9779167 -22.6387100   2.5978124
 -23.6590576 -22.6232738   3.4731042 -22.0302181 -22.7965717   3.0612590
 -23.3128757 -23.7857742   1.5709101 -24.4161320 -23.7474327   1.3788663
 -23.1101151 -24.7905941   1.9179367 -22.5998859 -23.6021519   0.2019556
 -21.5353565 -23.4117241   0.3585605 -23.0136909 -22.6557045  -0.1918294
 -22.7820568 -24.6964760  -0.8634349 -22.2025471 -25.6002407  -0.5548088
 -22.3577995 -24.3600941  -1.8111037 -24.2197399 -25.1179695  -1.1628695
 -24.6349564 -25.6305428  -0.3151555 -24.1856956 -25.8223629  -2.0042248
 -25.1933651 -24.0519257  -1.5924765 -25.3090839 -23.4130516  -0.7711434
 -26.1410313 -24.4989414  -1.8439591 -24.7835903 -23.0550365  -2.6954536
 -23.7235298 -22.6992912  -2.5278888 -25.4053383 -22.1538563  -2.6039462
 -24.9704342 -23.5625744  -4.1415801 -26.0121422 -23.7026100  -4.3262925
 -24.5003624 -24.5464878  -4.1595926 -24.3586369 -22.6323109  -5.1739888
 -24.4175262 -23.1631966  -6.1325860 -23.3125706 -22.4868793  -4.9915833
 -25.0797558 -21.2608509  -5.2836947 -24.9384670 -20.7996826  -4.2917686
 -26.1529388 -21.3383980  -5.5213785 -24.4170227 -20.3858452  -6.3550806
 -23.4177380 -20.1575546  -5.9954281 -25.0102406 -19.4888668  -6.4258237
 -24.2959137 -21.0107117  -7.7457290 -23.6681194 -21.8983116  -7.6813231
 -23.6969833 -20.3290348  -8.3774033 -25.5683403 -21.3548260  -8.5490723
 -26.2652397 -20.5105247  -8.6446276 -26.2045650 -22.1524143  -8.0797014
 -25.1511421 -21.8482876  -9.8998013 -24.6954651 -22.9665661 -10.1237974
 -25.2762241 -20.9209175 -10.8277950 -24.7967815 -21.1376019 -12.2096386
 -25.3894310 -20.4448586 -12.8265848 -25.0226612 -22.1497326 -12.5555754
 -23.3142681 -20.7690926 -12.4064207 -22.9928570 -19.7947216 -11.9264507
 -23.1552200 -20.5654697 -13.8941135 -23.7091827 -19.6788845 -14.2759943
 -23.5892525 -21.4375324 -14.3491650 -21.7741566 -20.4871254 -14.3057442
 -21.4015236 -20.6001129 -15.8467188 -21.3228397 -22.1637897 -16.0790043
 -21.3266754 -22.6463928 -17.4752541 -20.8980255 -21.9214363 -18.1914597
 -22.3960495 -22.8409004 -17.6875324 -20.4889679 -23.9119148 -17.5820961
 -20.4634399 -24.2329617 -18.6139526 -20.8602905 -24.7072811 -16.9336605
 -19.0276871 -23.9024067 -17.2257023 -18.8385029 -23.9694672 -15.7632208
 -19.2780399 -23.0631466 -15.2529001 -17.7578964 -24.1520329 -15.5250635
 -19.3942966 -24.8323269 -15.4548826 -18.5231647 -25.1597519 -17.8279514
 -18.8389339 -25.1709385 -18.8673820 -18.9171009 -25.9897823 -17.2548504
 -17.4276619 -25.0741978 -17.8066998 -18.3230171 -22.7038403 -17.6909485
 -18.6198597 -22.5379734 -18.7616863 -17.2736950 -22.8043404 -17.5386162
 -18.6110382 -21.8416576 -17.0340996 -22.5563354 -20.0522137 -16.6406803
 -20.0461216 -20.0146675 -16.0546074 -22.4698906 -21.9057159 -12.0399342
 -21.5414734 -21.7228508 -11.0976114 -21.3289948 -20.6760101 -10.4864206
 -20.7974339 -23.0444565 -10.8519258 -21.5481472 -23.8189220 -11.0723104
 -20.0688934 -23.0975342 -11.6090307 -20.2748871 -23.1564884  -9.4272366
 -19.3276062 -22.6418095  -9.3284798 -20.9681740 -22.6525421  -8.7898216
 -20.0720711 -24.5971966  -8.8423929 -20.9414673 -25.1925640  -9.0049601
 -19.3252144 -25.1198559  -9.4692116 -19.6950226 -24.5232868  -7.2999392
 -19.2578964 -25.5000381  -7.0859175 -18.9672050 -23.6985569  -7.0849032
 -20.9876614 -24.3804531  -6.4901466 -21.5838795 -23.5928078  -6.8450193
 -21.6312485 -25.2842503  -6.6283112 -20.8144875 -24.1716213  -4.9824295
 -21.7135601 -24.3054180  -4.4310660 -20.0456848 -24.9222202  -4.6495819
 -20.2674408 -22.7721291  -4.5742197 -19.2223148 -22.6796131  -4.8254085
 -20.8568802 -22.0065498  -5.1193867 -20.3760185 -22.5217075  -3.1107264
 -19.8048573 -23.2240200  -2.4550967 -20.9741001 -21.4620781  -2.5104234
 -20.9062176 -21.3278694  -1.4451613 -21.6304779 -20.3008347  -3.3130798
 -20.8577366 -19.7091389  -3.7634671 -22.2875309 -20.7275562  -4.1418738
 -22.5475483 -19.3245449  -2.4635286 -23.3833313 -19.9539337  -2.0593996
 -21.9160881 -18.9888229  -1.6372991 -23.0467453 -18.1297760  -3.2692935
 -22.1768379 -17.4796391  -3.4683845 -23.3467579 -18.5293789  -4.2345724
 -24.2013855 -17.3525467  -2.5848632 -23.8891335 -17.0347519  -1.5543692
 -24.3696690 -16.4523258  -3.1514611 -25.5870552 -18.1516743  -2.4037125
 -25.9467106 -18.5434494  -3.3154824 -25.4559708 -18.9574604  -1.6657375
 -26.6855640 -17.2318611  -1.8097204 -26.3295269 -16.8031921  -0.8425974
 -26.8580132 -16.4047451  -2.4904611 -28.0013103 -18.0065136  -1.5206285
 -28.3705521 -18.4253292  -2.4312320 -27.8001709 -18.8693333  -0.8410221
 -29.0369415 -17.1452351  -0.7633602 -29.9188213 -17.7520771  -0.6531711
 -29.3307858 -16.2731819  -1.3457192 -28.6668968 -16.8925056   0.2500570
 -17.9433994 -30.3281689   1.0537643 -17.7163773 -30.4964161   2.1321490
 -18.6843510 -29.5220757   1.0623367 -17.0700970 -30.1029129   0.5156791
 -18.6053047 -31.5006237   0.3033737 -19.6198444 -31.6175861   0.7100710
 -18.0911026 -32.4510803   0.4568691 -18.7645798 -31.3877964  -1.2504010
 -19.3609886 -32.1539841  -1.5962982 -17.7995300 -31.4715290  -1.7306156
 -19.3973885 -30.0290337  -1.6199055 -18.7002850 -29.2174568  -1.4803241
 -20.1948338 -29.8312874  -0.9390405 -19.9360886 -30.0719662  -3.0572054
 -20.4270782 -29.1353436  -3.2715108 -20.6067829 -30.9022751  -3.1091728
 -18.8027763 -30.2332916  -4.0346580 -19.2095394 -30.1603680  -4.9980316
 -18.3114243 -31.2252350  -4.0029039 -17.6958885 -29.1801434  -3.8971493
 -16.9798298 -29.4628925  -3.0956552 -18.1107254 -28.2519722  -3.5473614
 -16.9016132 -28.9067745  -5.1454029 -16.8809891 -29.7779064  -5.8223104
 -15.8659830 -28.7135487  -4.8892078 -17.4262409 -27.6332836  -5.8832507
 -16.9907227 -26.7812996  -5.4452510 -18.4615288 -27.5372982  -5.6299276
 -17.2297306 -27.6399345  -7.3985100 -17.5564938 -26.6823616  -7.8374958
 -17.7953300 -28.4142303  -7.7914948 -15.7603846 -27.9712582  -7.7636147
 -15.3646812 -28.8641586  -7.2482071 -15.1462460 -27.1912117  -7.4279733
 -15.5809650 -28.2202511  -9.2485962 -16.3446121 -28.8702049  -9.6222067
 -14.6369257 -28.8366508  -9.3616590 -15.4183569 -26.9187145 -10.0717888
 -14.6494474 -26.2932987  -9.5615606 -16.3345261 -26.3276081 -10.0625505
 -14.9659052 -27.2698212 -11.5057106 -15.5855808 -28.1150665 -11.8371000
 -13.9413443 -27.6588039 -11.4108362 -14.9890757 -26.1038189 -12.5133314
 -14.2829514 -25.3392487 -12.1811438 -15.9698887 -25.6316738 -12.5391817
 -14.6332569 -26.4231853 -13.9294643 -15.5022717 -26.7845745 -14.7012224
 -13.2934113 -26.3369637 -14.2220154 -12.8581152 -26.3657970 -15.5810070
 -13.4077940 -27.2191067 -16.0686226 -11.7534056 -26.5525608 -15.6265545
 -13.2102203 -25.1401310 -16.4310131 -14.2652721 -24.9035549 -16.2713585
 -13.0269156 -25.4618664 -17.9480057 -13.5559473 -24.6709232 -18.5525856
 -13.4527626 -26.4515533 -18.0697556 -11.6211500 -25.6062050 -18.3464031
 -11.1695375 -25.9212513 -19.9077244 -10.8068361 -24.4803143 -20.4171257
 -11.8334446 -23.4796371 -20.7846355 -12.8589439 -23.9184990 -20.7334328
 -11.6861143 -23.1097012 -21.7906990 -11.7309017 -22.2871246 -19.7680588
 -11.8866358 -22.6768970 -18.7261028 -12.4727488 -21.5342216 -20.0458374
 -10.4425421 -21.5566330 -19.6745186  -9.5393076 -22.3635845 -18.7900238
  -9.9886532 -22.4514942 -17.8264141  -8.5891380 -21.8073635 -18.6802006
  -9.3524590 -23.3115959 -19.2428799  -9.7841473 -21.3508587 -20.9732800
 -10.4967775 -20.8410816 -21.6335869  -9.3969679 -22.3122787 -21.3324757
  -8.9462032 -20.6378937 -20.8138504 -10.6531954 -20.2282372 -18.9983482
 -11.2606926 -19.5690517 -19.6486874  -9.6546450 -19.8752251 -18.8117008
 -11.0642195 -20.3380184 -18.0388603  -9.8934202 -26.6802216 -19.8202782
 -12.3389912 -26.4446716 -20.6673260 -12.2594471 -24.0676022 -16.0660667
 -12.5742636 -23.2855015 -15.0174131 -13.5893049 -23.4177380 -14.3810568
 -11.3816175 -22.3859978 -14.7013321 -10.6750383 -22.9786015 -14.1147842
 -10.8914700 -22.0641899 -15.6389341 -11.8295193 -21.1635666 -13.8591995
 -10.9904728 -20.4471874 -13.7872114 -12.6376629 -20.6283360 -14.3786516
 -12.3292818 -21.3873138 -12.4293699 -12.8214560 -20.4570312 -12.0803652
 -13.0646029 -22.1591740 -12.3441162 -11.1837091 -21.8005791 -11.5088854
 -10.7734098 -22.7446632 -11.8746653 -10.3987608 -21.0725899 -11.5764847
 -11.5459309 -22.0625324 -10.0074863 -10.5516357 -22.0632572  -9.4673357
 -12.1569967 -21.2653332  -9.5517826 -12.1972418 -23.3796921  -9.6865635
 -12.5156536 -23.3205643  -8.6510906 -13.0700054 -23.5904045 -10.2738094
 -11.2572145 -24.5954876  -9.8264332 -10.8610573 -24.5546894 -10.8234177
 -10.3690138 -24.4416733  -9.1719885 -12.0072422 -25.8777981  -9.6114178
 -12.7819595 -26.0776787 -10.3807983 -11.7591057 -26.7937660  -8.7043800
 -12.3445406 -27.7164726  -8.6140079 -10.7398310 -26.5907288  -7.5773735
 -10.0774956 -27.3780613  -7.5955801 -10.2277718 -25.6564312  -7.6496716
 -11.4915180 -26.6155281  -6.2097926 -11.9865313 -27.5660915  -6.0543447
 -10.7064400 -26.6366978  -5.3910012 -12.5520983 -25.4460754  -6.0662708
 -11.9867325 -24.5233707  -6.3111615 -13.3220863 -25.4751987  -6.8538742
 -13.1364717 -25.2669621  -4.6323581 -12.3509989 -25.2997761  -3.8753653
 -13.5831394 -24.2681732  -4.4726686 -14.1282129 -26.3914089  -4.3083606
 -14.8506250 -26.4511681  -5.1302791 -13.6428757 -27.4088211  -4.2414970
 -15.0261393 -26.1200123  -3.0875564 -15.3383350 -25.0632744  -3.2456160
 -15.8699751 -26.8261337  -3.1312916 -14.2460155 -26.2391930  -1.7277645
 -13.4609375 -25.4562798  -1.7264427 -15.0114717 -25.9888744  -0.9990698
 -13.6763344 -27.6315117  -1.4996957 -13.3001242 -27.7085152  -0.4662989
 -12.8556366 -27.9063835  -2.2098117 -14.4429722 -28.3877964  -1.6412501
 -32.5622253  -1.3716936  -2.2337260 -32.7317581  -0.8882184  -3.1995556
 -32.6288757  -0.5862414  -1.5468218 -33.4065323  -1.9962031  -1.9288428
 -31.1890392  -2.0031879  -2.2814672 -30.5113220  -1.2016348  -2.5848696
 -31.2799358  -2.7210484  -3.1075907 -30.6757336  -2.6474903  -1.0130068
 -31.3080883  -3.4169862  -0.5640956 -30.5150833  -1.9006735  -0.2394461
 -29.3093014  -3.2758384  -1.3736664 -28.8371010  -3.6161175  -0.4469958
 -28.6463528  -2.5386012  -1.8069805 -29.2758579  -4.4553695  -2.4055042
 -29.6523552  -4.0339050  -3.3478980 -29.9889946  -5.2417974  -2.1153369
 -27.9096317  -5.1300287  -2.4993939 -27.6022072  -5.4448385  -1.5171161
 -27.1653061  -4.3515267  -2.6810596 -27.8137665  -6.3437395  -3.4833744
 -28.6412716  -6.9915266  -3.2507632 -26.9184799  -6.9108438  -3.1853046
 -27.7339458  -6.0723662  -4.9663377 -27.0326977  -6.8411760  -5.3219991
 -27.3144073  -5.1032929  -5.1894264 -29.1032829  -6.3433452  -5.6384254
 -29.9358177  -5.7426648  -5.2374125 -29.3038826  -7.3790002  -5.5789242
 -29.0557194  -6.1018271  -7.1608014 -29.9984245  -6.4413748  -7.5674610
 -28.2087746  -6.6540451  -7.6821084 -28.9761181  -4.6226754  -7.4450331
 -28.1898689  -4.1263113  -6.8658895 -29.9493237  -4.2245131  -7.2345524
 -28.6073475  -4.3777161  -8.9528351 -29.2272091  -4.9726005  -9.5937433
 -27.5825863  -4.7297564  -8.9995880 -28.6784954  -2.8828645  -9.2922993
 -28.1185188  -2.3510919  -8.5184507 -29.6847630  -2.5881791  -9.2826757
 -28.0684090  -2.5940871 -10.6864185 -27.0319405  -2.9148209 -10.6064215
 -28.0362358  -1.4876913 -10.8663597 -28.7669411  -3.3135462 -11.8394365
 -29.8151417  -2.9683518 -11.8861151 -28.7363262  -4.4079714 -11.6956511
 -28.0776215  -3.0971274 -13.1335917 -26.8706512  -2.9155478 -13.2414293
 -28.9664726  -3.0630324 -14.1278353 -28.4539051  -2.9283357 -15.4774523
 -27.4617958  -2.4770212 -15.4444399 -29.1359310  -2.2638023 -15.9793558
 -28.4534740  -4.2741175 -16.1640072 -27.9095249  -4.2193918 -17.1035748
 -29.8830624  -4.6039648 -16.6389217 -30.4241390  -3.6710083 -16.8789253
 -30.4487839  -5.0674696 -15.7843647 -29.8182850  -5.5154276 -17.7777405
 -31.1564941  -6.0002828 -18.6008034 -31.4259720  -7.4532790 -17.9428501
 -31.9383907  -7.5591230 -16.5698776 -33.0003738  -7.2281833 -16.4100056
 -31.2813950  -6.9573936 -15.8405485 -31.8940964  -9.0701962 -16.0906849
 -32.5921974  -9.6476431 -16.6953907 -32.3062668  -9.2273817 -15.0934038
 -30.6017666  -9.8863039 -16.1446571 -29.4930267  -9.0259657 -15.6317635
 -29.5252209  -8.0773993 -16.2071075 -28.5672684  -9.5530539 -15.8672009
 -29.6480961  -8.8499222 -14.5851250 -30.6758862 -11.1898375 -15.3915167
 -31.4334888 -11.7990322 -15.8572922 -30.9920101 -11.1015520 -14.3616095
 -29.6693535 -11.5924873 -15.4346771 -30.2367954 -10.2048626 -17.5217667
 -31.1378689 -10.5943260 -17.9869633 -29.3989410 -10.9021864 -17.5053062
 -29.9615879  -9.2529135 -17.9619732 -32.2901764  -5.1307893 -18.2607975
 -30.7697086  -6.1905956 -20.0570526 -28.0314293  -5.3221006 -15.3507938
 -26.7120667  -5.6103272 -15.3402090 -25.8998222  -4.9855313 -15.9936228
 -26.2323284  -6.8146210 -14.5122862 -27.0601444  -7.3910208 -14.1392279
 -25.5816822  -7.4869580 -15.0781212 -25.4731731  -6.3007069 -13.2569084
 -24.5529537  -6.8387136 -13.1188192 -25.2749176  -5.2639241 -13.3422527
 -26.2498512  -6.3812680 -11.9546070 -25.9344082  -5.7048388 -11.1565485
 -27.3055172  -6.1135392 -12.2006645 -26.1930637  -7.8197069 -11.2963428
 -26.6106300  -8.5009127 -12.0470047 -25.1756687  -8.1560469 -11.1811724
 -27.0447254  -7.9500036 -10.0187435 -26.8588810  -7.0617361  -9.4787369
 -28.1198864  -7.8426595 -10.2978535 -26.8254852  -9.2469711  -9.1932240
 -27.2057552 -10.0759420  -9.8497248 -25.7342167  -9.3802471  -9.0659409
 -27.4525948  -9.2822485  -7.7687798 -27.1456795 -10.1587200  -7.2531743
 -27.1215820  -8.4381618  -7.1563845 -28.9539032  -9.2839088  -7.7657671
 -29.3971100  -8.4365187  -8.2874498 -29.7246952 -10.2666435  -7.2710176
 -30.8104305 -10.1730814  -7.3314281 -29.2195587 -11.5910683  -6.6609879
 -29.5913296 -12.4323549  -7.2596083 -28.0884914 -11.6757631  -6.5743613
 -29.8200588 -11.7945471  -5.2752848 -30.9265690 -11.6783895  -5.2426295
 -29.6775990 -12.8155842  -4.9766412 -29.2831020 -10.7753553  -4.2099776
 -28.2067871 -10.6957397  -4.3055296 -29.7454491  -9.8182287  -4.5125184
 -29.7184467 -11.0332251  -2.7475677 -29.3710880 -10.1691446  -2.1826408
 -30.8218575 -11.1292124  -2.7073555 -29.0674191 -12.3089743  -2.1445661
 -29.5021324 -13.2256947  -2.4848673 -28.0696907 -12.2995329  -2.5100598
 -29.0572166 -12.3944902  -0.6206664 -28.7356586 -11.4283943  -0.2928934
 -30.0984783 -12.5102606  -0.3525189 -28.1067677 -13.4070930  -0.0360142
 -28.4525280 -14.3692102  -0.4210748 -27.1554585 -13.1329651  -0.4004986
 -28.1332855 -13.4184513   1.5115614 -27.2979259 -13.9939489   1.8418472
 -29.0720100 -13.8358698   1.9151099 -27.9865284 -12.4071112   1.8738086
  13.4775658  34.9927063  -0.9762923  13.2550154  35.9921875  -0.5497039
  13.2210159  35.0028839  -2.0512657  14.5637722  34.8591690  -0.9050260
  12.7717695  33.8575401  -0.1550652  11.7028332  34.1709366   0.0244065
  13.2863512  33.7864761   0.7807552  12.8896227  32.4720917  -0.8964195
  12.2884645  31.7487907  -0.4010203  13.9088717  32.1253052  -0.7805142
  12.5359440  32.5479622  -2.4200921  13.4149370  32.8544960  -3.0663369
  11.7661333  33.2954712  -2.5240874  11.9471827  31.3072395  -3.0895207
  11.5313816  31.5534306  -4.0758085  11.0955286  30.9406357  -2.5433061
  12.9476681  30.1457882  -3.3290803  13.5191269  30.0325203  -2.4253006
  13.6519670  30.3432312  -4.0853338  12.2785110  28.8596611  -3.8324497
  11.6443501  28.4036064  -3.0866430  13.1556759  28.1491394  -3.9852750
  11.5675659  29.0360737  -5.1635180  12.2889576  29.5425148  -5.8185983
  10.6513176  29.6336842  -5.0765805  11.2031069  27.6700439  -5.7268314
  10.6619444  27.0960732  -4.9810944  12.1360388  27.1744747  -5.9060721
  10.3415909  27.7528362  -7.0147762   9.5516796  28.5091324  -6.8349266
   9.8820095  26.7771225  -7.1692967  11.1443539  28.1878490  -8.3046732
  11.8251085  28.9964886  -8.0263786  10.3985491  28.5576458  -9.0398226
  11.9830046  27.0410633  -8.8929796  11.3364811  26.3304024  -9.3757992
  12.4992514  26.5519829  -8.0551224  13.0795679  27.4818153  -9.8723326
  13.5578909  26.5462494 -10.2417765  13.8108053  27.9912739  -9.2428436
  12.5812292  28.3021145 -11.0665627  12.1902046  29.2734375 -10.7036390
  11.8114471  27.8339291 -11.6799116  13.8038292  28.6124439 -11.9450769
  14.1943569  27.7154827 -12.4455156  14.6634045  28.9624977 -11.3105288
  13.5353489  29.7163773 -12.9971352  13.3008595  29.4852715 -14.1800642
  13.3937178  30.9350700 -12.4563456  12.8848257  32.0222359 -13.2948313
  13.3397541  31.9581127 -14.2736187  13.1045380  32.9691811 -12.8824158
  11.3447094  31.9324665 -13.5183477  11.0688400  31.0460072 -14.1239986
  10.9909744  33.2090988 -14.3361816  11.7059708  33.3641739 -15.1370335
  11.1326752  34.0474663 -13.6339874   9.6266222  33.3034210 -14.8188066
   9.1248207  32.4112396 -16.1306095   8.2057648  31.2658119 -15.4787817
   6.9802718  31.6162510 -14.7714710   6.5799665  32.5682526 -15.1518831
   7.2358794  31.7906990 -13.7095089   5.8976650  30.5631065 -15.0239649
   4.9974117  30.8767109 -14.5205688   6.1684375  29.6030979 -14.6177063
   5.3530879  30.2661877 -16.4364853   6.4161797  29.6441345 -17.2417431
   7.2404532  30.3635635 -17.2851810   6.0753126  29.3479137 -18.2539558
   6.6828594  28.7209339 -16.7199612   4.1743183  29.3670464 -16.4421692
   3.4958375  29.6957855 -15.6868858   4.5233536  28.3769798 -16.2581558
   3.6756322  29.3858738 -17.4262047   4.8688164  31.5309715 -17.1105289
   4.0785141  31.9806080 -16.4880142   4.4960337  31.2252216 -18.0985699
   5.7302303  32.1621666 -17.2122593   8.2937946  33.2717819 -16.9833889
  10.2978792  31.7478447 -16.7480297  10.6681337  31.9902439 -12.2501793
   9.8278866  30.9829502 -11.8618574   9.7505741  29.8780422 -12.4226627
   9.0737209  31.2768841 -10.5454655   8.2568922  30.5159302 -10.4202089
   9.7540703  31.1549644  -9.6573639   8.3541126  32.6684685 -10.5784616
   9.1300611  33.4598770 -10.7184172   7.7442417  32.6915207 -11.4986219
   7.4666414  32.9146156  -9.3241234   7.0149021  33.9122734  -9.4125681
   6.6480489  32.2341843  -9.1924686   8.2130966  32.9283485  -7.9711986
   7.5440221  33.3453674  -7.1720648   8.4639254  31.8963547  -7.6627312
   9.4811621  33.7748108  -7.9825850  10.2467432  33.2436523  -8.5892115
   9.2309380  34.6959419  -8.5226316  10.1433182  34.0529327  -6.6067653
  10.3598032  33.1310654  -6.0852189  11.1407700  34.5273628  -6.8158221
   9.4723301  35.0475006  -5.6488543   9.3006878  35.9545135  -6.1857605
   8.5224791  34.6428070  -5.3423543  10.3837976  35.3948593  -4.4366612
  11.3414421  35.8205185  -4.6920695  10.0555267  35.2873344  -3.1516914
  10.6908083  35.6543045  -2.4193282   8.7767572  34.6834564  -2.6138048
   8.1004667  35.4688988  -2.3134625   8.2628479  34.0365601  -3.2892194
   9.1397419  33.8647804  -1.3406565   9.5861521  32.9280815  -1.6493602
   9.8695631  34.4491043  -0.7691893   7.9852052  33.5314636  -0.3479341
   7.4777083  34.4499321  -0.0370458   7.2252731  33.0188866  -0.8951778
   8.4469995  32.7254906   0.8709577   9.1479311  31.9230251   0.6022877
   9.0639219  33.4583321   1.3992966   7.2495885  32.0688133   1.6551580
   6.3172250  32.7281876   1.5814525   7.0107956  31.1098366   1.1778351
   7.5424838  31.8485470   3.1606450   7.8041363  32.8494415   3.6159673
   6.6503639  31.4532452   3.6960852   8.7402210  30.9216099   3.4009771
   8.5440741  29.9471321   2.8727291   9.5803223  31.3578815   2.8921344
   9.0484562  30.6827393   4.8767252   9.9829626  30.0999146   4.9641461
   8.2198868  30.1392365   5.3400569   9.2958202  31.6481018   5.3669124
  15.7190218  15.9675999   0.5919851  14.9397955  15.4547110   1.1736939
  16.5777092  16.1013203   1.2151333  15.9767475  15.2447023  -0.2227724
  15.0621262  17.2412415   0.0016371  14.4864187  17.6672020   0.8197900
  14.3645096  16.9285030  -0.8186579  16.1185303  18.2132740  -0.5063112
  16.8833580  17.6641674  -1.0770683  16.6067543  18.6792202   0.3302640
  15.4222021  19.2957249  -1.3562245  14.6658669  19.7562866  -0.7055176
  14.8878155  18.7926178  -2.1698229  16.4166241  20.2748871  -1.9281902
  17.0612431  19.7506027  -2.6269536  17.1037788  20.6465893  -1.1311576
  15.7733746  21.5329552  -2.5555599  15.3320427  22.1467762  -1.7826297
  14.9453936  21.2252789  -3.2274148  16.7936554  22.4140759  -3.2930110
  17.5369892  22.6314831  -2.5411272  16.2909946  23.3546429  -3.5045009
  17.5272579  21.8201427  -4.5233197  16.7773285  21.6078072  -5.2261696
  18.0003815  20.9345531  -4.1780658  18.5934601  22.8472424  -5.0094900
  19.0134106  22.5056496  -5.8800845  19.4156551  22.9034843  -4.2675571
  18.1971302  24.3345375  -5.3073978  19.0858059  24.9690533  -5.1297874
  17.4802094  24.7135773  -4.5784864  17.7563934  24.6646595  -6.7721934
  18.5103550  24.2551613  -7.4513130  17.6616001  25.7441730  -6.9650011
  16.4435921  23.9635506  -7.1422205  15.8135309  23.8640957  -6.2529750
  16.7259769  22.9434204  -7.3395391  15.6572170  24.5385914  -8.2704563
  15.2451992  25.5203075  -7.9554901  14.8528337  23.8009071  -8.4246235
  16.4609070  24.7120857  -9.5269098  17.3087234  24.0111904  -9.5587606
  16.8290653  25.7533817  -9.5930300  15.6194487  24.5288696 -10.8306684
  16.1881943  25.0973816 -11.5737524  14.6090307  24.9330044 -10.7603693
  15.6385794  23.1015625 -11.2884626  15.8517656  22.1915226 -10.5497665
  15.5457916  23.0412197 -12.6411486  15.8423157  21.7780018 -13.3885088
  16.6621952  21.2233829 -12.8429070  16.1310463  22.0970955 -14.4232693
  14.6095276  20.8203487 -13.5342808  14.8546257  19.9838238 -14.1897888
  13.3442831  21.5158558 -14.0227709  12.9808378  22.2267132 -13.2857714
  12.5441933  20.7668858 -14.1737080  13.6206207  22.2042370 -15.2730646
  12.4851322  22.3849125 -16.4247112  12.4985704  20.9728336 -17.2042980
  13.6880493  20.6733055 -17.9945717  14.5713768  20.7284241 -17.3222866
  13.8575592  21.4005070 -18.7874832  13.6111298  19.2395191 -18.5754604
  14.3088903  19.2355957 -19.4430637  12.5898733  19.0667305 -18.9754944
  13.9534140  18.0602779 -17.6700935  13.9668179  16.8260612 -18.5442085
  13.1649532  16.8581161 -19.2300453  13.8215294  15.9618282 -17.9143600
  14.9417839  16.7935619 -18.9605484  15.1403894  18.2097836 -16.7836227
  15.0483885  19.0569935 -16.1469517  16.0453529  18.2624092 -17.3791523
  15.1983471  17.2764130 -16.2094955  12.8520002  17.9561844 -16.6865101
  12.8224173  18.8131123 -16.0356483  12.9740229  17.0494881 -16.1148758
  11.9109488  17.9366837 -17.2287140  11.1824722  22.5899105 -15.7474861
  13.0156507  23.4409428 -17.3304253  14.2029753  20.3791027 -12.1939602
  14.8680010  19.2567844 -11.7250395  15.6674786  18.6302490 -12.3653564
  14.4205513  18.8993206 -10.2839432  14.3383446  19.8282089  -9.7506351
  13.4144163  18.4713669 -10.2759132  15.4503918  18.0653992  -9.4970341
  15.2068853  17.0651283  -9.6689491  16.4487419  18.2544384  -9.8819551
  15.3780508  18.3376160  -8.0015869  15.7529821  19.3586349  -7.8666902
  14.3516340  18.3521461  -7.6410604  16.2494926  17.4239845  -7.0966921
  15.8494234  16.3997707  -7.1455474  17.2737732  17.4496078  -7.4732451
  16.2994175  17.8625603  -5.6007819  16.7748108  18.8214512  -5.5168257
  15.2536507  17.9954510  -5.2371354  17.0091610  16.8739452  -4.7097020
  16.9392605  17.2141819  -3.6467550  16.5118980  15.9079161  -4.8163147
  18.5308762  16.6834908  -5.0977993  19.0571289  16.0701675  -4.3130450
  18.5140114  16.0959358  -6.0175533  19.3008347  18.0003471  -5.2762680
  19.2500000  18.3591957  -6.2708426  20.0239639  18.6568298  -4.3658924
  20.5844707  19.5537300  -4.6381135  19.9903393  18.5691853  -2.8219819
  19.0518322  18.1792507  -2.4607413  20.7827225  17.8817635  -2.5006423
  20.3954391  19.8948650  -2.1225178  21.4482594  20.1368408  -2.3986626
  19.7855911  20.6787853  -2.5064020  20.2445297  19.7813492  -0.6004565
  19.1994972  19.5067654  -0.4340749  20.9435310  19.0561066  -0.2581357
  20.5163937  21.1774559   0.0153473  21.4597893  21.6136398  -0.3981919
  19.7080479  21.8042870  -0.2734890  20.7028618  21.2655621   1.5469697
  19.8161221  20.8700676   2.0316341  21.5621090  20.6634808   1.8354260
  20.9278679  22.7269535   2.0187826  21.8455200  23.1571369   1.5829836
  20.0588779  23.3405762   1.7176007  21.1453419  22.8513889   3.5607193
  22.0361710  22.2491837   3.7948513  21.4320869  23.8893585   3.8750365
  19.9565907  22.2854786   4.4141684  20.0582314  22.4058952   5.4947829
  19.8889809  21.2223835   4.1843376  19.0357723  22.8235226   4.1046515
 -22.9666805  20.2343750  -3.5858583 -22.0064354  20.6031265  -3.8705275
 -22.8421822  19.8246288  -2.5587556 -23.7707329  20.9853344  -3.5066724
 -23.4567528  19.1916504  -4.5615683 -22.6667385  18.4467201  -4.7131782
 -23.5937157  19.7591476  -5.4856515 -24.7182636  18.4819202  -4.0627260
 -25.4369717  19.2385368  -3.7395859 -24.4769363  17.9135971  -3.1835752
 -25.3566265  17.4801178  -5.0257282 -26.3104706  17.1295185  -4.6332641
 -24.7085171  16.5945587  -5.1205373 -25.5507584  18.0179615  -6.4500041
 -24.5780945  18.4078732  -6.8522124 -26.2531738  18.8219910  -6.3514667
 -26.1310749  17.0601463  -7.4698706 -27.1825485  16.8372269  -7.1777272
 -25.6023636  16.1138935  -7.4792581 -26.1928749  17.6546993  -8.8924580
 -26.6184406  16.9747410  -9.6579399 -25.1761265  17.8349838  -9.2132397
 -27.0303421  18.9462166  -8.8698931 -26.5193157  19.6908150  -8.2636261
 -28.0114079  18.7444973  -8.4486046 -27.2724037  19.7042732 -10.2033606
 -26.2624569  19.7853127 -10.7330179 -27.6361179  20.6932163  -9.9536467
 -28.2711792  18.9125080 -11.1193552 -29.2554836  18.8493500 -10.6201115
 -27.9336147  17.8791218 -11.2377729 -28.3336716  19.5887432 -12.4843321
 -29.0538807  19.0432873 -13.1659660 -27.3555260  19.6523304 -12.9006243
 -28.8382359  21.0174198 -12.4272499 -28.1767864  21.5829353 -11.7911329
 -29.8538208  21.0022850 -11.9477272 -29.0511169  21.6761303 -13.8241005
 -29.6249943  22.5834351 -13.6554661 -29.7050495  21.0203533 -14.4420004
 -27.8122444  22.0494442 -14.6653805 -28.1620865  22.3002148 -15.6117773
 -27.2246552  21.1292191 -14.8349400 -26.9172192  23.0896397 -13.9938221
 -26.8872242  22.9221573 -12.9254618 -27.3426094  24.0999107 -14.1103172
 -25.4671669  23.0767288 -14.5115280 -24.5039158  22.7330093 -13.8510599
 -25.4152203  23.3292751 -15.8260822 -24.2281952  22.9212093 -16.5457993
 -23.2657528  22.8769665 -15.9698696 -24.0789776  23.6058521 -17.3668499
 -24.4024639  21.5097504 -17.1909618 -23.5403347  21.3215733 -17.7965088
 -25.6227283  21.5400791 -18.1012955 -25.7619667  22.4512024 -18.6285286
 -26.5786953  21.4125900 -17.5528793 -25.4540672  20.4581661 -19.0912971
 -26.6769829  19.8477325 -19.9228497 -27.5741310  18.9821339 -18.8947906
 -27.2226028  17.6337395 -18.5381832 -26.1822815  17.3781624 -18.7011948
 -27.8456116  16.9548607 -19.1833324 -27.5727959  17.4007950 -17.0160389
 -26.9629765  18.1128712 -16.4491768 -27.3380566  16.3450470 -16.8042736
 -29.0512161  17.5920525 -16.6315174 -29.3404598  19.0370808 -16.4485950
 -28.8103981  19.3365269 -15.5651464 -30.4174824  19.1419010 -16.2306519
 -28.9894333  19.5671921 -17.3483849 -29.9912624  16.9854164 -17.6072845
 -29.7144318  15.9285355 -17.7799149 -29.9324722  17.5464497 -18.5308456
 -31.0666924  17.1531639 -17.2458420 -29.2884254  16.9081707 -15.3508816
 -29.0373917  15.8680840 -15.4891586 -30.3502846  16.9940910 -15.0733814
 -28.6170025  17.4155140 -14.6208992 -27.4933262  21.0119839 -20.4151192
 -26.0947533  18.9007587 -20.8904495 -24.5641937  20.5211639 -16.1199150
 -23.4831219  19.9742870 -15.5551233 -22.3582268  20.3395748 -15.8093109
 -23.9186649  18.8956070 -14.5809832 -24.8670101  19.1705475 -14.1083755
 -24.0731220  18.0112953 -15.2145624 -22.7996807  18.6094875 -13.5713568
 -23.0946732  17.7392235 -12.9371080 -21.9688587  18.3487816 -14.1628733
 -22.4029617  19.7763329 -12.6508179 -21.5334129  19.4793282 -12.0526018
 -22.0903568  20.6218147 -13.2530413 -23.4824467  20.2543259 -11.6842213
 -24.3820038  20.6255455 -12.1900177 -23.7614937  19.3755798 -11.1207428
 -22.9235821  21.3573914 -10.8123960 -21.8521309  21.2003174 -10.5687809
 -22.8859138  22.2828903 -11.3572617 -23.7572956  21.5276318  -9.5321941
 -23.4025173  22.4022141  -9.0568247 -24.8276138  21.6876011  -9.7715940
 -23.5674477  20.4581299  -8.4594431 -24.3361092  20.6000175  -7.7320147
 -23.7953835  19.4911919  -8.8885536 -22.1864605  20.4704456  -7.8443627
 -21.8518162  21.3761501  -7.2836614 -21.3695374  19.3974247  -7.8179069
 -20.4068966  19.4917221  -7.3219948 -21.5102386  18.1708641  -8.7208614
 -22.1345806  18.3570366  -9.6283827 -20.5049686  17.9728298  -9.1222544
 -22.0921745  16.9151955  -8.0084114 -23.0903645  17.0352859  -7.6483731
 -22.1281738  16.2192898  -8.8554926 -21.2968750  16.2617474  -6.8822532
 -20.3846245  15.7976866  -7.2533031 -21.0269718  17.0493774  -6.1933680
 -21.9999790  15.0976086  -6.1407089 -21.1962528  14.6708145  -5.5596428
 -22.7295971  15.5662403  -5.4570599 -22.7282562  14.0122786  -6.9760275
 -23.4255009  14.5095739  -7.6372285 -21.9921894  13.5020742  -7.5907164
 -23.5435390  12.9590759  -6.1040835 -22.8206806  12.5063696  -5.3873701
 -24.2753830  13.5329075  -5.4954762 -24.2255058  11.8133631  -6.8158178
 -24.8594093  11.2714329  -6.1016779 -24.8417282  12.2164955  -7.6015239
 -23.3130093  10.8132639  -7.4982328 -23.9466400  10.0047388  -7.8683515
 -22.6464119  10.3363667  -6.7639179 -22.8377190  11.2406120  -8.3132954
  22.3682823 -28.9424362  -3.4385252  23.4137383 -28.8971920  -3.0576108
  21.7798538 -28.0869026  -3.0327222  22.4373131 -28.8145542  -4.5150905
  21.7609310 -30.2642250  -3.0069110  21.5823212 -30.2568722  -1.9043924
  22.4605446 -31.0635834  -3.2988193  20.3961163 -30.5592537  -3.6723876
  20.0143242 -31.5797787  -3.3691440  20.6209831 -30.6373310  -4.7080135
  19.3501873 -29.4636707  -3.3757803  19.6741104 -28.5241356  -3.8212144
  19.1641617 -29.3778019  -2.3369720  17.9775581 -29.7678490  -4.0196247
  17.6556053 -30.7988148  -3.7604022  18.0557899 -29.7393456  -5.1292953
  16.7984886 -28.8494186  -3.6449363  16.7310200 -28.6864891  -2.5369761
  15.8596697 -29.2245750  -3.9414740  17.0612335 -27.4966507  -4.2498631
  17.0130081 -27.6287060  -5.3425832  18.0696850 -27.0570488  -4.0057645
  15.9685984 -26.5124111  -3.7846649  15.9218016 -26.5210705  -2.6963470
  14.9626436 -26.8603706  -4.0779300  16.1395836 -25.1500397  -4.4779844
  15.1234779 -24.6498203  -4.3682213  16.2713890 -25.3885670  -5.5175285
  17.3894138 -24.3627968  -3.9274135  18.2221432 -24.9775810  -4.0776572
  17.2552128 -24.1972351  -2.8670228  17.6896687 -23.0200653  -4.5717583
  18.6150570 -22.6310387  -4.1357560  16.8483047 -22.3267784  -4.3746543
  17.7962284 -23.1148243  -6.1184068  16.8148441 -23.4797516  -6.5460987
  18.5650616 -23.8740768  -6.3735576  18.2876282 -21.7681923  -6.7642303
  19.0362663 -21.3753128  -6.0903177  17.5347919 -21.0098934  -6.8028493
  19.0441246 -21.8573494  -8.0983686  20.0811501 -22.2342873  -7.8844361
  19.0560455 -20.8872681  -8.6375294  18.5225849 -22.9256058  -9.1089306
  17.5528069 -22.7114792  -9.4335384  18.4916859 -23.9167423  -8.6251259
  19.3188915 -22.9894924 -10.3921032  19.9965839 -22.0516396 -10.8748932
  19.0900173 -24.1252174 -11.1209478  19.7172127 -24.2479591 -12.4456177
  19.3648376 -23.4122868 -13.0758400  19.2469826 -25.0937080 -12.9728527
  21.2342873 -24.4364967 -12.4612131  21.7289371 -23.4717941 -12.1523018
  21.7779636 -24.8882275 -13.7886610  21.3613434 -25.8755722 -13.9968004
  22.8631382 -25.0227337 -13.7678967  21.5001526 -23.9377480 -14.8308945
  20.1592655 -24.0724792 -15.8410501  19.4377480 -22.6513596 -15.5510483
  19.8247738 -21.4239502 -16.2732525  19.2306461 -21.2567558 -17.1664371
  20.8760452 -21.4332294 -16.6185760  19.6927586 -20.2653236 -15.3074875
  19.9096775 -19.3561859 -15.8429899  20.3952961 -20.4013615 -14.4797363
  18.3343658 -19.9823303 -14.7272625  17.1856918 -20.2780323 -15.6617546
  17.2826633 -19.8123264 -16.6598892  16.2351208 -19.8764973 -15.2154436
  17.1724091 -21.3279343 -15.7807264  18.1304436 -20.7590466 -13.4906254
  18.9820652 -20.6138706 -12.8248701  17.9590454 -21.8099995 -13.7796535
  17.2199364 -20.3355064 -12.9802074  18.2651978 -18.5464382 -14.3918695
  19.0062485 -18.4825516 -13.6139965  17.2791634 -18.3932419 -13.9610538
  18.4705334 -17.9318066 -15.2696857  20.6789761 -24.0096970 -17.2449570
  19.2862740 -25.2137413 -15.4716053  21.6166573 -25.4423313 -11.4886303
  22.9197731 -25.4158592 -11.0208998  23.8195877 -24.8023224 -11.4886293
  23.1337433 -26.2792778  -9.7879515  22.3106747 -26.9168320  -9.7321520
  23.9874172 -26.9049377 -10.0470181  23.2182102 -25.4347782  -8.4751625
  23.4140186 -26.0709991  -7.6179719  24.0949154 -24.7865200  -8.5874891
  22.0032997 -24.5615425  -8.0193892  21.7755737 -23.7780361  -8.8389025
  21.1344185 -25.1943989  -7.9362411  22.2758141 -23.7994366  -6.6982942
  21.2932758 -23.4726410  -6.3073297  22.6559715 -24.4955273  -5.9510045
  23.1408424 -22.5307312  -6.8562651  24.1862469 -22.8007698  -6.9321609
  22.8267002 -22.0759792  -7.7614946  23.0458336 -21.4920406  -5.7278676
  23.6921902 -20.6808453  -5.9943771  22.0319443 -21.1475639  -5.7658787
  23.3693352 -21.9657497  -4.2902632  24.2377453 -22.6229191  -4.2833834
  23.5861568 -21.0543995  -3.6970127  22.1950531 -22.7035427  -3.6133800
  21.7819481 -23.5738926  -4.1111231  21.4894314 -22.2440739  -2.5372550
  20.5881538 -22.7863960  -2.3074055  21.7415466 -21.0241146  -1.6559964
  22.3164368 -20.3110332  -2.2042477  20.7832890 -20.5566998  -1.4222550
  22.4110641 -21.4151306  -0.3517476  23.4316864 -21.6033649  -0.5398198
  22.4205208 -20.5659084   0.3056850  21.7148666 -22.6406078   0.3291622
  21.9268589 -23.4997540  -0.2842317  22.2463303 -22.8175144   1.3088530
  20.2228146 -22.5399895   0.7004035  20.1208611 -21.7451591   1.4512527
  19.6347141 -22.2097416  -0.1444981  19.5748539 -23.8434048   1.2512989
  20.2227879 -24.2492085   2.0215042  18.7037888 -23.5690479   1.8095295
  19.2737083 -24.9183578   0.1492255  18.5093060 -24.5139046  -0.4941140
  20.1953316 -25.0858803  -0.3929131  18.7990685 -26.2848969   0.6814454
  19.6166248 -26.7135925   1.2876498  17.8822098 -26.1603451   1.3682498
  18.4663239 -27.1762161  -0.5061574  17.5848541 -26.8120461  -1.0323939
  18.2782097 -28.2196846  -0.2313610  19.2827930 -27.2253323  -1.1722603
 -27.6083755 -10.2514172   3.9184275 -28.4288578 -10.0443306   4.5724511
 -26.6739368  -9.8744431   4.4039407 -27.4831409 -11.3122168   3.8049989
 -27.8679657  -9.5992937   2.5577760 -28.0721378  -8.5387249   2.7642875
 -28.8470631  -9.9479084   2.2095757 -26.7590523  -9.7666721   1.5048860
 -26.8348103 -10.7454062   0.9781725 -25.7336311  -9.7594681   1.9078064
 -26.7464180  -8.6780510   0.4414059 -26.4524250  -7.7721591   1.0026811
 -27.7734394  -8.5861788   0.0252770 -25.7650471  -8.9705429  -0.7190893
 -24.8075142  -9.1272907  -0.2539057 -25.6984310  -8.0295134  -1.2716432
 -26.2063618 -10.1783800  -1.5808510 -27.0296288  -9.9019213  -2.2334566
 -26.4684849 -11.0668888  -0.9545960 -24.9690857 -10.5494080  -2.4104335
 -24.0931110 -10.7894125  -1.8149055 -24.5873833  -9.6680031  -2.9606657
 -25.2720261 -11.6967535  -3.3646548 -26.2286663 -11.5225315  -3.9425864
 -25.4029503 -12.5724430  -2.7391062 -24.1406860 -11.9810143  -4.3716621
 -24.3423843 -13.0078459  -4.7778730 -23.1429901 -11.9638815  -3.9268827
 -24.1048851 -10.9913530  -5.5441718 -23.6657314  -9.9806280  -5.2932701
 -25.1950645 -10.8897486  -5.8450074 -23.3423157 -11.3696251  -6.8200297
 -22.2504730 -11.4843407  -6.6218166 -23.4593201 -10.4961586  -7.5014849
 -23.8756390 -12.6052084  -7.5521684 -23.6444740 -13.4654055  -6.9268889
 -23.3570175 -12.7155170  -8.5317535 -25.4521656 -12.6692123  -7.7843862
 -25.7618313 -11.8214121  -8.4319668 -25.9584064 -12.6530743  -6.8294449
 -25.7386398 -14.0247641  -8.3468800 -25.7847500 -14.6850481  -7.4884539
 -24.9234180 -14.3203773  -8.9953976 -27.1152401 -14.2131033  -9.0612259
 -27.9039364 -13.6326704  -8.5280066 -27.3762169 -15.2652159  -8.9902077
 -26.9751854 -13.9461040 -10.5709276 -26.4763489 -14.7496357 -11.3257351
 -27.5807285 -12.7538910 -10.9813023 -27.5460701 -12.4688835 -12.4083271
 -28.4144955 -11.7982216 -12.6106224 -27.5972919 -13.3548412 -13.0103197
 -26.2265205 -11.7423296 -12.7200031 -26.1033134 -10.9411964 -12.0001144
 -26.3089180 -10.9651842 -14.0711927 -25.2723522 -10.6305275 -14.2160416
 -26.9414253 -10.0881433 -14.0535545 -26.7232113 -11.9095421 -15.1182594
 -26.3340359 -11.7500582 -16.6759319 -24.6909256 -11.8974495 -16.6484337
 -24.0215302 -13.1899452 -16.7652626 -23.9412479 -13.4556208 -17.8284283
 -24.6469040 -13.9103689 -16.2565899 -22.6328964 -12.9830666 -16.1410809
 -22.1593075 -13.9228830 -15.8556890 -22.7673721 -12.3752394 -15.2114248
 -21.5283127 -12.2008085 -16.9219742 -21.9395294 -10.7989683 -17.3174248
 -22.6245422 -10.9573803 -18.1640663 -21.0968952 -10.2402554 -17.6307106
 -22.4452209 -10.2514410 -16.5433140 -20.3055553 -12.1092224 -16.1149597
 -19.8862648 -13.0882740 -15.9533319 -20.5956688 -11.6273775 -15.1928511
 -19.5536976 -11.5711069 -16.6095314 -21.1739731 -12.9164019 -18.1990089
 -20.7013493 -13.8996029 -17.9693909 -20.4146309 -12.3322258 -18.6566944
 -22.0599155 -13.0233297 -18.8154812 -26.8544292 -12.8590345 -17.4954109
 -26.6516800 -10.3569498 -17.1091957 -25.0702381 -12.6403084 -12.8237333
 -24.2404346 -12.7238960 -11.7910662 -24.4157200 -12.1663427 -10.7198229
 -23.0333824 -13.6362743 -12.1410561 -22.4273376 -13.1705875 -12.9204903
 -22.3976364 -13.6691179 -11.2439051 -23.4363079 -15.0937262 -12.5384445
 -24.3122673 -15.4252253 -11.9909143 -23.7300110 -15.0090971 -13.5564280
 -22.3333378 -16.1688862 -12.4443245 -22.7170467 -17.0799503 -12.8748455
 -21.4947300 -15.9327402 -13.0856838 -21.8428154 -16.3694553 -10.9551153
 -21.2352352 -17.2768421 -10.9653664 -21.2296848 -15.5048981 -10.6533060
 -22.9938107 -16.4532070  -9.9160013 -23.2573318 -15.4490204  -9.6369638
 -23.9033966 -16.9184532 -10.3595724 -22.6928501 -17.1213074  -8.5551081
 -22.5516682 -18.1871624  -8.7247477 -21.7833347 -16.6652470  -8.1798725
 -23.8400440 -16.9046593  -7.4833021 -23.5387402 -17.4474068  -6.5712686
 -23.8338566 -15.8353987  -7.1296711 -25.1812191 -17.3463860  -8.0458260
 -25.2751179 -17.6161041  -9.1104450 -26.2765331 -17.3767548  -7.3050985
 -27.1822433 -17.7936230  -7.7523785 -26.4022808 -16.9722385  -5.7949848
 -26.6062927 -17.9097862  -5.2498312 -25.5029087 -16.5413990  -5.3850946
 -27.4978142 -15.9223518  -5.5659432 -27.6014824 -15.7171555  -4.4608040
 -27.2248363 -14.9765482  -6.0604815 -28.8057213 -16.3866024  -6.1840768
 -28.7007923 -16.3375378  -7.2611041 -29.0056705 -17.4702110  -5.9709220
 -30.0482216 -15.5926476  -5.8118877 -29.8764915 -14.5771017  -6.1315961
 -30.8666401 -16.0240536  -6.3713713 -30.4002018 -15.6292830  -4.2818198
 -30.4516716 -16.6956196  -3.9979014 -29.5773220 -15.1922979  -3.7557027
 -31.7632084 -14.9217358  -3.9975765 -31.6845798 -13.8600359  -4.1518245
 -32.5596924 -15.3164234  -4.6522150 -32.2481194 -15.1656532  -2.5459328
 -32.3058624 -16.2313652  -2.3266702 -31.5182400 -14.6819887  -1.8694198
 -33.6436081 -14.6214590  -2.2604766 -33.9116631 -14.8508110  -1.2327372
 -34.3674240 -15.1094761  -2.9331853 -33.5754929 -13.6043186  -2.4798465
  11.4621916  24.1477757  -0.6268364  11.7533407  23.9431553   0.4299909
  11.2619247  23.2381554  -1.1433811  10.4673862  24.6820259  -0.5468912
  12.5259390  25.0185966  -1.2889152  13.4817400  24.5000458  -1.3257701
  12.7197380  25.8892612  -0.6297678  12.2096167  25.5641441  -2.7030015
  13.0322838  26.1795883  -2.9434812  11.2744331  26.1438732  -2.6965749
  12.0899162  24.5418568  -3.8460383  12.0110550  25.1035614  -4.7595053
  11.2261667  23.9032345  -3.7455525  13.3649349  23.6815357  -4.0213623
  13.6200151  23.2067127  -3.0803528  14.2466011  24.2458572  -4.3561373
  13.1175280  22.5433617  -4.9742093  12.4006100  21.8249702  -4.5737610
  14.0524817  22.0883160  -5.1581235  12.5856781  23.0282383  -6.3538957
  13.3611479  23.7109222  -6.7521262  11.6164675  23.5799522  -6.2472959
  12.2567358  21.8878174  -7.3402734  11.4994726  21.2814503  -6.8164058
  13.1313953  21.2673950  -7.4270053  11.8256483  22.2841682  -8.7639666
  12.6764116  22.7084579  -9.2947559  11.0387249  23.0648136  -8.7606230
  11.2517166  21.1006145  -9.5487509  10.3332005  20.7044010  -9.0759745
  12.0389795  20.2968006  -9.6216850  10.8982038  21.4951630 -10.9678736
  11.7999601  21.7943840 -11.5297699  10.2653685  22.3694019 -11.0017786
  10.1534758  20.3948326 -11.7593241  10.8044491  19.5254097 -11.6524553
  10.2283974  20.7137394 -12.7868118   8.7505493  19.9953117 -11.3245001
   8.7419424  19.6646042 -10.2884140   8.5046988  19.1433048 -11.9481144
   7.7150769  21.1240387 -11.5801487   7.8432584  21.4271660 -12.6525135
   7.8561254  21.9311886 -10.8722401   6.2398319  20.6446362 -11.4271088
   6.0866890  20.2200890 -10.4376717   5.9593434  19.9083099 -12.1443176
   5.3402138  21.8264236 -11.5399122   5.1550460  22.5348129 -10.5734072
   4.6422877  21.9206467 -12.6988974   3.7617636  23.1190853 -12.9133081
   3.3353522  23.4387188 -11.9540129   2.9103446  22.7662277 -13.4961939
   4.5800238  24.2445927 -13.6115561   3.8213830  24.9987202 -13.8933754
   5.3547382  23.7908669 -14.8653812   4.9378901  22.8257389 -15.1674547
   6.4216638  23.6019821 -14.6318426   5.1707606  24.7277756 -15.9829187
   6.0095830  26.0784931 -16.1141739   7.5459285  25.6932449 -15.9663620
   8.1458263  25.8072395 -14.6729851   7.7215075  25.0818462 -13.9963455
   7.9928074  26.8119221 -14.1762114   9.6281424  25.5205383 -14.8658571
   9.8091574  24.5235252 -15.3677788  10.1167288  25.4123096 -13.9105663
  10.4374647  26.5414696 -15.6243248  10.3091421  27.9267159 -15.1032581
   9.3099651  28.3752289 -15.4064674  11.1760330  28.5329323 -15.4976568
  10.3590546  27.8785114 -13.9898958  11.8685999  26.1921501 -15.4682541
  12.0468855  25.2518253 -15.9428062  12.0687399  26.0638618 -14.4287395
  12.4560823  26.9723511 -15.9133520  10.1661673  26.5361252 -17.1075230
  10.2225218  25.4800205 -17.3915806  10.9879398  27.1846943 -17.5127487
   9.1964579  27.0011616 -17.3213310   5.8291683  26.5746002 -17.5293789
   5.6378131  26.9628944 -14.9939480   5.6143403  24.7329979 -12.7437820
   5.2810392  25.5963440 -11.7925920   4.1601639  25.9884243 -11.5173550
   6.4842792  26.1417561 -11.0967216   7.3210630  26.4081554 -11.8003082
   6.2985373  27.1475010 -10.6321373   7.0421262  25.1783485 -10.0463600
   6.2793441  24.9482136  -9.2480497   7.2641034  24.1694279 -10.5134029
   8.3474293  25.6202812  -9.4130716   9.1056871  25.6159325 -10.1984253
   8.1154099  26.6400318  -8.9984102   8.8825130  24.6299667  -8.3242445
   8.9591923  23.6222935  -8.7238903   9.8932848  24.9629784  -8.0368595
   7.9138975  24.4408226  -7.1151729   7.5149274  25.3980370  -6.8878860
   7.0921369  23.7719822  -7.4066753   8.6072550  23.9041500  -5.8784842
   9.1253319  22.9698372  -6.1058788   9.3590841  24.6693020  -5.6546521
   7.6494808  23.7056904  -4.6211829   8.2497425  23.7292709  -3.6878932
   6.8747859  24.4880466  -4.6216874   6.9354634  22.4081116  -4.6389227
   5.9672842  22.2900372  -5.1559110   7.2539210  21.3742752  -3.8698792
   6.7193823  20.3954887  -3.8731971   8.5576115  21.2612343  -3.0758104
   8.7563343  20.1844692  -2.9837565   9.3556662  21.7941170  -3.6205530
   8.6142912  21.8456726  -1.6598420   9.6129570  21.6212559  -1.2920033
   8.5803299  22.9468136  -1.6601689   7.6009388  21.2544918  -0.6885871
   6.6487370  21.2545948  -1.2840869   7.8688745  20.2274227  -0.5326182
   7.3710065  21.8972855   0.6809775   6.6841750  21.2839127   1.3057561
   8.2865248  21.9080467   1.2438396   6.8268847  23.3406239   0.6248869
   6.9031425  23.7752323   1.6149111   7.5231433  23.9255886   0.0618657
   5.4461665  23.5051174  -0.0679027   5.3157816  24.5015697  -0.5209941
   5.4849958  22.7860851  -0.8934710   4.2359281  23.0986519   0.8261729
   4.4213176  22.0827579   1.2368375   4.1963830  23.8390770   1.5364693
   2.9466367  23.1640797  -0.0430640   2.0912213  22.9850655   0.5626518
   2.9401851  22.4994011  -0.9227794   2.8094635  24.1803741  -0.4293744
  23.5053749  -0.6620404  -0.6846648  24.1000023   0.2441854  -0.6219800
  22.8505154  -0.7472495   0.1692020  22.8485699  -0.5883511  -1.5375196
  24.4146233  -1.8349028  -0.9826026  24.9573307  -2.1745472  -0.1142366
  25.1574306  -1.5732884  -1.7384887  23.5497189  -2.9975986  -1.5105735
  22.8099041  -2.5824902  -2.1943786  22.9668522  -3.4219890  -0.7196986
  24.3477631  -4.1453781  -2.2439923  23.6478786  -4.9873309  -2.5526915
  25.0452976  -4.6120634  -1.5884812  25.1940994  -3.6213279  -3.4202185
  25.5750313  -4.4997702  -4.0047526  26.0511227  -3.0600131  -3.0260813
  24.4856682  -2.6837783  -4.4388285  25.2219677  -2.5022242  -5.2029018
  24.2388134  -1.7292328  -3.9448676  23.2313805  -3.3718178  -4.9850788
  22.5443058  -3.6519089  -4.1847725  23.5261803  -4.3089170  -5.4075551
  22.5588017  -2.6066718  -6.1323066  22.3422928  -1.6290916  -5.7567434
  21.6353073  -3.0893483  -6.3631172  23.3305912  -2.5535374  -7.4523973
  23.3344822  -3.5418611  -7.9817939  24.3738346  -2.3167510  -7.2629972
  22.6281052  -1.5869385  -8.4110985  22.4140339  -0.6378478  -7.9361019
  21.6230888  -2.0260453  -8.5386686  23.2691555  -1.4232707  -9.7537975
  23.4622879  -2.4356039 -10.1474915  24.2193394  -0.9764171  -9.5954618
  22.3369770  -0.6192527 -10.6912098  21.8720036   0.2101631 -10.1077929
  21.4531136  -1.2303200 -10.9877100  22.9593563  -0.1021274 -12.0539103
  23.7876816   0.5418373 -11.8070259  22.2773972   0.5018372 -12.6047049
  23.4232407  -1.2213026 -13.0027962  22.6217918  -1.9084204 -13.2676754
  24.1505527  -1.9008892 -12.5480976  24.0232964  -0.6852046 -14.3318501
  24.7521000   0.1127198 -14.1471624  23.2584858  -0.2927994 -14.9877110
  24.6910648  -1.7190586 -15.1264038  25.3697033  -2.6104500 -14.6747112
  24.5470600  -1.5490233 -16.4422359  25.1024609  -2.5145364 -17.3818569
  26.0355930  -2.9381180 -16.9954529  25.3950481  -2.0648899 -18.3207550
  24.0996437  -3.5986660 -17.8011646  24.5252628  -4.3802495 -18.4161510
  22.8814678  -3.0992374 -18.5217152  22.3951073  -2.3172317 -17.8744717
  22.2327404  -3.9724760 -18.7207928  23.0843086  -2.4184000 -19.7938461
  23.2393646  -3.2422862 -21.2116337  22.2523327  -4.4724016 -21.1828060
  20.8387375  -4.2878261 -21.3928070  20.6148434  -4.1193571 -22.5011234
  20.4550533  -3.4474170 -20.8296280  20.2049866  -5.6181412 -20.9653072
  19.1203995  -5.4544683 -20.8825283  20.5906010  -5.8601522 -19.9718170
  20.3388023  -6.8269200 -21.8540020  19.8090477  -6.6131430 -23.2196732
  18.8446312  -6.0971861 -23.2228870  19.6750412  -7.5547166 -23.7558441
  20.4282742  -6.0312815 -23.7930908  21.7243748  -7.3275633 -21.8483448
  22.1029186  -7.3938618 -20.8698826  22.3365955  -6.6048770 -22.4492741
  21.7360287  -8.2909536 -22.3345604  19.4452190  -7.8656392 -21.2253475
  19.7535210  -8.0056343 -20.1486664  19.5268326  -8.8262520 -21.7850609
  18.4165478  -7.5038314 -21.3353539  22.7861862  -2.3586290 -22.2965336
  24.6262951  -3.7549667 -21.2789803  23.5551300  -4.2673635 -16.6209412
  24.4250526  -5.1243067 -15.9860229  25.5226040  -5.4748840 -16.4409809
  23.7915688  -5.7102919 -14.7923365  23.2402267  -4.9884362 -14.2589378
  23.0674152  -6.4586492 -15.0958643  24.7739258  -6.3482504 -13.7319174
  25.4045486  -7.1412354 -14.2204142  25.4503803  -5.5702567 -13.3860111
  24.1419830  -7.1240740 -12.5780973  23.4439316  -7.9035621 -12.9599724
  24.9201946  -7.6646523 -12.0001984  23.3316841  -6.2276216 -11.6415215
  22.6203995  -5.6643891 -12.1455116  22.9150028  -6.8161035 -10.8811369
  24.1162510  -5.1088719 -10.9331665  24.4697933  -4.4114347 -11.6839981
  23.4894581  -4.5422311 -10.2109528  25.4080658  -5.4813395 -10.1756487
  25.1187820  -6.1754799  -9.3928699  26.0240955  -5.9761524 -10.8949099
  26.0774651  -4.2962313  -9.4795904  25.3433399  -3.9080935  -8.7308798
  26.9052429  -4.6343966  -8.8635206  26.4689999  -3.1464014 -10.3976202
  25.8076744  -3.0300331 -11.2642803  27.4579334  -2.2877617 -10.1847229
  27.6181393  -1.4428943 -10.8670130  28.4250908  -2.2732017  -9.0140200
  28.0705242  -2.9406242  -8.2097235  29.4276600  -2.5915265  -9.2822332
  28.4458714  -0.8442259  -8.4374514  29.0818520  -0.8781370  -7.5437284
  28.8270473  -0.1135907  -9.1558294  27.0624008  -0.3785997  -7.9845533
  26.4594936  -0.3699573  -8.9359493  26.6384983  -1.0403414  -7.2137384
  27.0532990   0.9921956  -7.3568082  27.6008148   0.9956411  -6.4011235
  27.5289803   1.6084110  -8.0668583  25.6241226   1.5386511  -7.1856570
  25.7673492   2.5679731  -6.9600201  25.1216316   1.4316645  -8.1603823
  24.8688393   0.8601307  -6.0687218  24.6728210  -0.1348102  -6.3621922
  25.4864807   0.8742602  -5.1915927  23.5373993   1.5993538  -5.7952471
  23.7742825   2.6625884  -5.6382895  22.7718239   1.4548819  -6.6146402
  22.9022770   1.1036212  -4.4529510  22.2570210   1.8465935  -4.0944595
  23.6660748   0.9278495  -3.7227845  22.3126507   0.2099111  -4.6104984
 -22.9506855  29.9557610   0.4374354 -23.8816452  30.3660698   0.9430235
 -22.3737736  30.7830143   0.0294913 -22.2822456  29.5808125   1.2095203
 -23.2318420  28.9323406  -0.6872174 -23.5945892  29.4953995  -1.5878654
 -23.9447002  28.1781216  -0.4344152 -21.8378620  28.2858067  -1.0440329
 -21.5255909  27.7077026  -0.1252431 -21.1463375  29.1087551  -1.2557064
 -21.8163090  27.2556896  -2.1863987 -22.2643452  27.7406292  -3.0668771
 -22.3655300  26.3648415  -1.8321036 -20.4056530  26.7487831  -2.6058495
 -19.9986820  25.9432201  -1.9802046 -19.7408829  27.6035671  -2.6558039
 -20.4180050  26.0777702  -3.9964352 -19.3893127  25.8128738  -4.3386550
 -20.7509270  26.7854710  -4.7638254 -21.2998180  24.7601814  -4.0753102
 -22.2960453  24.9629898  -3.6364458 -20.8371181  24.0082531  -3.4404633
 -21.5038719  24.3416023  -5.5607314 -22.0441742  23.3827782  -5.5956035
 -20.4931107  24.2282219  -6.0491095 -22.3689880  25.3608322  -6.3187318
 -21.8429661  26.3260078  -6.4437704 -23.1940765  25.5881214  -5.6013994
 -22.8919640  24.8224297  -7.6742368 -23.5426998  23.9498253  -7.5147066
 -22.0956841  24.5002537  -8.3481112 -23.6628323  25.9548264  -8.3822575
 -24.0296268  25.4526138  -9.3323030 -22.9463654  26.7261868  -8.6826410
 -24.8247433  26.5919666  -7.5995688 -24.5003109  27.2006340  -6.7701263
 -25.4755573  25.8019924  -7.1904192 -25.7342129  27.4586582  -8.4923143
 -26.1116714  26.8872623  -9.3506680 -25.1805096  28.2778091  -8.9796333
 -26.9069080  27.9902554  -7.6543374 -26.5925121  28.6598110  -6.8309813
 -27.4033947  27.1497536  -7.1924095 -27.9988594  28.7344265  -8.5158072
 -28.0184078  28.1943932  -9.4403801 -28.9966965  28.6527748  -8.0768089
 -27.6117611  30.1636696  -8.8753719 -28.1144218  31.1103611  -8.2922449
 -26.6650620  30.3056183  -9.7996082 -26.3458996  31.6873474 -10.2543697
 -26.1062279  32.3101578  -9.3785677 -27.2631569  32.0848389 -10.7766523
 -25.1555672  31.6052532 -11.2824345 -25.0074043  32.5978279 -11.7153130
 -25.3691673  30.7018394 -12.4898672 -26.1902657  29.9979401 -12.1846209
 -24.4400864  30.1643829 -12.6917181 -25.7435055  31.4325542 -13.7144766
 -27.2059422  32.0851288 -13.8561935 -26.9986706  33.4985733 -13.1076479
 -26.4394417  34.6535797 -13.8466263 -26.4713287  34.5094452 -14.9487019
 -25.4160805  34.7828598 -13.5334835 -27.1737499  35.9255562 -13.4809961
 -26.5187817  36.7604485 -13.6887159 -27.4401894  35.8920250 -12.4508848
 -28.4404011  36.2179871 -14.2652836 -29.2121544  37.3628502 -13.6513729
 -29.5168190  37.0191994 -12.6374903 -30.0775833  37.5812454 -14.3018427
 -28.5766773  38.2290726 -13.5378942 -28.1514912  36.5129890 -15.6675568
 -27.7878551  35.6377373 -16.1466560 -27.3634129  37.2879219 -15.6666031
 -29.0906372  36.8665543 -16.1093502 -29.3180485  34.9872093 -14.1474171
 -28.8891106  34.2277336 -14.7911692 -30.3313618  35.2124557 -14.4935799
 -29.3441505  34.6747284 -13.1081667 -27.4242001  32.2461243 -15.3123579
 -28.1861382  31.2883453 -13.1222486 -23.8951473  31.1631012 -10.6581793
 -22.9804134  32.0881729 -10.2929029 -23.1725388  33.2946701 -10.2627802
 -21.6975632  31.5339298  -9.7681751 -21.4583015  30.6254482 -10.3115931
 -20.9372311  32.3141403  -9.9773788 -21.7146416  31.2639694  -8.2674770
 -20.6647282  31.3036079  -7.9645977 -22.2931843  32.0415535  -7.7736626
 -22.3243046  29.8967533  -7.8456850 -23.3660107  29.8843956  -7.9949384
 -21.9163876  29.0681629  -8.4633284 -21.9863338  29.6186237  -6.3546844
 -22.0401993  28.5161381  -6.2100801 -20.9397430  29.8630562  -6.2600751
 -22.8932610  30.3136711  -5.2871876 -22.5718193  29.9076500  -4.2887235
 -22.6756287  31.3993111  -5.2174978 -24.4067402  30.0288315  -5.5041380
 -24.7661953  30.2431107  -6.5385814 -24.5159702  28.9582729  -5.5183077
 -25.3313656  30.6568317  -4.4336243 -25.0808067  30.0952168  -3.5163405
 -25.1322269  31.7319336  -4.2565055 -26.7746525  30.4257660  -4.7957001
 -27.0062447  30.8625488  -5.7436800 -27.5846310  29.5922832  -4.2038674
 -28.5700340  29.4462280  -4.6752458 -27.2353249  28.9443569  -2.8660278
 -26.7625027  29.7272892  -2.2574499 -28.1890888  28.7087460  -2.3841360
 -26.3441315  27.6714687  -2.8591654 -25.4204197  27.8205128  -3.3828056
 -25.9162254  27.4309139  -1.8382741 -27.0411568  26.4767914  -3.5190794
 -27.7723045  26.0019226  -2.8300343 -27.5284309  26.8634148  -4.3976488
 -25.9937744  25.4014416  -3.9652352 -26.5492287  24.4986343  -4.2195139
 -25.3975391  25.6782417  -4.8441682 -24.9919796  24.9195518  -2.9479125
 -24.2821579  24.2664318  -3.5123465 -24.4727688  25.7482319  -2.5146232
 -25.5848026  24.1790009  -1.7824947 -26.4245052  24.7319641  -1.3579053
 -26.0609226  23.2386379  -2.1784074 -24.5755177  23.9220409  -0.6529960
 -23.8828964  23.2191505  -1.0035658 -24.0946369  24.8894424  -0.4215735
 -25.1601238  23.3423252   0.6519040 -24.3581047  23.0982590   1.3842977
 -25.7367325  22.4889679   0.3641928 -25.8292561  24.0089035   1.2132117
  10.5907450 -32.6352272  -3.7233195  11.2531672 -31.7821121  -3.9084873
  11.1823750 -33.5338554  -3.6210642   9.9593229 -32.4784012  -2.8394368
   9.7326479 -32.8196640  -4.9939113  10.3452673 -33.0973091  -5.8466530
   9.3051796 -31.8452282  -5.2160907   8.5922680 -33.8485947  -4.9333019
   8.9322176 -34.8641930  -4.8785443   8.0038404 -33.7724533  -5.8779664
   7.6139383 -33.5191269  -3.7460496   7.5702438 -32.4475632  -3.6012945
   7.9285822 -33.9317627  -2.8239350   6.2223477 -34.1176109  -4.0515885
   5.7518940 -34.2829437  -3.1213999   6.4587455 -35.1450691  -4.5059433
   5.3765755 -33.2524986  -5.0109224   4.5872684 -33.8345032  -5.5456538
   6.0086412 -32.7431526  -5.7276483   4.6337967 -32.0872154  -4.2622547
   5.3051467 -31.6057491  -3.5512724   3.8461294 -32.5407104  -3.6137459
   3.9467058 -31.0992794  -5.1396222   4.7367558 -30.5969791  -5.7253795
   3.4159696 -30.3603573  -4.5903597   2.9894373 -31.7270451  -6.1571832
   2.2583160 -32.2877502  -5.5620770   3.6143849 -32.3025970  -6.8067842
   2.2521324 -30.6836243  -7.0989366   1.7419734 -29.9306145  -6.5736303
   1.5006797 -31.1612225  -7.6985288   3.2314537 -29.8727779  -8.0328264
   4.0074835 -30.4354000  -8.4674311   3.6808183 -29.0397491  -7.4402838
   2.4953084 -29.2981529  -9.2913322   1.6038905 -28.7594223  -8.8700104
   2.1347322 -30.0449677  -9.9848633   3.2841902 -28.3249950 -10.2040310
   3.6249921 -27.5161743  -9.5820103   2.6342237 -27.9172497 -10.9746857
   4.5584230 -28.9031010 -10.8948221   4.1838055 -29.6332912 -11.6626692
   5.2287002 -29.3201065 -10.1634169   5.2386885 -27.7812481 -11.6842499
   5.4469938 -26.8856354 -11.0700321   4.5981321 -27.4970837 -12.4577913
   6.5682645 -28.1786385 -12.3763170   7.4909878 -27.4200058 -12.6571331
   6.7772336 -29.5181293 -12.4688969   7.9222918 -29.9558353 -13.1913948
   8.7507591 -29.8269634 -12.5497665   8.0596886 -29.3580456 -14.0691099
   7.8612089 -31.4303970 -13.6273813   8.5871086 -31.5556259 -14.3878736
   6.4337630 -31.6984863 -14.2700291   5.6266174 -31.6850128 -13.5227737
   6.4783902 -32.7048645 -14.6460094   6.1028333 -30.8957577 -15.4267330
   6.9420295 -31.0855103 -16.8649292   8.2248411 -30.1268997 -16.6831112
   8.1081142 -28.7022018 -16.8357773   7.3398061 -28.3793240 -16.1876621
   7.9521151 -28.3930473 -17.8470497   9.4256792 -28.0870934 -16.2881317
   9.6854086 -28.5219650 -15.2852621   9.3019276 -27.0416622 -16.2083263
  10.6191969 -28.1611423 -17.1972752  11.0673800 -29.5966892 -17.3780003
  11.3669682 -30.0046654 -16.3911896  11.8952265 -29.5761967 -18.1235867
  10.1717958 -30.1132679 -17.7849026  10.3290930 -27.4297752 -18.5027905
   9.8112288 -26.4894295 -18.2273979   9.7314758 -28.0787373 -19.1625423
  11.3206911 -27.1736336 -18.9452763  11.7872858 -27.4653797 -16.5680809
  11.4791451 -26.4437866 -16.3910885  12.7118540 -27.5550346 -17.2265244
  11.9223423 -27.9157715 -15.6258860   7.4217243 -32.4882088 -16.9299583
   6.1447477 -30.5696888 -18.0047741   8.0976114 -32.3591194 -12.5143681
   9.3078165 -32.8869209 -12.2749157  10.3176107 -32.4554405 -12.8113508
   9.2708216 -33.9099045 -11.1659899   8.2558041 -34.0674171 -10.7201471
   9.5422459 -34.8891716 -11.6276731  10.2996292 -33.6022911 -10.0468340
  10.5491180 -34.5292511  -9.5031290  11.2576532 -33.2046814 -10.4498158
   9.7606478 -32.6176682  -8.9888210   8.9424686 -33.1117287  -8.4377136
  10.5653000 -32.4795609  -8.2625828   9.2745790 -31.3048668  -9.5674391
   9.8827953 -30.9335060 -10.3481026   8.3364048 -31.4577084 -10.0037718
   9.0278177 -30.1897221  -8.5156975   8.5213051 -30.6030865  -7.5773544
   9.9952116 -29.8507290  -8.1545582   8.2865925 -28.9719238  -9.0390759
   8.8283291 -28.7040901  -9.9765224   7.2718120 -29.3415756  -9.3535843
   8.1497040 -27.8672104  -8.0393524   7.5830741 -28.2023888  -7.1335263
   9.1208849 -27.4370613  -7.6946549   7.3652754 -26.7185516  -8.6911001
   7.8908372 -26.2551861  -9.5266418   6.1798425 -26.1668682  -8.3161583
   5.8870535 -25.3282394  -8.8843708   5.2304516 -26.6681023  -7.2331772
   4.2130065 -26.7528381  -7.6331525   5.5905147 -27.6096897  -6.8642259
   5.2223496 -25.7509232  -6.0126371   6.2619638 -25.5475025  -5.6748195
   4.7848573 -24.8505116  -6.3765454   4.3777857 -26.3539200  -4.8478265
   4.4008861 -25.7791595  -3.9515409   3.4151866 -26.2534523  -5.2159743
   4.7439880 -27.8219452  -4.4949369   4.2422624 -28.3928223  -5.2598853
   5.8214102 -27.9982491  -4.6124396   4.2899847 -28.2689838  -3.0754802
   4.5207696 -29.3246441  -2.8447809   4.7645869 -27.7060318  -2.3324225
   2.7296636 -28.2475777  -2.8949974   2.3573675 -27.2191143  -3.0730009
   2.3573050 -28.9786739  -3.6075079   2.2771034 -28.6259460  -1.4743131
   1.1915665 -28.6440735  -1.4027956   2.6415610 -29.5963745  -1.1699520
   2.8237679 -27.6113682  -0.4349318   2.1181993 -27.4248734   0.3730732
   3.0663550 -26.6723232  -0.9121543   3.7783065 -28.0241699  -0.0616676
  27.7759953   2.4998274   1.4664084  27.3204994   2.0684292   2.3778856
  27.3671570   3.4806929   1.4081585  28.8695049   2.5797849   1.5801753
  27.4375916   1.5639685   0.3013058  26.3385220   1.3902194   0.3023688
  27.9930668   0.6074464   0.3615160  27.8058147   2.2157631  -1.0558718
  28.8885345   2.4132874  -1.0797342  27.3110123   3.1767583  -1.1701702
  27.4535732   1.3611448  -2.2732844  26.3625317   1.2234145  -2.4175282
  27.8704243   0.4039598  -2.0930622  28.1124096   1.7705660  -3.5947707
  27.9425240   0.8989241  -4.2489891  29.1662769   1.8711756  -3.4728024
  27.5876904   3.0257728  -4.2980700  26.5664520   3.1082366  -4.0492887
  27.6471500   2.8235853  -5.3403339  28.3684349   4.3508143  -4.0861125
  29.3978596   4.2157106  -4.4145336  28.3461761   4.6921558  -3.0300257
  27.7970867   5.5161619  -4.9745665  28.2212238   6.4213667  -4.5680327
  26.7166691   5.6064792  -4.8579373  28.0559521   5.3317566  -6.4926109
  27.3272896   4.5655031  -6.8513651  29.0795155   4.9533844  -6.6601377
  27.6958923   6.6376595  -7.2179193  28.2725430   7.5092072  -6.8875527
  26.6218929   6.8625121  -7.1173120  27.9848385   6.5162158  -8.7295485
  29.0552311   6.7958207  -8.8376913  27.4951439   7.3101473  -9.2629757
  27.7419949   5.1702542  -9.4700956  26.6705799   4.9084730  -9.4116182
  28.2996292   4.3863554  -8.9950466  28.1675224   5.3970623 -10.9368134
  29.2461491   5.5640898 -10.9644499  27.6192932   6.3119717 -11.2833967
  27.7615280   4.3017502 -11.9272509  27.8817406   4.8200221 -12.9101753
  26.7122936   4.0065212 -11.8573580  28.6261101   3.0753908 -11.8667231
  28.6230278   2.6644824 -10.8613005  29.6539574   3.3077977 -12.1153889
  28.1029396   2.0386438 -12.8187962  27.2343044   1.1846952 -12.5442142
  28.7000465   2.0159500 -14.0531969  27.8444939   1.5116655 -15.1014748
  27.1036530   0.7989710 -14.7913313  28.4778290   0.9904567 -15.8193598
  27.2840290   2.6713090 -15.9513941  26.6385441   2.2479315 -16.7375202
  28.3987541   3.4879661 -16.6652794  28.8436413   2.8743007 -17.5348091
  29.1562748   3.6821482 -15.9036245  27.8892517   4.7553749 -17.1985779
  26.6913204   4.8533888 -18.3093452  25.3775578   5.1481390 -17.3407402
  25.3317051   6.4434056 -16.6480865  25.9806347   7.1236205 -17.1212883
  25.5594330   6.2872343 -15.6136694  23.9122105   6.9887285 -16.6912041
  23.8908844   7.9163194 -16.1098080  23.2302094   6.1953206 -16.2545643
  23.3991222   7.4096413 -18.0210972  24.2796173   8.3647242 -18.7522297
  24.7880955   9.0231848 -18.0638924  23.6769505   8.8743601 -19.5025558
  25.1092415   7.7693615 -19.1897869  23.0454617   6.2663789 -18.8930302
  22.5105476   5.5624528 -18.2290401  23.9548531   5.7871585 -19.2944641
  22.4529648   6.6109796 -19.7049675  22.1075706   8.0926056 -17.7794304
  21.4653225   7.4360490 -17.2007198  21.5663548   8.2972164 -18.7003021
  22.2929173   8.9745264 -17.1220188  26.9352188   6.0997496 -19.0685253
  26.5265064   3.5293367 -18.9989796  26.5131760   3.6061361 -15.1322565
  25.2211781   3.3241234 -14.8814106  24.6254387   2.4138587 -15.4627190
  24.6068287   4.2335887 -13.8486147  25.3784256   4.9662480 -13.5416851
  23.7988281   4.7593069 -14.3717480  24.1452446   3.3751311 -12.7081690
  23.3733387   2.6375952 -13.1369972  24.9956303   2.7617612 -12.4238539
  23.6657982   4.2797427 -11.5342255  24.5183468   4.9147577 -11.2543955
  22.8494453   4.9122028 -11.9294367  23.1574631   3.5415320 -10.3105125
  22.3865871   2.8928316 -10.6337442  24.0461750   2.9706106  -9.9606171
  22.5786896   4.4526320  -9.1808729  21.9386272   5.1411080  -9.6758537
  21.9450741   3.8521256  -8.5112047  23.7285061   5.2265077  -8.4835997
  24.4327526   4.5286021  -8.0483665  24.2353096   5.8541675  -9.2322235
  23.2657604   6.1411290  -7.3450093  24.1402798   6.5087414  -6.7918849
  22.8081608   6.9967246  -7.8180842  22.1967869   5.5370960  -6.4238224
  21.3971748   5.0600953  -6.9443851  22.0970554   5.6646752  -5.0979810
  21.2299576   5.2817588  -4.6053939  23.1199245   6.3531642  -4.2332621
  24.1296749   6.4439974  -4.7126079  22.7575302   7.3742704  -4.0854654
  23.2410545   5.6567998  -2.8167641  23.9176292   6.1740899  -2.1213486
  22.2336483   5.6014042  -2.4057927  23.7452812   4.2187605  -2.7953112
  23.1850357   3.5782480  -3.5692887  24.7777214   4.2701621  -3.0583632
  23.5760422   3.5005765  -1.4153161  24.1260147   2.5188377  -1.4932160
  24.0762825   4.0751510  -0.6185086  22.0874882   3.2048941  -1.1858377
  21.4612236   4.0804009  -1.2822281  21.7502384   2.5277851  -1.9788451
  21.6381493   2.4691010   0.0834736  22.2307510   1.5618497   0.1345559
  21.7982845   3.0076730   1.0007337  20.1441460   2.0271549  -0.0537467
  19.5480709   2.9260077  -0.0651777  19.9163609   1.5303023  -1.0410457
  19.7617207   1.0455090   1.0833527  18.6995850   0.7557503   0.9875638
  19.8269520   1.6118513   2.0503812  20.4778481   0.2266385   1.1530955
  11.3078928 -27.4302750  -4.5772552  11.0287962 -27.2095470  -3.5214047
  10.4879303 -27.2032146  -5.2752800  12.2181845 -26.8438129  -4.8116498
  11.6090260 -28.9480400  -4.6528358  10.6132736 -29.4522476  -4.6011448
  12.2461815 -29.3942261  -3.8211989  12.1610632 -29.3622894  -6.0321660
  11.5197678 -28.9710407  -6.7775245  12.1765661 -30.4597759  -6.1068020
  13.6130476 -28.8678665  -6.1855249  14.0735779 -29.0798969  -5.2451396
  13.6166115 -27.8162289  -6.3068008  14.3763151 -29.4966049  -7.3737364
  14.5902338 -30.5714111  -7.2037334  15.3641176 -29.0304966  -7.4634356
  13.5987234 -29.3019581  -8.6774750  13.4543886 -28.2583218  -8.8337975
  12.6313581 -29.7603016  -8.5143948  14.1141891 -30.0280075  -9.9188347
  14.3851395 -31.0624599  -9.7130623  15.0109186 -29.4856377 -10.2598190
  13.1062880 -29.8718643 -11.1024685  12.2525120 -30.5515652 -10.9372606
  13.6145363 -30.1886826 -12.0078840  12.3620462 -28.4789391 -11.3388958
  13.1022940 -27.6954193 -11.3132715  11.6884375 -28.2979393 -10.4300175
  11.4664268 -28.3960896 -12.6109638  10.7022991 -29.2222328 -12.5662136
  12.0037851 -28.7047977 -13.5029221  10.6912470 -27.1002216 -12.8325891
   9.9845924 -26.8376083 -12.0148945  10.1201878 -27.1963139 -13.7396774
  11.5850210 -25.8681030 -13.0702496  12.2452536 -26.1111279 -13.9196863
  12.1372528 -25.5593395 -12.1537123  10.8018532 -24.5694370 -13.4112978
  10.0611029 -24.7662163 -14.1797600  11.5084515 -23.8525677 -13.8772593
   9.9881687 -23.9829292 -12.2672701  10.7337341 -23.5660095 -11.5658321
   9.4409790 -24.7366982 -11.7562113   9.0901461 -22.7564220 -12.5161505
   8.5765591 -22.4628296 -11.5916367   8.2920179 -23.0768318 -13.1451511
   9.7556429 -21.5406055 -13.1340218   9.1795597 -20.7244320 -13.8090630
  11.0576591 -21.3900585 -12.7349300  11.8663988 -20.2591400 -13.2656088
  12.6719580 -20.0271969 -12.5572109  11.3492775 -19.3268585 -13.3291616
  12.6018658 -20.6242924 -14.5506592  13.3470545 -19.8229675 -14.7744694
  11.7669525 -20.7584553 -15.7935667  12.4946394 -20.4553967 -16.5849457
  11.0163126 -19.9998341 -15.6217003  11.1563311 -22.0925694 -15.9656134
  11.5555573 -23.0842323 -17.2553425  12.9587469 -23.8129501 -16.9165916
  14.2354383 -23.1783848 -17.1074429  14.8702059 -23.4570103 -16.3436718
  14.1527185 -22.1004200 -16.9626122  14.8711414 -23.4789677 -18.5113640
  15.7872334 -22.9084110 -18.6638393  14.1867533 -23.1206970 -19.2809925
  15.2171478 -24.9264565 -18.8567524  16.3029461 -25.4308357 -17.9472904
  17.1811905 -24.7889938 -17.9674358  16.5634136 -26.4878960 -18.2188072
  15.8748960 -25.3535252 -16.9836273  14.0486574 -25.8098316 -18.8020573
  13.2811928 -25.4340248 -19.4772491  13.7096424 -25.7777119 -17.7970238
  14.3676519 -26.8234673 -19.0985050  15.7167196 -25.0225277 -20.2535992
  14.9805946 -24.4740658 -20.8527184  15.7350626 -26.0722427 -20.5263214
  16.6901741 -24.6057167 -20.2997208  10.5207195 -24.1555614 -17.2893753
  11.6600122 -22.2254181 -18.4535809  13.3556004 -21.8905830 -14.3889446
  14.3828640 -21.9423695 -13.5290632  14.9068699 -20.8983727 -13.1366692
  14.8317289 -23.3568497 -13.1957436  14.3568268 -24.1000538 -13.7776680
  15.9166136 -23.3846779 -13.3478756  14.5389071 -23.6159420 -11.6692152
  15.0848475 -22.8827381 -11.1192179  13.5539923 -23.3835964 -11.3823280
  14.9744883 -24.9422359 -11.1437626  14.4124994 -25.7213306 -11.6580410
  16.0305042 -25.0554276 -11.4535322  14.9438372 -25.0432472  -9.5892506
  15.1805391 -26.0752010  -9.3035288  15.8089886 -24.5038509  -9.1567020
  13.5679207 -24.6060181  -9.0134563  13.3480158 -23.5734482  -9.2350035
  12.7663412 -25.2403545  -9.5181170  13.5460281 -24.8932533  -7.5433445
  13.8569965 -25.8785324  -7.2279997  14.3227091 -24.2115440  -7.1346145
  12.1841040 -24.5682335  -6.9519739  11.4604006 -25.2770977  -7.2546287
  12.3871384 -24.6895771  -5.9138150  11.7556610 -23.1844349  -7.2696018
  12.5125256 -22.4442558  -7.4659801  10.5369568 -22.8285332  -7.5762153
  10.3721189 -21.8374043  -7.9286265   9.2737103 -23.6856194  -7.4937434
   8.9364185 -23.9640980  -8.4807329   9.5174322 -24.5646667  -6.9378734
   8.0997143 -22.8839893  -6.8235273   7.8528738 -21.9825745  -7.4020333
   7.1734018 -23.5275631  -6.8247037   8.3594275 -22.5131016  -5.3133101
   9.1872129 -21.7759018  -5.2496142   7.4937258 -21.9686584  -5.0132589
   8.6450119 -23.7293911  -4.3969059   7.8432231 -24.4352913  -4.4857330
   9.5417385 -24.2569065  -4.8128729   8.9084463 -23.3693237  -2.9542923
   9.1850262 -24.2679005  -2.3754530   9.8513212 -22.7883892  -2.8908043
   7.7665672 -22.6150780  -2.2013931   7.9966350 -22.5860825  -1.1416340
   7.8404198 -21.5966587  -2.5213838   6.3467951 -23.0964680  -2.4159629
   5.6620951 -22.3789711  -1.9090639   6.1068149 -23.0643291  -3.4690080
   5.9994836 -24.4565277  -1.8543254   4.9380584 -24.6784897  -2.0431290
   6.0749793 -24.3931618  -0.7875666   6.6329393 -25.2475090  -2.1837137
 -34.4304276   6.7596555  -5.3530407 -35.1773529   6.1824756  -4.7766619
 -34.6810875   7.8063612  -5.2397585 -33.4546776   6.5929155  -4.9122200
 -34.3833847   6.3571239  -6.7993951 -35.3120956   6.6515546  -7.3095632
 -34.3964996   5.2506590  -6.8429928 -33.1204033   6.8594546  -7.5370831
 -33.1115913   6.5121503  -8.5770302 -32.3020248   6.4674015  -6.9503636
 -33.0112915   8.4365101  -7.5964956 -32.0410690   8.6658840  -7.9973502
 -33.1293602   8.8474808  -6.6142888 -34.0967484   8.9932289  -8.5403862
 -35.1216507   8.7435741  -8.1676588 -34.1011200   8.6256685  -9.5565777
 -34.0645409  10.5544949  -8.5978270 -34.0689392  10.8753910  -7.5778255
 -35.0036087  10.9345627  -8.9655266 -32.8964691  11.1418238  -9.4006109
 -33.0018768  10.6881990 -10.4202137 -31.9385605  10.8310337  -8.9829960
 -32.8962860  12.6846657  -9.4550791 -32.6735611  13.1233463  -8.4912767
 -33.8730049  13.0706491  -9.7227268 -31.8939896  13.2156315 -10.5304947
 -32.1611557  12.7110186 -11.4816761 -30.9045124  12.8214664 -10.2829094
 -31.8260174  14.7147274 -10.6063709 -31.4876862  15.1587667  -9.6568317
 -32.8372421  15.0790205 -10.7506895 -30.8820629  15.2852106 -11.7232409
 -29.8930531  14.8133850 -11.6204252 -30.7703762  16.3649349 -11.6615982
 -31.3829403  14.8384657 -13.1543961 -31.0013599  13.8537045 -13.3834457
 -30.9488277  15.5217123 -13.8410797 -32.8908310  14.7767849 -13.4108057
 -33.3739662  15.6735659 -13.0139055 -33.3538933  13.9371023 -12.9171219
 -33.2549820  14.7552671 -14.8787775 -33.0540085  15.6501732 -15.4664249
 -34.3714981  14.7785387 -14.9063406 -32.8076477  13.5186977 -15.6797905
 -33.5727539  13.4367008 -16.4752502 -32.9130974  12.6410904 -15.0322781
 -31.4742088  13.5961189 -16.4005299 -30.4651546  14.0670414 -15.9460745
 -31.5972519  13.0404663 -17.6262760 -30.4463596  13.0085707 -18.4440479
 -29.6778564  13.7334070 -18.1688881 -30.7964325  13.2326136 -19.5041523
 -29.7945328  11.5658875 -18.4473839 -28.8387089  11.6477547 -19.0258522
 -30.6394005  10.5448065 -19.2793522 -31.6871662  10.7551661 -19.0758686
 -30.3762417   9.5255060 -18.9754124 -30.2691059  10.6115952 -20.6903725
 -31.3040333  10.4668989 -21.9012165 -31.2775631   8.8968477 -22.1619873
 -32.2596245   8.0259142 -21.5956516 -33.2520866   8.2764301 -21.9434719
 -32.1891785   8.1294308 -20.5135155 -31.9010201   6.5445528 -21.9737263
 -32.6423607   5.8957915 -21.5216618 -30.9509850   6.2899919 -21.5504665
 -31.9320889   6.1584425 -23.4163074 -33.1710854   6.5944672 -24.1556740
 -33.0188408   6.3185415 -25.1911659 -33.4339638   7.6479883 -24.0348625
 -34.0454674   6.0880251 -23.7576694 -30.7452583   6.7264314 -24.1047192
 -29.8528595   6.3327212 -23.6472969 -30.7886620   7.8270731 -23.9911270
 -30.7903404   6.3776608 -25.1646423 -31.8876114   4.7033176 -23.4686317
 -31.2346535   4.3169899 -22.7092781 -31.5887299   4.4671402 -24.4756432
 -32.9062042   4.3293195 -23.2223511 -32.6179924  10.9175739 -21.4274578
 -30.7092705  11.1540594 -23.0524445 -29.5488167  11.0506496 -17.1235924
 -28.4929161  11.5120831 -16.3780575 -27.6521473  12.3085489 -16.7612247
 -28.4831219  10.9696693 -14.9903574 -28.4661884   9.8547297 -15.0151691
 -27.4431400  11.1967125 -14.6440125 -29.5907383  11.4591179 -14.0222311
 -29.4511623  12.5340605 -13.7348700 -30.5739689  11.4184752 -14.5367527
 -29.6673107  10.6974163 -12.7210283 -30.6061172  11.0212669 -12.2289362
 -29.8513203   9.6835146 -13.0473185 -28.5423260  10.8312979 -11.6937971
 -28.8741989  10.4179869 -10.7419195 -27.6862068  10.2784729 -11.9796419
 -28.1158428  12.2882261 -11.3644829 -27.5274258  12.6304970 -12.2125235
 -28.9909782  12.9236364 -11.3351688 -27.3039074  12.4055185 -10.0556078
 -27.8244610  12.0537033  -9.1427078 -26.3833809  11.8042994 -10.1526308
 -26.9601479  13.8108110  -9.6943932 -26.3873596  13.7927713  -8.7736406
 -26.2866879  14.2355623 -10.4177895 -28.1195946  14.7178326  -9.4655991
 -28.2187481  15.4172001 -10.2657175 -28.9834976  14.7331619  -8.4022417
 -29.8077202  15.3838930  -8.4350891 -28.9692612  13.9033117  -7.1353636
 -28.1412487  13.2161655  -7.1850228 -28.7969036  14.6147738  -6.3255501
 -30.2974968  13.0855026  -6.9849873 -31.1835403  13.7395391  -7.1255326
 -30.4236603  12.3610687  -7.7636595 -30.4346447  12.3785162  -5.6184669
 -29.5989780  11.6341362  -5.5931139 -30.2832394  13.0821886  -4.8249326
 -31.8004837  11.6710148  -5.4644103 -32.6387596  12.4548683  -5.3838439
 -31.9987202  10.9865961  -6.3230257 -31.7047138  10.7381544  -4.2347984
 -32.6794662  10.3341665  -4.0422897 -30.9927216   9.9118586  -4.3879786
 -31.3475723  11.4920330  -2.9925039 -30.3252964  11.8699636  -3.0185304
 -32.0724564  12.2878685  -2.8283403 -31.4188366  10.5858431  -1.7372142
 -31.1022549  11.1931915  -0.8952281 -32.4699249  10.2665615  -1.5905720
 -30.5976315   9.3261738  -1.7520820 -30.6465130   8.6885509  -0.8904856
 -29.5559158   9.6152306  -1.8201100 -30.8994331   8.7259560  -2.5691390
   7.2948742  27.3122444   2.0230820   7.3304372  27.0945568   3.0608809
   7.6938434  28.3120365   1.8092637   7.8610477  26.5610504   1.4610999
   5.8499022  27.1439381   1.5561688   5.2054100  27.7507763   2.1949315
   5.6007342  26.1101513   1.6767027   5.6196690  27.5419827   0.0786410
   6.2459297  27.0155430  -0.6475771   5.8333879  28.5797501  -0.0143437
   4.1712527  27.1706371  -0.3283629   3.4475307  27.7822857   0.2190215
   3.9735916  26.1969662   0.1459204   3.7565949  27.3205757  -1.8205943
   4.3059454  26.6246643  -2.4767015   3.9808345  28.3332329  -2.1853838
   2.2464085  27.0842972  -1.9470729   1.6543616  27.8187218  -1.3723063
   2.0780292  26.0840683  -1.4970850   1.7516826  27.0304661  -3.4170449
   0.7332654  26.7131138  -3.4426687   2.3196282  26.2448215  -3.9844871
   1.8633604  28.3887386  -4.1153383   2.8880379  28.7498322  -3.9445302
   1.1897919  29.0901184  -3.6566374   1.6399865  28.2771034  -5.6043220
   0.6950289  27.7084770  -5.7330184   2.4148331  27.6802711  -6.0652933
   1.6271551  29.6602325  -6.2512560   1.5739608  29.4957390  -7.3430867
   2.5883195  30.1910801  -6.0865283   0.4429537  30.5663395  -5.9113412
   0.5903552  30.8642197  -4.8622365  -0.4750462  30.0466042  -6.0281105
   0.3973350  31.8185215  -6.7785625  -0.4251808  32.4003563  -6.3727398
   0.1238919  31.5546818  -7.8101597   1.6632910  32.6446190  -6.8230219
   2.4534516  32.1440201  -7.3518462   1.9777982  32.7548981  -5.8348041
   1.4744757  33.9606476  -7.5995059   0.7319871  34.5131302  -7.0531850
   1.0532724  33.7964172  -8.5848846   2.7768717  34.7382011  -7.7484326
   3.2880883  34.7904892  -6.8137259   2.5946388  35.7593460  -8.0395975
   3.7330067  34.1397514  -8.7415361   4.5078621  33.2612381  -8.4628859
   3.5350869  34.6678848  -9.9713221   4.2036753  33.9540443 -11.0762329
   5.1373272  33.4808655 -10.7102118   4.4682193  34.6687431 -11.8572845
   3.3488619  32.8559723 -11.7236443   3.9011941  32.3438568 -12.5328159
   2.0304811  33.4870949 -12.2759819   2.3515050  34.2391243 -12.9748354
   1.5473139  33.9694748 -11.4564619   1.1796885  32.5485153 -12.9499254
   1.6524065  31.9174957 -14.3212175   2.2905164  30.5049305 -13.8017426
   1.4271127  29.3527012 -13.5881443   2.0640190  28.4626484 -13.8509789
   0.6090214  29.3847504 -14.3430805   0.9458724  29.2672462 -12.1148911
   0.3073071  30.0755138 -11.8585587   1.7622249  29.3137627 -11.4437122
   0.1754981  28.0216808 -11.7261591  -1.0606995  27.8381901 -12.5149174
  -1.6767167  28.7454433 -12.4086800  -1.6267358  27.0036335 -12.0537271
  -0.7765203  27.6016216 -13.5559645   1.0453939  26.8053036 -11.7885895
   1.9405169  27.0481377 -11.2431669   1.3281275  26.6653862 -12.8590193
   0.5874758  25.9395142 -11.3403215  -0.2560062  28.1411552 -10.2788820
   0.6420752  28.1442375  -9.6852961  -0.8533710  27.2567005 -10.0661888
  -0.8167973  29.0768738 -10.1540585   0.4493645  31.6357613 -15.1514425
   2.6961694  32.8073730 -14.8338928   2.9051342  31.8227081 -10.7546415
   3.7880275  30.8798714 -10.3562679   4.8659129  30.7322502 -10.9263754
   3.2677674  30.0194664  -9.2438374   3.4143755  30.5653305  -8.2833719
   2.1434889  29.9264507  -9.3771067   3.7870846  28.5997677  -9.1839342
   3.1470296  28.0811291  -8.4901962   3.7817705  28.1650658 -10.2039814
   5.2376122  28.5412292  -8.6241302   5.4840441  27.4756985  -8.3993635
   5.9297581  28.9594307  -9.4520473   5.4272265  29.3280239  -7.3243599
   5.3911071  30.4038544  -7.5159335   4.6654835  29.0154362  -6.6178799
   6.8116899  28.9507313  -6.7185955   6.7918420  27.9072456  -6.4332099
   7.5518703  29.0367966  -7.5227747   7.2071910  29.8503666  -5.5026226
   8.1047010  29.4534321  -5.0505743   7.4371343  30.8451633  -5.9048014
   6.1480565  30.0025063  -4.3860040   5.1701665  30.2461739  -4.8439641
   6.0055299  29.0937042  -3.8448062   6.6180611  31.1247444  -3.4345160
   7.3325105  30.8877258  -2.6386139   6.2724133  32.4219971  -3.5506465
   6.6446538  33.1006126  -2.7890255   5.2554331  33.0398445  -4.4973617
   5.7357717  33.8208275  -5.0711913   4.8424368  32.3884659  -5.2257628
   4.0759869  33.6598129  -3.6289999   4.5841517  34.2554398  -2.8390553
   3.4895947  34.3985634  -4.2033582   3.2293317  32.5707626  -2.9597676
   2.6705089  32.0805817  -3.7100258   3.8798964  31.8024540  -2.5733330
   2.2412758  33.0959282  -1.9160693   2.7998486  33.6146355  -1.1461011
   1.5833247  33.8097382  -2.4026439   1.4147794  31.9778538  -1.2035040
   0.6496966  32.5024948  -0.5737502   0.8277130  31.5102119  -1.9997162
   2.1774909  30.9428043  -0.3554150   1.4554267  30.1827984   0.0516536
   2.7962518  30.4207325  -1.0383053   3.0104437  31.6375084   0.7350605
   3.8561056  32.0868530   0.1790059   2.3961382  32.3880501   1.2511504
   3.6122730  30.6847172   1.7896663   4.0765877  31.2503929   2.6049900
   4.3603210  29.9973774   1.4005190   2.7836022  30.1259212   2.1393447
  27.9067421  -8.8766508   1.7972817  28.4753304  -8.8884811   2.7221677
  28.4355087  -8.3060255   1.0111223  27.7973003  -9.8863201   1.5113698
  26.5027466  -8.2938614   2.0797768  26.5033379  -7.2013354   2.1556330
  26.2106361  -8.6135817   3.0933378  25.4290009  -8.7112980   1.0889142
  24.5248432  -8.2162437   1.2666202  25.2408009  -9.7907495   1.2198614
  25.6824284  -8.5055056  -0.3959822  24.8049908  -8.8638830  -0.9301570
  26.5299606  -9.1143064  -0.7133871  25.9393215  -7.0572395  -0.8207539
  26.6333942  -6.5467339  -0.1337785  25.0059204  -6.4818192  -0.8063682
  26.4186840  -6.9523759  -2.2781916  27.3423748  -7.5075636  -2.3248658
  26.6660118  -5.9337568  -2.4770997  25.4041595  -7.4240518  -3.2967176
  24.5031147  -6.9244976  -3.2040439  25.2680988  -8.4877901  -3.1001740
  25.9055691  -7.3542709  -4.7670250  26.8945198  -7.8041677  -4.8945184
  26.0556107  -6.2806797  -5.1504016  24.8569584  -8.0907784  -5.6413193
  23.9597530  -7.4930668  -5.7222662  24.5157070  -9.0215855  -5.1345034
  25.3831673  -8.4595757  -7.0896153  26.1848869  -9.1653042  -6.9552956
  25.7518425  -7.5799232  -7.6347990  24.1355515  -9.1360817  -7.7830510
  23.3243389  -8.3723412  -7.8624601  23.8265514  -9.9786444  -7.2369809
  24.5157528  -9.6422749  -9.2485533  24.8953266  -8.8540945  -9.9400024
  23.6610012 -10.0600615  -9.7542400  25.5901699 -10.7236948  -9.1401720
  25.2062511 -11.4728508  -8.4562483  26.5006237 -10.3157845  -8.6648321
  25.9621449 -11.3769684 -10.4758844  25.0148487 -11.7869568 -10.8526917
  26.6652412 -12.2384882 -10.2579412  26.5967445 -10.3541470 -11.4513988
  27.3313503  -9.7198048 -10.9383497  25.8261013  -9.7229271 -11.8844604
  27.2833424 -11.0689974 -12.5993481  28.0819244 -11.9661522 -12.4588356
  26.9537563 -10.5900917 -13.8210382  27.5432816 -11.2429132 -14.9798098
  28.5066242 -11.6419086 -14.7014570  27.6922703 -10.4825134 -15.7333813
  26.6119938 -12.3502645 -15.5744276  27.1973648 -12.9122534 -16.3429718
  25.3470497 -11.7708769 -16.2673111  24.9640884 -10.9607973 -15.6393347
  24.5738449 -12.5558004 -16.2505455  25.6412697 -11.2693748 -17.6013412
  25.5112286 -12.1134796 -18.9604912  26.8044510 -13.0665245 -18.8889542
  26.7465382 -14.3525143 -18.3359737  26.1549568 -14.9870672 -19.0400276
  26.2866287 -14.3979692 -17.3179550  28.1939678 -14.8931332 -18.2191868
  28.1528511 -15.8806143 -17.7714710  28.7634678 -14.2401514 -17.5351543
  28.9940338 -15.0939312 -19.4660721  29.4393387 -13.7861490 -20.0587635
  28.6463642 -13.3695755 -20.6301689  30.3182507 -13.9267168 -20.6796722
  29.6943302 -13.1947603 -19.2025070  30.1103058 -15.9756432 -19.0350227
  29.8238659 -16.9435196 -18.6275845  30.6890469 -15.4693413 -18.2759590
  30.7617970 -16.1503201 -19.9087925  28.2470875 -15.8505821 -20.4784756
  27.9510345 -16.8109932 -20.0734806  28.9198723 -15.9200153 -21.2971134
  27.3308029 -15.2765236 -20.8083801  24.2825165 -12.9392281 -18.8962898
  25.6178284 -11.1936941 -20.1438599  26.3079262 -13.3832064 -14.5779848
  27.2333889 -14.2981091 -14.2864475  28.2061958 -14.6050072 -14.9649944
  26.9294472 -15.0706434 -12.9840364  27.8581467 -15.1265755 -12.4205875
  26.2735195 -14.5341434 -12.2888765  26.3812428 -16.4523964 -13.2792988
  25.3305035 -16.3134975 -13.5334721  26.8420486 -16.9067822 -14.1102800
  26.4690857 -17.3724804 -12.0216942  25.8115616 -18.2029762 -12.2844400
  27.4666252 -17.7924671 -11.7922783  26.0118942 -16.7427311 -10.6838369
  25.3854256 -15.8422871 -10.8108768  25.3657818 -17.4996643 -10.1976891
  27.1927948 -16.4312038  -9.6787701  27.8153400 -17.3224983  -9.6869926
  27.8506203 -15.6709204 -10.0949945  26.6770535 -16.1138344  -8.2851543
  25.8917694 -15.3485823  -8.4026575  26.2795944 -17.0415516  -7.8536677
  27.7688999 -15.5874004  -7.3642883  27.3745136 -15.6049652  -6.3570976
  28.6236839 -16.2524643  -7.3896084  28.2138729 -14.2400990  -7.7842183
  28.9276714 -14.1929579  -8.5972223  27.8058167 -13.0998049  -7.2280974
  28.1312637 -12.1755018  -7.6484785  26.7849159 -12.9683599  -6.1266499
  26.0402794 -12.2398195  -6.4414811  26.2034035 -13.8475790  -5.9622865
  27.2237587 -12.3591003  -4.7859163  26.3466167 -12.3520365  -4.1642370
  28.0161171 -13.0062761  -4.3441491  27.9804897 -10.9984264  -4.8495574
  29.0179615 -11.2109222  -5.1720672  27.4526634 -10.3985682  -5.6349487
  28.0038300 -10.1586771  -3.5081074  28.4109097  -9.1432180  -3.6335645
  26.9708176 -10.1067820  -3.1405041  28.7923889 -10.7638083  -2.3533072
  28.3364506 -10.3644381  -1.4259784  28.6464577 -11.8158617  -2.3341296
  30.3310680 -10.5478039  -2.4048281  30.7048531 -10.7287598  -3.4550617
  30.5463581  -9.5115681  -2.2741294  31.0958900 -11.5051355  -1.4854712
  30.8954659 -12.5370750  -1.8289727  32.1700211 -11.3763990  -1.5470984
  30.6094341 -11.4404259  -0.0258011  31.0622139 -12.2551432   0.5653927
  29.4901066 -11.5317364   0.0701252  30.9395046 -10.5406199   0.4624668
  -0.8873792 -32.0104675  -3.8926840  -0.2757621 -32.8803482  -3.6504698
  -0.4437867 -31.4299278  -4.7037253  -1.8790176 -32.3215942  -4.3208451
  -0.9861379 -31.1951046  -2.6166627   0.0229234 -31.0363369  -2.2299094
  -1.5820163 -31.8240280  -1.8710148  -1.7095711 -29.8233261  -2.8531179
  -1.0516982 -29.2525558  -3.4868143  -1.7087389 -29.2627125  -1.8919625
  -3.1481645 -29.8676605  -3.3826809  -3.7901614 -30.2837772  -2.6692593
  -3.2475421 -30.4627209  -4.2893600  -3.6775651 -28.4887867  -3.7655911
  -2.7731750 -27.9095764  -4.0839667  -4.1580458 -27.9588203  -2.9243550
  -4.6589160 -28.6699657  -4.9776945  -5.4735231 -29.2840309  -4.6660080
  -4.1468372 -29.1579742  -5.8124614  -5.2612028 -27.3361187  -5.5091386
  -4.4427466 -26.6613598  -5.8250089  -5.7749109 -26.8721676  -4.6849413
  -6.2679763 -27.5983410  -6.6898594  -6.8284950 -26.6979694  -7.0027013
  -7.1225023 -28.2246437  -6.3475513  -5.6663852 -28.2270737  -7.9204845
  -6.4931545 -28.4381466  -8.6284714  -5.3000593 -29.2183113  -7.6623068
  -4.6390038 -27.2924786  -8.6284113  -3.8595152 -26.9599953  -7.9015980
  -5.1057124 -26.3573360  -8.9893827  -4.0242391 -28.0610294  -9.8219576
  -4.8304567 -28.6648483 -10.2512741  -3.2307765 -28.7529869  -9.5033989
  -3.4609864 -27.2433643 -10.9619846  -2.5401495 -26.7110901 -10.6997194
  -4.2087560 -26.4740372 -11.1873150  -3.1301739 -28.1771069 -12.1442242
  -2.6102722 -27.5996304 -12.9016705  -4.0804663 -28.5649090 -12.5122347
  -2.3361630 -29.4730587 -11.8644714  -2.3570187 -30.0462742 -12.7897501
  -2.8252683 -30.1560802 -11.1180029  -0.8855730 -29.1927547 -11.3229570
  -0.9801256 -28.6434631 -10.3722992  -0.3172870 -28.5826721 -11.9996462
  -0.2467675 -30.5115490 -10.9977398  -0.1634748 -31.0006599  -9.9036446
   0.3014728 -31.0356216 -12.1120920   1.1652027 -32.2643814 -12.0324421
   1.3534856 -32.4309464 -10.9985199   2.1166723 -32.1074829 -12.5725508
   0.4194398 -33.4132080 -12.7119160   0.9551751 -34.3692741 -12.4499884
   0.3684368 -33.3682976 -14.2705574   0.2201580 -34.3519821 -14.6616688
   1.3619714 -33.0337296 -14.6775141  -0.6900248 -32.5543060 -14.7068033
  -0.8094454 -31.9421482 -16.1917877   0.4370576 -30.9297295 -16.2315159
   0.4293493 -29.7780914 -15.3956594  -0.0470476 -30.0495720 -14.5070210
  -0.1372768 -28.9707851 -15.7979965   1.8866767 -29.4086151 -15.0292311
   2.3353133 -30.2134018 -14.4737968   1.8070780 -28.5921459 -14.3004761
   2.8033948 -28.9827576 -16.1697216   3.1432149 -30.2074890 -16.9616451
   3.6532423 -30.9576683 -16.3272038   3.7606859 -30.0256748 -17.8363953
   2.2349281 -30.6251373 -17.3579807   2.0793526 -28.0003147 -17.0171890
   1.5638235 -27.2774544 -16.3630638   1.3155760 -28.4016838 -17.6516209
   2.7303815 -27.4952793 -17.7264690   4.0556316 -28.4409924 -15.5929890
   3.8677602 -27.6521721 -14.8717031   4.7180519 -28.1240578 -16.4134426
   4.5113029 -29.3051128 -15.0313482  -0.5344527 -33.0446701 -17.1483059
  -2.1082993 -31.2029095 -16.3835201  -0.8967975 -33.4649925 -12.1415958
  -1.6242261 -34.5967522 -12.2515440  -1.2061777 -35.5457153 -12.8619614
  -2.8285005 -34.6340942 -11.3209000  -3.4256616 -33.6811409 -11.3963223
  -3.5270953 -35.4565506 -11.6210928  -2.3543248 -34.7213135  -9.8451748
  -1.6801150 -35.6290016  -9.7604933  -1.8335223 -33.7710915  -9.5246620
  -3.4846148 -35.0332603  -8.8878489  -4.1218071 -34.1243744  -8.8344164
  -4.0977998 -35.8221359  -9.2464266  -3.0219483 -35.3501205  -7.4573874
  -2.5585537 -36.3325768  -7.4063644  -2.2859106 -34.5544586  -7.2624154
  -4.1700897 -35.1988907  -6.5262961  -3.7992764 -35.2618637  -5.5152936
  -4.5039372 -34.1992722  -6.6463418  -5.4244852 -36.0927658  -6.7872472
  -6.2251706 -35.5858841  -6.2970643  -5.6516023 -36.0486526  -7.8767753
  -5.3094835 -37.5532646  -6.2799978  -6.2416596 -38.1029968  -6.5199184
  -4.4701495 -38.0497284  -6.7514906  -5.0563245 -37.5823021  -4.8037429
  -4.0584092 -37.4475060  -4.3988729  -6.0653954 -37.7770882  -3.9356303
  -5.8028979 -37.8077278  -2.8488634  -7.5024681 -37.9211006  -4.3414364
  -7.8589134 -37.2610359  -5.0918889  -7.6501484 -38.8953934  -4.8110824
  -8.4514904 -37.8617325  -3.1219389  -9.4159784 -38.1493530  -3.4366372
  -8.1518898 -38.6010666  -2.3590274  -8.5423031 -36.4385376  -2.4640255
  -7.5949526 -36.1341019  -1.9763004  -8.8015194 -35.6727676  -3.1991816
  -9.5674133 -36.4542999  -1.3214571 -10.5260315 -36.4608116  -1.8155439
  -9.4248362 -37.3325348  -0.7153592  -9.6948471 -35.2083206  -0.4405319
 -10.4441509 -35.4119644   0.3283257  -8.7599182 -35.0722809   0.1120295
 -10.0687742 -33.9288063  -1.1721872  -9.3538036 -33.7297554  -1.9767601
 -11.0222616 -34.0799751  -1.6656702 -10.0409927 -32.6865082  -0.2124560
 -10.8712854 -32.8051300   0.4764894  -9.0972033 -32.5891914   0.3273492
 -10.3121891 -31.3674355  -0.9842085  -9.9296665 -30.5801945  -0.3041832
 -11.3719358 -31.1549015  -1.2335629  -9.7782507 -31.2949924  -1.8997968
  29.7958794 -18.0152550   1.0898138  30.2227955 -17.1229134   1.5177106
  29.4717484 -18.7148113   1.8266023  28.9566803 -17.7492695   0.4935528
  30.8114834 -18.6775932   0.1834560  31.6330700 -19.1343002   0.7935610
  31.2806625 -17.9308929  -0.4293764  30.2588348 -19.7331200  -0.7478032
  31.0215874 -20.0315647  -1.4843665  29.4334831 -19.2901382  -1.2422391
  29.7883492 -21.0440102  -0.0463477  29.0361691 -20.8370132   0.7111641
  30.6509705 -21.4875107   0.5251868  29.2603703 -22.0383816  -1.0150464
  29.2090778 -22.9836655  -0.4945692  30.0073643 -22.1878986  -1.8220594
  27.8512955 -21.6868401  -1.5800576  27.8901520 -20.8224888  -2.2087774
  27.2255917 -21.4864807  -0.7328575  27.2476368 -22.8499069  -2.4342647
  26.1776142 -22.6146679  -2.4989288  27.3535824 -23.8251896  -1.9085219
  27.8639984 -22.9685688  -3.8486223  27.3952847 -23.8595581  -4.2887349
  28.9424343 -23.1031418  -3.8048587  27.4046917 -21.7853336  -4.6949863
  27.8559589 -20.9207134  -4.2344847  26.3253784 -21.7429008  -4.6853676
  27.8397541 -21.8506260  -6.1845450  27.4785328 -22.7737885  -6.6546545
  28.9728146 -21.7427044  -6.1724706  27.2117252 -20.6591873  -6.9517636
  27.2148495 -19.7844906  -6.3107247  26.1740189 -20.9127693  -7.1180420
  27.9025059 -20.3581791  -8.3045807  28.9605370 -20.4316597  -8.1495724
  27.6516323 -19.3060722  -8.6523132  27.4283028 -21.3552399  -9.3689709
  27.4215412 -22.3788567  -8.9603891  28.1070328 -21.3266850 -10.2326927
  25.9964638 -20.9679794  -9.8043957  25.9657879 -19.9917183 -10.3480234
  25.2838535 -20.8971901  -8.9664650  25.5622005 -22.0919075 -10.7616272
  25.4059448 -22.9965992 -10.2402868  26.3907032 -22.2405548 -11.4998903
  24.2464943 -21.7955189 -11.4191446  23.2044888 -21.4930439 -10.8434677
  24.3523769 -22.0011730 -12.7295170  23.2842827 -21.5080433 -13.5783386
  22.3264503 -21.5995979 -13.0406971  23.3155727 -22.1473293 -14.4576540
  23.4046364 -20.0220470 -14.0022125  22.5060272 -19.7764435 -14.6119881
  24.7484570 -19.8153610 -14.7777615  24.7798710 -20.5755730 -15.5584526
  25.5874367 -19.9526806 -14.0606012  24.8347282 -18.4944363 -15.3166523
  24.0322323 -18.0483418 -16.6319313  22.7839451 -17.1439915 -15.9922733
  23.0708542 -15.7879152 -15.5614271  24.1050320 -15.7081842 -15.2211084
  22.4328709 -15.6035805 -14.6760902  22.7673531 -14.7642031 -16.6770306
  23.2155209 -15.1326675 -17.5909576  23.2547359 -13.8496122 -16.4369812
  21.3334484 -14.4992838 -17.0133095  20.7103729 -13.8337269 -15.8568811
  20.6457939 -14.5971031 -15.0410509  19.7709312 -13.5010471 -16.2069950
  21.3959770 -13.0449028 -15.5624285  21.1649227 -13.4316339 -18.0249710
  21.6953068 -13.7008944 -18.9217434  21.4205647 -12.4721518 -17.6435966
  20.0933647 -13.4507227 -18.3426647  20.6570721 -15.6735268 -17.4875870
  21.0741653 -15.9376869 -18.4640560  19.6007137 -15.4208107 -17.5447979
  20.8676510 -16.4935856 -16.7968006  24.8545284 -17.1578941 -17.4772186
  23.4237518 -19.3046875 -17.2294312  23.4362431 -19.1535797 -12.8359699
  22.2655468 -18.8297577 -12.2736111  21.1732082 -19.1343327 -12.7015419
  22.4713898 -17.9659328 -11.0535135  21.6514969 -18.0422935 -10.3528442
  23.3660736 -18.2596416 -10.5281353  22.4746017 -16.4935856 -11.4880314
  23.3583679 -16.3140259 -12.0813761  21.6503315 -16.3490601 -12.2185535
  22.2918816 -15.5673399 -10.2779446  21.5915127 -15.9842720  -9.5553980
  23.2612591 -15.3833189  -9.7919474  21.6697598 -14.2021761 -10.6692810
  22.3535843 -13.5557261 -11.2077141  20.9151249 -14.3796301 -11.4256086
  21.0106506 -13.3918114  -9.5095425  20.3904037 -12.6362171  -9.9635715
  20.3207817 -14.0282431  -8.9814100  22.0247002 -12.7786560  -8.4680376
  22.8800697 -12.2753191  -8.8716469  21.5110855 -12.0343075  -7.8625245
  22.4658089 -13.8328447  -7.4449496  21.5805092 -14.3560982  -6.9997940
  23.0799847 -14.6094084  -7.9752932  23.3171120 -13.2484493  -6.3287826
  23.9560127 -12.4445047  -6.7346926  23.2425117 -13.5684690  -5.0405560
  23.9188652 -13.1266356  -4.2862887  22.3348789 -14.5633125  -4.3990741
  21.9108105 -14.2127666  -3.4506001  21.4534931 -14.7962618  -5.0126548
  23.1569672 -15.8084440  -4.0503130  23.9961796 -15.4912748  -3.4348176
  22.5085564 -16.4412804  -3.4281497  23.6140709 -16.6305046  -5.2594576
  22.7424736 -16.7321129  -5.9288130  24.3862896 -16.1259956  -5.8203278
  24.1079826 -18.0587807  -4.9241405  23.5362072 -18.4626198  -4.1403656
  24.0379162 -18.6951561  -5.8245955  25.6686497 -18.1904678  -4.6639843
  25.9409313 -19.2664242  -4.5127563  26.1966591 -17.7967186  -5.5451040
  26.1537666 -17.4231377  -3.4050534  27.2598171 -17.5318966  -3.4165528
  25.9324150 -16.3564949  -3.4294770  25.5409794 -18.0119209  -2.0914662
  24.4577618 -17.7644234  -2.0137269  25.5786724 -19.0929165  -2.1670151
  26.2550774 -17.5040741  -0.8499342  25.9676781 -18.1514606  -0.0111034
  26.0153618 -16.4527531  -0.6558031  27.3140049 -17.6068039  -0.9051946
 -31.1423855   2.7925453  -1.8365149 -30.5042076   2.3037887  -1.0834651
 -31.4167385   2.0874336  -2.6464889 -32.0193825   3.1360922  -1.3429840
 -30.4269314   4.0333033  -2.4196219 -29.5116405   3.6179233  -2.7948639
 -30.1286678   4.7541747  -1.6767609 -31.1780090   4.7579246  -3.5516312
 -32.1155548   5.0238185  -3.1236749 -31.3551884   4.0514627  -4.3676052
 -30.4166775   6.0076618  -4.0905581 -30.3449135   6.6472621  -3.2559872
 -30.9190750   6.4544039  -4.9310803 -28.9863243   5.6378565  -4.5054593
 -29.0306873   4.6925440  -5.0849175 -28.4554272   5.3722949  -3.6026833
 -28.2193012   6.6939602  -5.3416786 -27.1917915   6.3293366  -5.4641342
 -28.2204552   7.6281281  -4.7650094 -28.9212608   6.9058228  -6.7118783
 -29.8793583   7.4371343  -6.6473207 -29.1612091   5.9759736  -7.2350264
 -28.0083942   7.7019553  -7.6766548 -27.0002346   7.1859131  -7.6667933
 -27.9690552   8.7681684  -7.4467854 -28.4838905   7.6358228  -9.1668406
 -28.2756634   6.6367493  -9.5406322 -27.8936939   8.2596169  -9.8283072
 -29.9844780   7.9721670  -9.3388777 -30.1664829   9.0215683  -9.1111259
 -30.5781403   7.4282045  -8.6450233 -30.4937439   7.6646276 -10.7442369
 -29.7583981   8.0070248 -11.4090557 -31.4652805   8.2694921 -10.8281717
 -30.6373138   6.1489291 -10.9219255 -31.2950039   5.7633686 -10.1171389
 -29.6948910   5.6757288 -10.8560667 -31.2917137   5.8383470 -12.2914801
 -32.2510567   6.3404651 -12.2874184 -31.3747902   4.7339115 -12.3561478
 -30.4356098   6.3590837 -13.4561844 -29.4376163   5.9285159 -13.4449205
 -30.3775692   7.4630337 -13.4684267 -31.0866261   6.0100980 -14.8154564
 -32.0327492   6.5333133 -14.9708176 -31.3243141   4.9104834 -14.8169031
 -30.1058273   6.2661080 -16.0018139 -29.2678185   7.1746511 -16.0428734
 -30.3137569   5.3066163 -16.9198647 -29.2409325   5.1217742 -17.9401302
 -28.6148758   6.0295148 -18.1021538 -29.7437954   4.8194876 -18.8144264
 -28.2789783   3.9599969 -17.6151733 -27.5777416   3.8096383 -18.4776421
 -29.0296841   2.6296780 -17.4020691 -29.6748257   2.4597943 -18.2598114
 -29.6754742   2.6424720 -16.5138378 -28.1146793   1.5033625 -17.2681313
 -28.4468060   0.0223256 -17.8595963 -28.4933376   0.1419758 -19.4319153
 -29.7042274   0.2575778 -20.2029819 -29.6598473   1.0599020 -20.9092121
 -30.6028099   0.4941481 -19.5459213 -29.9606972  -0.9589363 -21.1479797
 -29.0238476  -1.2116050 -21.6832848 -30.7621689  -0.6862113 -21.8797207
 -30.3693848  -2.2586002 -20.5456657 -30.8476353  -3.1045434 -21.6678238
 -31.7229080  -2.5642908 -22.1147766 -31.2084770  -4.0609403 -21.2335091
 -30.0449352  -3.3379400 -22.3190212 -29.2595272  -2.9581869 -19.8649960
 -28.8738422  -2.2998455 -19.0843067 -28.4682159  -3.1859729 -20.5609875
 -29.7068195  -3.8615310 -19.5563774 -31.5536594  -2.1113958 -19.6120605
 -31.1780930  -1.7903185 -18.6083832 -32.0348930  -3.1119099 -19.5053291
 -32.2157593  -1.4125584 -20.0374718 -27.2605705  -0.8333446 -17.6055031
 -29.7505455  -0.4337083 -17.4560890 -27.5597267   4.2224760 -16.3867340
 -26.2163334   4.1193376 -16.4182358 -25.5690098   4.0933967 -17.4671955
 -25.6689720   3.9697101 -14.9828835 -24.6148968   3.6210392 -15.0911160
 -25.6834412   4.9295244 -14.4588299 -26.3821583   2.9253638 -14.1678095
 -26.4928131   2.0424035 -14.7296419 -25.7021999   2.5936117 -13.3722248
 -27.7288322   3.3875945 -13.5260191 -27.5045395   4.2597179 -12.8694210
 -28.4167595   3.7132165 -14.2881861 -28.5144444   2.4498639 -12.5692196
 -27.9217739   2.3577843 -11.5939865 -29.4738197   3.0233848 -12.3719139
 -28.8539867   1.0931205 -13.1362381 -29.1525574   1.1876260 -14.1605663
 -27.8640156   0.5383275 -13.1490717 -29.8559227   0.3393433 -12.2857904
 -29.9637051  -0.6531406 -12.7255306 -29.3967152   0.1698827 -11.3003550
 -31.2822437   0.8468231 -12.1892786 -31.3722019   1.9333361 -11.7793760
 -31.6557293   0.9007252 -13.1911583 -32.1467896  -0.1929454 -11.4389334
 -32.7198868  -0.9149235 -12.0375080 -32.3129196  -0.1968792 -10.1179266
 -33.0242615  -0.9481335  -9.7130852 -31.6939621   0.7962403  -9.1456280
 -31.3524475   1.7343235  -9.6633739 -32.4659004   1.1218259  -8.4614830
 -30.5163879   0.1639399  -8.3530626 -30.9093266  -0.7265583  -7.8497176
 -29.7453861  -0.2409704  -9.0279655 -29.8869781   1.0555353  -7.2759628
 -29.4315891   1.9873312  -7.7000904 -30.6459045   1.4017286  -6.5964055
 -28.8514614   0.3205837  -6.4806085 -28.0107727   0.0840301  -7.1423764
 -28.5121822   1.0327389  -5.7020454 -29.2383175  -1.0444777  -5.8203959
 -30.2121086  -0.9375210  -5.3677707 -29.4164543  -1.7569321  -6.6646061
 -28.1525974  -1.4803559  -4.7756910 -28.2575588  -0.8271641  -3.9098535
 -28.3285332  -2.4319336  -4.2769184 -26.7073460  -1.4908659  -5.2888250
 -26.5626717  -2.0035603  -6.2075810 -26.4481735  -0.4388179  -5.4918532
 -25.7945175  -2.0257113  -4.1994753 -24.6776009  -1.8630677  -4.4773836
 -26.0259094  -3.1082284  -4.0129428 -26.0497513  -1.5377282  -3.2542946
  -5.8633280  35.1881561  -0.2879689  -6.2654786  35.7416000   0.6254733
  -4.8435020  35.5088081  -0.4874194  -5.8463378  34.1316757  -0.0969850
  -6.7826982  35.5682182  -1.4572407  -6.5993614  36.5923462  -1.6550981
  -7.8123837  35.5379410  -1.2003617  -6.5392013  34.8053856  -2.8004146
  -5.4682140  34.9624252  -3.0856810  -7.0834374  35.2778130  -3.6576619
  -6.8283277  33.2984200  -2.7391305  -6.5392742  32.9292412  -1.7889829
  -6.2215381  32.7902069  -3.5010698  -8.2845259  33.0141754  -3.0792594
  -8.4865990  33.1142349  -4.1813235  -8.8656654  33.7517891  -2.5197003
  -8.8383274  31.6714382  -2.5919237  -9.8106575  31.4946156  -3.0225019
  -8.9617767  31.7415524  -1.4809160  -7.9599996  30.4298000  -2.9007208
  -8.5363665  29.5190411  -2.5708439  -7.0546827  30.4390125  -2.2846866
  -7.6334262  30.2214508  -4.4034982  -6.9384909  29.4419651  -4.5598760
  -7.1684704  31.1601562  -4.7407160  -8.8778725  29.9093037  -5.2495890
  -9.7200594  30.5683060  -4.9816785  -9.1843233  28.9037552  -4.9767056
  -8.5476332  29.9846249  -6.7651138  -8.0367031  29.0520382  -7.0501184
  -7.8225875  30.7768269  -6.9360805  -9.8284168  30.2530785  -7.6318026
 -10.4751816  31.0053101  -7.1728320 -10.4329796  29.3193989  -7.6194172
  -9.5687618  30.5509586  -9.1230526  -9.0148678  31.4738445  -9.2866230
 -10.5395412  30.7282352  -9.5933733  -8.7970772  29.4574280  -9.8537693
  -9.3036575  28.5243969  -9.7717028  -7.7880836  29.2582321  -9.4076281
  -8.4866581  29.7234516 -11.3226986  -7.9000769  28.8740940 -11.7510815
  -7.9211550  30.6497269 -11.4312639  -9.7571621  29.8894863 -12.1890154
 -10.3135767  30.7704926 -11.9282522 -10.4032536  29.0340919 -12.0085049
  -9.4061108  29.9555130 -13.6475029  -9.4786873  29.0246468 -14.4128265
  -8.9314661  31.1638184 -14.0374842  -8.5957575  31.5010166 -15.4062557
  -8.5389538  30.6421833 -16.0370102  -7.6249886  31.9510002 -15.4406796
  -9.6030655  32.5916405 -15.9782419 -10.5741920  32.0914726 -16.0846672
  -9.2237682  33.2528076 -17.2580776  -9.1901979  32.6122856 -18.1025352
  -8.2186375  33.5708847 -17.1746807 -10.0775137  34.4025917 -17.5750999
 -11.5007782  34.2669449 -18.3262272 -12.5657988  34.2055397 -17.1575184
 -12.9844952  35.3738937 -16.3817749 -13.1766500  36.2081223 -17.0623360
 -12.1337357  35.6487350 -15.7820177 -14.1714821  35.0710716 -15.4218378
 -14.3153019  35.8935699 -14.6778316 -13.9471073  34.1469612 -14.8516502
 -15.5326366  34.9399986 -15.9642687 -16.0211258  36.1591187 -16.6396770
 -15.8681021  37.0718575 -15.9834423 -17.0981331  36.0002441 -16.8558731
 -15.4394150  36.3511963 -17.5381622 -15.6609249  33.8842239 -17.0711288
 -15.1829491  33.0125885 -16.6463013 -15.1990881  34.2329636 -17.9788990
 -16.6811008  33.6579170 -17.3054295 -16.4189014  34.5609589 -14.8400736
 -15.9662905  33.7831802 -14.2230339 -17.4011059  34.2194481 -15.2820625
 -16.5641422  35.4080734 -14.1968050 -11.8607922  35.4786263 -19.0864735
 -11.4959040  32.9573746 -19.0196915  -9.6113768  33.6506195 -14.9868727
 -10.6102457  33.7802963 -14.1045942 -11.5415821  33.0094109 -14.0193558
 -10.4445753  35.0210648 -13.2395020  -9.8476295  35.7600403 -13.7655678
 -11.3429213  35.5371857 -13.0280409  -9.6795187  34.7872658 -11.9266224
 -10.2699509  34.0623322 -11.3607883  -8.7476444  34.2746048 -12.2232962
  -9.4171219  36.1329765 -11.1495686  -8.6950674  36.7480698 -11.7030354
 -10.3425837  36.7492104 -11.2164202  -9.0356617  36.0201073  -9.6517477
  -8.7423506  37.0356865  -9.3870220  -9.9618711  35.7532616  -9.0467396
  -7.9184542  35.0173721  -9.2883873  -8.0681000  34.0655022  -9.7946692
  -6.9566126  35.3733177  -9.6579227  -7.8299150  34.7834892  -7.7743535
  -7.4153862  35.6738510  -7.3249059  -8.8419685  34.5417328  -7.3645644
  -6.9359541  33.5710564  -7.5029140  -7.0780950  33.3061142  -6.4332957
  -7.3078547  32.7124786  -8.0843391  -5.4339943  33.8115082  -7.7384596
  -5.0472097  34.6786842  -7.2579865  -4.6878767  33.0824699  -8.5352859
  -3.6510203  33.4059067  -8.6438808  -5.0983572  31.8488541  -9.2987404
  -6.1309762  31.5848846  -9.1591959  -4.9964848  32.0727692 -10.3461494
  -4.1808929  30.6314659  -9.0484438  -4.1987176  30.0872974  -9.9913225
  -3.1859138  30.9417553  -8.9326553  -4.6177840  29.7458115  -7.8388019
  -5.6147389  29.3384457  -8.0486269  -3.9338403  28.8999214  -7.8589258
  -4.6487899  30.4175549  -6.4292865  -5.4564137  31.1816387  -6.3677616
  -4.9416022  29.6600704  -5.7718058  -3.2653096  30.9528580  -6.0512609
  -2.5353839  30.1098232  -6.1009121  -2.8612077  31.6849499  -6.7243104
  -3.0956273  31.4583244  -4.6279926  -2.0220289  31.7683125  -4.4380536
  -3.7254050  32.3085709  -4.5649300  -3.5107279  30.4640007  -3.5135961
  -4.5363226  30.0664444  -3.7179503  -2.7262759  29.6487598  -3.4925442
  -3.5717216  31.1771278  -2.1613965  -3.8264177  30.4701252  -1.3188465
  -4.3148341  31.9860497  -2.1576967  -2.6025140  31.6859818  -1.9887043
  23.6430264  27.0266228   1.9276292  24.6356583  26.9827309   1.5595793
  23.3548527  25.9944420   2.0821435  23.6402016  27.5770569   2.8718557
  22.8001766  27.7337456   0.8501778  22.8610153  27.1938171  -0.0832310
  23.2764854  28.6985569   0.5953289  21.3872128  28.0364056   1.3213133
  20.8673954  28.5371113   0.5358776  21.4100380  28.7517719   2.1786187
  20.5461521  26.8116798   1.6773715  21.0292320  26.3951797   2.5651374
  20.6484146  26.0309525   0.9545308  19.0654774  27.1434898   2.0513234
  19.0819244  28.0708714   2.6150465  18.6663208  26.4101105   2.7400982
  18.1894608  27.3519363   0.7958851  18.6828461  28.1351070   0.1799728
  17.2877178  27.7472324   1.1905977  17.8853550  25.9949131   0.0847493
  17.6380501  25.2344341   0.7962399  18.7230797  25.6797810  -0.5106718
  16.7306347  26.2450008  -0.9046798  15.8825531  26.7441845  -0.4194932
  16.4256935  25.2371693  -1.2127608  17.1677227  26.9186821  -2.1937490
  17.9329987  26.3250923  -2.6674869  17.6088924  27.8558578  -1.9055130
  16.0222607  27.1744156  -3.1483293  15.4120245  27.9609852  -2.7080755
  15.4636154  26.2512112  -3.3172855  16.5235939  27.6521416  -4.5106254
  15.6899118  27.6474934  -5.2336736  17.2369938  26.9248886  -4.9113235
  17.2753925  28.9612560  -4.4520731  18.1812363  28.8244324  -3.8958106
  16.6163616  29.7038631  -3.9341142  17.7382507  29.4819260  -5.8505363
  18.4771271  28.8106613  -6.1972475  18.2063313  30.4500275  -5.7664199
  16.6366081  29.7429161  -6.9100423  16.5724068  30.7962894  -7.2125001
  15.6828871  29.5176487  -6.4151583  16.7447968  28.8140182  -8.1496944
  15.8127975  28.6718178  -8.6403418  17.1494827  27.8380222  -7.8064661
  17.7438526  29.4234886  -9.1718731  18.2510948  30.5292683  -9.1262884
  18.0530548  28.5446854 -10.1278801  18.9993706  28.9930573 -11.1488533
  19.9667912  29.2747478 -10.6715689  18.5604687  29.8647594 -11.6743765
  19.3160019  27.7129936 -12.0244408  20.0830574  27.9640846 -12.7468052
  18.1293716  27.1043243 -12.8428659  17.1818428  27.4033527 -12.3708296
  18.2540932  26.0360947 -12.8016911  18.1990261  27.5360012 -14.2342777
  17.6412334  28.9556332 -14.7189674  16.5727501  28.5124798 -15.8534451
  16.9922333  27.9147129 -17.1421070  17.8895340  28.3882885 -17.4814262
  16.2244053  28.0905895 -17.8341599  17.1460266  26.4155979 -16.9948349
  17.7937603  26.0534649 -16.2232170  17.4876995  26.0856838 -17.9729958
  15.8867455  25.6574154 -16.6058750  15.6917801  25.7612724 -15.1490030
  16.6729851  25.5930252 -14.6868982  14.9860849  24.9334946 -14.8334045
  15.2582378  26.7428188 -14.8924971  14.6555042  26.1873741 -17.2925339
  14.8562717  26.2397785 -18.3501129  14.3971844  27.2044182 -16.9031601
  13.7923965  25.4853363 -17.1726723  16.0926514  24.2388706 -17.0136700
  16.3981247  24.1965675 -18.0628643  15.1205826  23.6894398 -16.8286209
  16.8773708  23.7603302 -16.4347115  16.7906551  29.5741920 -13.6184320
  18.7417870  29.7192764 -15.3413496  19.8514099  26.6787128 -11.1112204
  21.1386185  26.6013985 -10.8033381  22.0051231  27.3515873 -11.2239752
  21.5244961  25.3946800  -9.9370975  20.8677769  24.5435753 -10.1640787
  22.5694885  25.1136208 -10.1136456  21.3130474  25.6787758  -8.4461975
  20.2606297  25.8451633  -8.2884197  21.6038685  24.7555332  -7.8942270
  22.0311737  26.8978977  -7.9123063  23.0549984  26.8703861  -8.2278910
  21.6093426  27.7387714  -8.3894644  21.9821815  26.9892673  -6.3799262
  22.2040730  28.0672073  -6.1304007  21.0349255  26.6866570  -6.0128860
  23.0916424  26.1506062  -5.7548881  23.0161514  25.1185703  -6.1404319
  24.0357780  26.5960903  -6.0954785  23.0716686  26.1662140  -4.2202630
  23.9349270  25.6034393  -3.8396552  23.1729984  27.1913357  -3.8999996
  21.7956142  25.5758076  -3.6241367  20.9291496  26.2642193  -3.8993278
  21.6639690  24.5902710  -4.1679277  21.9079247  25.3975887  -2.1181266
  21.3202286  26.1476746  -1.5758471  22.5493908  24.5027447  -1.3729738
  22.3585148  24.4979115  -0.2577937  23.4737511  23.4186649  -1.8698317
  23.0576611  22.4505157  -1.6449697  23.6576862  23.3933277  -2.9347887
  24.8851032  23.5445995  -1.2175903  25.5989075  22.7526360  -1.6173899
  25.2741795  24.4754963  -1.5573584  24.8997879  23.5143566   0.3056881
  24.1482906  24.2146473   0.6664377  24.6130371  22.4912338   0.5421059
  26.3147831  23.7586422   0.9572406  27.0109367  23.0402393   0.5044500
  26.6952991  24.7239666   0.5815686  26.4974518  23.7086468   2.4896934
  27.5655670  23.8102264   2.6935372  25.9653854  24.6154232   2.7983305
  25.8206596  22.5516891   3.2372258  24.7481575  22.6138763   3.1108115
  26.0911007  21.6149178   2.7842829  26.2177925  22.6212101   4.7340751
  25.9794216  21.6358795   5.2074151  27.2976856  22.7472382   4.8692122
  25.4709702  23.6707878   5.4945202  25.9233704  23.7406712   6.4858103
  24.3911858  23.4497662   5.4671879  25.5528564  24.6446590   5.0728083
  30.4302120  22.7293797  -1.6504767  30.6041126  21.8661613  -1.0228624
  29.5054703  23.2492752  -1.4090155  31.2511559  23.4224548  -1.3875593
  30.5164375  22.3578815  -3.1576869  29.7505360  21.5594788  -3.4126565
  31.5329018  22.0470619  -3.4875236  30.2575588  23.6146202  -4.0364609
  31.1569004  24.2709332  -4.0205307  29.4001274  24.1690750  -3.5552955
  29.9252625  23.3238583  -5.4885435  30.7035065  22.6522141  -5.9311223
  29.9257565  24.2426987  -6.0326457  28.5279961  22.6803513  -5.6549878
  27.6997108  23.3720951  -5.3469810  28.4829254  21.7626286  -5.0867290
  28.1700306  22.3371677  -7.1489692  29.0689583  21.9075565  -7.6019735
  27.8805962  23.3194542  -7.6002975  27.0230007  21.3246574  -7.3580117
  27.3211842  20.3843231  -6.8689442  26.7764835  21.1774273  -8.4162169
  25.7644653  21.7605114  -6.5805936  25.5384426  22.8228168  -6.7353497
  25.9131832  21.6319275  -5.4952884  24.4953232  20.9827156  -7.0461316
  24.6665859  19.9542694  -6.9659281  24.2607689  21.1912136  -8.0964708
  23.2525425  21.3157825  -6.2118454  23.2372208  22.4197407  -6.0533376
  23.2681923  20.9375000  -5.1932530  21.9679527  20.7060280  -6.8057895
  21.2251167  20.7921391  -6.0171299  22.1302147  19.6639328  -6.9740067
  21.4848309  21.4127617  -8.0984583  22.1898823  21.2427120  -8.9495363
  21.3953018  22.4252930  -7.8737278  20.0102158  20.9453793  -8.4869938
  19.3680134  20.8469410  -7.6044283  20.1482124  19.9465027  -8.8603039
  19.3497505  21.8503208  -9.5584364  19.2690811  22.8645630  -9.2005749
  18.3593121  21.4401150  -9.6617107  20.0355740  21.7149067 -10.9164200
  19.8518066  20.7084312 -11.3235092  21.0680237  21.8109932 -10.7152948
  19.6476994  22.7604656 -11.9100685  18.6721630  23.4957428 -11.8265295
  20.5857391  22.8315086 -12.8898430  20.5050945  23.9383297 -13.9162970
  20.8845158  24.8117256 -13.4006042  19.4579716  24.0654926 -14.2615147
  21.4169903  23.5731602 -15.0778437  21.7483406  24.5267506 -15.5585728
  20.6133556  22.7533932 -16.1398163  21.2938347  22.2094841 -16.8039799
  19.9473991  23.4221306 -16.7468243  19.6860619  21.8024349 -15.5641737
  19.2409363  20.4840755 -16.3850002  20.3624725  19.4563084 -15.9729376
  20.4498081  18.8211212 -14.6424189  19.5205479  18.4038277 -14.2719135
  20.8255424  19.5963840 -13.9172506  21.4970970  17.7024822 -14.6612368
  21.6022472  17.3276882 -13.6313152  22.4595070  18.0982227 -15.0120087
  21.2190990  16.4336567 -15.4621134  21.2562637  16.6754932 -16.9840546
  20.3868694  17.3175983 -17.2135220  21.1698132  15.7197609 -17.5181541
  22.1913147  17.2067051 -17.2415848  22.3168354  15.4701557 -15.0858870
  22.4688797  15.3407240 -14.0050373  23.2245274  15.8383074 -15.5727091
  22.0847893  14.4938326 -15.5087223  19.9193649  15.8224974 -15.0587749
  20.0461998  15.5643091 -13.9521217  19.7159004  14.8722792 -15.6173820
  19.0673618  16.4750519 -15.2577629  17.9644890  19.9132004 -15.8307419
  19.3504124  20.7605343 -17.8249207  22.4900608  22.7015495 -14.6728220
  23.4247379  23.2185383 -13.8708324  23.3778191  24.3756676 -13.4693394
  24.3920975  22.1316948 -13.4394789  25.1644497  21.9889736 -14.1706610
  24.8836613  22.4852772 -12.4923811  23.7587376  20.7419949 -13.0993738
  22.9830914  20.9059715 -12.4040594  23.3573513  20.2981300 -14.0364656
  24.7761326  19.7924023 -12.4204979  25.6231022  19.6264248 -13.0757923
  25.1595154  20.3509178 -11.5189352  24.2685814  18.4192066 -12.0584021
  23.9280796  17.8959522 -12.9500198  25.0916557  17.7954197 -11.6546240
  23.1317883  18.5999241 -11.0399771  23.4797211  19.2942371 -10.2428932
  22.2731228  19.0693779 -11.5212688  22.7035599  17.2954159 -10.3220940
  22.6260548  16.4980316 -11.0993633  23.5046978  16.9610176  -9.6043406
  21.3059788  17.4083500  -9.5863190  21.3864403  18.1625671  -8.8170395
  20.5804081  17.7015057 -10.2779474  20.9157734  16.0497112  -8.9792328
  20.3666477  15.3362322  -9.6216898  21.1234951  15.5910006  -7.7253866
  20.7625885  14.5807457  -7.4060845  21.9631844  16.3089314  -6.7016101
  22.1769047  17.3215160  -6.9956203  21.4065914  16.2825756  -5.7582788
  23.2654762  15.5368557  -6.3207436  22.9517193  14.6438417  -5.7988720
  23.8426285  15.2113905  -7.1825404  24.2167549  16.3629589  -5.4633436
  25.0562019  16.5099850  -6.0424786  23.8433876  17.3461170  -5.1592064
  24.6493187  15.6426239  -4.1740141  25.0991173  14.6543493  -4.4130888
  25.3812103  16.2166424  -3.6521292  23.4775333  15.5151176  -3.2138906
  22.7950115  16.3796806  -3.1992886  22.8744335  14.6628437  -3.4993317
  23.9395790  15.1671982  -1.7859375  23.1221428  14.7978535  -1.2091875
  24.7042160  14.3981562  -1.7629452  24.5125179  16.4221859  -1.0808090
  24.9296989  16.1495571  -0.1106970  25.3727131  16.8651848  -1.5959345
  23.3848553  17.4815502  -0.7515716  23.8098373  18.2246761  -0.1017100
  22.4903908  17.0084496  -0.3457755  23.0737209  17.9371300  -1.6830111
  26.6751766  12.6247406  -0.4366702  27.6979141  12.4811592  -0.0531366
  26.2157669  13.4994316   0.0766677  26.6554184  12.8552971  -1.4990368
  25.8818340  11.3765240  -0.1345090  26.0616989  11.1114025   0.9200552
  26.2441826  10.5370035  -0.7683980  24.3871689  11.5147610  -0.3717924
  23.9624577  12.4568958  -0.0175254  23.9836483  10.6822605   0.2170520
  23.9981155  11.3299894  -1.8293364  24.3572521  10.3172350  -2.1339140
  24.5509834  12.0677605  -2.5116227  22.5020027  11.4209080  -2.0745742
  22.0564194  12.2388506  -1.5115111  22.0239906  10.5358992  -1.6098177
  22.1058369  11.6426516  -3.5531139  22.3028297  12.7261457  -3.7437403
  21.0430031  11.4372721  -3.6368523  22.8069534  10.6982527  -4.5481162
  22.6418495   9.6735525  -4.2499404  23.8184738  10.9152317  -4.5655122
  22.1885872  10.8123722  -5.9464192  22.0510654  11.8277597  -6.2502413
  21.2684231  10.3296652  -5.8182764  23.0304737  10.1444445  -7.0183849
  22.5061989  10.0532589  -7.9495091  23.1932278   9.1060143  -6.7256951
  24.4076633  10.8057213  -7.2889919  24.9976063  10.8163795  -6.3526182
  24.2485409  11.8746328  -7.5637083  25.3009701  10.1231089  -8.3739605
  25.6799126   9.2021742  -7.9648371  26.1665630  10.7237167  -8.6145716
  24.6313896   9.8431463  -9.7690592  24.3665867  10.7569017 -10.3169355
  23.6663799   9.3375912  -9.6656361  25.5607395   8.9486780 -10.7063093
  25.9041443   7.9986091 -10.3104687  26.4749603   9.5464315 -10.8108759
  25.0015106   8.6994038 -12.1277609  25.8106823   8.2671146 -12.7345285
  24.6647682   9.6338243 -12.5449991  23.8982239   7.6106076 -12.1462049
  23.6400604   7.2817011 -11.1479111  24.2369099   6.7300658 -12.7230701
  22.5838375   8.0930481 -12.7805853  22.1629601   7.7047801 -13.8256922
  22.0251827   9.0063725 -12.0166197  20.7509804   9.6462336 -12.4188385
  20.0368881   9.5002403 -11.6034136  20.3374290   9.1961870 -13.2936945
  20.9605885  11.1735620 -12.6610651  20.0169353  11.6974726 -12.6001263
  21.6430130  11.5475883 -14.0185061  21.7599754  12.6186047 -14.0115948
  21.0055714  11.3280096 -14.9020472  22.9245644  10.9437695 -14.2075634
  23.8854809  11.2754364 -15.4184818  24.8729496  12.4047461 -14.8278542
  26.0001297  11.9633341 -14.0365543  26.2104397  10.9047174 -14.1788254
  25.7320633  12.0569696 -12.9785738  27.2208824  12.8571186 -14.3691788
  27.9751759  12.8158035 -13.6373348  26.9050884  13.9071865 -14.5297251
  27.9472332  12.6133881 -15.6614017  27.0828438  12.3294468 -16.8343849
  26.4603691  11.4354506 -16.5964985  27.6146297  12.1478186 -17.7824898
  26.4126987  13.1797333 -16.8982849  28.8485050  13.7492514 -15.9938421
  29.2075825  14.2147446 -15.0588560  28.3069038  14.4795122 -16.5672665
  29.6875858  13.3971109 -16.5422840  28.7566090  11.3441792 -15.4207439
  29.3039494  11.5800381 -14.5093622  29.4783897  11.0764837 -16.1685143
  28.0578136  10.4974041 -15.2776613  24.6793079  10.0717010 -15.7579699
  23.1350040  11.9408092 -16.5260963  21.7661839  11.7285528 -11.5347853
  21.7189407  13.0090322 -11.2545500  20.9471111  13.8205709 -11.7836390
  22.7729263  13.3563662 -10.2351112  22.4555378  14.2171202  -9.6709518
  22.9106426  12.5609293  -9.5284786  24.1661472  13.5566673 -10.8763142
  24.4200172  12.6518335 -11.4165983  24.1434708  14.4059458 -11.5528002
  25.2039700  13.7843142  -9.7714500  24.9034958  14.6021166  -9.0974865
  25.2291279  12.8880415  -9.1435966  26.6307831  14.0029640 -10.2999296
  27.2977257  13.8740387  -9.4627743  26.8932323  13.1958714 -10.9767141
  26.7977886  15.3899946 -10.8927650  26.0460167  15.6240416 -11.6120586
  26.6806202  16.1917152 -10.1138706  28.1481075  15.6044855 -11.5656290
  28.3786087  14.7925653 -12.2693930  28.0966740  16.5531960 -12.0859613
  29.3342285  15.5935202 -10.5809784  29.5313835  14.5728130 -10.3166151
  30.2020931  15.9724951 -11.0612011  29.1504745  16.4548969  -9.3969450
  29.0968494  17.5406609  -9.6882277  29.1897602  16.0744057  -8.1269684
  29.1768837  16.8930588  -7.4302111  29.4411278  14.6869030  -7.5818725
  29.2110615  13.9029236  -8.3313913  30.5195217  14.5653572  -7.3127155
  28.5969009  14.4169130  -6.2814445  28.9282913  15.0384989  -5.4667873
  27.4903221  14.5909042  -6.3844061  28.8749104  13.0054274  -5.7163773
  28.4559536  12.2669182  -6.3964186  29.9551487  12.8211174  -5.7017450
  28.3847408  12.7902689  -4.2766671  28.7011337  13.6244345  -3.6917260
  27.2831955  12.8450480  -4.1559124  28.9052181  11.5415087  -3.5491011
  30.0242786  11.5186892  -3.6141541  28.6214428  11.6617107  -2.5331106
  28.3086052  10.2360115  -4.0311394  28.4957485  10.0919771  -5.0800157
  28.8507252   9.4115181  -3.4849570  26.7853947  10.0595274  -3.8324988
  26.6393642  10.2852392  -2.7504478  26.1562462  10.8237324  -4.3099184
  26.2599297   8.7032785  -4.1347313  25.2254295   8.6590633  -3.7821290
  26.8402939   7.9420815  -3.5640144  26.2711792   8.5703554  -5.1926017
