%VERSION  VERSION_STAMP = V0001.000  DATE = 07/02/26  05:29:00
%FLAG CTITLE
%FORMAT(20a4)

%FLAG POINTERS
%FORMAT(10I8)
      62       8      32      29      69      39      99      48       0       0
     312       5      29      39      48      10      20      28       1       0
       0       0       0       0       0       0       0       0      16       0
       0
%FLAG FORCE_FIELD_TYPE
%FORMAT(i2,a78)
 1                               CHARMM force field: No FF information parsed...
%FLAG ATOM_NAME
%FORMAT(20a4)
CAY HY1 HY2 HY3 CY  OY  N   HN  CA  HA  CB  HB1 HB2 HB3 C   O   N   HN  CA  HA  
CB  HB1 HB2 HB3 C   O   N   HN  CA  HA  CB  HB1 HB2 HB3 C   O   N   HN  CA  HA  
CB  HB1 HB2 HB3 C   O   C   O   NT  HNT CAT HT1 HT2 HT3 N   HN  CA  HA  CB  HB1 
HB2 HB3 
%FLAG CHARGE
%COMMENT Atomic charge multiplied by sqrt(332.0716D0) (CCELEC)
%FORMAT(3E24.16)
 -4.9201645948077797E+00  1.6400548649359266E+00  1.6400548649359266E+00
  1.6400548649359266E+00  9.2936442346369166E+00 -9.2936442346369166E+00
 -8.5647309613320601E+00  5.6490778681126361E+00  1.2755982282834986E+00
  1.6400548649359266E+00 -4.9201645948077797E+00  1.6400548649359266E+00
  1.6400548649359266E+00  1.6400548649359266E+00  9.2936442346369166E+00
 -9.2936442346369166E+00 -8.5647309613320601E+00  5.6490778681126361E+00
  1.2755982282834986E+00  1.6400548649359266E+00 -4.9201645948077797E+00
  1.6400548649359266E+00  1.6400548649359266E+00  1.6400548649359266E+00
  9.2936442346369166E+00 -9.2936442346369166E+00 -8.5647309613320601E+00
  5.6490778681126361E+00  1.2755982282834986E+00  1.6400548649359266E+00
 -4.9201645948077797E+00  1.6400548649359266E+00  1.6400548649359266E+00
  1.6400548649359266E+00  9.2936442346369166E+00 -9.2936442346369166E+00
 -8.5647309613320601E+00  5.6490778681126361E+00  1.2755982282834986E+00
  1.6400548649359266E+00 -4.9201645948077797E+00  1.6400548649359266E+00
  1.6400548649359266E+00  1.6400548649359266E+00  9.2936442346369166E+00
 -9.2936442346369166E+00  9.2936442346369166E+00 -9.2936442346369166E+00
 -8.5647309613320601E+00  5.6490778681126361E+00 -2.0045115015883548E+00
  1.6400548649359266E+00  1.6400548649359266E+00  1.6400548649359266E+00
 -8.5647309613320601E+00  5.6490778681126361E+00  1.2755982282834986E+00
  1.6400548649359266E+00 -4.9201645948077797E+00  1.6400548649359266E+00
  1.6400548649359266E+00  1.6400548649359266E+00
%FLAG ATOMIC_NUMBER
%FORMAT(10I8)
       6       1       1       1       6       8       7       1       6       1
       6       1       1       1       6       8       7       1       6       1
       6       1       1       1       6       8       7       1       6       1
       6       1       1       1       6       8       7       1       6       1
       6       1       1       1       6       8       6       8       7       1
       6       1       1       1       7       1       6       1       6       1
       1       1
%FLAG MASS
%FORMAT(5E16.8)
  1.20110000E+01  1.00800000E+00  1.00800000E+00  1.00800000E+00  1.20110000E+01
  1.59990000E+01  1.40070000E+01  1.00800000E+00  1.20110000E+01  1.00800000E+00
  1.20110000E+01  1.00800000E+00  1.00800000E+00  1.00800000E+00  1.20110000E+01
  1.59990000E+01  1.40070000E+01  1.00800000E+00  1.20110000E+01  1.00800000E+00
  1.20110000E+01  1.00800000E+00  1.00800000E+00  1.00800000E+00  1.20110000E+01
  1.59990000E+01  1.40070000E+01  1.00800000E+00  1.20110000E+01  1.00800000E+00
  1.20110000E+01  1.00800000E+00  1.00800000E+00  1.00800000E+00  1.20110000E+01
  1.59990000E+01  1.40070000E+01  1.00800000E+00  1.20110000E+01  1.00800000E+00
  1.20110000E+01  1.00800000E+00  1.00800000E+00  1.00800000E+00  1.20110000E+01
  1.59990000E+01  1.20110000E+01  1.59990000E+01  1.40070000E+01  1.00800000E+00
  1.20110000E+01  1.00800000E+00  1.00800000E+00  1.00800000E+00  1.40070000E+01
  1.00800000E+00  1.20110000E+01  1.00800000E+00  1.20110000E+01  1.00800000E+00
  1.00800000E+00  1.00800000E+00
%FLAG ATOM_TYPE_INDEX
%FORMAT(10I8)
       1       2       2       2       3       4       5       6       7       8
       1       2       2       2       3       4       5       6       7       8
       1       2       2       2       3       4       5       6       7       8
       1       2       2       2       3       4       5       6       7       8
       1       2       2       2       3       4       3       4       5       6
       1       2       2       2       5       6       7       8       1       2
       2       2
%FLAG NUMBER_EXCLUDED_ATOMS
%FORMAT(10I8)
       8       5       4       3       7       3      10       4      10       7
       6       3       2       1       7       3      10       4      10       7
       6       3       2       1       7       3      10       4      10       7
       6       3       2       1       7       3      10       4      10       7
       6       3       2       1       7       3      15       7       9       5
       4       2       1       1       7       3       5       4       3       2
       1       1
%FLAG NONBONDED_PARM_INDEX
%FORMAT(10I8)
       1       2       4       7      11      16      22      29       2       3
       5       8      12      17      23      30       4       5       6       9
      13      18      24      31       7       8       9      10      14      19
      25      32      11      12      13      14      15      20      26      33
      16      17      18      19      20      21      27      34      22      23
      24      25      26      27      28      35      29      30      31      32
      33      34      35      36
%FLAG RESIDUE_LABEL
%FORMAT(20a4)
ALA ALA ALA ALA ALA 
%FLAG RESIDUE_POINTER
%FORMAT(10I8)
       1      17      27      37      47
%FLAG BOND_FORCE_CONSTANT
%FORMAT(5E16.8)
  3.22000000E+02  2.50000000E+02  3.70000000E+02  6.20000000E+02  4.40000000E+02
  3.20000000E+02  3.30000000E+02  2.22500000E+02  2.50000000E+02  3.20000000E+02
%FLAG BOND_EQUIL_VALUE
%FORMAT(5E16.8)
  1.11100000E+00  1.49000000E+00  1.34500000E+00  1.23000000E+00  9.97000000E-01
  1.43000000E+00  1.08000000E+00  1.53800000E+00  1.49000000E+00  1.43000000E+00
%FLAG ANGLE_FORCE_CONSTANT
%FORMAT(5E16.8)
  8.00000000E+01  8.00000000E+01  3.55000000E+01  5.00000000E+01  3.40000000E+01
  3.30000000E+01  4.80000000E+01  5.00000000E+01  8.00000000E+01  3.50000000E+01
  8.00000000E+01  8.00000000E+01  3.34300000E+01  3.50000000E+01  5.20000000E+01
  7.00000000E+01  5.00000000E+01  5.00000000E+01  5.15000000E+01  3.50000000E+01
%FLAG ANGLE_EQUIL_VALUE
%FORMAT(3E25.17)
  2.11184839491313880E+00  2.03330857857339398E+00  1.89193690916185342E+00
  2.09439510239319526E+00  2.14675497995302544E+00  1.91113553093379096E+00
  1.88495559215387587E+00  1.86750229963393255E+00  2.13802833369305390E+00
  2.04203522483336553E+00  2.11184839491313880E+00  2.03330857857339398E+00
  1.92160750644575673E+00  1.93731546971370583E+00  1.88495559215387587E+00
  1.98094870101356402E+00  1.91113553093379096E+00  2.09439510239319526E+00
  1.91113553093379096E+00  2.04203522483336553E+00
%FLAG CHARMM_UREY_BRADLEY_COUNT
%COMMENT V(ub) = K_ub(r_ik - R_ub)**2
%COMMENT Number of Urey Bradley terms and types
%FORMAT(2I8)
      39       3
%FLAG CHARMM_UREY_BRADLEY
%COMMENT List of the two atoms and its parameter index
%COMMENT in each UB term: i,k,index
%FORMAT(10I8)
       2       4       1       2       3       1       3       4       1       5
       4       2       5       3       2       5       2       2       9      14
       3       9      13       3       9      12       3      12      14       1
      12      13       1      13      14       1      19      24       3      19
      23       3      19      22       3      22      24       1      22      23
       1      23      24       1      29      34       3      29      33       3
      29      32       3      32      34       1      32      33       1      33
      34       1      39      44       3      39      43       3      39      42
       3      42      44       1      42      43       1      43      44       1
      52      54       1      52      53       1      53      54       1      57
      62       3      57      61       3      57      60       3      60      62
       1      60      61       1      61      62       1
%FLAG CHARMM_UREY_BRADLEY_FORCE_CONSTANT
%COMMENT K_ub: kcal/mol/A**2
%FORMAT(5E16.8)
  5.40000000E+00  3.00000000E+01  2.25300000E+01
%FLAG CHARMM_UREY_BRADLEY_EQUIL_VALUE
%COMMENT r_ub: A
%FORMAT(5E16.8)
  1.80200000E+00  2.16300000E+00  2.17900000E+00
%FLAG DIHEDRAL_FORCE_CONSTANT
%FORMAT(5E16.8)
  2.50000000E+00  1.60000000E+00  2.50000000E+00  0.00000000E+00  0.00000000E+00
  1.80000000E+00  2.00000000E-01  0.00000000E+00  2.50000000E+00  2.50000000E+00
  2.00000000E-01  6.00000000E-01  0.00000000E+00  0.00000000E+00  0.00000000E+00
  0.00000000E+00  2.50000000E+00  1.60000000E+00  2.50000000E+00  0.00000000E+00
  0.00000000E+00  0.00000000E+00  1.40000000E+00  0.00000000E+00  2.50000000E+00
  0.00000000E+00  1.60000000E+00  2.50000000E+00
%FLAG DIHEDRAL_PERIODICITY
%FORMAT(5E16.8)
  2.00000000E+00  1.00000000E+00  2.00000000E+00  3.00000000E+00  3.00000000E+00
  1.00000000E+00  1.00000000E+00  1.00000000E+00  2.00000000E+00  2.00000000E+00
  3.00000000E+00  1.00000000E+00  1.00000000E+00  1.00000000E+00  1.00000000E+00
  1.00000000E+00  2.00000000E+00  1.00000000E+00  2.00000000E+00  1.00000000E+00
  1.00000000E+00  1.00000000E+00  1.00000000E+00  3.00000000E+00  2.00000000E+00
  3.00000000E+00  1.00000000E+00  2.00000000E+00
%FLAG DIHEDRAL_PHASE
%FORMAT(5E16.8)
  3.14159265E+00  0.00000000E+00  3.14159265E+00  0.00000000E+00  3.14159265E+00
  0.00000000E+00  3.14159265E+00  0.00000000E+00  3.14159265E+00  3.14159265E+00
  0.00000000E+00  0.00000000E+00  0.00000000E+00  0.00000000E+00  0.00000000E+00
  0.00000000E+00  3.14159265E+00  0.00000000E+00  3.14159265E+00  0.00000000E+00
  0.00000000E+00  0.00000000E+00  0.00000000E+00  0.00000000E+00  3.14159265E+00
  0.00000000E+00  0.00000000E+00  3.14159265E+00
%FLAG SCEE_SCALE_FACTOR
%FORMAT(5E16.8)
  1.00000000E+00  1.00000000E+00  1.00000000E+00  1.00000000E+00  1.00000000E+00
  1.00000000E+00  1.00000000E+00  1.00000000E+00  1.00000000E+00  1.00000000E+00
  1.00000000E+00  1.00000000E+00  1.00000000E+00  1.00000000E+00  1.00000000E+00
  1.00000000E+00  1.00000000E+00  1.00000000E+00  1.00000000E+00  1.00000000E+00
  1.00000000E+00  1.00000000E+00  1.00000000E+00  1.00000000E+00  1.00000000E+00
  1.00000000E+00  1.00000000E+00  1.00000000E+00
%FLAG SCNB_SCALE_FACTOR
%FORMAT(5E16.8)
  1.00000000E+00  1.00000000E+00  1.00000000E+00  1.00000000E+00  1.00000000E+00
  1.00000000E+00  1.00000000E+00  1.00000000E+00  1.00000000E+00  1.00000000E+00
  1.00000000E+00  1.00000000E+00  1.00000000E+00  1.00000000E+00  1.00000000E+00
  1.00000000E+00  1.00000000E+00  1.00000000E+00  1.00000000E+00  1.00000000E+00
  1.00000000E+00  1.00000000E+00  1.00000000E+00  1.00000000E+00  1.00000000E+00
  1.00000000E+00  1.00000000E+00  1.00000000E+00
%FLAG CHARMM_NUM_IMPROPERS
%COMMENT Number of terms contributing to the
%COMMENT quadratic four atom improper energy term:
%COMMENT V(improper) = K_psi(psi - psi_0)**2
%FORMAT(10I8)
      12
%FLAG CHARMM_IMPROPERS
%COMMENT List of the four atoms in each improper term
%COMMENT i,j,k,l,index  i,j,k,l,index
%COMMENT where index is into the following two lists:
%COMMENT CHARMM_IMPROPER_{FORCE_CONSTANT,IMPROPER_PHASE}
%FORMAT(10I8)
       5       1       7       6       1       7       5       9       8       2
      15       9      17      16       1      17      15      19      18       2
      25      19      27      26       1      27      25      29      28       2
      35      29      37      36       1      37      35      39      38       2
      45      39      55      46       1      47      57      49      48       1
      49      47      51      50       2      55      45      57      56       2
%FLAG CHARMM_NUM_IMPR_TYPES
%COMMENT Number of unique parameters contributing to the
%COMMENT quadratic four atom improper energy term
%FORMAT(1I8)
       2
%FLAG CHARMM_IMPROPER_FORCE_CONSTANT
%COMMENT K_psi: kcal/mole/rad**2
%FORMAT(5E16.8)
  1.20000000E+02  2.00000000E+01
%FLAG CHARMM_IMPROPER_PHASE
%COMMENT psi: radians
%FORMAT(5E16.8)
  0.00000000E+00  0.00000000E+00
%FLAG SOLTY
%FORMAT(5E16.8)
  0.00000000E+00
%FLAG LENNARD_JONES_ACOEF
%FORMAT(3E24.16)
  1.6596501891530692E+06  9.6195183080873321E+04  3.2947978207274150E+03
  1.7511366002559380E+06  9.9028355069509242E+04  1.8454937600000000E+06
  7.2459803302369278E+05  3.3433300144698449E+04  7.5632360393402458E+05
  2.8637048204317159E+05  1.4995381358135224E+06  7.6932317518378128E+04
  1.5730411891415559E+06  6.2064871065477643E+05  1.3165904011680079E+06
  1.0891661045985622E+03  7.1448208955014563E+00  1.0443935461513495E+03
  1.9177170259300729E+02  6.0933367984903236E+02  3.0882604789375229E-06
  9.4449284403752221E+05  5.3411922694259389E+04  9.9538531133501721E+05
  4.0793061580001831E+05  8.4843532269460149E+05  5.6330398813819011E+02
  5.3687091200000001E+05  8.5768925716781843E+04  2.8833449391668501E+03
  8.8219519385371299E+04  2.9572311958222777E+04  6.8302639168618378E+04
  5.8619918176552899E+00  4.7582070268952521E+04  2.5215628838626608E+03
%FLAG LENNARD_JONES_BCOEF
%FORMAT(3E24.16)
  7.1959075801163374E+02  1.2902774865289740E+02  1.7784841601482757E+01
  8.0549311062029153E+02  1.4266280539793001E+02  9.0112000000000000E+02
  5.2953849066433634E+02  8.4716448557686434E+01  5.8955904361510193E+02
  3.7075305983999965E+02  8.6554549997917559E+02  1.4601407202641923E+02
  9.6606358743307453E+02  6.2016283283809321E+02  1.0262905636000003E+03
  1.6154375103980083E+01  9.7446879680653153E-01  1.7238509581379120E+01
  7.5493059634400677E+00  1.5289896454943387E+01  7.5381690623420230E-04
  4.3445067551623163E+02  7.6946595022323763E+01  4.8602798405030137E+02
  3.1798450089540978E+02  5.2105595022250009E+02  9.2977606310696679E+00
  2.6214400000000001E+02  1.1921318792336776E+02  1.6279339364788658E+01
  1.3175471954107928E+02  7.7960320675811644E+01  1.3462071944937435E+02
  8.6366978783292059E-01  7.1063211034782952E+01  1.4896225487683587E+01
%FLAG LENNARD_JONES_14_ACOEF
%FORMAT(3E24.16)
  9.0657379084949906E+04  2.0732216879210802E+04  3.2947978207274150E+03
  4.1064981063699443E+05  9.9028355069509096E+04  1.8454937600000000E+06
  5.7777387626199576E+04  9.6095488251108727E+03  2.7417886236938258E+05
  2.7866191810705470E+04  1.2715813181503887E+05  2.3517693811146251E+04
  5.9422589997490286E+05  6.7292987992743627E+04  1.5753255675771003E+05
  1.8132585791999887E+02  7.1448208955014447E+00  1.0443935461513495E+03
  2.5096093690802419E+01  9.3498782964680515E+01  3.0882604789375187E-06
  9.0657379084949906E+04  2.0732216879210802E+04  4.1064981063699443E+05
  5.7777387626199576E+04  1.2715813181503887E+05  1.8132585791999887E+02
  9.0657379084949906E+04  1.8428152636329229E+04  2.8833449391668501E+03
  8.8219519385371445E+04  8.4261427397045609E+03  2.0716152484524384E+04
  5.8619918176552899E+00  1.8428152636329229E+04  2.5215628838626608E+03
%FLAG LENNARD_JONES_14_BCOEF
%FORMAT(3E24.16)
  6.0218727679999986E+01  3.5843109397069611E+01  1.7784841601482757E+01
  2.3340705577281992E+02  1.4266280539792990E+02  9.0112000000000000E+02
  8.9475525546231481E+01  4.5418168423890791E+01  3.5496902977442369E+02
  1.1565367295999995E+02  1.5082021791001515E+02  8.0730505320111504E+01
  5.9376070738215299E+02  2.0420563040716846E+02  3.5500147240000007E+02
  3.9441127724648419E+00  9.7446879680653076E-01  1.7238509581379120E+01
  2.7309756545650936E+00  5.9893532921903283E+00  7.5381690623420186E-04
  6.0218727679999986E+01  3.5843109397069611E+01  2.3340705577281992E+02
  8.9475525546231481E+01  1.5082021791001515E+02  3.9441127724648419E+00
  6.0218727679999986E+01  3.3065612070731468E+01  1.6279339364788658E+01
  1.3175471954107940E+02  4.1614567301854414E+01  7.4139169075978288E+01
  8.6366978783292059E-01  3.3065612070731468E+01  1.4896225487683587E+01
%FLAG BONDS_INC_HYDROGEN
%FORMAT(10I8)
       0       3       1       0       6       1       0       9       1      18
      21       5      24      27       7      30      33       1      30      36
       1      30      39       1      48      51       5      54      57       7
      60      63       1      60      66       1      60      69       1      78
      81       5      84      87       7      90      93       1      90      96
       1      90      99       1     108     111       5     114     117       7
     120     123       1     120     126       1     120     129       1     144
     147       5     150     153       1     150     156       1     150     159
       1     162     165       5     168     171       7     174     177       1
     174     180       1     174     183       1
%FLAG BONDS_WITHOUT_HYDROGEN
%FORMAT(10I8)
      12       0       2      12      18       3      15      12       4      18
      24       6      30      24       8      42      24       9      42      48
       3      45      42       4      48      54       6      60      54       8
      72      54       9      72      78       3      75      72       4      78
      84       6      90      84       8     102      84       9     102     108
       3     105     102       4     108     114       6     120     114       8
     132     114       9     132     162       3     135     132       4     138
     144       3     138     168       9     141     138       4     144     150
      10     162     168       6     174     168       8
%FLAG ANGLES_INC_HYDROGEN
%FORMAT(10I8)
       3       0       9       3       3       0       6       3       6       0
       9       3      12      18      21       5      12       0       9       6
      12       0       6       6      12       0       3       6      18      24
      27       7      21      18      24      10      24      30      39      13
      24      30      36      13      24      30      33      13      30      24
      27      14      33      30      39       3      33      30      36       3
      36      30      39       3      42      24      27      17      48      54
      57       7      51      48      42       5      51      48      54      10
      54      60      69      13      54      60      66      13      54      60
      63      13      60      54      57      14      63      60      69       3
      63      60      66       3      66      60      69       3      72      54
      57      17      78      84      87       7      81      78      72       5
      81      78      84      10      84      90      99      13      84      90
      96      13      84      90      93      13      90      84      87      14
      93      90      99       3      93      90      96       3      96      90
      99       3     102      84      87      17     108     114     117       7
     111     108     102       5     111     108     114      10     114     120
     129      13     114     120     126      13     114     120     123      13
     120     114     117      14     123     120     129       3     123     120
     126       3     126     120     129       3     132     114     117      17
     138     168     171      17     138     144     147       5     144     150
     159      19     144     150     156      19     144     150     153      19
     147     144     150      20     153     150     159       3     153     150
     156       3     156     150     159       3     162     168     171       7
     165     162     132       5     165     162     168      10     168     174
     183      13     168     174     180      13     168     174     177      13
     174     168     171      14     177     174     183       3     177     174
     180       3     180     174     183       3
%FLAG ANGLES_WITHOUT_HYDROGEN
%FORMAT(10I8)
       0      12      15       1       0      12      18       2      12      18
      24       4      18      24      42       8      18      12      15       9
      24      42      45      11      24      42      48      12      30      24
      42      15      30      24      18      16      48      54      72       8
      48      42      45       9      54      72      75      11      54      72
      78      12      54      48      42       4      60      54      72      15
      60      54      48      16      78      84     102       8      78      72
      75       9      84     102     105      11      84     102     108      12
      84      78      72       4      90      84     102      15      90      84
      78      16     108     114     132       8     108     102     105       9
     114     132     135      11     114     132     162      12     114     108
     102       4     120     114     132      15     120     114     108      16
     138     144     150      18     144     138     141       9     144     138
     168      12     162     168     138       8     162     132     135       9
     168     162     132       4     168     138     141      11     174     168
     138      15     174     168     162      16
%FLAG DIHEDRALS_INC_HYDROGEN
%FORMAT(10I8)
       0      12      18      21       1       3       0      12      18       4
       3       0      12      15       5       6       0      12      18       4
       6       0      12      15       5       9       0      12      18       4
       9       0      12      15       5      12      18      24      27       8
      15      12      18      21       9      18      24      30      33      11
      18      24      30      36      11      18      24      30      39      11
      21      18      24      30      14      21      18      24      42      15
      21      18      24      27      16      24      42      48      51      17
      27      24      30      33      11      27      24      30      36      11
      27      24      30      39      11      27      24      42      48      20
      27      24      42      45      21      33      30      24      42      11
      36      30      24      42      11      39      30      24      42      11
      42      48      54      57       8      45      42      48      51       9
      48      54      60      63      11      48      54      60      66      11
      48      54      60      69      11      51      48      54      60      14
      51      48      54      72      15      51      48      54      57      16
      54      72      78      81      17      57      54      60      63      11
      57      54      60      66      11      57      54      60      69      11
      57      54      72      78      20      57      54      72      75      21
      63      60      54      72      11      66      60      54      72      11
      69      60      54      72      11      72      78      84      87       8
      75      72      78      81       9      78      84      90      93      11
      78      84      90      96      11      78      84      90      99      11
      81      78      84      90      14      81      78      84     102      15
      81      78      84      87      16      84     102     108     111      17
      87      84      90      93      11      87      84      90      96      11
      87      84      90      99      11      87      84     102     108      20
      87      84     102     105      21      93      90      84     102      11
      96      90      84     102      11      99      90      84     102      11
     102     108     114     117       8     105     102     108     111       9
     108     114     120     123      11     108     114     120     126      11
     108     114     120     129      11     111     108     114     120      14
     111     108     114     132      15     111     108     114     117      16
     114     132     162     165      17     117     114     120     123      11
     117     114     120     126      11     117     114     120     129      11
     117     114     132     162      20     117     114     132     135      21
     123     120     114     132      11     126     120     114     132      11
     129     120     114     132      11     132     162     168     171       8
     135     132     162     165       9     138     168     174     177      11
     138     168     174     180      11     138     168     174     183      11
     138     168     162     165      15     138     144     150     153      24
     138     144     150     156      24     138     144     150     159      24
     141     138     144     147       9     141     138     168     171      21
     144     138     168     171      20     147     144     138     168      17
     147     144     150     153      26     147     144     150     156      26
     147     144     150     159      26     162     168     174     177      11
     162     168     174     180      11     162     168     174     183      11
     165     162     168     174      14     165     162     168     171      16
     171     168     174     177      11     171     168     174     180      11
     171     168     174     183      11
%FLAG DIHEDRALS_WITHOUT_HYDROGEN
%FORMAT(10I8)
       0      12     -18      24       2       0      12      18      24       3
      12      18      24      30       6      12      18      24      42       7
      15      12      18      24      10      18      24      42      48      12
      18      24      42      45      13      24      42     -48      54      18
      24      42      48      54      19      30      24      42      48      22
      30      24      42      45      23      42      48      54      60       6
      42      48      54      72       7      45      42      48      54      10
      48      54      72      78      12      48      54      72      75      13
      54      72     -78      84      18      54      72      78      84      19
      60      54      72      78      22      60      54      72      75      23
      72      78      84      90       6      72      78      84     102       7
      75      72      78      84      10      78      84     102     108      12
      78      84     102     105      13      84     102    -108     114      18
      84     102     108     114      19      90      84     102     108      22
      90      84     102     105      23     102     108     114     120       6
     102     108     114     132       7     105     102     108     114      10
     108     114     132     162      12     108     114     132     135      13
     114     132    -162     168      18     114     132     162     168      19
     120     114     132     162      22     120     114     132     135      23
     132     162     168     174       6     132     162     168     138       7
     135     132     162     168      10     141     138     144     150      25
     141     138     168     174      23     141     138     168     162      13
     144     138     168     174      22     144     138     168     162      12
     150     144    -138     168      27     150     144     138     168      28
%FLAG EXCLUDED_ATOMS_LIST
%FORMAT(10I8)
       2       3       4       5       6       7       8       9       3       4
       5       6       7       4       5       6       7       5       6       7
       6       7       8       9      10      11      15       7       8       9
       8       9      10      11      12      13      14      15      16      17
       9      10      11      15      10      11      12      13      14      15
      16      17      18      19      11      12      13      14      15      16
      17      12      13      14      15      16      17      13      14      15
      14      15      15      16      17      18      19      20      21      25
      17      18      19      18      19      20      21      22      23      24
      25      26      27      19      20      21      25      20      21      22
      23      24      25      26      27      28      29      21      22      23
      24      25      26      27      22      23      24      25      26      27
      23      24      25      24      25      25      26      27      28      29
      30      31      35      27      28      29      28      29      30      31
      32      33      34      35      36      37      29      30      31      35
      30      31      32      33      34      35      36      37      38      39
      31      32      33      34      35      36      37      32      33      34
      35      36      37      33      34      35      34      35      35      36
      37      38      39      40      41      45      37      38      39      38
      39      40      41      42      43      44      45      46      55      39
      40      41      45      40      41      42      43      44      45      46
      55      56      57      41      42      43      44      45      46      55
      42      43      44      45      46      55      43      44      45      44
      45      45      46      47      55      56      57      58      59      55
      56      57      48      49      50      51      52      53      54      55
      56      57      58      59      60      61      62      49      50      51
      55      57      58      59      50      51      52      53      54      55
      57      58      59      51      52      53      54      57      52      53
      54      57      53      54      54       0      56      57      58      59
      60      61      62      57      58      59      58      59      60      61
      62      59      60      61      62      60      61      62      61      62
      62       0
%FLAG HBOND_ACOEF
%FORMAT(5E16.8)

%FLAG HBOND_BCOEF
%FORMAT(5E16.8)

%FLAG HBCUT
%FORMAT(5E16.8)

%FLAG AMBER_ATOM_TYPE
%FORMAT(20a4)
CT3 HA3 HA3 HA3 C   O   NH1 H   CT1 HB1 CT3 HA3 HA3 HA3 C   O   NH1 H   CT1 HB1 
CT3 HA3 HA3 HA3 C   O   NH1 H   CT1 HB1 CT3 HA3 HA3 HA3 C   O   NH1 H   CT1 HB1 
CT3 HA3 HA3 HA3 C   O   C   O   NH1 H   CT3 HA3 HA3 HA3 NH1 H   CT1 HB1 CT3 HA3 
HA3 HA3 
%FLAG TREE_CHAIN_CLASSIFICATION
%FORMAT(20a4)
BLA BLA BLA BLA BLA BLA BLA BLA BLA BLA BLA BLA BLA BLA BLA BLA BLA BLA BLA BLA 
BLA BLA BLA BLA BLA BLA BLA BLA BLA BLA BLA BLA BLA BLA BLA BLA BLA BLA BLA BLA 
BLA BLA BLA BLA BLA BLA BLA BLA BLA BLA BLA BLA BLA BLA BLA BLA BLA BLA BLA BLA 
BLA BLA 
%FLAG JOIN_ARRAY
%FORMAT(10I8)
       0       0       0       0       0       0       0       0       0       0
       0       0       0       0       0       0       0       0       0       0
       0       0       0       0       0       0       0       0       0       0
       0       0       0       0       0       0       0       0       0       0
       0       0       0       0       0       0       0       0       0       0
       0       0       0       0       0       0       0       0       0       0
       0       0
%FLAG IROTAT
%FORMAT(10I8)
       0       0       0       0       0       0       0       0       0       0
       0       0       0       0       0       0       0       0       0       0
       0       0       0       0       0       0       0       0       0       0
       0       0       0       0       0       0       0       0       0       0
       0       0       0       0       0       0       0       0       0       0
       0       0       0       0       0       0       0       0       0       0
       0       0
%FLAG CHARMM_CMAP_COUNT
%COMMENT Number of CMAP terms, number of unique CMAP parameters
%FORMAT(2I8)
       3       1
%FLAG CHARMM_CMAP_RESOLUTION
%COMMENT Number of steps along each phi/psi CMAP axis
%COMMENT for each CMAP_PARAMETER grid
%FORMAT(20I4)
  24
%FLAG CHARMM_CMAP_PARAMETER_01
%FORMAT(8(F9.5))
  0.12679  0.76870  0.97126  1.25097  2.12101  2.72043  2.08944  1.78979
  0.78087 -0.68847  1.00113 -2.20052 -4.82767 -4.82145 -4.91322 -3.59111
 -2.76645 -2.78420 -2.45459 -2.34699 -2.33535 -1.52266 -0.95154 -0.03665
 -0.12713  1.37709  1.57702  1.87229  2.39899  2.48663  2.43675  1.92907
  1.08646  0.64340  0.25868 -2.80044 -4.00948 -4.13531 -3.42009 -2.60214
 -2.29913 -1.50124 -1.10178 -0.86143 -0.64017 -0.20770 -1.07634 -1.12203
  0.08407  1.42032  1.62435  2.04720  2.65391  2.71641  2.32142  1.98545
  1.55747  2.46329 -0.22572 -1.81589 -2.58326 -3.00615 -2.55199 -1.89068
 -1.35421 -0.72724  0.06851 -0.22502 -0.76548 -1.28344 -1.29323 -0.81630
  0.92799  1.52137  2.24222  2.54630  3.11138  2.91841  2.46081  2.18797
  2.05831  1.85228  0.11593 -1.18390 -1.99548 -2.27833 -1.95914 -1.34047
 -0.93295  0.02179  0.31372 -0.51736 -1.15289 -0.98328 -0.56652 -0.44256
  1.35747  1.95916  2.69889  3.03786  3.69896  3.55845  2.63930  2.77385
  2.71966  1.62800  0.70567 -0.78564 -2.11827 -2.62849 -1.80311 -0.42597
 -0.06232  0.43904  0.91095 -0.54699 -0.96812 -0.85679 -0.25012  0.44931
  2.04501  2.54442  2.81803  3.08858  3.37062  3.55157  3.07352  2.90379
  2.95663  2.12476  0.90649 -0.82363 -2.09082 -2.24158 -1.45652  0.20616
  0.08220  0.77171  1.04024 -0.12465 -0.31655 -0.16433  0.31447  0.73375
  1.45173  2.74848  2.73819  3.15680  3.45003  3.34416  3.18020  3.89872
  3.33503  2.44058  0.91267 -0.60650 -1.51177 -1.62086 -0.96280 -0.02065
  0.41515  0.90825  0.45943  0.14591 -0.07105  0.01762  0.28084  0.74882
  1.37816  3.34596  2.35242  3.06354  3.81407  3.70080  3.58031  4.21229
  3.53642  1.69381  0.09517 -0.68245 -0.12361 -0.42777 -0.59837  0.22635
  0.42331  0.30200  0.55189  0.19172 -0.25359 -0.19055 -0.25341  0.46892
  0.23775  1.22998  1.71696  3.16857  4.20819  4.39186  4.27608  3.67311
  2.27230 -0.48279 -0.40669 -0.03892 -0.35760 -0.82334 -0.17315  0.13981
  0.26780  0.32242  0.30966 -0.66640 -0.94863 -1.53436 -1.47997 -0.20426
 -1.18484  0.07806  2.34741  4.21135  5.37600  5.38994  4.38020  2.46151
  1.12371  0.10702  0.00757 -0.14944 -0.79723 -0.58221  0.08291  0.27158
 -0.04557  0.37943  0.24777 -0.89096 -1.58243 -1.95453 -1.98097 -2.00043
 -1.17472  1.06703  4.18046  6.74161  6.07077  4.80647  2.78334  1.32081
  0.76598 -0.00845  0.27686 -0.70714  1.31436  1.52259  1.91555  2.22349
  0.19429  0.53400  0.33178 -1.59515 -2.84914 -3.55046 -3.27737 -2.65514
  0.29359  5.58807  3.73262  3.21762  3.27245  2.51732  1.58870  1.38176
  0.85641  0.65517  1.61697  0.84692  0.51107  0.74076  1.02102  1.61658
 -0.34240  0.18177 -0.61392 -2.55804 -3.78684 -3.80733 -3.15535 -1.74920
  2.83231  0.78799  0.32328  0.47923  0.62860  0.97633  1.23875  1.67195
  1.64548  2.52034  1.60697  0.77635  0.11978  0.07039  0.12117 -1.56923
 -1.21301 -1.84636 -2.74451 -3.79253 -3.93488 -3.61593 -2.67575 -0.92417
 -0.77834 -1.91268 -2.05214 -1.84628 -1.04743  0.18340  1.68295  2.22350
  1.35837  2.44866  1.43692  0.67857 -0.23706 -0.53532 -0.79038 -2.18258
 -3.25114 -4.19511 -4.26927 -3.90821 -3.45562 -2.77397  1.75537  0.31341
 -2.96381 -3.48373 -3.44181 -2.40035 -1.12508  0.33620  1.42845  1.39463
  0.97037  2.46272  1.52243  0.55362 -0.40738 -1.48295 -3.61392 -4.15981
 -4.70972 -4.49627 -3.76454 -2.95914 -1.96385 -1.07126 -1.59958 -2.44532
 -4.02150 -3.83655 -3.36533 -2.33438 -0.98472  0.36200  0.81438  0.75411
  0.50237  1.90342  0.77022 -0.41642 -3.28631 -3.87527 -4.61155 -5.28798
 -5.14624 -4.03863 -2.86545 -2.36817 -2.86049 -3.41656 -3.66649 -3.59522
 -3.35368 -2.98442 -2.31741 -1.24014 -0.25789  0.72261  0.66807  0.43813
  2.39533  1.63247 -2.04145 -3.21810 -3.91508 -4.56857 -5.09678 -5.52696
 -5.00531 -3.77788 -2.84068 -3.50882 -3.75643 -3.64081 -3.45185 -3.34281
 -2.24873 -1.64108 -1.01058  0.03966  0.63606  0.82371  0.51714 -0.01312
 -0.37091 -1.19281 -2.30565 -3.42058 -4.48496 -5.59724 -5.60126 -5.72774
 -4.74052 -3.81938 -3.68515 -4.15136 -4.17074 -3.72559 -3.73673 -2.62067
 -1.72084 -1.17783 -0.42843  0.27773  0.80790  0.80326  0.48251 -0.33690
 -0.78627 -1.77407 -2.79322 -3.82856 -5.21180 -6.29433 -6.61722 -5.76395
 -5.07299 -3.91145 -4.15831 -4.47341 -4.09933 -3.76982 -3.15730 -2.65169
 -1.85064 -1.09242 -0.44502  0.12849  1.00552  0.88482  0.48585 -0.21847
 -0.85767 -1.68233 -3.01440 -4.48111 -6.05351 -6.86540 -6.87113 -5.72824
 -3.91223 -4.80211 -5.03464 -4.71599 -4.60055 -4.08672 -3.27463 -2.41094
 -1.96923 -1.11665 -0.54025 -0.15033  0.76352  1.03889  0.75848  0.31353
 -0.33305 -1.87277 -3.36627 -5.00826 -6.12481 -7.03483 -6.72432 -3.70020
 -4.51062 -5.18565 -5.36162 -4.84749 -4.44432 -4.00426 -3.41572 -2.75123
 -2.11125 -1.16896 -0.32279 -0.00692  0.31666  1.08627  0.93917  0.62534
 -0.16636 -1.83031 -3.46947 -4.94603 -6.11256 -1.91558 -4.04731 -4.99674
 -4.99673 -4.84269 -4.88662 -4.30054 -4.49462 -4.44221 -4.16357 -3.18351
 -1.75759 -0.40362  0.02392  0.36239  0.63452  1.26492  1.36136  0.94842
 -0.07368 -1.48356 -3.15282  1.83512 -1.76286 -5.09366 -5.74483 -5.39007
 -4.78393 -4.19063 -4.11542 -4.04228 -4.12557 -4.02855 -4.02610 -2.93791
 -0.81059 -0.07150  0.37889  0.54331  1.27788  1.64131  1.69884  1.51995
  0.63195 -1.08867 -2.73653 -0.73524 -4.56383 -6.40835 -5.88945 -5.14175
 -4.19497 -3.66649 -3.84345 -3.55500 -3.54872 -3.24700 -2.75129 -1.81437
%FLAG CHARMM_CMAP_INDEX
%COMMENT Atom index i,j,k,l,m of the cross term
%COMMENT and then pointer to CMAP_PARAMETER_n
%FORMAT(6I8)
      15      17      19      25      27       1
      25      27      29      35      37       1
      35      37      39      45      55       1
%FLAG RADIUS_SET
%FORMAT(1a80)
0                                                                               
%FLAG RADII
%FORMAT(5E16.8)
  0.00000000E+00  0.00000000E+00  0.00000000E+00  0.00000000E+00  0.00000000E+00
  0.00000000E+00  0.00000000E+00  0.00000000E+00  0.00000000E+00  0.00000000E+00
  0.00000000E+00  0.00000000E+00  0.00000000E+00  0.00000000E+00  0.00000000E+00
  0.00000000E+00  0.00000000E+00  0.00000000E+00  0.00000000E+00  0.00000000E+00
  0.00000000E+00  0.00000000E+00  0.00000000E+00  0.00000000E+00  0.00000000E+00
  0.00000000E+00  0.00000000E+00  0.00000000E+00  0.00000000E+00  0.00000000E+00
  0.00000000E+00  0.00000000E+00  0.00000000E+00  0.00000000E+00  0.00000000E+00
  0.00000000E+00  0.00000000E+00  0.00000000E+00  0.00000000E+00  0.00000000E+00
  0.00000000E+00  0.00000000E+00  0.00000000E+00  0.00000000E+00  0.00000000E+00
  0.00000000E+00  0.00000000E+00  0.00000000E+00  0.00000000E+00  0.00000000E+00
  0.00000000E+00  0.00000000E+00  0.00000000E+00  0.00000000E+00  0.00000000E+00
  0.00000000E+00  0.00000000E+00  0.00000000E+00  0.00000000E+00  0.00000000E+00
  0.00000000E+00  0.00000000E+00
%FLAG SCREEN
%FORMAT(5E16.8)
  0.00000000E+00  0.00000000E+00  0.00000000E+00  0.00000000E+00  0.00000000E+00
  0.00000000E+00  0.00000000E+00  0.00000000E+00  0.00000000E+00  0.00000000E+00
  0.00000000E+00  0.00000000E+00  0.00000000E+00  0.00000000E+00  0.00000000E+00
  0.00000000E+00  0.00000000E+00  0.00000000E+00  0.00000000E+00  0.00000000E+00
  0.00000000E+00  0.00000000E+00  0.00000000E+00  0.00000000E+00  0.00000000E+00
  0.00000000E+00  0.00000000E+00  0.00000000E+00  0.00000000E+00  0.00000000E+00
  0.00000000E+00  0.00000000E+00  0.00000000E+00  0.00000000E+00  0.00000000E+00
  0.00000000E+00  0.00000000E+00  0.00000000E+00  0.00000000E+00  0.00000000E+00
  0.00000000E+00  0.00000000E+00  0.00000000E+00  0.00000000E+00  0.00000000E+00
  0.00000000E+00  0.00000000E+00  0.00000000E+00  0.00000000E+00  0.00000000E+00
  0.00000000E+00  0.00000000E+00  0.00000000E+00  0.00000000E+00  0.00000000E+00
  0.00000000E+00  0.00000000E+00  0.00000000E+00  0.00000000E+00  0.00000000E+00
  0.00000000E+00  0.00000000E+00
%FLAG IPOL
%FORMAT(1I8)
       0
