
   62  0.0000000e+00
   2.0304717   1.9860016   0.0750451   2.0940565   0.8048965  -0.1302180
   1.4987840   2.4223757   0.8883199   1.4006956   2.5419398  -0.8122208
   3.4336031   2.7537241   0.0467509   4.3050708   1.9138751  -0.0958883
   3.6428450   3.9650074  -0.0184862   2.6649070   4.6782541  -0.0154529
   4.8101672   4.5787866   0.0532309   5.4445444   4.3572733   0.9330821
   5.8751648   4.1803585  -1.2832243   5.0416227   4.5825979  -2.0181028
   6.6186053   4.6349844  -1.2884481   5.8740593   3.2153254  -1.1866846
   4.6464490   6.1522161   0.0116686   3.6228689   6.7401429   0.0223596
   5.9138914   6.8417579   0.0289119   6.8001288   6.2132844  -0.0319671
   5.7989627   8.2201122  -0.0275142   5.4814941   8.5614169  -0.7931722
   4.9667130   8.7995115   1.2482753   5.7016222   8.5561227   2.2103347
   5.1151275   9.8757648   1.2917976   4.0828696   8.3574314   1.1276713
   7.1740548   8.8817161   0.0142426   8.2980485   8.0252747   0.0158540
   7.4565590  10.1300653   0.0456775   6.5058074  10.7106946  -0.0381738
   8.5724160  10.8536972  -0.0469402   9.2472494  10.5550747   0.9346531
   9.5665385  10.4021515  -1.2743298   8.9540282  10.5432666  -2.2757112
  10.3367300  10.8102753  -1.1660226   9.5564521   9.2941837  -1.1110772
   8.5153736  12.3937516  -0.0933618   7.4184562  12.7489978  -0.0339033
   9.7690308  12.8532680   0.0434424  10.5997736  12.4905850  -0.1446058
   9.6922130  14.4220507   0.0232676   9.1731852  14.9991779  -0.9139356
   8.8706503  15.0419276   1.2539997   9.6179188  14.7595111   2.1666871
   9.1343303  15.9941237   1.1420248   7.8473424  14.6370190   1.1033314
  11.1685151  15.0007777  -0.1470806  11.9664421  14.2903514   0.0838127
  12.5896731  18.8023862   0.0414409  11.1790462  18.8217954   0.0267711
  13.4417059  19.1754643  -0.0612097  14.3999209  18.8475980   0.0157049
  13.5071365  20.5624346  -0.1674683  12.4473692  21.0246217   0.1767930
  14.0500275  21.1282740   0.8400704  13.9185056  20.9334883  -0.9625226
  11.4458470  16.2698613   0.0838489  10.3197073  17.0311573   0.0384951
  12.5143362  16.9919237  -0.0654788  13.1296072  16.6525017   0.7674394
  13.2102062  16.6202588  -1.0740909  12.8159992  16.8911362  -2.1024174
  14.4386002  17.1229383  -1.2470927  13.5966289  15.5658756  -1.0874244
