ACE
    40
   2.0000010   1.0000000  -0.0000013   2.0000010   2.0900000   0.0000001
   1.4862640   2.4538490   0.8898240   1.4862590   2.4538520  -0.8898200
   3.4274200   2.6407950  -0.0000030   4.3905800   1.8774060  -0.0000066
   3.5553754   3.9696488  -0.0000031   2.3971205   4.8552049  -0.0000005
   2.0087653   4.9463088   1.0143863   1.6241543   4.4432647  -0.6487898
   2.9534046   6.1467384  -0.5220049   2.4929865   6.9750855   0.0164701
   2.7385878   6.2418298  -1.5863887   4.4420430   6.0885010  -0.2757041
   4.6879604   6.7095301   0.5856591   4.9662770   6.4633694  -1.1547672
   4.8550530   4.6148143  -0.0000043   5.4319175   4.3481439  -0.8855620
   5.6459380   4.2507769   1.2483795   5.1913701   3.4514045   2.0637396
   6.8343473   4.8407170   1.3962948   7.3526485   5.7862065   0.4148788
   6.9054651   6.7660740   0.5821719   7.1050959   5.4410214  -0.5889459
   8.8298088   5.7750736   0.6754029   9.2174933   6.7877954   0.5649751
   9.3285729   5.1161388  -0.0353296   8.9994208   5.2707751   2.0885606
   9.2210758   6.1117304   2.7456469   9.8244906   4.5591407   2.1191529
   7.6836735   4.5774394   2.5429117   7.9630097   3.5252947   2.5982386
   6.9968204   4.9880019   3.8375760   5.8441497   5.4141612   3.8242076
   7.7090971   4.8585317   4.9592375   8.6536890   4.5031987   4.9194393
   7.1680962   5.2151357   6.2552906   6.1477390   5.5794467   6.1359203
   7.1668619   4.3383183   6.9028168   7.7821435   5.9962783   6.7034670
