
 7845  0.0000000e+00
  14.4646919  14.4472337  16.3552392  14.8278201  13.5674107  15.8240628
  13.9255762  13.1003821  15.4291689  15.4416192  12.9976928  16.5217543
  15.7564771  14.0303993  14.7303319  16.0557640  13.3178496  13.7692285
  16.2231171  15.2076530  14.8779523  16.0866177  15.7276583  15.7329750
  17.0802712  15.9014058  13.8415098  17.7459908  15.2005458  13.3378100
  16.1431301  16.5393209  12.7698278  15.3544712  17.1283400  13.2379866
  16.5976095  17.3100448  12.1473062  15.7892323  15.8396840  12.0126188
  17.9165971  17.0358431  14.4682062  17.7082920  17.4070621  15.6049645
  18.9496946  17.5097024  13.7687492  19.0864158  17.1334124  12.8414857
  19.9077594  18.4859014  14.2839563  20.3813219  18.1118309  15.1916516
  20.9282589  18.6209166  13.1192958  21.5968680  17.7627540  13.0513370
  20.3516293  18.6084056  12.1943951  21.4695644  19.5634043  13.2018232
  19.1131592  19.7807026  14.6418118  18.3869243  20.3113413  13.8304722
  19.3486905  20.2956176  15.8269811  20.0157118  19.8295939  16.4253235
  19.1067445  21.7308354  16.0002685  18.0292070  21.8318176  15.8706009
  19.3606555  22.1289325  17.4435806  18.7347746  21.5453625  18.1187236
  20.3952146  21.9266033  17.7208018  19.0634084  23.1647992  17.6070762
  19.9053442  22.5691843  14.9824858  21.1228108  22.2483778  14.8083925
  19.2704999  23.5736871  14.3229234  18.2939315  23.7439322  14.5163941
  19.8735130  24.5398402  13.3713078  20.8598447  24.6867180  13.8113964
  19.8877382  23.8953447  11.9765246  18.8358641  23.7501860  11.7303646
  20.4388404  24.5138073  11.2680829  20.3464937  22.9122472  12.0821965
  19.1586554  25.9570360  13.5182118  17.9247832  25.9468842  13.5843992
  19.9226093  27.0688701  13.4534681  20.9131622  26.9651937  13.2856643
  19.4323754  28.4452009  13.7554479  18.4071660  28.4750223  13.3864534
  19.4013381  28.5845184  15.2698815  20.2329874  28.0097055  15.6773734
  19.4317818  29.6428609  15.5288911  18.4679615  28.1960869  15.6773508
  20.1390338  29.5498252  12.9708326  21.2705135  29.4422698  12.5584507
  19.4175565  30.5742478  12.6507473  18.4518027  30.5877829  12.9461086
  19.8388636  31.6882896  11.7862499  20.1189876  31.2814832  10.8145809
  18.5354781  32.4845910  11.4034700  18.0666506  32.9770255  12.2554171
  18.7945664  33.2770371  10.7013273  17.8254199  31.8140197  10.9194696
  20.9556580  32.5861073  12.3186016  21.0279489  32.9358578  13.5365975
  21.9086289  32.9829025  11.4321876  21.8346572  32.7519560  10.4517305
  23.1084132  33.8531756  11.8151927  23.4617114  33.4482908  12.7635324
  24.2394996  33.8499904  10.8067441  25.1539135  34.2361593  11.2570989
  24.5675993  32.8672624  10.4680729  23.9830351  34.4819307   9.9564642
  22.5733280  35.2791762  12.0711422  21.9255686  35.8425665  11.2108409
  22.7498102  35.8555698  13.2498693  23.4868741  35.4667902  13.8205612
  22.2173858  37.1340799  13.7082279  21.2400436  37.3291302  13.2667947
  22.1308064  37.0096779  15.2418399  23.0554605  36.8023300  15.7804704
  21.5468574  37.8132081  15.6906652  21.5576887  36.0933757  15.3833544
  23.1659675  38.3361125  13.4948540  24.4057441  38.2076740  13.4677708
  22.4744153  39.4718504  13.4088254  21.4647126  39.4604683  13.3871365
  23.2168627  40.7215834  13.2302904  23.8534617  40.7158709  12.3455238
  22.2811437  41.8953419  12.9212177  21.9586563  42.4213028  13.8198113
  22.8298688  42.6346636  12.3377705  21.4118075  41.6347599  12.3175180
  24.1100359  41.0590219  14.4213605  23.7429547  40.9232759  15.6145334
  25.2735400  41.5273333  14.1037118  25.4632521  41.6319752  13.1172204
  26.5036154  41.7706728  14.8326385  27.2164369  42.3845148  14.2820239
  26.3722277  42.2886133  15.7826769  26.9798279  40.8199310  15.0722516
  11.5022455  55.9236193  22.2210097  11.1305080  56.4517069  21.5144920
  10.7522379  55.6974411  22.7710700  26.6317940  51.0223055  30.1484776
  26.9116759  50.1116371  30.0558543  26.2306881  51.0624790  31.0166550
  18.3046067   4.4683913   4.5728001  18.5765147   4.5459346   3.6583146
  18.0678868   5.3598527   4.8287090  30.3946018  37.2112632  11.6834652
  30.5765891  36.4191008  12.1890271  29.7884321  37.7106357  12.2306561
  40.8778858  37.1943545  28.4126186  40.5635357  37.2288561  27.5091672
  41.5325403  37.8906965  28.4651899  31.0198164   0.7689933  27.1300244
  31.1772323   1.0324029  28.0367017  30.1274562   1.0628060  26.9467354
   2.9200970  55.6900740  22.2869611   2.9511343  55.0065470  21.6175890
   2.0916592  56.1427402  22.1288085  28.0934596  50.3923750  20.6312513
  28.7212396  49.6782160  20.7412553  27.5331450  50.3401232  21.4055586
  37.8757524  43.3696651   3.6189898  38.7244248  42.9676628   3.8044103
  37.8424311  43.4292412   2.6642259   0.5242001  42.3825026  27.7635407
   0.7689653  42.7218914  28.6244321   0.9055124  43.0042934  27.1436930
  38.5061717   4.7806481   1.0149082  38.4315944   5.7243947   0.8734473
  38.3163142   4.3945531   0.1598533  13.2043004  49.0262079  30.2903018
  14.1219056  49.2915487  30.2284322  12.9903269  48.6984730  29.4167819
   3.0580650  45.0132036  14.6444416   3.1126057  44.3825245  15.3624284
   2.8724085  44.4803905  13.8712168  39.5527434  43.1949282  20.5736923
  39.8171353  43.8874435  19.9680901  39.5962310  42.3924971  20.0536513
   7.0465027  47.5733185   8.7482589   6.3631903  47.1062756   8.2674384
   7.3250948  48.2693148   8.1531054  32.7075362   1.5049104   1.7705694
  32.8510809   2.0154933   2.5673938  32.7846074   0.5935601   2.0529383
  27.5654078  48.2973814  29.4573164  27.2191477  48.2388878  30.3477740
  28.4079385  47.8448963  29.4977522  29.7905397  43.6665392  25.4716349
  30.1314116  42.9300165  25.9791517  29.7640991  44.3939304  26.0932732
  38.3262300  53.4260225   5.0604361  37.6548648  54.0895748   4.9016997
  37.9570341  52.8713799   5.7476753  32.5110817  11.4029340  27.0828795
  33.0036831  12.1899251  26.8500280  32.9870462  11.0338143  27.8268147
  37.4313450  35.7123470  12.4300241  37.4347925  36.1226606  11.5652347
  37.1593785  36.4107561  13.0254173  25.6184340  55.5045509  21.5057325
  25.0572133  55.4687119  22.2803164  26.0932636  54.6734810  21.5153360
  10.5697523  45.7986784  30.5004883  11.1474215  45.3890085  31.1444569
  11.1462055  46.0227871  29.7699356   4.3229233  49.6266127  22.9344273
   3.4790264  49.8364925  23.3344531   4.1472994  48.8552904  22.3954964
  40.5408430  49.3183708  10.5979657  40.9555435  50.1226997  10.9099066
  40.8357143  49.2329264   9.6913332  39.1554928  47.7979898  27.6331520
  39.9240255  47.9504251  27.0832849  39.4824052  47.8781128  28.5292196
  37.7829170  54.0232086  26.6137099  36.9700193  54.5092249  26.7523265
  37.9045105  54.0256596  25.6642675  23.7509571  46.3239050  18.7824142
  22.9451500  46.0474205  19.2188370  23.4847246  46.5067101  17.8813398
  39.8152375  47.3212719  24.4616389  39.8298216  48.2762861  24.3986416
  40.1555395  47.0204353  23.6190701  44.4515133   2.4042777  28.6874676
  43.5021925   2.3592595  28.8014579  44.6852446   1.5648631  28.2912517
  29.7032118  52.9395008   0.6718739  28.8351965  52.5948477   0.8816155
  29.6384478  53.8773775   0.8519372  45.8273983   4.0860728  23.9568067
  45.3513622   3.2874755  24.1845322  45.2505732   4.5422820  23.3441257
   1.1256348  14.1894511  15.3547096   1.3284575  13.3962277  15.8505845
   1.9045721  14.7374753  15.4504240  21.0499310  55.7208872  25.4619646
  20.9082222  54.9045420  25.9412599  21.1664581  56.3820744  26.1442327
   7.9998469  42.0975590  21.8139005   8.5740542  42.2752047  21.0689449
   7.4031955  42.8455877  21.8401384  11.4005695  54.3522835  14.0005779
  10.9001814  54.5678663  14.7875762  11.8282162  53.5216093  14.2087233
  39.0899062  45.0125265  29.7119416  39.6717715  45.7383251  29.4863830
  38.8583851  44.6205807  28.8699145  32.7033806  55.5274820  20.2730775
  32.2662377  55.0428009  20.9732342  32.1920013  55.3286743  19.4887304
  17.8719378  33.3286238  18.3945072  17.8161788  33.9125443  19.1509199
  18.7604344  33.4530544  18.0608582  41.2411356   4.8078278   6.1173638
  41.9509840   4.1886357   5.9472092  41.6716576   5.5599431   6.5238294
  38.3066821  48.3486557   9.1987616  38.8354754  48.5860538   9.9605042
  38.2699823  47.3924208   9.2212820  30.4370975  42.7865696   6.6347774
  31.0449576  43.5145283   6.5051087  30.6259513  42.1855640   5.9141120
  31.3539863  49.9037027  29.4596767  30.8030272  50.3680849  28.8295746
  32.1498609  49.6922016  28.9717412  21.8306375   1.8686751  26.7948866
  22.7176952   2.1485213  26.5689564  21.2604690   2.4725608  26.3190103
   0.7670055  55.0564528  10.5515226   1.5593372  54.9940205  11.0849508
   0.1288496  54.5058298  11.0051855  28.9888024  32.1113348  21.2841034
  29.0454555  32.7879095  21.9588399  28.9552140  31.2885809  21.7721415
  30.1435995  52.5432396   5.2257856  29.3077683  52.0917797   5.1082953
  29.9757242  53.4384632   4.9314698  38.9873791  48.8199377  12.6655233
  38.0750299  48.7408638  12.3869598  39.4921017  48.7505341  11.8551719
  41.9339466  10.9349231   5.0757798  42.1675730  11.4236049   5.8649787
  42.6888514  11.0400227   4.4967255  11.7635904  43.9655828   6.7565787
  11.0259806  44.4058657   7.1788508  11.5206514  43.9250040   5.8316106
  34.8223639  48.3371544  19.7954988  34.7250891  49.2053652  19.4043732
  33.9579868  47.9358530  19.7058308  29.6397328  44.4555140  10.3020692
  29.4869590  43.7195921  10.8947873  28.9292979  44.3998098   9.6629989
  36.8409729  53.6162519  17.5504887  36.7056608  53.7455368  16.6117620
  36.1335850  54.1104460  17.9647410   3.9255558  47.6546860  28.5123253
   3.7039124  46.8596792  28.9971614   3.8064705  47.4156857  27.5931239
  25.8295475  54.2801905  18.0642399  25.0254618  54.7302246  18.3233770
  25.8659779  54.3834114  17.1133217  22.4920774  24.8691320   2.4857338
  22.5092602  25.1694250   3.3944476  21.7387700  25.3162527   2.0999303
  45.0773096  10.3695611  18.4313762  44.6760178   9.7051982  18.9915717
  45.8878613   9.9647025  18.1226230  11.1687313  44.2196465   4.0948457
  10.9298311  43.4457588   3.5846913  10.3539120  44.7157955   4.1731736
  33.5175228  54.0880919  27.5908923  32.7781534  54.1558409  28.1950259
  33.1270647  53.7997913  26.7658734  34.2896295   3.0161599  27.8200269
  35.1984501   2.9640702  27.5241137  34.1940260   2.2846488  28.4299326
  40.1250124   8.8729171  28.0076098  40.3032875   8.8139180  27.0690084
  39.2308879   8.5446910  28.1026745  24.9625301  47.5652838  28.2459474
  24.6907115  48.4716892  28.3901024  25.9183359  47.5919533  28.2901549
  41.5921164  43.2890320  16.1306286  41.3374090  42.9529333  15.2713311
  42.1408606  42.5995636  16.5044475  34.6118712  31.6164756   0.5094489
  34.3604159  32.4604344   0.1343020  33.8315868  31.0702109   0.4146608
  32.0699120  38.9196873  10.3283485  31.4285183  38.3004785  10.6768116
  31.5580726  39.5073128   9.7725138  19.9500418  30.3038502   2.0926436
  20.8611274  30.0386143   2.2183522  19.9868190  30.9685779   1.4048799
  38.7750340  38.0161643  30.3891182  39.2976022  38.2016349  29.6088910
  38.0635309  38.6557388  30.3584552  43.5549164  55.1850271   4.3429216
  42.6797438  54.7985363   4.3123897  43.8324165  55.2221537   3.4275826
  35.6893325  47.1010447  25.1680303  36.3815284  46.9946718  25.8205485
  36.1081839  47.5750685  24.4496346  41.6766024   1.6384152  17.8225994
  41.1352777   1.2208966  17.1526146  42.5682402   1.3542394  17.6214659
   6.0418306  37.5695133   8.9492959   5.2462565  37.9956198   8.6303520
   6.0181604  37.6971364   9.8976547  23.8351631  43.7110806   4.8404753
  24.1492772  43.0668831   4.2059863  23.9812708  44.5564175   4.4158703
  43.4275246  45.1672077  23.2396388  43.4596634  45.3115845  24.1853404
  44.1727543  44.5941734  23.0593729  28.9173031  55.9537315   5.4130369
  29.0441799  55.8302164   6.3537157  28.0877352  55.5153513   5.2236456
   1.5119539   7.4642543  26.7533440   2.3824965   7.0904187  26.8898619
   0.9244476   6.7085675  26.7510227   0.5275904   2.4547891   1.1330392
   0.7629572   3.3702496   0.9821302   0.0904499   2.4571208   1.9845870
  35.6086040  50.7500315  22.9878602  35.7378817  50.4758692  23.8958005
  35.3524327  51.6702414  23.0496929  29.8274493  33.9155555  13.7399662
  30.3735757  34.1420674  14.4927418  29.5095420  33.0332470  13.9315379
  29.6034861  37.7577853   1.9953649  28.6904359  38.0290794   2.0900582
  29.9570847  37.7925348   2.8841802  36.2512517  46.9822264   2.9493511
  35.8369970  46.1294365   2.8175256  37.1147370  46.8939924   2.5458157
  18.0096327  38.5866928  21.1024294  17.3467671  37.9848552  21.4409999
  17.8185116  38.6517644  20.1667646  38.2072997  49.8311996  30.4395906
  39.0459061  50.2369547  30.6594329  37.5552082  50.4991341  30.6514109
   6.8513905  42.4650192  25.2945892   6.1307417  42.5861549  24.6763477
   7.5116144  43.1016064  25.0205622   5.8050572  50.8044243   3.4207377
   5.2011906  51.5171909   3.2120708   6.2763821  50.6428194   2.6034433
  28.8800573  12.3956231  23.0408803  28.7952828  12.6307181  23.9648799
  28.3995962  11.5718726  22.9582730  41.6112900  10.8389453   1.3711385
  42.2493029  10.2485398   0.9704056  40.7629585  10.5184440   1.0647964
  34.6936631  55.2930260  18.1640164  34.3107557  55.2764130  19.0411357
  34.4600916  56.1539793  17.8169778  35.1000762  43.2169962  15.3625286
  35.9645629  43.0175591  15.0031936  35.2597117  43.9160824  15.9965885
  42.5352716  54.1990232  -0.2403467  41.6100454  54.2085266   0.0047929
  42.9791307  54.6425962   0.4824723  34.7457671  47.2363138  14.4952810
  34.1385412  47.6446152  15.1123643  35.5466080  47.1004868  15.0016773
  37.7694607   7.3573283   0.4007968  37.3627877   7.9447202   1.0378372
  37.1467257   7.3234013  -0.3253449  13.8264690  55.5929041  15.2864146
  12.9461084  55.2544308  15.4496109  14.2175137  55.6726313  16.1564481
  31.6333604  32.5510669  28.5682612  32.0547223  33.0229044  27.8498915
  30.7081318  32.7865076  28.4993479  44.3055296  53.1926775  23.7110686
  44.0183735  52.2883844  23.8376784  45.1781464  53.2240105  24.1032386
   8.2684408  54.3947458  14.5732677   8.0262600  53.4695435  14.5334768
   7.8062998  54.7304773  15.3413427  40.6957293  43.4140348   9.8854315
  40.1956606  42.6247787   9.6774852  41.4357281  43.0989170  10.4044092
  40.0117064  46.5890741   5.7369787  39.8986268  46.0426807   4.9592274
  39.8826337  45.9894085   6.4718056  23.8648295  56.2173176  15.7904247
  22.9784584  55.9339857  15.5661467  24.4282436  55.5071068  15.4831937
  37.7775383  41.8830395  17.4277369  37.8807926  42.8262043  17.3011950
  37.3323798  41.5824032  16.6354743  25.0853658  38.4977007  16.3275218
  24.5964384  39.3183351  16.3886714  25.4116559  38.4797716  15.4278302
   1.1844383   2.6168660   9.6684676   0.5768334   2.2178868   9.0456802
   1.3299881   1.9392566  10.3286874   9.5945965  41.4357471  12.2470546
   9.4710718  40.6240368  12.7390933  10.3116213  41.8821001  12.6974666
   4.0726744  36.7539811  20.2890897   3.2524096  37.1195173  20.6204271
   4.4470106  36.2887073  21.0371733  32.0935440  33.8084674   7.5288087
  32.4520946  34.3217778   6.8048018  31.4547873  34.3898749   7.9413420
  34.9687624  44.4820023  30.1026001  35.5177283  45.2652073  30.0644099
  35.0118232  44.1160202  29.2191777   4.8039137  39.7368264  19.3498957
   5.1702438  39.1826701  18.6607325   5.4167496  39.6479321  20.0798011
  23.2176781  51.5143728  15.4780734  23.5463262  51.2838554  16.3470292
  23.6564016  50.9032822  14.8861957  12.5668226  12.7210788   6.1597711
  12.7698647  13.6564282   6.1483598  11.7411219  12.6610736   6.6402400
   7.1110283   1.7327432   1.6004843   7.0399653   1.7401151   0.6459539
   8.0462252   1.8434266   1.7719007  34.7652221  -0.2823707  23.5686794
  35.2962065   0.3194360  23.0470315  33.9770985   0.2171306  23.7821970
  36.3317323  50.3461885  15.8840942  36.4802551  51.0884666  16.4699244
  35.4938745  50.5375767  15.4626715  36.7934394  55.6729364   4.7930014
  36.8139911  56.5978909   5.0385094  36.0087299  55.5861712   4.2517677
  37.6207376   7.5208167  28.3325303  37.1188164   6.9762639  27.7260912
  38.1777906   6.9022016  28.8050119  45.0528002  41.8003988  15.9497142
  44.8402786  41.0883188  16.5530419  45.6125593  41.3944769  15.2878010
  30.7895613  31.7860770   9.2001617  31.1861873  32.5268435   8.7417001
  29.8593307  31.8389082   8.9808249  39.5948625  40.6785107  24.4011435
  40.2324104  41.2112141  24.8765311  39.6040034  41.0312510  23.5113553
  42.4181986   2.3472861  14.0641451  43.0479908   2.1538285  13.3697641
  41.6944170   2.7848796  13.6159372   9.1756044  51.6916847  23.7656788
   8.2365833  51.6187668  23.5949436   9.5902573  51.3748217  22.9632500
  17.3955059  49.7443628   0.9801347  17.3079920  48.8342619   0.6967841
  17.0431101  49.7530842   1.8700629  35.3544235   5.1557139  28.6329583
  34.7639608   4.4656733  28.3305789  35.2036953   5.8820323  28.0279995
  30.3569722  48.5431814  10.3630626  29.9324226  49.4010115  10.3520417
  29.6815705  47.9377317  10.0572932  40.5714750  50.6268358   0.0183305
  40.4026175  51.2013865   0.7650622  41.5259409  50.5822754  -0.0385753
  23.0003929  50.4429197  25.4516983  23.7281156  49.8314714  25.5647588
  22.5460911  50.4329538  26.2941599  34.9400020  54.0552235  10.4992139
  34.7283125  54.9864054  10.5649340  35.3085852  53.9547539   9.6215558
  41.8987274  50.9249783  23.3036733  41.1435938  50.5159664  23.7264228
  42.6180744  50.7964420  23.9219356  12.4401938   8.8772420   1.9880247
  12.8417717   9.6015433   2.4679816  11.5211521   9.1294555   1.8987006
  39.1226172   0.3518228  13.0212522  39.1310048  -0.6041881  13.0681622
  39.4181275   0.5506305  12.1327806  42.1922588  12.9914311  24.1858482
  41.8994713  12.3267392  23.5623908  41.5785599  13.7166003  24.0686464
  36.6573787   6.1215428   6.9646829  36.2691784   6.7062549   7.6155609
  36.4623380   5.2414922   7.2867131   1.8396650  45.4989767  23.2290689
   2.2112261  45.1324415  24.0314571   1.7743717  46.4380550  23.4025559
  39.3844795  49.9739885  24.0591786  38.7432456  50.4113197  24.6193478
  38.9104438  49.7948551  23.2471237  33.1878710  45.9224463  12.7232921
  34.0893173  46.2441015  12.7103603  32.6511502  46.7147303  12.7445745
   2.3769651  42.8532410   9.5025921   1.7820536  42.2190571   9.1024405
   2.3948179  42.6134109  10.4290879  37.4860072  53.6017370   2.2712277
  36.7077112  53.1495619   2.5968468  38.0392885  53.7131596   3.0443361
  13.7129580  39.5468068  30.6675084  13.2653938  39.0866232  31.3775438
  13.3118807  40.4158401  30.6550435  42.5305080  39.0837073  23.1737018
  41.8115759  38.4573889  23.2579446  43.3184242  38.5686922  23.3474278
   1.6106449  44.3598223  29.9654826   1.8471848  43.7066126  30.6239623
   1.1010300  45.0115585  30.4469027   3.4636103   5.5387095  27.9449606
   2.6712595   5.0135688  28.0573988   4.0962540   4.9367837  27.5529385
  36.7058110  47.5653028  30.0490015  37.2239637  48.2766962  30.4253911
  37.3185778  46.8331861  29.9800746  23.3270669  36.9898295   8.8879365
  22.7186489  36.4433217   9.3853170  24.1870689  36.6044140   9.0555102
  29.8410201  40.2456808  12.9995215  30.6635118  39.8076987  12.7806354
  29.2785668  39.5464349  13.3325911   3.3047615  53.3618259   5.5715388
   3.6215578  54.0321445   4.9661112   4.0274225  53.2331657   6.1859006
  39.3384361  40.2720976  21.7343382  39.5134354  40.3344154  20.7953361
  39.0836382  39.3595266  21.8704436  35.0488043  49.6267462   2.2360786
  34.2738986  49.4162083   2.7570661  35.6701493  48.9270210   2.4374422
  45.3004026  37.4204922  19.2280269  45.3529310  36.5824676  18.7684786
  44.7506142  37.2413111  19.9908221  39.0586376  35.9627295  15.0210142
  38.3660722  35.8568931  15.6732297  38.6589551  35.6785560  14.1989839
  43.4774160  27.4465632  27.6514077  43.4386730  27.8536010  26.7859316
  42.8119087  27.9069805  28.1626296  38.9159989   1.9722442  25.4077291
  39.0890956   1.0969619  25.0611019  39.5494962   2.5355128  24.9631548
   5.1178347  34.1862106  28.9632177   4.2020498  33.9263082  28.8631177
   5.2019917  34.4152999  29.8887801  35.8072901  45.1506901  17.1810746
  36.2971973  44.8598337  17.9502463  35.8369756  46.1063957  17.2254992
  37.3976445  41.4699316  25.8260274  36.6127419  41.4517069  25.2784610
  38.0834389  41.0939121  25.2741885   9.0349804  38.8514543  16.2145281
   8.8017069  38.2980967  16.9599211   9.9918161  38.8758993  16.2245512
  35.5692267  38.6775684  24.5100617  35.7865453  39.5759916  24.2613792
  34.8658395  38.4267759  23.9112473  22.7741790  28.9456010  30.1523280
  23.2815814  28.4178638  30.7689881  21.9773030  28.4372830  30.0012207
  35.5867887  43.9336491  27.4355936  35.0513601  43.9232683  26.6422176
  36.1520553  44.6992826  27.3330617   2.9747282  24.2585230  13.7420487
   2.2200762  23.6993980  13.5573411   3.7335573  23.7105560  13.5416901
  31.9902062  27.2495794  12.3811305  32.0187020  27.1697569  11.4276898
  32.8562307  27.5801444  12.6197946  24.3668509  36.0407639  20.1998520
  24.5865822  35.7559943  19.3128014  24.3027973  35.2290154  20.7030344
  22.1912003  30.8614683  15.0557041  21.9786620  31.6975117  14.6408689
  22.1322751  30.2206635  14.3470931   2.9299770  40.3850365  22.0819020
   3.1657301  40.0551414  21.2148261   1.9746481  40.3308344  22.1071863
  37.9841709  43.3467531   0.8719596  38.3549309  43.9379311   0.2167686
  37.2075963  42.9787493   0.4503712  38.8765168  28.2685685  23.9571166
  39.1424441  27.3521042  23.8822389  38.2068944  28.3795667  23.2821989
  31.2794733  27.4434757  19.7238195  30.4780531  26.9320536  19.6124530
  31.3542509  27.9506063  18.9154506  43.9177370  31.3489652   4.1638907
  43.0278111  31.5198684   4.4721969  44.4460106  31.3193274   4.9615630
   1.7588221  40.1637316  26.7423940   1.4687525  41.0046148  27.0959568
   1.0556446  39.8976159  26.1499739  35.0690031  49.9629784   7.2944864
  34.3859220  49.6432400   7.8838929  35.0405765  49.3645620   6.5479478
  37.0662141  44.4176245  19.6130085  36.7899752  45.0390673  20.2866030
  38.0007625  44.2886400  19.7749078  10.7445131  32.8283739  30.8164239
  10.4299055  32.4909258  31.6551042   9.9859081  32.7712035  30.2354908
  30.6991029  44.4269276  13.4789881  30.5349422  44.7774935  14.3544229
  31.5482426  44.7919941  13.2301458  40.2952719  32.8007197  22.0445251
  40.2734947  31.8930769  21.7413139  41.1198187  32.8729200  22.5252914
   4.7733818  46.7043638  18.9953172   4.7662149  45.8471060  19.4210935
   4.8648487  46.5079594  18.0629599  41.9580841  34.4794083  19.7927320
  42.0346642  35.4242539  19.6599340  41.1901283  34.3780422  20.3550482
  35.2351475  21.0508442  17.4364543  35.4812074  20.5546498  18.2171428
  34.3548965  21.3753247  17.6264644  35.5155039  39.0256119  17.3927244
  35.4974699  39.8023033  17.9518827  34.6828127  39.0504909  16.9212993
   1.6536842  47.8971624   9.0236720   1.6517101  46.9607735   8.8251695
   1.4709936  47.9434395   9.9621328  37.3050523  27.6845717  27.2560406
  37.4394298  28.2287526  28.0319524  37.6556063  28.2061625  26.5340400
  38.1660986  17.4995041  23.2040572  39.1231608  17.5155091  23.2069468
  37.9176331  17.8809607  24.0460706  38.6048746  51.1045885  26.9147348
  38.0513239  50.7414150  27.6060486  38.4656787  52.0500946  26.9683576
  43.0060053  42.6943159  10.8905968  43.1136703  42.5230455  11.8261751
  43.3141470  43.5931110  10.7746300  41.7819643   3.9924601  23.7687802
  40.9835625   3.7904815  23.2809448  42.4676895   3.4961060  23.3219647
   5.0382744  37.7519155  30.3705502   4.9957501  38.6264586  29.9837708
   4.2158257  37.6627350  30.8520699  41.7360163  48.0837727  21.5952945
  42.5026846  47.5628042  21.3564634  42.0827341  48.9620209  21.7524743
  40.8139467  42.6535082   1.2431487  40.1837921  42.7862263   0.5349645
  41.3817692  43.4231949   1.2058672  28.6726213  51.3885212  17.6491484
  28.3719635  50.5644369  17.2661051  28.5289550  51.2820578  18.5894951
  32.4004579  25.2143121   2.4897131  32.9855061  25.3664970   3.2318672
  32.9485059  25.3608084   1.7187294  44.6760464  27.2265053  23.5771108
  44.7359276  26.3947821  24.0470910  43.7475777  27.3132634  23.3611369
  44.4377422  23.6719513  16.7485201  44.8718166  22.8403926  16.9391012
  44.5929909  24.2070699  17.5268376  32.7750063  22.5991464  21.9144535
  32.7645564  23.2448149  21.2078881  32.9655027  21.7690492  21.4775538
  38.9171743  33.4944367   4.4815906  38.5920477  34.3475389   4.7692379
  38.7969971  32.9239273   5.2407392  38.1674123  40.3815603  28.4930372
  38.1519961  39.7928977  27.7384043  37.4825811  41.0245657  28.3092451
  38.5288644  22.1818328  11.5026316  37.9139519  22.3144197  12.2241148
  38.7131882  21.2426257  11.5145620  35.9571838  28.0358911  19.2478859
  35.2003860  28.2976413  19.7722661  35.7640243  27.1373439  18.9804304
  36.7338681  34.0925884  22.1040249  37.3993611  34.1807914  22.7863526
  36.9022107  34.8235154  21.5093493  28.9929152  31.0018015  14.2987990
  28.5111213  31.1784840  15.1068151  29.0025306  30.0471592  14.2295420
  42.9239130  26.7885470   2.9089817  42.6636457  27.1998167   3.7332090
  43.8530493  27.0001602   2.8186354  39.0431690  21.8202734  26.4471316
  39.9739051  21.9403648  26.2586117  38.9461923  22.0944142  27.3590922
  23.8487983  22.9751658  23.3448076  23.6373281  23.7313700  23.8922262
  24.7290230  23.1566119  23.0153918   1.5031181  36.2831903  24.5169258
   1.5223728  36.2574816  25.4735851   2.4081455  36.4652920  24.2639542
   1.0576044  34.5866323  20.3394747   0.7085596  34.7921300  19.4721961
   1.4228664  35.4140353  20.6528664  35.3501892  42.1686220   0.6739291
  34.9634290  42.8763771   0.1584419  34.9863267  42.2850895   1.5515789
  37.2691178  35.3943706  16.9741547  36.6160393  35.8747888  17.4829960
  36.8418622  34.5656204  16.7576921   0.6560789  42.9645061   6.8060279
  -0.0774158  42.5781870   7.2845393   1.1787067  42.2143888   6.5224451
  43.2499313  41.8836927  23.5674882  43.6227655  42.3949337  22.8492570
  43.0294800  41.0403633  23.1719708   0.0969683  46.5566158  14.9477148
   0.7981144  45.9537935  14.7002530  -0.6690325  46.2434578  14.4666708
  41.8986940  16.7374861   7.5532985  41.5794754  16.3634169   6.7320758
  41.1873722  16.5893364   8.1764448  30.0581455  36.0399723   0.0218185
  30.9429288  35.6842804   0.1046952  30.0762057  36.8486857   0.5335673
   0.6797491  42.4980402   2.9013678   1.0268532  42.7606869   3.7538725
  -0.1835979  42.1335125   3.0962697   6.4591967  11.3231301  24.6727371
   5.5927502  11.0226297  24.9469805   7.0467363  10.6040967  24.9051571
   2.1702372   8.8128547  11.9785770   2.0098673   9.4539241  12.6710686
   2.6146780   8.0892638  12.4202951  37.5278258  38.8739276   2.9413804
  37.5839138  38.1888986   2.2751817  36.5886378  39.0083456   3.0682262
   4.6113525  53.9736271  27.9330897   4.0126597  54.5407248  28.4190917
   4.0498720  53.2902145  27.5671387  32.4318337  36.0925031   5.9720429
  31.6208792  36.4137292   6.3662537  33.0734396  36.7801881   6.1499938
  23.1542087  26.8577743   9.7838658  23.4011745  27.7131319  10.1354384
  23.9877248  26.4184642   9.6150750  41.0193491  34.8993492  16.4014387
  40.4250002  35.3006601  15.7674587  41.6071081  35.6088090  16.6611290
  31.9963145   5.4350404  13.8954052  31.5844679   5.1185016  14.6994051
  32.5637031   6.1504725  14.1825661  31.7289090  34.1789079  11.5697607
  31.1376572  33.6018491  12.0531448  32.5004482  33.6398053  11.3956150
  29.0911078  43.7913704  20.0877929  28.8744855  44.6969223  20.3097868
  29.2206597  43.3618975  20.9333682  44.4100380  55.5074883  29.0137982
  43.8070202  55.8981848  28.3813787  43.8787365  55.3701735  29.7980809
  28.0664802  48.2128859   1.1919865  28.8738179  48.7268114   1.2098130
  28.3615255  47.3062277   1.1074408  37.8439116  28.7045050   0.5027136
  37.8053737  29.6018529   0.1717862  36.9889975  28.5621405   0.9090194
  44.9627352  14.2779553  11.0574516  44.7160292  13.6073208  10.4205688
  45.8937359  14.4307816  10.8958610  38.7089443  29.2769432  19.3216896
  39.1776586  29.3319631  18.4889150  37.9629564  28.7055492  19.1393685
  40.8952093  51.2301111  20.0350881  40.1348639  51.3737774  19.4716442
  40.5287361  50.8809042  20.8474803  29.2557669  27.9220366   9.4657379
  30.1969981  27.9111958   9.6395153  29.1553831  28.5232139   8.7276721
  26.4857841  36.6352510  13.2200062  25.6545806  37.1033716  13.1413031
  26.2615252  35.8239269  13.6757433  28.8800073  37.8221655  13.8403177
  28.0410099  37.3687243  13.7584293  29.1227007  37.7126718  14.7597420
  43.4873533  50.7816124   0.5522355  43.5966730  51.6253853   0.1136764
  44.3802977  50.4890156   0.7346329   1.6076170  42.4866676  12.7283621
   1.1248575  41.7098618  12.4459612   2.4819647  42.1608162  12.9418290
  13.2711445  34.4092846  12.5738358  13.2251011  33.8248158  13.3304775
  12.8208242  35.2047443  12.8578889  42.1624899  49.0607595  18.7503076
  41.7329931  49.6303368  19.3885446  43.0164385  48.8682699  19.1375399
  36.5283132  48.1204462  22.8884673  36.7115736  48.7266397  22.1707082
  36.2712765  47.3066664  22.4549627  35.3817272  41.3674259  19.1878402
  35.7428837  41.2785482  20.0698256  35.9892559  41.9548655  18.7383294
   2.3966919  35.2443624  16.8505502   2.1104323  35.8056855  16.1299908
   2.2472511  34.3534470  16.5340555  18.3867776  28.6458516  20.4820132
  18.8152254  28.0432916  19.8740768  19.0367770  29.3309331  20.6381965
  28.9249158  23.8197255   4.3432244  28.7463689  24.5083785   4.9836239
  29.1081786  24.2904282   3.5301527  36.7031312  25.0805950  30.3806806
  36.6078377  25.0856543  29.4282508  37.6390529  25.2163863  30.5284739
  37.3754573  46.0143995  27.1208549  38.0976009  46.6308212  27.2423625
  37.6085949  45.5248451  26.3320494  10.1356636  44.9843311  13.9550718
  10.1498638  44.0470123  14.1486248  10.7878481  45.0959730  13.2633909
  11.6535317  27.4864721  19.7404671  10.8579861  27.9683256  19.5142841
  12.2492443  27.6511097  19.0095389   4.4468247  42.5231075  23.4336257
   4.4327103  43.2792807  22.8469110   4.0793310  41.8089867  22.9128456
  42.8479004   4.2208556  26.3226390  42.7378035   3.3576087  26.7212844
  42.4828482   4.1266850  25.4428077  28.6896181  25.0230527   8.6925238
  28.2165956  25.8432674   8.5520583  29.6044827  25.2405334   8.5137594
  42.7057695  38.7067080  11.2986493  42.5929213  39.6568084  11.3270187
  42.1865702  38.4262419  10.5449891  31.9498682  42.0633698  30.2154087
  32.7826858  41.9674301  29.7534129  31.4182210  41.3301849  29.9055281
  44.1733265  54.9919415  14.4289764  43.5795069  54.5808268  13.8008055
  43.7752581  54.8205280  15.2824339  33.7471843  49.5093012  28.0574775
  34.3193603  49.2165995  27.3481321  33.9344883  50.4437971  28.1461549
  28.5503817  46.3434124  26.1981606  29.4263339  46.1780643  26.5468669
  28.4061527  47.2780371  26.3461781  42.6312113  44.7803783   2.2469529
  43.3045769  44.3992233   2.8104528  42.9051018  45.6898022   2.1279463
  40.0429440  25.2103209  29.1641498  39.4850206  24.4723034  28.9186215
  40.5228472  24.9023914  29.9329805  17.3449099  31.3838649  14.4701636
  16.9018996  30.5392838  14.5517659  16.6636205  31.9832349  14.1654837
  37.5677180  32.9033780  12.1255672  37.8756142  32.2374368  12.7403486
  37.6694942  33.7300873  12.5971878  35.8001995  25.0674081   7.7712917
  36.3513446  25.7207298   8.2021528  36.3425589  24.2792940   7.7404559
  29.8302746  25.0203991   1.9785103  30.7368135  25.0288868   2.2856697
  29.6302581  25.9387136   1.7970618   6.1587988  24.1275454  23.0164528
   6.9743429  23.6265850  23.0038285   5.8273064  24.0230536  23.9083219
  26.0819936  22.9436851  11.3223251  26.3650990  22.4590755  10.5469307
  26.7751551  23.5873485  11.4687952  42.8722858  45.2316570  18.7469780
  43.1746483  45.7698727  19.4785035  43.6693811  45.0156784  18.2630134
   9.8388849   5.9270728  30.1706767  10.7146393   6.0181952  29.7952008
   9.7235857   4.9835476  30.2833652  39.1758180  38.6549139  26.4407086
  39.3487144  39.2524338  25.7131743  38.8787007  37.8471518  26.0218120
  19.8544955  31.2602925  24.5740271  19.1016150  31.7666650  24.2690873
  20.2601933  30.9284139  23.7730932  40.9025526  42.7376223   6.1645502
  40.9264135  43.1118298   5.2838510  40.5323553  43.4318066   6.7097962
  41.4792156  28.7057829   1.5246519  42.3709154  28.4483266   1.7587813
  41.0499096  28.8724685   2.3637852  35.7193756  27.0616221  15.7226452
  35.0753689  27.5308847  15.1922878  36.5383816  27.5361681  15.5802902
  32.0649338  27.3337483   9.7508037  31.7979693  26.5965867   9.2016637
  32.3228550  28.0144119   9.1291881  37.3049521  18.8050902   1.6759857
  38.1145597  18.2953119   1.7058500  36.6079736  18.1505013   1.7203482
  11.1930452  20.7673717  24.2396116  10.3701435  21.2562895  24.2349744
  11.5873085  20.9700894  25.0879622  43.3256102  38.7458253  29.0994072
  42.9030704  39.3846107  29.6735525  43.7973976  38.1636667  29.6950102
  36.4163446  24.3459606  15.9345281  35.5207253  24.1485763  15.6604111
  36.4672375  25.3016353  15.9164500  39.1976452  22.6519537  29.2837405
  39.6886921  21.8483067  29.1127014  38.8868570  22.5557399  30.1839542
  27.9247999  40.3614807   5.7707628  27.7286911  41.2512207   5.4772672
  28.6665130  40.0890779   5.2304968  30.5073476  30.6800556  26.4275789
  31.0564446  31.1350274  27.0661116  31.1017346  30.0681520  25.9933996
  42.1483803  51.2433052  11.5214184  42.6735020  51.5685701  10.7901970
  42.7909899  50.9948635  12.1859184  36.7800498  49.0801096  27.9256344
  37.5263023  48.5645533  27.6197934  36.4961290  48.6388969  28.7262273
  33.7986708  41.9889688  13.2555234  33.9978385  42.5337934  14.0169251
  33.6259174  42.6145744  12.5519562  43.9001179  39.9681664   5.4603732
  43.5242891  39.4370246   4.7583240  44.5420074  39.3937850   5.8778620
  30.6953979  39.6800923  30.2332023  30.5156755  39.2796898  29.3825496
  29.9602127  39.4117856  30.7843332  32.0203066  41.6606855  21.6159463
  31.7724633  41.8889189  20.7200050  31.8920708  40.7134342  21.6660047
  42.3679686  46.7753553  11.1828172  42.5590515  47.3081827  11.9547057
  41.7054987  46.1517429  11.4802742  44.7249079  49.5377159   8.4664541
  45.0016737  49.5287418   9.3827242  45.5386019  49.6328211   7.9713905
  37.7522635  32.7861309   9.4131392  37.5802326  32.7813435  10.3547406
  37.4244976  33.6342883   9.1140896  36.3292694  50.9580517  20.4126501
  35.5817819  51.0984373  19.8314548  35.9374809  50.7662249  21.2646675
  28.2606816  34.8998737   3.3810556  29.0613580  35.3183913   3.0648363
  27.9017496  34.4575453   2.6118070  29.2045546  39.3298125  23.2603550
  28.7064624  40.1270247  23.0798364  29.2505622  39.2872596  24.2155004
  33.8101172  29.0853810   4.2554122  33.2611489  29.8090124   4.5574418
  34.2006063  28.7313151   5.0544035  33.6193514  33.0025363   9.5028871
  33.7836003  32.0645189   9.4060653  33.1342626  33.2434678   8.7136638
  39.5958471  50.7659721   4.9136415  38.8818455  50.2303123   5.2593338
  40.3651047  50.4902935   5.4121149  40.1528263  56.1415148  16.2789047
  40.0521469  56.0669184  15.3299427  39.6172833  55.4316139  16.6331196
  30.2404165  35.3103018   9.2032099  29.3667769  35.1864004   9.5742023
  30.8366179  35.1409554   9.9326605  37.8840756  37.8126502  22.1524167
  37.1190405  38.0684710  22.6676941  37.5237370  37.3089743  21.4225554
  34.8795557  39.6894526   7.2797614  34.5741487  39.1062593   7.9746330
  35.7835484  39.8940492   7.5188601  39.2272830  55.9409571  23.4486413
  40.1419210  55.6604242  23.4175301  38.7408566  55.1474667  23.6722398
  45.8549309  32.2460628  13.2615447  45.5043125  31.3862538  13.4939826
  45.0853539  32.8130794  13.2117891  32.6922345  45.6085920  21.2715673
  32.1413946  45.3299189  20.5400300  32.1337080  46.1946440  21.7822742
  21.9271885  34.8218536   4.2508569  22.3594557  35.3681827   4.9072868
  21.1303888  35.3024149   4.0263444   0.3956495  26.8231821  13.7725663
   0.5942999  27.4243665  14.4904435  -0.1084627  26.1198378  14.1817188
   8.4089266  39.1575122  13.6180913   7.5883757  38.6746454  13.5192633
   8.5681950  39.1684866  14.5618844  44.7155380  47.9503870   4.0874046
  45.3886032  47.4039841   4.4931862  43.9638948  47.8812313   4.6760336
  37.1689272  31.3851738  -0.1769820  37.8209567  31.7504048   0.4210934
  36.3322353  31.5250707   0.2664241  36.2323236  48.3752489  12.1736157
  35.6392670  48.6776400  12.8614211  36.1215711  47.4245405  12.1627688
   1.9410120  49.7462654  28.3331094   1.2222229  49.8695230  28.9530957
   2.3370253  48.9129782  28.5881165  36.0458636   0.4185513  12.8421950
  36.3664889   0.5047349  11.9444191  36.8161678   0.1591996  13.3477640
  27.1243429  38.2878566  18.0886963  26.3825727  38.5198426  17.5299564
  26.8834305  38.6159086  18.9550522  42.9396963  39.9373102  20.2895784
  42.6932716  40.8500290  20.4394364  42.6401567  39.4765735  21.0733056
  30.0968671  38.1608367   4.5638964  30.4128289  37.9612660   5.4451287
  30.7976723  38.6805201   4.1701561  41.8196869  35.8245945  25.4571486
  42.6660156  35.4559517  25.2040458  42.0174742  36.7259383  25.7114983
  33.9594604   1.7889241  30.3882847  33.6350955   1.3662604  31.1835039
  34.8818506   1.5372733  30.3424695  31.8440676  28.9962077   2.3054767
  32.5745988  28.9200854   2.9192859  32.2400689  28.8634467   1.4442042
   3.2733570  51.4769602  11.2815225   2.8806244  52.1050310  10.6752920
   3.3775698  51.9653225  12.0981443  29.9007320  29.8688674   5.2438122
  30.8483529  29.9951959   5.1960039  29.5337844  30.7284546   5.0371879
  23.3004689  29.2460084  11.0291493  22.4574614  29.1324902  11.4681077
  23.7533283  29.9104834  11.5484023   6.6569840  35.6227160   7.0235974
   6.3310753  36.3209391   7.5914896   7.6072584  35.7376766   7.0239043
  44.6271801  24.8059678  28.0697921  45.5280399  24.9285221  27.7703479
  44.2480898  25.6847668  28.0546085   5.5778013  10.4208648   2.4138170
   5.2631413  10.5595243   3.3071220   6.2405954   9.7352934   2.4970537
  37.0393252  10.6859410  27.9311803  37.5959516  10.8316422  28.6961446
  36.6574669  11.5439010  27.7459240  32.6015162  32.3114967  13.4709740
  33.1241775  33.1021476  13.3370781  32.3688674  32.3325253  14.3992317
  44.2335224  46.6597843  20.9115577  44.4112635  47.4480009  21.4247346
  43.8455057  46.0486746  21.5378356  38.7584019  39.4322109  14.8060918
  38.3392811  40.2917051  14.8489976  38.0984950  38.8634753  14.4094896
   1.5273748  52.7309465   1.1998650   2.4300467  52.9650736   0.9839843
   1.1477362  53.5373211   1.5489633  23.1719828  25.5405164   6.5382695
  22.2624373  25.7694197   6.7294717  23.1363559  24.6228552   6.2683433
  40.5242062  33.4529757   8.9831775  39.6925354  33.3576179   9.4473594
  41.0302544  32.6812887   9.2374289  15.3210294  16.5891349   5.6790680
  15.4861844  15.8165359   5.1386553  15.8841193  17.2672844   5.3058708
   1.8726145   8.4818248  15.2503705   2.2971569   7.8970651  14.6226370
   0.9881340   8.1286839  15.3463805  27.7859092  32.8675151   9.8204762
  27.8541088  32.3491192  10.6222534  27.7046180  33.7711072  10.1256752
  24.7951889  40.1198769   3.2728037  24.2815018  39.8870420   4.0462017
  25.5373335  39.5155263   3.2873577   3.4669195  47.4891996  21.2745190
   4.0151154  47.4083853  20.4940176   2.6740299  46.9967175  21.0623431
  37.1003509  41.9350052  21.5621090  37.9150176  41.4326429  21.5485883
  37.3594642  42.8185987  21.3006639  34.9663329  30.5029750  26.3155389
  35.2793360  29.8179483  25.7247773  35.7545972  30.8138824  26.7607424
  14.6193253  43.2558680  19.6131086  14.4654499  43.8014174  20.3844285
  14.7315346  42.3721313  19.9633205  38.4800053  32.5378752   2.0557481
  37.5862169  32.5009704   2.3963538  38.9881468  32.9408836   2.7597421
  36.6769457  15.0787258  26.0737107  37.1985698  15.8466995  26.3068584
  37.2507644  14.3348241  26.2569401   2.2768580  17.6852894  27.7739596
   2.3168646  16.9334054  28.3649778   1.6811930  17.4105597  27.0768642
  37.5749254  43.3553219  14.3444252  38.3771276  43.2523155  13.8324749
  37.7826810  44.0402699  14.9799716  41.4110279  32.6912403   4.8091772
  41.5742207  32.7895641   5.7472247  40.6094456  33.1902027   4.6519256
  33.6795688  38.7219286  22.3643804  33.7020087  38.7438226  21.4076924
  32.7821016  38.4659362  22.5771093   3.5062872  29.8979807  16.3723159
   2.7450691  30.4770160  16.4109981   3.2646452  29.2270303  15.7338285
   8.5198437  48.3350372  28.2189554   7.7120243  48.1194925  28.6850048
   9.1399847  48.5682440  28.9098019  41.7520094  56.2318420  25.8013937
  41.7352915  55.3880215  25.3498146  41.2758112  56.0764503  26.6170669
   4.0419518  47.2866583   5.0764855   4.5899950  47.7185631   5.7317289
   4.5639692  47.3101568   4.2745003  41.3498640  38.1159759  13.9899421
  40.4809952  38.5175824  13.9862823  41.6693974  38.2282662  13.0946648
  41.9035053  27.2344756  22.6167241  41.8753910  27.2938585  21.6617814
  41.1852598  26.6428757  22.8411571  43.1017494  50.6782246  14.2562568
  42.9201126  49.7471046  14.1287708  42.7572393  50.8723021  15.1279676
  45.3974295  52.2887325  11.0335648  45.2991867  51.3414526  11.1296868
  44.7655439  52.5274658  10.3553605  23.2399178  23.6188817  11.9384527
  22.7108192  23.4078431  11.1691999  24.1443253  23.5119653  11.6437542
  32.6978254  44.4342232  10.5813968  32.8971958  45.0972748  11.2423408
  31.7593288  44.5314121  10.4201198  10.8855520  26.6846895  28.0220563
  10.6235634  27.6044703  28.0620128  10.4726969  26.3524652  27.2249309
  40.5762482  42.2800541  13.8131726  40.1989889  41.6815329  13.1684387
  41.4147663  42.5431776  13.4338510   8.8110767  26.8379188  18.4882871
   8.6566292  25.8963776  18.4116045   8.6574637  27.0312953  19.4130782
  35.0798464  28.3132529  24.4300643  34.9225593  28.3014655  23.4859488
  35.5449724  27.4952865  24.6056203  13.7822986  36.2963486  24.0774808
  13.6978233  36.8730783  24.8367426  13.8954282  35.4226542  24.4517676
  18.5879265  53.8451529   2.6009300  17.6477276  53.8747931   2.7780619
  18.6692797  53.2793808   1.8331294  17.1229184  28.3255911  25.3461853
  16.6618919  27.8141713  26.0111186  16.8672454  29.2313409  25.5207679
  44.6857405  45.3570414  10.6034935  43.9100933  45.9155703  10.6549346
  45.3032970  45.8536339  10.0666070  31.8006754  33.8351607  15.8207050
  32.5865555  33.4918690  16.2458769  31.9472980  34.7798729  15.7732454
  35.6488490  48.0790281   5.4842123  36.4593601  47.7516079   5.8742055
  35.8532858  48.1777048   4.5543202   1.5779530  45.8467674   2.2940715
   2.1757399  45.3018665   2.8058952   2.0150553  46.6966486   2.2404294
   6.3379656  41.1922216  14.5682919   6.8129669  42.0043850  14.7443378
   7.0213257  40.5559301  14.3576193  30.0799751  21.7096806  27.1189651
  29.6818638  21.0053682  26.6074139  29.8498535  21.5067267  28.0256543
   5.2558409  42.8978586  27.6766798   5.9442078  42.6028252  27.0805774
   4.8336683  42.0914650  27.9728747   4.1834198  35.8366799  11.2761223
   3.3881460  35.4309058  11.6212571   4.6042715  35.1438713  10.7670748
  33.8779950  20.2591300   8.8038123  34.2878008  20.9900236   9.2665035
  33.2224417  19.9253285   9.4162333  28.5282540  47.4226713   8.2925791
  27.8653979  46.7441607   8.4209490  28.2887578  47.8377628   7.4639833
  36.1917114  55.1014376   8.0620050  36.8650651  54.6882153   7.5215650
  35.4048109  55.0864887   7.5172162  28.8832569  39.3389320   8.2885468
  28.5711741  39.6273613   7.4308497  28.0896187  39.2586613   8.8176262
   0.2767836   0.3698138   4.9393341  -0.6091894   0.1379374   4.6609056
   0.5159889  -0.3108235   5.5684131  43.0757284  42.8085852  20.5889392
  43.7992191  43.2977819  20.9807038  42.8550911  43.2999325  19.7976577
  39.2603135  40.7512856  12.1515012  39.5803237  40.8344078  11.2532163
  38.5002923  40.1734972  12.0825028  23.7043309  43.1953812  29.9889222
  24.4733191  43.5424757  30.4410438  23.2423043  43.9714336  29.6718973
   4.8308312  35.7942700  17.9324591   4.7999416  36.0358834  18.8581491
   3.9140545  35.7815838  17.6575148  40.4120922  37.5480151  23.4578094
  39.5769453  37.8908277  23.1396160  40.1735544  36.9731140  24.1850082
  37.1219897  35.4231763   0.3077105  37.8095269  36.0057878  -0.0149148
  37.3438120  35.2771449   1.2273309  25.2957034  47.5779104  20.9171939
  24.5540285  47.3514223  21.4783144  25.0930810  47.1690416  20.0757647
  26.7691922  23.6800957  29.4584160  26.4831185  24.3498158  30.0796000
  27.5790071  23.3349895  29.8343595  26.8922091  30.6188560  29.6554295
  26.9508672  29.9503827  30.3380237  27.3929381  30.2584457  28.9235782
   0.1127945  43.5655880  22.4539307   0.4000555  42.9531813  21.7766759
   0.7817255  44.2502451  22.4570779  26.4206982   1.0510806   8.1273049
  26.2570333   1.9753102   8.3150643  27.1295404   0.8075932   8.7226951
  31.9894481   9.9734068  18.0700576  31.9986296  10.5661666  18.8215780
  31.4722586  10.4331374  17.4087012  41.6316032  21.0024357  18.7492132
  42.0796061  20.3435063  18.2188046  41.2304974  20.5043507  19.4614327
  44.0777254  11.1459410  15.8448458  44.3289661  11.5814090  16.6593874
  43.2281303  11.5264225  15.6220281  25.2182531  46.6247463   9.2932808
  25.3444362  46.9670200   8.4083182  25.3438544  47.3831749   9.8635846
   5.0753342  24.4936347  30.8055272   5.1887499  25.4435086  30.7722270
   5.5088650  24.1727901  30.0147424  32.4384809  30.7623792  11.0235476
  32.3216462  31.2408066  11.8443310  31.6929007  31.0261726  10.4843330
  38.7377405  44.6614933  24.7689704  39.5191050  44.2305756  24.4225488
  38.7228656  45.5148792  24.3356750  36.0602069   3.5293654   7.9861861
  36.8645477   3.2713679   8.4364134  36.0518360   3.0001191   7.1886522
  38.2994270  48.5331249   6.3764626  38.3666587  48.7199879   7.3128349
  38.8435078  47.7562046   6.2476033  32.2568107  39.1052604   6.1806649
  32.3685956  39.6217299   6.9787842  32.6271176  39.6520233   5.4877329
  37.5914454  36.1466169   5.5962694  38.2153630  36.6919374   6.0754186
  37.1109509  36.7622638   5.0427926  16.5774369  40.0545406   0.5361437
  15.7004535  39.6885777   0.4212403  16.5936685  40.3570080   1.4441538
   2.5594507  25.5483937   5.8963341   3.3196961  24.9767327   5.7892627
   2.5245415  25.7269979   6.8360752  40.4308891  44.5417500   3.9609450
  39.6103001  44.2734623   3.5475582  41.0447741  44.6400833   3.2331347
  32.3051810  31.5428257   4.7106221  32.3835874  31.7759919   3.7855724
  31.6512585  32.1504450   5.0561875  29.0680289  53.4494495  14.1392088
  29.1214824  53.3052301  15.0839710  28.9414024  52.5753307  13.7702727
  42.2627687  25.9413433   8.9569414  42.4270678  25.0199723   8.7561548
  41.3894749  26.1113882   8.6038494   0.1049696  37.0893407   9.1279161
  -0.1781525  36.4977932   9.8251593   1.0606180  37.0369697   9.1427225
  39.5681834  19.3809199   5.5070456  39.5218968  18.7242639   4.8121413
  40.4759407  19.3467581   5.8087810  39.2194057  34.7006989  18.5338390
  38.5235190  35.1180053  18.0260706  39.9915099  34.7534418  17.9705381
  29.1706586  23.2001042  -0.2369181  29.2674041  23.9457226   0.3554734
  29.8116326  22.5614214   0.0752744  35.2751803  21.2810731  13.9860106
  34.7312307  21.2566829  14.7732568  34.7041559  21.6490221  13.3116400
  17.9312503  24.9244761  20.0289607  17.1336520  25.3379679  20.3592539
  18.1788361  25.4534030  19.2705607  29.0726542  19.9552298  25.4876804
  29.3049741  19.0885901  25.8211422  29.3418789  19.9385607  24.5692730
   1.3817106  20.8910966  25.4869699   1.7224394  21.2363791  24.6617961
   2.1621691  20.7009292  26.0074973  44.5043373  30.3691101  15.5642545
  43.9972973  29.6657562  15.1587474  44.9365473  29.9533653  16.3102996
  34.3859053  26.2011075  18.0925926  34.4920850  25.2618337  17.9418501
  34.7341919  26.6115856  17.3011192   8.4791599   7.5195372  17.9820904
   8.6059319   6.5824127  18.1302770   7.5388990   7.6127726  17.8289684
   1.5884052  31.0362768  24.0020204   0.9301506  30.5043721  23.5547996
   1.0803400  31.6643691  24.5154452   7.0433651  13.1706750  22.7058744
   6.8742167  12.6863623  23.5139966   7.9143225  12.8830659  22.4321103
  41.1650991  17.8848660  25.8326507  41.6342306  18.2346904  26.5901279
  41.1613560  18.6035323  25.2004051  37.1925902  12.8611135  22.4684024
  36.9542146  13.7821591  22.5736737  36.7290664  12.4114788  23.1749463
  15.1697098   1.6137530  13.9109159  14.5306812   1.6177128  13.1982756
  14.8728119   0.9159306  14.4949770  36.3701391  24.9081516  20.7290864
  37.1656561  24.4839931  21.0507631  36.2120557  24.5048356  19.8755193
  32.5291157  24.0372896  30.0244331  32.1753168  23.4283924  30.6727409
  32.5425553  23.5371470  29.2084002  31.0406494  21.8752050  13.4232700
  31.1426187  21.2375951  14.1298723  30.1088500  21.8452764  13.2062757
  45.2201796  35.0221014  17.7388513  45.2444363  34.0963292  17.9809058
  46.0084867  35.1525998  17.2118115  32.6460218  14.3495619  11.0069871
  33.0638719  13.7321377  11.6073382  32.4559069  13.8316417  10.2247810
   3.7808977  12.5751638  23.2071853   3.5988031  12.5962543  22.2677016
   4.7178160  12.7595031  23.2737517  39.5092845  11.1251330  24.5633197
  40.1542807  10.5509984  24.9763346  39.9421191  11.4397728  23.7696648
   9.4064699  11.4884794  20.7100368   9.7331463  12.3848295  20.6321001
   8.7785040  11.3992381  19.9931502  42.5642633  35.4273987   8.6594886
  41.6887665  35.0611806   8.7844807  42.9027843  34.9795318   7.8842145
   1.8269001  10.6975043  20.7801914   2.5932919  11.2708521  20.7682824
   2.1402823   9.8711073  20.4126453   2.2934328  29.8659849  20.9402895
   2.1777474  30.6308460  20.3765202   2.0337902  29.1242075  20.3938627
   7.5133930  29.0837693  30.2682066   7.0736109  29.7259665  29.7110701
   6.8968807  28.9246249  30.9829187  41.2493658  11.3032281  28.4933424
  41.9118881  11.3088143  27.8025007  40.7775545  10.4801679  28.3660722
  22.9208981  17.2172189  16.5625322  22.9928337  16.7971849  15.7054281
  23.8266455  17.3290241  16.8512392  32.4481082  40.6253386   4.0125426
  32.6831794  40.3241587   3.1348952  32.3293900  41.5703964   3.9176568
   8.8372170   7.3127419   1.4097270   9.1712652   6.5818036   0.8897528
   9.1405617   8.0939984   0.9472832  29.6904874  20.0643444  22.8196716
  28.9953113  20.6398463  22.5006747  29.4511914  19.1965449  22.4942613
  31.4625192  25.6023884   7.8555950  31.9219518  24.7650743   7.7919086
  31.1407566  25.7670569   6.9692620  20.4777884  19.7372735  25.1023650
  21.3240290  19.7714794  25.5483866  19.8448288  20.0046825  25.7687640
   5.5270372  54.7029748  19.7673380   5.7778965  55.3136072  20.4604697
   5.7378660  53.8390171  20.1214004  10.4875074  17.6534307  12.2005352
  10.7466589  16.7455351  12.0430645  11.3029753  18.1502461  12.1340736
  13.0289340  38.9028955  23.0314824  13.0307186  37.9507971  23.1301603
  12.2240591  39.1870785  23.4646664   6.7353426  12.2390223  14.7430563
   6.4456163  12.2624695  15.6550550   6.9952570  13.1400323  14.5510781
  40.6869745  23.4603071   4.6553406  41.1697483  24.2255068   4.9677953
  40.1791668  23.7847567   3.9116367  17.5931275  27.4556279   5.7236108
  17.4037850  27.9750824   6.5049871  18.0166280  28.0701828   5.1242741
   5.0577055  12.3781157  16.9859040   5.7040440  13.0452287  17.2170675
   5.1303278  11.7234349  17.6804185  38.0518365  19.7686565  30.2079272
  38.9307499  20.0765157  30.4292130  37.6409864  19.5890474  31.0536075
  42.0353127  15.2712929  21.5165520  42.5503016  14.8200285  20.8476925
  41.1253357  15.1159489  21.2634850  37.9976463  19.8257613  24.8978972
  37.4035168  20.4651618  24.5049453  38.3534718  20.2705908  25.6671476
  24.1154623   5.1136088  10.0024080  23.4128785   5.6462461  10.3751087
  24.7612786   5.7499069   9.6953624  40.8513212  27.8758526  29.3124652
  40.5860806  26.9930768  29.0544271  40.8732224  27.8493667  30.2690482
  37.3636866  13.1226575  18.4399962  37.5087285  13.8940310  17.8921115
  37.7580786  12.4021757  17.9484773  35.5528736  18.5132897  13.3960164
  36.4425921  18.1660104  13.3325410  35.6713319  19.4349980  13.6254776
  36.5800571   9.0567136  25.8025265  36.7664886   9.4376397  26.6606474
  36.4856720   8.1193686  25.9719610   5.0918327  24.2879701   6.8136704
   5.8798538  24.3527293   6.2741655   5.3142391  24.7543311   7.6194465
  43.7094927  33.7837672  13.2367548  43.6677122  34.0017748  12.3056444
  43.5149145  34.6071196  13.6844858   7.6796232   4.3521792  25.0086403
   7.2149979   5.0959837  25.3921866   7.9795395   3.8430068  25.7616496
  36.9321895  31.0556722  27.7507663  37.6822448  30.8097172  27.2093296
  37.1926284  30.8211899  28.6415076  29.0875292  22.0400214   9.9307531
  28.9222956  22.2249556  10.8552682  29.3883276  21.1313963   9.9182904
  43.7436104  10.0267589  24.4707966  43.9568949   9.2020512  24.0342164
  43.6978769  10.6682348  23.7618184  27.5908566  15.4655683  25.6179237
  27.1952987  15.0448716  26.3813233  26.8497705  15.6773412  25.0503182
   4.3535648  10.2013397  25.9863186   3.4914385  10.5501676  26.2127876
   4.4851767   9.4743031  26.5948629  24.2826605  11.8867409   9.2729839
  25.0276995  12.4782360   9.1667684  23.5260963  12.4671245   9.3566212
  31.5620375  18.7090862  29.5066524  32.4822688  18.6381757  29.7603822
  31.4280701  17.9908597  28.8882375  42.0713997  27.7531290  16.3529372
  41.5923071  26.9812679  16.0513890  42.6590872  27.4203658  17.0312655
  20.1885152  32.6839161  26.9470096  20.2044654  32.5470376  25.9997797
  20.2956748  33.6290312  27.0542741  41.7464399  22.6060915  25.9227896
  41.7225456  23.5339975  26.1565709  42.4301386  22.2359443  26.4811587
   9.5003782  17.2333264   6.3095197   9.4020973  17.1638596   7.2591242
   8.7011896  17.6717627   6.0174545  43.5848808  42.2019672  13.5322269
  44.2232513  42.8848505  13.7380871  44.0367937  41.3827848  13.7345680
  27.5195408  20.2744389  16.7345500  27.3776579  20.6124425  17.6187754
  27.5006890  21.0510921  16.1753643  37.2711587   8.9450526  23.2375383
  38.0064011   9.5482033  23.1286430  37.0653534   8.9844489  24.1715193
  29.6495175  32.6858521   5.4348713  29.1387892  32.9781246   6.1898315
  29.2391324  33.1184626   4.6860954   5.7136999   9.0333575  21.1841226
   6.4855753   9.4038463  21.6121078   5.0615107   8.9675379  21.8816543
  36.5165639  40.7877922  13.4441503  35.5748916  40.9220028  13.3370432
  36.8638372  41.6610956  13.6257347  23.3620954   2.4239983  17.5714064
  23.8463664   1.9100355  18.2175910  23.7655163   2.1968600  16.7336166
  34.1814280  14.1565883  26.3454461  33.9486194  14.2981577  27.2630453
  34.8751354  14.7932923  26.1733699   2.3244082   9.3390429   3.8790687
   2.9585157   9.9847251   4.1908964   2.5107704   9.2524534   2.9441866
  29.7975802  33.9574456  23.1345201  29.4238615  33.8262439  24.0059280
  30.6718779  33.5715103  23.1882787  32.9572010  42.6226377  17.6280665
  33.7023568  42.6760864  17.0296383  32.1948314  42.5429630  17.0547628
  36.5592051   1.6650340   2.3409494  37.3693871   1.9658834   2.7524408
  36.0814571   2.4689406   2.1366867  12.4411808   4.9927789  23.4175420
  11.4863621   5.0375259  23.3671021  12.7087389   4.6277007  22.5741196
  28.2327724  45.0433826  23.8329887  28.6927247  44.2827225  24.1880608
  28.2801104  45.6984472  24.5293188  43.0127287  15.5917132  18.1042373
  43.5105848  16.3638270  17.8355205  42.4049425  15.9176910  18.7679887
   4.1234671  21.4773369  23.5434961   4.7098957  22.0906115  23.9864731
   3.9583765  20.7929373  24.1920137  30.2931094  16.2822282   1.0764405
  29.8175478  15.9187317   0.3294845  30.2206993  15.6117547   1.7557453
   1.8217693  21.6616082   4.7379264   1.4119373  22.4946976   4.5050439
   1.1063133  21.1334348   5.0920256   0.3065430  21.3218307  16.8887508
   0.1018034  21.0151196  16.0054374   0.6788765  20.5569577  17.3275781
  37.2670007  29.9818277  21.7749357  37.2641921  29.1900849  21.2370086
  38.1818557  30.2632952  21.7820787  39.3309593  29.3463755   7.1081626
  38.7132406  28.6151743   7.1096122  40.1903915  28.9336967   7.0227188
  41.1504698  36.4454770  30.9057522  40.8474064  36.6971374  30.0333691
  40.4065228  36.6281486  31.4796901  28.2874966  16.8491066  13.3123910
  27.6300216  17.2727931  12.7606213  28.7569761  16.2632406  12.7186060
  34.6381617  30.0249958   8.0182624  33.8301897  29.6219754   7.7004826
  34.9053812  30.6143093   7.3129004   4.9847017  20.1609540  21.2453485
   4.2949282  19.5476007  20.9918880   4.6362959  20.6077337  22.0168614
   4.1882645   5.2271289  20.8363819   4.1433798   5.3266418  21.7873359
   3.2882153   5.0355369  20.5728650  13.1144081  10.5762422  23.9479876
  13.6289440  10.2542758  24.6881390  13.6483131  10.3748417  23.1794739
  18.4097849  14.6889639  16.8120992  18.2123219  14.8132718  17.7404249
  18.0182777  15.4481840  16.3801980   4.1276871   6.5035188   6.8716868
   4.5049082   6.9044244   7.6547655   3.1890951   6.6777521   6.9418558
  35.0632596   4.0719455   1.7015203  34.5607042   4.6732646   1.1518964
  35.4961252   4.6372274   2.3412975  36.1589909  23.6772275   3.3357772
  35.5652618  23.2106137   3.9239892  35.8714890  24.5891953   3.3792647
  21.4248919  23.3029199  30.0092173  22.3738790  23.4274721  30.0211321
  21.1908650  23.3340740  29.0815899  26.9493628  34.0196896  24.0940547
  27.6368237  33.7026978  24.6798420  26.1784315  34.1069818  24.6546602
  14.9239288  11.4376497  18.8450670  15.4819141  12.1524215  19.1516423
  15.5350243  10.7353592  18.6223972  37.2083330  11.4627373  13.9404583
  36.4701509  11.6270518  14.5272458  37.3289728  12.2878373  13.4704709
  30.3518200  27.1794915   6.0429915  30.4586649  27.8683877   5.3870686
  29.4280100  26.9355035   5.9857830  40.8695126   8.1744510  30.5712712
  41.7461014   8.5588485  30.5786537  40.5202723   8.3910578  29.7067802
  42.9753542  22.6431823  22.7591467  43.3339167  21.8227220  23.0975389
  43.4054995  22.7612948  21.9122362  34.1818070  12.4254334  12.5096297
  34.6564722  12.7968585  13.2532477  34.8673630  12.0995760  11.9264817
  22.6107645  26.3723946  12.6182401  23.2098627  26.9265366  12.1179986
  22.8942347  25.4785895  12.4259150  34.2209744  29.6261764  15.4845810
  33.2906818  29.6087360  15.7092643  34.6167541  30.1926970  16.1468840
  26.6532254  27.5632501   9.2240557  27.5851917  27.6666617   9.4163498
  26.3537240  28.4464431   9.0084108  20.3677917  17.9596257   5.4605063
  20.5038190  18.7991548   5.0212797  20.8814454  17.3352444   4.9481210
  34.9999142   6.7285734  31.1040139  34.0654135   6.9356138  31.0951352
  35.1142716   6.1065954  30.3854775  22.8376484  12.0567322  12.4154362
  22.0557570  11.5548813  12.1851715  23.1948876  12.3427343  11.5747150
  29.6975231  22.2315359   6.2521553  28.8563681  22.2563457   6.7083043
  29.5110416  22.5937295   5.3859735  15.1326214   4.8526141  12.4330592
  15.8595453   4.3772444  12.8353560  14.3587433   4.5576605  12.9129958
  16.7046380  22.7722740  21.0667300  17.1181393  22.6420569  21.9201303
  17.2359252  23.4467411  20.6435752  29.1974807   8.8272166  22.3524141
  29.8277426   8.8564503  21.6325879  29.7244430   8.9724225  23.1381989
  17.9096079  27.2329116  22.7031088  17.7705121  27.7438474  21.9057202
  17.3163128  27.6237702  23.3445644   0.3638779  40.3679228  11.9193252
  -0.1951040  40.4080296  11.1433348  -0.0189842  39.6728802  12.4546369
  28.5040021  26.7196012  18.7220490  27.8676772  26.0505581  18.4696496
  27.9712892  27.4522090  19.0314579  37.2379398  32.0266652  15.3898987
  37.6559067  32.1095133  16.2470278  36.6130567  32.7510142  15.3571257
  38.3745337  27.7100015  15.4694855  38.7141323  27.2194791  14.7209585
  38.8827944  28.5210943  15.4748380  34.5490789  28.3086276  13.0082640
  34.3592834  28.9295435  13.7115940  34.9138641  28.8467288  12.3056873
   2.9115425   6.1329603  17.1628034   2.8449379   5.4310125  16.5154517
   3.8079582   6.0703772  17.4925864  23.8925552  23.9454174   0.3156384
  24.7165036  24.3286753   0.6163939  23.2799339  24.1000128   1.0346874
  34.1713428  24.4775867  14.0294993  33.8982487  23.6582303  13.6168182
  34.3361163  25.0713825  13.2970476  34.4866848  18.9060915  23.3186022
  34.1836572  18.8274372  22.4140475  34.6033049  19.8468637  23.4511820
   2.8949963  13.4739888  30.1961398   2.8244768  14.3488514  29.8142052
   3.2290684  12.9281175  29.4843459  26.5306425  23.4874439  21.9187045
  27.4681377  23.6721992  21.8621397  26.4003301  22.7322173  21.3452196
  39.5203328  14.6087420  21.4645863  39.3848515  14.8836565  22.3713923
  39.3490553  13.6670172  21.4716744  25.3402805  21.8180561  27.4137807
  25.5333567  22.4725223  28.0850673  25.4684663  22.2798252  26.5851879
  38.8736939  28.9118147  12.3957682  38.6460614  29.3019795  11.5518558
  38.8625431  29.6459770  13.0098641  24.8992753  26.7617035  16.9309139
  25.2278781  27.2841573  17.6625526  24.0266323  27.1147180  16.7574096
   2.3555265  27.1008277  23.3248901   2.6137482  28.0059052  23.1505680
   1.4134155  27.0838690  23.1564617  11.0690533  32.6580763   4.5268941
  10.3604208  32.8268218   3.9059323  11.4578854  31.8357396   4.2288977
  16.5628660  11.3588560   6.5260005  15.8751857  10.7029533   6.4114648
  16.3652468  12.0297098   5.8724463  45.1640892  37.8339481   6.7553413
  45.6491613  37.1139479   6.3521802  45.2785110  37.7024364   7.6965344
  36.8474698  13.1490314   9.4412541  37.3628378  13.3702910   8.6655784
  36.6802192  13.9905095   9.8657233  28.4183216  35.0419664  11.3761961
  28.8904047  34.5952415  12.0789123  27.8156614  35.6314564  11.8295562
  33.6873865  31.9343519  17.1127502  33.9430451  31.8401456  18.0303529
  32.7683973  31.6674352  17.0915440   6.3334595  22.5735378   1.5440496
   5.9853350  22.1290731   0.7710728   6.1821638  23.5033107   1.3741621
  24.4551682  10.0294399   7.0443904  24.4594550  10.2681649   7.9713339
  23.5277534   9.9971312   6.8096721  24.4067526  17.2209549   2.2280280
  25.2679133  16.8103099   2.1505354  24.1809702  17.4746442   1.3331002
  34.6842623  12.1315801   8.1397504  35.3971100  12.6660979   8.4895670
  35.1237130  11.3973248   7.7108145  29.2247844  18.1342888  17.8890681
  28.7625480  18.9459622  17.6798904  29.3308949  17.6948285  17.0453572
   3.4205519  28.7107563   1.9257364   3.0205952  28.7985659   2.7909276
   4.0671812  29.4155169   1.8881483   2.9127155  55.5803022  25.0597811
   3.5523449  56.2853000  25.1601863   2.6726805  55.6048093  24.1334915
  17.6034485  55.1784281  14.4661868  17.5804173  54.2444160  14.6743274
  17.2403179  55.6057140  15.2419400   3.1251417  16.3986814  17.8448403
   3.4485994  16.0039341  17.0350361   2.2067724  16.5986586  17.6636434
  33.7060523  14.4713509  16.1013401  34.6117258  14.6940422  16.3167441
  33.2805538  14.3511486  16.9503009  38.5100675  39.7907591   5.7674861
  38.0998611  39.9118781   4.9111611  39.4139504  39.5471621   5.5677688
  25.9630203  21.1201048   8.9917612  26.5980983  20.7507062   8.3782035
  25.5991983  20.3603148   9.4462788  31.5840483  12.2033107  22.8272638
  31.7408061  12.9005563  23.4640590  30.6377363  12.2180450  22.6840553
   8.5929190  19.9475014  19.1142404   8.0044495  19.7204566  19.8342335
   8.8969170  19.1042840  18.7783825  33.6546803  20.5549526   5.9059626
  33.4513211  21.4518261   5.6404537  33.4776807  20.5376315   6.8464959
  38.8611388  11.9373572  20.5152583  38.4187746  12.1110177  19.6843624
  38.1809330  12.0561922  21.1781526   3.3719193  54.5985609  11.8666983
   3.0802761  54.6094649  12.7783227   3.9749037  55.3388939  11.7992592
   2.5421749  42.3793030   1.0009032   3.2742868  41.9665480   1.4590317
   1.8051516  42.2995710   1.6064343  41.4293814   7.8589177   7.1613818
  42.2114086   7.3470020   6.9549692  41.7598581   8.6177468   7.6422071
  41.7061520  17.7932322  14.1717005  42.1953964  17.0898342  13.7449610
  40.8032322  17.4764156  14.1959774  43.8456583  22.4740529  19.9068844
  43.0088854  22.0571065  19.7014678  44.4947386  21.7811060  19.7854245
   9.4253384   8.0828112   7.1203494   9.9878489   8.4072787   6.4171141
   8.5357176   8.1867009   6.7826968  32.3034763  18.0506182  18.3498517
  31.4605045  18.1914163  17.9188005  32.8552842  17.6569581  17.6740030
  33.1571054  18.1887674   4.4609994  33.8951921  17.5870395   4.3641278
  33.4648442  18.8469195   5.0841886  25.0188971   4.5205042  18.0967247
  24.5729709   5.1431906  18.6708701  24.4813156   3.7295809  18.1376803
   2.3558508  29.7370720   6.4687198   2.7855192  29.0881991   5.9114236
   3.0268656  29.9902630   7.1026486  43.6298084  36.0782003  14.7709119
  43.4090614  36.4182687  15.6380081  42.8844070  36.3208127  14.2215931
  40.7456146  30.6088543  28.6224202  40.6663577  29.6759391  28.4233681
  40.4826005  30.6811786  29.5399300  43.2278681  54.8110532  17.5518870
  43.1202698  54.2475057  18.3180916  42.5298214  54.5403161  16.9555140
  10.3075872  14.2060757  23.8658956   9.7528874  14.6534514  23.2268361
  10.9353005  14.8721778  24.1460971  40.0591230  19.3707383   9.4725221
  39.4794154  18.6399925   9.2576212  40.1365852  19.3425691  10.4261661
  28.2787228  15.6096148   6.0751808  29.0449905  15.9730017   6.5190434
  28.6218381  15.2593124   5.2531153  40.2355719   9.5877099  18.6354661
  40.8736849   8.9047956  18.4288990  39.7272682   9.2284966  19.3626678
  39.9150944   2.4500962   6.3942179  40.4374647   1.6507678   6.3276085
  40.4858637   3.1383854   6.0525879  42.2742987  19.3709338   6.3362086
  42.6686621  19.5796287   7.1830571  42.0660257  18.4383512   6.3922983
  43.0805206   6.1316651   3.1788552  42.2331667   6.0372841   2.7437535
  43.7136698   6.1786902   2.4625161  45.3737307  20.0927353   6.0552877
  45.0994110  19.4918346   6.7480350  44.5564985  20.3697348   5.6410038
   2.7842127  33.9684367  23.4334222   2.3605906  34.5780540  24.0376935
   2.2673164  33.1656814  23.5015128  35.1076436  37.7120543   5.1522303
  35.1482129  38.1225562   4.2884755  35.2496123  38.4322238   5.7665861
   6.7278706   8.0681574   6.0591519   6.0319267   7.4221784   6.1799949
   6.7925058   8.1759119   5.1102352   6.4713131   6.3199002  11.0694468
   5.8030878   5.6345463  11.0694838   6.5385758   6.5888804  11.9856107
  34.4735813  23.6883593   5.6527448  35.1531410  24.1016674   6.1852908
  33.6959076  23.6932540   6.2108046  22.0614743   0.0254726   3.3107814
  21.3973069   0.6910799   3.4898868  22.0907474  -0.0327865   2.3558044
  10.1372801  17.3403275  17.8877783  10.6197201  16.7194378  17.3419034
  10.8120810  17.7766323  18.4078896  36.1100698  15.4770088   5.9214377
  35.7434487  15.9282088   6.6818583  36.4528322  14.6552479   6.2727976
   6.3881670  14.3158937   3.5589689   6.6745220  15.1835859   3.8441718
   6.8960796  13.7075901   4.0958309  35.5819035   4.9238735  10.5706680
  35.6568384   4.3146631   9.8361760  34.9594998   5.5860567  10.2700686
  18.5395741  17.7953136   2.8415138  19.3240571  18.3226418   2.9923242
  18.5918891  17.5466561   1.9186573  42.7524233  19.0475190  16.6045415
  42.3335552  18.3785307  16.0630274  42.9584169  19.7554028  15.9940505
  23.6278820  17.8844380  19.7153679  24.0540528  17.1496201  20.1565627
  24.3302274  18.3069050  19.2209331  43.6847019  17.7624178  19.6500993
  44.1791821  18.5448408  19.4061053  44.1919374  17.3705232  20.3609872
  32.5616384  11.5028405  20.2568078  33.4724855  11.7874122  20.1819348
  32.3933864  11.4836133  21.1989093   7.4808966  11.5934658   9.1174024
   8.2485043  11.1541545   9.4834864   7.0677649  12.0193696   9.8685080
  43.5648918  27.3360538  11.0824811  44.4361687  27.6090026  10.7950675
  43.1859589  26.9012713  10.3185391  35.6998396  10.9282207  10.7508588
  36.3856053  11.5083408  10.4200745  36.1560965  10.1133513  10.9607399
  29.6716714  27.4924445   1.1645371  29.8800325  27.8234744   0.2909027
  30.2369738  27.9941368   1.7518793  39.5756006  25.3268003  22.7447629
  39.1037464  25.8788276  22.1211839  39.6172190  24.4691730  22.3217058
  38.9301515  37.8253198   7.7513450  38.7248588  38.6106348   7.2440314
  39.5374894  38.1282043   8.4263504   2.1970783  14.9918091  20.2859616
   1.5447126  14.3712616  19.9610436   2.2864901  15.6353211  19.5830190
   0.4471718  24.0208173   4.9688065  -0.1460422  24.1829419   5.7023221
   1.1212383  24.6952724   5.0523233  43.5997725  13.6675286  20.2282906
  42.8527212  13.1167495  19.9942183  44.2249918  13.5388994  19.5149946
   6.4253698  18.7907362  12.9235220   6.9881569  18.8458729  13.6958301
   5.8301579  18.0652332  13.1122029  31.5355802  23.3919883   9.9246782
  30.8051682  22.8404427   9.6444505  31.2400079  23.7808323  10.7478845
  36.3329792  16.2610030   9.5766115  36.8273473  16.6802609   8.8722992
  35.4458094  16.6089189   9.4865084  24.0871406  30.1390076  21.8881658
  24.3631077  29.4756913  22.5206885  24.5283580  30.9394193  22.1725896
  38.8649988  18.7290096  14.9504471  38.4943008  19.5312178  15.3182471
  39.0539384  18.1812215  15.7123280  32.5963354  26.2594032  24.6131635
  33.0334258  25.4165983  24.4912505  32.6762700  26.4373255  25.5502796
  44.8180723  32.8209448   1.6721608  44.0646267  32.7112818   1.0920532
  44.7050714  32.1462536   2.3416775  43.7826252  25.4773569  19.1577220
  43.7622404  24.5375633  19.3382835  44.5377684  25.7994843  19.6498859
  32.6281619  10.1193643   0.4514278  32.7039266   9.1679251   0.3789341
  32.6968288  10.2942812   1.3900018   9.8067509   5.2914226  22.9683313
   9.5639263   6.1209488  22.5570485   9.1941057   5.1973569  23.6977485
  37.6408482  11.5727496  30.4717301  37.4410963  12.3605382  30.9774164
  38.0891061  10.9974480  31.0916705  39.2705512  16.6964209  19.8477379
  40.0390148  17.2603989  19.9350575  39.3973756  16.0149086  20.5078033
  41.0730076  20.3108287  24.3593994  40.1888847  20.6597805  24.2462716
  41.5457773  21.0019898  24.8230950   5.2812325  27.2798586  30.9184876
   5.2557932  27.6067543  30.0191968   4.5308958  27.6936817  31.3450734
  34.9059653  12.4001038  23.7617949  34.5018578  11.6102600  24.1210679
  34.8089457  13.0546236  24.4534758  41.0548401  17.3795629  23.0298972
  40.9531212  17.1734154  23.9590836  41.5208673  16.6263008  22.6670647
   3.0186831  14.6177423  27.2068897   3.8729607  14.1931891  27.1281937
   2.7636515  14.8117638  26.3049222  38.8760209  24.1247964   2.9295906
  38.9105844  25.0075269   2.5610503  37.9487944  23.9801025   3.1181392
   1.7457138  26.5945268  28.3742499   2.2941767  27.0003867  27.7029061
   1.6126619  27.2845340  29.0241885   0.4502331  25.3323317  11.4378011
   1.0531603  24.6036196  11.5850854   0.4580437  25.8198833  12.2614896
  42.1368313  28.6505032  25.2736926  41.9784260  28.2541871  24.4169140
  41.4026022  29.2517114  25.3989315  21.7249179  15.1808822  14.7259140
  21.6611576  14.6471286  15.5179203  21.3170075  14.6472299  14.0439653
   1.0920034  11.6544521  10.8194971   0.6292616  11.8755114  11.6277266
   1.9540249  11.3571978  11.1106813  41.5224218  32.2877049  15.6133890
  41.1853981  33.1715226  15.7600474  42.4113560  32.4218249  15.2846873
  16.0333000  17.6933110  24.9889398  15.6804453  18.4307122  24.4909787
  16.6250120  17.2533679  24.3785667  12.3551069   8.9951694  29.9583411
  11.7910849   9.1241431  30.7208872  13.2355915   9.1973263  30.2747512
  24.5331049  33.7842798   0.6468486  23.8158822  33.1688213   0.7986239
  24.1000891  34.6252847   0.5004234  43.9379835  20.1534915  23.4013844
  43.3800840  19.5940566  23.9417672  44.7345400  19.6398175  23.2677197
  36.6526794   8.1829429  10.5516064  36.5998292   7.3004949  10.9186554
  36.1003423   8.1509262   9.7704983  31.8035507  31.2856913  30.8120632
  31.8697476  31.7003894  29.9519033  31.1810732  30.5696416  30.6854711
  34.0745211  17.2670674   7.4646628  33.6222267  17.1180618   8.2949990
  33.9481235  18.1990957   7.2869611  26.9135094  19.3668091  27.6134965
  27.6479292  19.4013548  27.0005793  26.3934422  20.1437283  27.4081702
  11.8790090  39.3753481  16.4320600  12.1829295  38.5992265  15.9614217
  12.0553434  39.1815186  17.3526955  35.7841921   8.9343768   1.5967886
  35.3413701   9.2293113   2.3924983  35.3919458   8.0822891   1.4062081
  42.6581478  31.4164782  12.2212160  43.0925226  32.1408820  12.6715386
  42.6305532  30.7132316  12.8699946   1.9802080   8.4647578   6.4137340
   1.6816078   8.4511775   5.5044013   2.5532280   9.2296892   6.4662671
  30.2762866  21.8165755  19.6894538  31.0419703  21.3234806  19.9840987
  30.4256701  21.9545746  18.7541068  30.2408266  17.0366764  15.1981902
  30.6869841  16.2413490  14.9072778  29.5901799  17.2088921  14.5175791
  36.3290286  23.5103059  18.4124470  35.8285117  22.6961422  18.3590353
  36.5272689  23.7297487  17.5020754  33.8636279  26.1814713   0.1656060
  33.5592985  25.3813910  -0.2627499  34.8129296  26.0746264   0.2259378
   4.7983776  42.8766584  19.1802359   4.6379314  41.9398165  19.2934549
   4.2029797  43.2982349  19.7999156  16.9364964  19.9945068  28.8359094
  16.6559349  19.5588779  29.6407366  16.1730324  19.9490798  28.2603240
  44.4075012  15.7682097   1.7213987  44.5785618  14.9451792   1.2635866
  45.2624178  16.1955953   1.7732747  23.9059663  21.2931037  20.9600043
  23.1650496  20.9734917  20.4451036  23.5059071  21.8029833  21.6644239
  39.0867448   7.6525539  12.5430095  39.1314745   7.4529123  11.6079295
  38.9830017   6.7998207  12.9652846  17.1593046  23.3711100   4.1481447
  16.5397418  22.6858759   3.8974881  17.9848719  23.1080294   3.7413785
   5.3323065  33.6562777   9.9350494   5.7860790  33.2346106   9.2053103
   5.5847298  33.1431723  10.7026684   1.1240421  27.0937777  20.4275894
   0.8152424  27.2433877  21.3211727   1.8218218  26.4451957  20.5207539
  39.3921161  15.1640618  28.3958373  39.2855716  15.9062850  27.8008718
  39.9195385  15.5085766  29.1165077  39.4733644  26.1778164  18.7121809
  39.0678430  26.1597133  17.8453147  39.8043370  25.2888560  18.8403869
  32.1932983  14.4611645  24.3436745  32.8370547  14.1324437  24.9711714
  31.4096546  14.6253145  24.8682580   9.0512596   2.3491116   6.2452546
   8.5478912   2.3565912   7.0593778   9.7400747   2.9992157   6.3835708
  40.7826900   3.6418918   9.9721450  40.4606390   4.5329022  10.1085830
  41.5408802   3.7466502   9.3973362  35.8101416  32.4852014   2.8437153
  35.1840711  32.2249937   2.1680242  35.4528332  33.2981586   3.2010126
  28.8872743  19.7962511   7.2986758  28.2905769  19.5199108   6.6031051
  29.3509865  20.5488300   6.9314897   3.1516396  13.4792221  11.9300640
   3.2326304  13.4085763  12.8812110   3.3397327  12.5978398  11.6075468
  37.0014572   6.5764415  22.4420810  36.9783807   7.4712396  22.7812505
  37.6671243   6.1368608  22.9711246  21.8710838  54.0764370  15.9260643
  21.7604767  54.2539003  14.9919844  22.3271643  53.2354730  15.9577274
  40.5628300  14.2522633   3.4338316  41.1084938  14.2390954   2.6475057
  40.1953220  13.3699155   3.4851393  28.8970876  54.0916719  16.9587171
  29.7846317  54.1740120  17.3075962  28.5458684  53.3073058  17.3801994
  36.5364909  20.1578617   6.3323697  35.6284595  20.1990628   6.0323485
  37.0503187  20.4579520   5.5825981  24.4330931  23.0705214   7.7374941
  25.0748992  23.6838651   7.3795456  24.9593854  22.4015999   8.1754327
  27.8242946   6.4400071  26.3707113  27.8910446   6.0326064  27.2343087
  28.6298704   6.1833757  25.9219098   9.4472490  50.5116578   9.3532595
   9.0753351  50.3327688   8.4896001   9.1528736  51.3982644   9.5618376
  44.3566322  12.1101964   4.7327932  44.1442537  12.5819981   3.9274796
  43.7700272  12.4832940   5.3907617  33.6180401  16.8572652  10.2034283
  33.5577464  16.0273457  10.6765354  33.3414578  17.5164711  10.8399677
  35.9101272   5.5640584   3.7873432  35.7860684   6.0080123   4.6262386
  36.7793345   5.8400184   3.4965554  29.9328184   5.5915749  25.0375724
  29.6520519   5.3024280  24.1693568  30.6072068   4.9622017  25.2931499
  27.7944875   2.7653164  19.0795398  27.9176211   1.9442713  18.6031413
  27.7824426   3.4378755  18.3985472   2.5038897   9.8104846   1.2988910
   3.3313547  10.2910912   1.2753877   1.8331228  10.4823565   1.1768540
  40.1762056  29.8445249  21.9581413  40.5190754  29.1907287  22.5674224
  39.9864721  29.3516946  21.1597967  29.9802971  11.1388683   6.3971788
  30.8256698  11.2499166   6.8322015  29.3595409  10.9988403   7.1122211
  33.8882947  47.9964932  30.5134583  33.8913465  48.6340608  29.7995043
  34.7276616  47.5433858  30.4335332   4.7158228  53.7270456   2.9326161
   5.6461655  53.9493798   2.8970560   4.5396124  53.2992136   2.0946773
  40.8997774   6.8080640  23.8525724  40.1321268   6.2368214  23.8275647
  41.5905333   6.2645513  24.2316246  30.0329614   3.4651232  28.8368327
  30.2634954   4.2896947  29.2648137  30.5500436   3.4606063  28.0313278
  30.2154279  13.7212086   2.0430668  29.6977091  13.1365049   1.4896058
  30.0658655  13.4030163   2.9333568   1.4562117  12.8127420  24.7870779
   1.2860094  12.0604372  25.3539109   2.0711981  12.4842143  24.1312599
   6.0352551   8.7393379  17.4947381   5.2462898   8.2507271  17.7293050
   5.8115612   9.1749007  16.6722560  35.3087640  15.9393477  19.7186673
  35.7170916  16.7800879  19.9252045  35.0484085  15.5843091  20.5686045
  41.6345310   3.6153838   2.9175198  40.7709932   3.8240916   3.2738471
  42.2304344   4.2142734   3.3674785  31.6253805  54.2698888  17.8770363
  31.4745092  53.5418766  18.4799206  32.3963642  54.0082096  17.3737097
  35.4931736  13.8773942   0.2466306  36.0888338  13.6405075   0.9574779
  34.6189594  13.7786722   0.6237706  39.7603440  21.1514902  21.2820625
  40.6030989  20.8420587  21.6141057  39.3168092  20.3592277  20.9790301
  35.0856805  51.9249769  28.4717751  35.6090117  51.8893646  29.2724538
  34.8225307  52.8423517  28.3982396  35.8838320  51.4990734   0.2829822
  35.2727151  52.2337448   0.3379878  35.5598402  50.8692988   0.9269127
  33.0126739  19.1147721  12.3423982  33.8876963  18.8920903  12.6601744
  32.5829744  19.5260465  13.0923605  45.8218002  11.3299251   1.3372811
  45.6103182  11.3335395   0.4037413  45.0360823  11.6739237   1.7621883
  31.4788628   0.6233130  29.8809600  32.3228049   1.0698041  29.9490571
  31.2264872   0.4485946  30.7876086   5.9114920   3.4877402  19.8648822
   5.5230938   4.1098535  20.4799867   5.3528248   2.7126843  19.9232876
  27.6925921  29.7150230  18.0693972  28.6238790  29.8601961  18.2363141
  27.4255204  30.4631352  17.5353265  28.2908821   1.0917591  26.7834104
  27.6086545   0.8863474  27.4226317  27.8206372   1.4895539  26.0507024
  10.1921021  16.1901808  27.1517920  10.7056128  15.8051360  27.8619194
  10.7363640  16.0748911  26.3728690  14.0803419   0.8061244  22.8228998
  13.2458435   0.4714141  22.4945498  13.8852631   1.1067346  23.7104869
   6.0978304   4.0641037  28.3218908   7.0211207   3.9082533  28.1231976
   6.1106716   4.7054863  29.0323091   3.9339100  16.8962562   8.6090571
   4.2079674  17.7938807   8.7971890   3.9135872  16.4677131   9.4647264
  20.7913518   2.3161879   4.2165232  21.1837125   2.4870595   5.0727284
  19.9755573   1.8562344   4.4143948  44.4600821  51.3073798  27.8331780
  43.7689018  51.8754595  28.1734538  45.1845026  51.4161491  28.4493089
  39.5417833  14.6974337  15.7362211  39.5507455  14.1527617  14.9491489
  40.3783798  14.5142949  16.1637676   1.9304262  44.9613246  26.3111854
   2.8016697  45.3547414  26.2623286   1.4986740  45.4239222  27.0293951
  30.1226401  15.0459158  12.2189319  30.7222700  14.7412884  12.9000199
  30.6847811  15.2142072  11.4626861   1.4607178   9.2796904  23.3629012
   0.8676134   8.5419816  23.2206321   1.5384279   9.6937472  22.5033975
  20.9565435  16.6827297  18.5353482  21.6215836  16.9730306  17.9111052
  21.2684284  15.8299863  18.8383150  15.2117574  38.0681237  28.8984323
  14.7035968  38.7287959  29.3690872  15.6468964  37.5653072  29.5869541
  24.8612690  17.8293645   8.5093898  25.3439116  17.4122655   7.7957249
  24.1943097  18.3576298   8.0708361  36.8440676  53.6152097  14.8175597
  37.6848936  53.6792033  14.3646288  36.2544298  53.2228138  14.1736770
   1.1498629   7.2083217  20.3630280   0.3805290   6.9919592  20.8898497
   0.9424435   6.8775159  19.4890857  39.9460649   3.1998113  13.0949426
  39.9763560   2.2969040  12.7785993  39.1371846   3.5555166  12.7269518
  39.2617869  16.7733216   2.3826149  39.6570349  16.1006868   2.9372063
  38.9436269  16.2956119   1.6165859  12.3274838   6.3234764  29.1790199
  12.7364527   6.0255468  29.9915576  12.4563061   7.2719681  29.1798067
  28.0809689  54.3940800  23.0737925  27.6556921  55.0938878  23.5694122
  27.6516294  53.5929631  23.3739781  34.0543318   8.6311442  13.4817489
  33.2272339   8.8321555  13.9196285  33.9942741   9.0802336  12.6385769
  42.2491455  25.4686356   5.6296190  43.0039549  25.5499697   5.0466308
  42.0897150  26.3597059   5.9407648   8.4802614  12.2799814   0.3220948
   8.9089619  13.1356251   0.3400000   7.5735890  12.4611259   0.5698236
  35.2487707  55.5833385  26.6117215  34.5441484  55.0581221  26.9910479
  35.0960207  55.5429396  25.6676531  38.7153816  49.9403175  21.4314222
  38.7146425  49.0525760  21.0734487  37.8886700  50.3195377  21.1331439
  39.3201542   9.6834481   6.5440019  39.8775148   9.0008008   6.9175967
  39.9258828  10.3880870   6.3142022  42.9752398   6.2530053  28.4112859
  42.1151161   6.5381873  28.7196517  42.7839994   5.6378144  27.7033329
  29.9268103  10.1925111  26.1480904  30.7495928   9.7172886  26.2639570
  30.1902437  11.1077988  26.0527778  27.5097442  21.0193038  19.3081284
  28.4511662  21.1487532  19.4230151  27.2486973  20.4825735  20.0564623
  43.0893564  49.1582783  28.8148499  42.4038601  49.2259183  28.1502008
  43.7243557  49.8326346  28.5734963  35.9122205   3.9086801  20.5720758
  35.6010842   3.0433726  20.3062415  36.7665219   3.9963248  20.1493216
  43.9204216   5.5570960  21.8683672  43.9063597   6.0900563  21.0733914
  43.6054230   4.6982652  21.5865564  35.6113076  20.4613495  20.0770426
  36.2244773  19.8168564  20.4304290  35.4794312  21.0837436  20.7922125
  29.0981412  23.4534717  21.5378237  29.5693493  23.0236125  20.8240891
  29.7868228  23.8081884  22.1000719  23.6883759  12.5830913  29.1126537
  23.8601589  13.3031452  28.5058236  24.5545173  12.3209786  29.4246268
  17.4641991  53.5465141  29.4546342  16.9357574  54.2007794  29.9117088
  16.9864464  53.3775362  28.6425805  32.2626996  53.8787357  11.2781000
  33.1583095  53.5609098  11.3925600  32.3656297  54.7696107  10.9434676
  38.6530709  51.6396900  11.9624412  39.1988158  50.9813853  12.3925936
  37.9856229  51.1326181  11.5002489   7.8723131   8.9066803  29.0312648
   8.1607662   9.7968680  28.8297865   8.3456122   8.3548456  28.4086109
  35.2008176  12.4422061  20.4928199  35.4610896  12.7594197  21.3576118
  35.7674718  12.9154503  19.8835794  24.3084812   2.1620564  11.4862919
  24.1294074   3.0760863  11.2655795  25.0722122   1.9329774  10.9566987
  27.5696087  17.2300029   3.1228864  27.2624755  16.5269530   2.5505036
  28.3510113  17.5697863   2.6867822  28.9568543   2.0522484  14.6214604
  28.8783145   2.7175963  13.9378119  29.7432375   1.5594879  14.3868983
  12.3208414   8.8666111   8.0785573  12.2268568   9.7223455   8.4970284
  11.4547907   8.4661883   8.1550235  24.0271688   9.1467810  10.7509220
  23.5168767   9.2100394  11.5582836  23.4250498   9.4327819  10.0639808
  38.1761670   7.6987886   3.8560933  38.2253814   6.8478948   4.2917415
  39.0867877   7.9224151   3.6637524  40.6267834   8.8028544   3.6660966
  40.8838081   9.0452433   4.5557141  41.4408779   8.5183728   3.2506993
  28.9538312  33.2265186  28.6032887  28.0449533  32.9415274  28.5086667
  29.0073586  33.5633063  29.4976828   0.3439890  11.6971827   6.9996810
  -0.1121820  11.7876244   6.1630464   0.0419508  10.8582044   7.3477018
  44.0723658  15.0947237  25.8723668  43.5933018  15.7777238  26.3416636
  43.8775635  14.2911112  26.3545406   4.7965942   1.5265901  15.6665933
   4.5192038   0.9636866  16.3893831   3.9791857   1.8184808  15.2630210
  38.4866738   9.9781102   1.4631790  38.8279629   9.1790581   1.8647642
  37.5740933   9.7730279   1.2597854  34.4045162  44.9637123   8.1887293
  34.1989827  44.1415044   7.7438015  33.9433408  44.9050494   9.0254533
  41.7354679  53.4705549  15.4958848  42.1421862  53.4178206  14.6309975
  41.8015432  52.5822150  15.8461956   6.1489521  10.9449637   6.6934651
   6.2922703  10.0010908   6.6241980   6.6261326  11.2024224   7.4822909
  41.1482143   4.3543890  18.7745810  41.3777971   3.6320978  18.1899261
  40.1911020   4.3673041  18.7749231  44.6259117  55.8225259   8.6299437
  45.3118706  55.9143113   9.2912042  45.0029135  55.2367420   7.9734683
  41.7407703   6.9160557  17.9991460  41.1127901   6.9537073  17.2777188
  41.4337826   6.1932343  18.5464311  32.0773865  55.0762127  25.2671198
  32.2699429  55.6356956  24.5147017  31.8389226  55.6867007  25.9647385
  32.0740843   4.1432756  26.3369161  32.3490095   3.9806741  25.4345808
  32.7107954   3.6679181  26.8706450  28.1765032  10.8769715   8.4556383
  27.5103998  10.7835233   9.1366714  27.8230286  10.3960764   7.7072889
  35.4252148  39.5512982  30.5008070  35.8247995  39.1015681  29.7562904
  35.9653592  40.3313192  30.6274622  43.9699841  -0.0333755   1.3319089
  43.6975813   0.8718248   1.4823797  44.8923731  -0.0514841   1.5870544
  39.3790889  47.2078194  20.9521127  40.2329445  47.6268800  21.0595798
  39.5359063  46.2872764  21.1624455  36.7976475   9.4338399   5.6899709
  37.6657033   9.6689081   6.0177684  36.9678521   8.7940562   4.9986398
  34.2162991  14.8596525  21.9725481  33.7373281  14.1869926  22.4566415
  34.8104239  15.2421355  22.6182691  41.9365883  48.9222392   8.3213276
  42.7600098  49.3922003   8.4530401  42.1257830  48.2996758   7.6192933
   3.9139114   5.4135734  23.5836587   3.7186752   4.7868395  24.2803064
   3.8842999   6.2677181  24.0146938  31.3447213   8.8553029  20.6752471
  32.2281766   9.1562206  20.8878258  31.1823797   9.1924405  19.7942165
  36.6710615   0.7415251  10.1216292  36.5566278   0.0595817   9.4597459
  37.4900603   1.1743340   9.8804814  41.7535686  50.8344873  16.6706467
  42.1938372  50.3106769  17.3399913  40.8292103  50.5997457  16.7524302
  13.1876360  19.0218008  11.1978292  12.4818502  19.3240523  10.6262183
  13.5253035  19.8200393  11.6040671  36.1028934  45.8918079  11.8843925
  35.9727621  45.0252517  12.2695923  36.4969206  45.7172724  11.0296929
  40.9960461  11.2116849  22.5016961  41.1150455  10.3048027  22.2194991
  40.2467489  11.5239918  21.9944934  35.4955077  52.4184086  12.8882658
  35.2101517  53.0964770  12.2758710  35.7472086  51.6824122  12.3304236
  39.0829444  52.9423573   8.8131309  38.2860732  52.5322940   8.4768653
  38.9342904  53.0173495   9.7557390  32.1615887  11.9970477  14.2690885
  31.8309951  11.1902106  13.8741779  32.9125047  12.2388542  13.7269747
  29.8299670   2.5957805   6.1749762  28.9051056   2.6265410   6.4197534
  29.8547840   2.0300812   5.4032242  38.5306239   5.4006457   5.1825309
  38.0504680   5.7465887   5.9348649  39.4271159   5.2920014   5.4999155
  23.7775731  17.4453557  11.8966985  23.3747125  16.9998050  11.1514342
  23.7748551  18.3708727  11.6524780  32.8272438  20.3290009  20.1918689
  32.7427840  19.4303453  19.8732523  33.7445831  20.5532932  20.0356308
  40.3721046  13.4222269  11.2270772  39.9692988  13.3594501  12.0931244
  40.4912233  12.5132155  10.9518683   4.3076311   8.9432204  23.5418987
   4.2428528   9.3930030  24.3843532   3.4007965   8.7534183  23.3013678
  37.5972724  48.4354629  18.9558017  36.7981291  48.4301241  19.4826543
  38.1518507  47.7651896  19.3550587  34.4016409   6.5834844  21.4118457
  35.3093863   6.3998193  21.6537070  34.4404507   7.4249792  20.9573007
  30.9522557  46.9327780  23.2393551  31.5071917  46.9284584  24.0192652
  30.1183677  47.2933730  23.5407376  38.3102512  24.0969849   6.1747885
  39.0829754  23.9134645   5.6405133  37.6456642  24.3784332   5.5460256
  24.5257807  19.9230933  15.7908964  25.1049399  19.2111862  15.5188787
  24.8847461  20.7005715  15.3632259   9.0862547  51.8856981   4.9784827
   9.8452793  52.4393591   5.1617169   8.3316933  52.4456101   5.1611412
  10.1339089  48.6574241  14.1669178  10.1867710  48.8668885  13.2344151
  10.3810106  47.7341589  14.2193913  31.2755990  19.8024738  15.3007984
  30.8025050  18.9921606  15.1115716  31.9985247  19.5312214  15.8665121
   4.3273722   1.7882329  28.3307624   4.6402203   1.5621166  27.4548459
   4.9431025   2.4522002  28.6410165  44.1658163   5.2353328  31.0623974
  44.0456104   5.7024425  30.2356019  44.9368286   5.6423318  31.4575285
   5.9767996   8.2733774  30.9398893   6.5600716   8.6168677  30.2631031
   5.7255016   9.0419394  31.4521336  27.5001264  18.9502120   5.0490916
  27.4425864  19.8398280   4.7005177  27.5491834  18.3916950   4.2732796
  21.6968036   3.0655816   1.5911202  21.1286068   3.0171755   2.3599114
  22.4253297   3.6220989   1.8663891  27.1448612  13.8774645  27.9203296
  26.2312651  13.7481630  28.1749949  27.2110271  13.4763062  27.0537699
  34.8311996  42.4456795   6.7540461  34.6848321  42.5893744   5.8190811
  34.7802186  41.4958700   6.8612593   0.8367859   5.8228832   5.7874501
   1.2363802   6.5703726   6.2322140   1.3304077   5.7376164   4.9717933
  27.3040056  16.9976890  10.0662076  27.7018332  16.3407671   9.4948769
  26.5554690  17.3263812   9.5683289  31.5193272  19.7260535  10.0233817
  30.6711650  19.2896807   9.9431795  31.8240070  19.4978249  10.9016275
  28.9230728   2.5205338   0.5568212  29.0932202   2.4835865  -0.3844103
  27.9702425   2.4662341   0.6302837  28.5637093   3.5516611   8.7487614
  29.0406895   4.1468588   8.1704354  29.2149591   2.9021966   9.0138996
  23.6463261  19.1614509   4.1331106  23.9151764  18.5128725   3.4824973
  24.2789555  19.8733616   4.0372211   9.1915546  55.5481950  12.5099730
   8.6847054  55.1614286  13.2239413  10.0951992  55.2887421  12.6898146
  30.6601119  10.2833009   9.7896820  30.3513217  10.6885099  10.6000447
  29.9729323  10.4719377   9.1505951  35.3237867   3.3503465  23.2166147
  35.5372167   3.6022262  22.3181510  34.3943024   3.5592822  23.3095598
  39.9617338  53.0423450  22.2001505  40.0856972  53.3458471  21.3008451
  40.5921459  52.3291922  22.3012996  19.8886204  47.2088099   8.3241781
  19.8037839  48.0478048   8.7770828  20.8295298  47.0330143   8.3198866
  27.6223087  49.2503595  26.9608879  27.3509598  49.0721321  27.8613520
  28.5597968  49.4327068  27.0248818  44.4301256   1.1307982  12.1864891
  44.3712064   0.3114013  12.6777577  45.3697377   1.2947015  12.1058881
  15.1439452  33.3448553   4.1321715  15.3919232  33.4724140   5.0478515
  15.6202567  34.0263271   3.6578783  14.3291879  45.5348969  30.4565430
  15.2017438  45.2542496  30.1806569  14.0583444  46.1655760  29.7893667
  19.7083759  52.5705719  20.4725218  19.4172657  53.2338190  19.8467457
  20.3691220  53.0156040  21.0031796  29.2993498  12.2670106  20.2017260
  30.2464390  12.3671845  20.1057124  29.1533923  12.2650365  21.1477304
  16.1884332  44.0660191  22.6699638  15.2854109  44.3621731  22.5556087
  16.1412978  43.4204578  23.3751321   8.5852134  45.1301336  24.2456770
   7.6986402  45.2680492  23.9122128   8.6692530  45.7532072  24.9674439
   4.6339594  42.1233511   3.3094391   5.5805336  42.2649288   3.3232125
   4.2593943  42.9991674   3.4036430  33.3079004   6.6049699  16.8907714
  33.3516359   5.8309964  17.4522722  33.0442047   7.3128108  17.4786985
  28.9285374  14.8988799   8.7476057  29.3369722  14.1039256   9.0903264
  29.6453714  15.5305556   8.6895746   6.9667035  35.8261609  23.2220435
   6.5115023  35.4019237  22.4946880   7.1817195  35.1104236  23.8201404
  24.8012042  31.1222816  13.0239069  25.3673673  31.6795921  13.5578501
  25.0380230  30.2295423  13.2752347  22.4022245  37.5252676  23.4587193
  22.0251727  37.5917387  24.3360138  23.3236599  37.3143578  23.6093950
  13.6422825   9.7248582  15.9100556  13.6066186  10.3014020  16.6733098
  14.5622969   9.4684438  15.8463585  34.4859195  44.6037674  25.2024508
  34.2001200  44.3044662  24.3393350  34.7435546  45.5155754  25.0665736
  44.4724751  48.9763641  22.3744282  44.5941496  48.9351654  23.3229669
  45.0107956  49.7172070  22.0958551  32.2902322   4.0502480   0.5898961
  33.0219197   3.4470300   0.7202515  32.2002602   4.1157273  -0.3608147
  35.2497220   7.6920155  15.7430824  34.8469877   7.9970197  14.9300608
  34.5209384   7.3395566  16.2538513  21.8160748  20.2237967  19.5267916
  21.5559244  20.3883676  18.6204410  22.1479058  19.3259744  19.5214725
  16.0781407   8.5657147   2.2083291  16.3145745   9.4634513   2.4415645
  15.3600359   8.6619786   1.5827974  16.8407834  42.1418524  14.0577364
  16.5332258  42.0093870  13.1610239  17.7245736  42.4956894  13.9580107
   8.0680299   8.8832597  25.1417518   8.2034540   9.0463141  24.2083168
   8.7826353   9.3519525  25.5729103  20.6907630  38.9134312  18.9115608
  21.0900331  38.5194182  19.6871686  20.0531650  38.2642722  18.6144197
   8.5956681   9.4144134  22.4465370   8.8558823   8.5657529  22.0883584
   9.1233134  10.0502805  21.9633245  26.4301205  54.3362570  15.4395700
  27.3803234  54.2224836  15.4597068  26.2870669  55.0457048  14.8131084
  26.6766715  41.6545963  11.4084324  27.4802113  42.0268869  11.7716869
  26.1186028  42.4126577  11.2348541  29.4796681  42.7395105  22.6177645
  30.1438260  42.0511532  22.5818038  29.2283368  42.7818727  23.5404062
  29.8511577  48.2679987  20.6405306  29.3405843  47.5306177  20.9749198
  30.5311537  48.4069967  21.2997079  23.5688663  46.5365791   0.3738865
  23.3511829  46.0156345   1.1468443  24.5240211  46.5976238   0.3874191
  29.7724867  -0.2440759   1.0611709  29.2155957   0.5341605   1.0399326
  30.2098083  -0.2025147   1.9116148  32.6304317  47.6619720  25.5491066
  33.5451722  47.3805094  25.5330825  32.6472616  48.5513306  25.1955676
   9.7471166   1.3399438   1.9836935  10.5450058   1.8555001   2.1011909
   9.9724430   0.4708842   2.3156532   9.2213506  45.3288698   1.8571956
   9.4743699  45.6469870   0.9905843   8.7748498  46.0714388   2.2639643
   5.9143770  52.0423222  20.7360148   6.0054725  51.7389345  21.6392803
   6.7445260  51.8094444  20.3202605  18.0704820  38.0967689  27.3198509
  17.6381338  38.8330340  27.7525401  18.5307956  37.6413941  28.0248165
   9.9987292  54.9378681  24.1752625  10.2468002  54.0252638  24.3230534
  10.3429258  55.4058456  24.9360228  28.3302355  43.5444593  17.0110011
  28.0155921  44.3765450  16.6576409  27.7249241  43.3431053  17.7246451
  24.0144825  17.0248584  30.2805403  23.1450319  16.6299323  30.3462691
  24.1449642  17.1619443  29.3422369  27.6408434  51.1526251   4.0944823
  27.2843361  50.3041887   3.8312467  27.0032358  51.4966726   4.7200378
  27.3887181   4.4107799  13.6329556  27.2397065   4.7811011  12.7629614
  26.8387580   3.6277226  13.6573553  25.4501963   6.9988469  25.3146291
  25.3547192   7.9510669  25.2946067  26.2911773   6.8515042  25.7473803
   9.4449693  42.4960566  19.2978442  10.2130640  42.7175951  18.7713635
   8.8277447  42.1157932  18.6728108  19.6648133   7.6332406  24.1034389
  19.6638560   7.1069364  23.3039165  19.2220151   7.0852689  24.7514296
  25.9386134  53.4867716  10.5651212  26.2909365  53.6906242   9.6987814
  26.3322186  54.1400290  11.1435354  39.3688965  53.6340714  13.5179079
  39.2720032  52.8668404  12.9538214  40.2214813  53.5170841  13.9370084
  16.3178742   5.7817725   9.9449810  15.5090487   5.9832028   9.4743856
  16.0247338   5.4388884  10.7892116  16.9050336  45.5889654  20.2763724
  16.7936182  44.9987078  21.0216331  17.2395527  46.3993406  20.6605887
   6.9956678   0.5298118  29.2704721   7.3174703   0.2723769  28.4065259
   6.0684520   0.7235459  29.1327402  20.2511907  29.6701813  28.4126329
  20.3229165  29.0422249  27.6937747  20.1418757  30.5173254  27.9806304
  30.5677605  44.0632486   0.6289491  31.1236858  43.3270168   0.3737244
  31.1829424  44.7617865   0.8521661  23.0563974   7.1765260  26.4521527
  23.0825639   8.0827741  26.7591834  23.9469099   7.0007829  26.1482930
  23.4105325  53.9337826  30.2903295  24.0668178  54.2809820  30.8944607
  23.1011438  54.6997213  29.8067498  10.3393018  -0.0716277  15.9665418
  10.4256105   0.8765487  15.8678210   9.4110239  -0.2451869  15.8103073
  18.1330740   0.5734614  29.1545653  18.9061022   0.8379296  29.6532822
  17.5992513   0.0851039  29.7812796  28.9235878  46.3133717  12.2436070
  29.2394710  45.7318258  11.5520489  29.7173905  46.6074610  12.6904011
  26.0711074  44.4527435   0.0934872  27.0065784  44.6536112   0.1213726
  25.9414029  43.8176632   0.7978186  13.5871601  43.9818096  12.1587646
  13.5681283  44.1542673  11.2174201  14.4960272  44.1413975  12.4131727
  31.9191027  14.4708613   6.4517331  32.0144629  15.2730445   6.9651961
  31.9184589  13.7687234   7.1022987  15.5130422  49.6875572   9.4874543
  15.2940023  50.6036282   9.6579432  15.2126753  49.5321274   8.5919923
  23.7526584  53.1822252  24.7304463  23.5987091  52.2484159  24.8737144
  24.4220400  53.2125092  24.0468931  21.9603896   0.6395606  11.8304610
  22.8150272   0.9652547  11.5480661  21.3316131   1.2450675  11.4377308
  17.7685905   8.4425429  28.2596922  17.3399198   8.7620620  27.4657273
  18.6535585   8.8047437  28.2164049  41.5787745  14.7076682   0.9911474
  41.5406561  15.5660562   0.5693086  41.1386538  14.1194753   0.3775057
   2.4210867  51.8161011  17.3296392   2.8692454  52.6393127  17.5238407
   1.5051681  52.0653296  17.2063100  16.3991797  54.0155315  10.3472504
  15.7849634  54.3731642  10.9883961  17.2610843  54.1458321  10.7426914
  35.3996706  39.5532274  27.4240965  35.6162786  38.8846636  28.0739689
  35.5137563  39.1139197  26.5813482  24.1990566  35.7817650  17.7603281
  24.6699309  36.4892840  17.3199570  23.3504152  35.7477570  17.3188698
   2.2108681  49.1858435  19.4863963   2.3698415  48.6551857  20.2670145
   3.0772609  49.5037556  19.2323780  31.3238978  51.6725492  19.3763959
  31.1770678  51.3773155  20.2750111  30.5258060  51.4249563  18.9095175
  37.8962016  53.7462234  23.8571835  38.5043645  53.3851242  23.2122207
  37.0327282  53.6397839  23.4580350  16.0462070  11.6923598  28.6559153
  15.2869391  11.6122369  28.0785728  16.3989437  12.5622157  28.4684062
  42.1565056   3.3365992   0.3270491  41.7341852   3.5119275   1.1679634
  42.7018213   4.1069631   0.1676616   8.8977104  44.3795586   6.6103172
   8.0798209  44.8527861   6.4575201   8.7220472  43.4912777   6.2999463
  16.6418958  52.8483915  16.9482791  17.4215436  52.3078442  17.0755291
  16.0663509  52.3136568  16.4014339  29.8535466  47.1890974  29.3404627
  30.4100251  47.9677105  29.3585253  30.2032065  46.6614008  28.6224723
  27.0650959  52.8822851   2.0736870  26.5120530  52.1324348   1.8543657
  27.5469828  52.6047421   2.8527817  15.5077541  45.6408358  17.4092126
  15.2906215  46.4179564  17.9241598  15.3162360  44.9060965  17.9920590
  33.8878846  41.6209173  10.1213944  33.5098314  42.4962044  10.2060926
  33.1405830  41.0549450   9.9278754   6.7260396   7.0496634  13.8968595
   7.6773942   7.0084695  13.7995991   6.5701669   7.8565959  14.3875727
  31.2395787  36.4944363  23.0488110  31.6552353  36.1852503  22.2439098
  30.8251047  35.7150650  23.4189796   1.3834368  49.0966892  14.2260802
   1.9674479  48.9795208  14.9753702   0.7434069  48.3897114  14.3084025
  40.9359932  54.7221613  20.0660396  41.4764166  55.5111217  20.0245547
  41.5213251  54.0162134  19.7917056  34.6730399  33.4240842  24.2284775
  34.7779155  32.6134944  23.7303019  35.4576373  33.4727788  24.7746181
  12.7570593  26.9888973  16.4329648  12.8263247  27.6839924  17.0873940
  13.5569108  26.4749289  16.5438926  28.2926273   9.8079900  29.4415498
  29.1607356  10.1897839  29.3117142  27.9946899   9.5850352  28.5596442
  38.6911368  51.5672064  18.3100283  38.2405472  52.2822285  17.8606462
  38.0127358  51.1554241  18.8452268   4.0214843  37.0550370  23.6979961
   4.5399648  36.2504554  23.7055111   4.6515873  37.7440548  23.4871507
  35.9320831  22.6854968   0.6610068  36.2874055  23.4264064   0.1700553
  35.9823298  22.9589057   1.5769514  36.6046596  42.0476580  10.2849754
  36.8289256  41.1890030   9.9262985  35.6509471  42.0937204  10.2175697
  20.6129837  50.6703234  15.6937170  20.6054974  49.7295904  15.5170798
  21.5396643  50.9095907  15.6780648  23.7015152  12.7396039   5.4137763
  24.4402957  13.2563237   5.7353910  22.9279709  13.1950740   5.7460531
  27.1130943  52.8117371  25.4195380  26.6499925  52.3975992  26.1477280
  26.6201806  53.6140299  25.2475095  44.4923830  49.1843796  11.0759151
  43.7342167  48.6448526  10.8515894  44.5442724  49.1394281  12.0306504
  26.2696981  50.8499098  15.2390850  26.2762022  51.8070889  15.2372837
  27.0440030  50.6041813  14.7328258  10.7474530  49.3483019  24.4339538
  10.4490304  48.9697313  23.6069942  10.4050076  50.2421093  24.4255900
  20.7980585   0.1380185  20.6785420  20.8790660   0.0051669  19.7340742
  21.2585568   0.9604768  20.8450917  17.9307055   6.9789247  18.0271590
  18.0013692   6.5387610  18.8742113  17.9178500   6.2668876  17.3875725
  15.4178548   6.1973170  26.0458220  15.4410446   5.8316258  26.9301090
  14.5661163   6.6302422  25.9879315  33.9708638  55.1565456   2.7918968
  34.1058540  54.9846935   1.8599753  34.0706635  54.3013191   3.2100660
  14.1734755   6.7563418   8.5352427  13.4999979   7.1542481   9.0869021
  14.1449606   7.2598485   7.7216715   2.9436129   0.0781659   6.7943245
   3.5179096   0.4756955   7.4488372   2.2311580  -0.3080150   7.3037392
  28.4231019  45.4599047   1.2984478  29.1030383  44.8260260   1.0701635
  28.5404038  45.6095552   2.2365722  29.3477106   4.5416860  22.3685560
  29.2417264   3.6398915  22.0656214  28.8324261   5.0632028  21.7531458
  37.1756268  55.9053373  21.5045879  37.8912616  56.2687635  22.0261446
  37.5949621  55.6070805  20.6974736  13.1033337  53.1441259  25.4603601
  13.6043930  53.9480782  25.5975819  12.9219627  53.1324053  24.5205736
  10.8924663  48.5841846   1.8818194  11.7092896  49.0151596   2.1333984
  10.2369571  49.2813349   1.9045523  26.2433052  43.8197088  21.8133950
  26.2645602  43.8660336  20.8575535  27.0007753  44.3327332  22.0949554
  34.3535399   2.0510129   3.9680776  34.5417047   2.9891709   3.9942515
  35.1578188   1.6546754   3.6329913  41.0036325  45.0848722  13.1341791
  41.5324497  45.3830099  13.8742459  40.3621006  44.4899750  13.5224593
  14.4597840  53.6275768  20.4965809  15.2580774  53.7692738  19.9877766
  13.8457632  53.2367134  19.8749415  25.8032537  44.4502831  18.9698958
  25.3981352  43.6396790  18.6616218  25.1461720  45.1256084  18.8013339
  27.4615192   9.4187383  19.4984547  27.3846579   9.0162400  18.6333994
  28.0124164  10.1885156  19.3563679  30.2504396   2.3998431   3.1674352
  30.2432513   2.3738698   2.2106144  30.3936577   1.4907531   3.4306401
  26.1864686  26.2241793  12.5134504  25.8959317  25.6599069  13.2299829
  26.9417644  25.7689524  12.1412551  33.2508111  49.1125870   4.2725772
  32.7017641  48.7605000   4.9731588  34.1448832  49.0291882   4.6041059
  21.5362597  42.9938078   0.8611491  20.8931947  43.1070042   0.1612296
  22.3683763  42.8709030   0.4043027   9.4615769   9.8002604  16.1996571
   9.3246776   9.2446355  16.9669715   8.6371601  10.2759484  16.0982422
  29.1234827  42.6091957  12.2325385  29.3083405  41.7572498  12.6278245
  29.7155738  43.2141256  12.6794374  21.3692379  44.5454216  26.7729354
  21.6029000  45.1700163  26.0862684  21.9855618  44.7276402  27.4822831
  21.4322519  39.1416931   7.7414352  20.9932280  38.7973595   8.5192043
  22.3443913  38.8690090   7.8408188  27.1506882   9.1851548   6.5689099
  26.2062526   9.3400506   6.5521538  27.4619818   9.5117692   5.7247233
  18.0184019  49.5402050  27.8434319  18.1251371  50.0128460  27.0179299
  18.9121401  49.3435049  28.1240935  19.4621181  46.4707279  25.3140545
  19.7885489  45.5818605  25.1740885  20.1594877  46.9077921  25.8028102
  39.8331976  51.7353582   2.3911497  39.0245390  52.2409248   2.3092666
  39.8905993  51.5246391   3.3231020  23.3011580  -0.2089902  22.7146554
  22.9402423  -0.2189895  23.6011505  23.2638717   0.7104901  22.4512291
   8.3235359  51.6518164  19.4651893   8.9319217  50.9985209  19.8105935
   8.7619197  52.4896288  19.6139196  21.1385202  54.1481638   5.0364989
  21.0720468  54.8343515   5.7005489  20.9161401  54.5870829   4.2154440
  38.6001205  10.8742408  11.2885988  38.9909577  10.0052861  11.1969292
  38.4489846  10.9709052  12.2288346  29.8922324  45.7970715  15.6949759
  30.1793361  46.1811924  16.5233803  28.9571548  45.6336451  15.8180797
  24.5913434  40.4455280   7.2277105  25.4381251  40.2188969   6.8432254
  23.9625287  40.3102970   6.5188134  31.2014008  45.5191898   4.6311751
  30.9467578  46.4110184   4.3944681  32.0764923  45.6119490   5.0077921
  20.6625700  50.7808447  27.4197817  20.8763361  49.8573971  27.2864604
  21.0295224  50.9900427  28.2787442  15.5025458   1.2143973  20.5075431
  15.0679767   0.8602408  21.2833977  16.4069021   0.9090547  20.5792117
  31.5596104  53.9337492  29.6669418  30.8681464  53.2719278  29.6769189
  31.1757660  54.6741104  29.1970906  29.6823907   5.2601508   6.8569738
  30.3649545   5.8457545   6.5292430  29.7967672   4.4538382   6.3539761
  25.3254604  42.5272417   2.1585183  26.2540793  42.7065754   2.3059531
  25.2039123  41.6279268   2.4629684  21.5695858  54.3112326  13.3111846
  21.5885282  55.0873518  12.7512646  20.8957505  53.7526846  12.9236233
  34.4573021   6.4201621  24.1858959  33.6095643   6.0840777  24.4767857
  34.4307160   6.3438491  23.2321119  26.1242461  31.8222547  19.8391616
  26.5464759  32.0447755  20.6688833  26.8475151  31.7343426  19.2183685
  14.1211498  55.6117344  25.7831195  14.1590941  56.4441586  26.2541432
  14.8812294  55.6307173  25.2016125  11.8539190  46.0386992  27.8782386
  11.4107728  46.3510227  27.0893732  12.7763450  45.9831429  27.6286904
  22.3304510  51.5992451  29.6030443  22.1743846  51.2393332  30.4761641
  22.7578354  52.4405432  29.7636547   4.9713552  34.4189715  21.9984922
   5.2077305  33.6864877  21.4294336   4.1817293  34.1245198  22.4523876
  24.9859047   8.2151011   3.2450330  25.4871202   7.5090436   3.6530766
  24.0746260   7.9288701   3.3072624  21.3333106  56.1703587  17.8843427
  22.2705150  56.2404203  18.0659246  21.2604284  55.4281664  17.2842884
  10.8822727  51.7751646  12.4807489   9.9465978  51.5820980  12.5396597
  10.9917712  52.1676922  11.6146314  21.5785289  44.4278049  23.9699960
  22.0488143  43.6030340  24.0917349  20.7539535  44.1743660  23.5551739
  19.8850381  47.4410486  22.0732808  19.4600832  48.1979084  22.4767756
  19.3633819  46.6918421  22.3610234  20.1919198  44.7530890   3.8392344
  19.8542094  43.8787651   3.6449704  19.9359345  44.9123240   4.7477213
  28.1697130  42.3968792   1.0557248  28.6281729  42.1480799   0.2531394
  28.8599634  42.4610615   1.7157741  33.2675433  39.4294977  15.9074795
  32.3986864  39.7191405  16.1857378  33.1934237  39.3271542  14.9586570
  32.7567792  50.2174234  25.1240245  32.3404837  51.0218096  25.4336861
  33.6942840  50.3740978  25.2370295  33.6725903  46.4026642   5.8906239
  34.3289876  47.0676088   5.6827199  34.0262723  45.9477186   6.6549301
  41.8889475  54.4589901  23.7992120  42.8169870  54.2371607  23.8751054
  41.5410185  53.8230371  23.1741190  25.9908462  49.1213274   9.9405229
  26.5222311  49.3855762   9.1895008  25.2942157  49.7763824   9.9833763
  19.9503350   8.9389256  19.9938726  20.0773001   7.9905919  20.0216937
  19.2061031   9.0980653  20.5744123  28.0290985  35.5450535  19.3372822
  28.3051562  35.6698322  20.2452755  27.5506592  36.3452029  19.1202927
  27.7470779  48.7157917  12.2275615  27.2193170  48.6946011  11.4292812
  28.0974078  47.8285265  12.3066962  36.7836356  50.4204082  10.3952789
  36.7294407  50.3350830   9.4434315  36.4937687  49.5712900  10.7287598
  11.3339698  37.0975494   6.2437373  11.9913197  37.7926970   6.2138677
  11.7441010  36.3604736   5.7912517  26.7080259  39.7989583  25.9213713
  27.0340514  40.2958393  26.6717366  26.5710711  40.4568386  25.2397040
  26.3343000  37.9511046  20.8352590  25.6566405  37.2822976  20.7367373
  26.9153142  37.6053762  21.5128469  44.8068237   8.5003165  28.6806663
  45.0216293   8.2577018  27.7799842  44.2128420   7.8115729  28.9790749
  38.9531922  45.1916170  15.6779277  39.1464901  46.1178493  15.5331242
  39.4700933  44.9566984  16.4485502  19.0445375   5.8275536  21.9322181
  19.4826341   5.8508901  21.0814786  19.3542790   5.0183515  22.3390079
  16.7125475  45.6360149   1.7775096  16.9736004  46.3323832   1.1748853
  16.6271400  44.8597860   1.2239709  22.2604799   6.5475015  15.3946841
  21.3681126   6.8936089  15.4055727  22.8187728   7.3249272  15.3824377
  25.6342149  13.0395965   1.7558600  25.7696533  12.1394948   1.4597112
  25.4432368  12.9581288   2.6902705  31.3443971  50.5979872  22.6740885
  30.6856799  50.5831289  23.3684254  32.1260929  50.2204800  23.0774188
  30.9477520  41.7594624  27.1267414  31.8924642  41.8360567  26.9930148
  30.8005357  40.8238459  27.2652435  20.0767946  41.9381094   3.0085889
  20.1841974  42.4895859   2.2336233  20.5535460  41.1349869   2.7989829
  23.0131269  41.8882799  23.9877081  22.3482108  41.5174627  24.5678926
  23.6600399  42.2724199  24.5794654  25.3655052  46.2838650  24.6439037
  25.8419371  45.7294273  24.0259675  25.3119135  45.7602549  25.4433981
   8.6509007  40.2547693   9.8579061   9.3068671  39.5742154   9.7069579
   9.0392470  40.8173466  10.5279255  36.7669106  17.2947101  29.7138333
  37.2707844  18.1079511  29.7451939  37.2980738  16.6649083  30.2011166
  29.5270300  41.1119175  19.7663128  29.3551373  42.0500135  19.6847117
  28.6583996  40.7121468  19.8098588  24.0386033   4.5022658   1.9155963
  24.8075032   4.1648034   2.3750998  23.8150406   5.3075866   2.3821925
  17.2751641  54.5427132  18.9887166  17.8051293  55.0899887  18.4091830
  16.9237864  53.8594818  18.4177876  23.3137321   8.4324912  17.3134601
  22.6913929   9.0267018  17.7327895  23.9781475   9.0089301  16.9359648
  43.0898814  52.8279018  19.6536732  42.4567546  52.1116114  19.7017503
  43.9431508  52.3941660  19.6596181  17.4483764  46.7999172   9.3659174
  17.9582345  46.2925339   9.9974525  18.1010640  47.1609211   8.7659955
  22.3700023   4.8126964  13.5476065  22.3934054   5.4814748  14.2320132
  22.1565437   5.2948789  12.7487528  27.2446799  43.0154371   4.7711089
  26.4600062  43.3921909   5.1693195  27.6570868  43.7486029   4.3143630
  25.3578711  43.7218761   7.7017576  24.8613167  44.4994593   7.4467462
  24.6907783  43.0852556   7.9585314  41.0749435  39.6836996  16.7228702
  41.0918903  40.2532434  15.9537390  40.2877808  39.1510820  16.6091982
  13.5959423  24.5370102   2.8800106  13.2274902  24.3191123   2.0238590
  13.0087709  25.2070928   3.2299438  34.0526414  51.0236597  18.6671019
  33.1310630  51.1754274  18.8766098  34.0609860  50.8672905  17.7227986
  15.9211469  41.6347313  10.7439756  16.6567826  41.6479826  10.1316869
  15.7845235  42.5537491  10.9741497  32.7584386   2.4963168  21.4303807
  33.5050321   2.1335629  20.9536824  32.1040058   2.6704005  20.7538859
   4.1924572  40.2867603  15.9723202   4.6378949  39.5227933  16.3386181
   4.8786506  40.7625866  15.5043892  14.1751254   2.7147750  16.6153765
  15.0174952   2.3663787  16.3233697  13.8777936   2.0953492  17.2818100
  31.9097447  46.3685465   0.9862503  31.1702847  46.9110584   1.2603124
  32.5218391  46.9840431   0.5828484  22.5001335  37.7035689  20.8670330
  22.6455760  37.7853227  21.8095803  23.0179667  36.9406486  20.6100655
  30.3790283  39.0281534  27.6272511  31.2381625  38.6148429  27.7126503
  29.8024821  38.3234024  27.3320317  18.6937392  41.1381340   5.2564248
  19.0581310  41.4796305   4.4398269  19.3240798  41.3994122   5.9277185
  12.9948819  38.5425472   2.2053536  13.2081461  37.7009773   2.6084765
  12.9852033  39.1620255   2.9350003  16.1015773  39.2212415   8.7131232
  16.4093518  40.0186253   9.1440368  16.7889059  39.0098381   8.0813628
  17.0122504  37.7146626  12.8373361  17.4763751  37.3293805  12.0941150
  17.6619589  37.7370906  13.5399079   7.5165188  37.5461411  29.7415853
   6.6321921  37.5158262  30.1066589   7.9901844  36.8544197  30.2035332
  26.8342948  40.6343985  20.4096913  26.0103273  40.9880924  20.7446623
  26.7564964  39.6883464  20.5328465  16.5619659  30.2198935  28.7502360
  17.2495878  29.6200824  29.0394378  15.7486296  29.8149300  29.0514326
  15.1996362  22.4302697  29.4119477  15.7840872  21.7474604  29.7412181
  14.4261622  22.3745704  29.9730754  32.3856211  37.2683978  19.0679240
  31.9971490  38.0923152  19.3619978  31.9236469  36.5943885  19.5664454
  13.0073535  15.6597626  13.2522726  13.1495357  15.4846621  12.3220277
  12.7415311  14.8156333  13.6169863  21.4280272  30.1123118  22.5707340
  22.3693657  30.0124693  22.7126646  21.1163902  29.2240071  22.3974419
  34.8667789  43.3793211   4.3300566  35.7608151  43.4406948   3.9936622
  34.3720794  44.0148640   3.8127645  19.2290926  36.0731292   1.4277300
  19.6538258  36.6708779   0.8124813  18.7226307  35.4791927   0.8736833
  32.5038958  35.0620747   0.6937727  33.1652498  35.2306104   0.0226268
  32.4533010  35.8786869   1.1905798   4.8860627  45.1141453   8.8067922
   4.6856007  45.5243540   9.6480831   4.0615639  44.7115421   8.5341295
  20.2608180  40.4364109  16.4770460  20.7384920  40.2275276  17.2798085
  19.3985951  40.7222366  16.7788875  29.5042682  54.3002176  26.9951487
  29.3764901  55.2464914  27.0620203  28.8519382  54.0150690  26.3553166
   7.7267681  41.2797070   7.6024112   8.1462704  41.1736012   8.4562215
   8.1051432  40.5862951   7.0618137  28.9062190  33.0347586  25.6347275
  29.1407609  32.1752930  25.2846718  29.3104410  33.0585527  26.5020633
   8.1180966  34.2650676   3.4371766   7.2087789  34.1120291   3.6939892
   8.4151751  34.9678612   4.0151557   3.2017010  44.6406460   4.3280941
   3.4425148  44.0988064   5.0795257   3.3065939  45.5401850   4.6380201
  16.6819608  34.0363765   1.7628344  16.9260192  33.1127262   1.8223413
  17.3356318  34.4915104   2.2936829  34.6167016  35.9353471  26.3715863
  34.5502138  36.1217809  25.4350734  35.0271273  35.0717092  26.4153242
   9.2526317  23.9868450  15.9438396   8.7445599  23.4169269  15.3665268
   8.8825846  23.8376355  16.8139172  20.2854037  37.7158475   9.9847969
  20.9457922  37.1647549  10.4048189  19.4795299  37.2013950  10.0310358
  36.6429305  37.6699209  14.3711245  35.7722449  37.3229241  14.1768754
  36.5803695  37.9823065  15.2737498  25.0115085  36.4748192  23.7048459
  25.9352732  36.5838194  23.9306927  25.0229764  36.0266924  22.8591013
  17.4163866  41.3339281  22.2829175  16.4889109  41.4913940  22.4596214
  17.4573946  40.4144287  22.0201182  21.9352603  19.8003888  16.8278515
  22.7114797  20.2570415  16.5035319  22.1101785  18.8759339  16.6517341
  24.2240787  49.8352861  13.2413995  25.1093769  50.0738716  13.5162711
  24.0804696  50.3339148  12.4370527  26.2651229  33.2272172  29.3688655
  25.6114388  33.5170484  30.0052023  26.3473845  32.2859049  29.5218253
  16.9458449  35.2342725  16.0018158  17.5218296  34.6836209  16.5321517
  16.5620422  35.8502412  16.6259241  27.7676773  53.2307386  19.7872984
  27.4158382  52.4738741  20.2559090  27.0092988  53.6125755  19.3453777
  25.4319763  33.3815956  26.4905667  25.6948304  33.8695049  27.2710061
  25.2598810  32.4953985  26.8087959   6.3818604  30.8242869  26.9173193
   7.3207074  30.9642076  26.7939520   6.2405103  30.9602690  27.8542089
  27.5416183  33.5442328   7.3215541  27.3083448  34.4698238   7.3929509
  27.7971506  33.2924867   8.2090005  44.4830418  36.4985013  -0.1779905
  44.4261312  36.3466477   0.7653722  43.8846016  35.8567452  -0.5604211
  32.5096297  29.6082640  25.1404691  32.9226780  29.0720415  24.4636464
  33.2385492  30.0584054  25.5674100   7.8767556  44.7567987  19.6167862
   8.7788725  44.4870090  19.4446540   7.3413157  44.0736246  19.2132902
   5.5418229  48.9194489  15.6609547   6.3842893  48.5538340  15.9307873
   5.7199132  49.3337393  14.8166347   7.6659817  28.5140753   8.8234147
   7.9345942  28.9040041   7.9915294   8.0951142  27.6585603   8.8365682
  35.6926823  41.4576006  23.7789059  36.1314917  41.6325903  22.9464054
  34.9996734  42.1160936  23.8274240  40.6218767  45.2538729  22.4731255
  40.5914164  44.3023205  22.3739052  41.5011740  45.4318571  22.8068876
  10.9485090  41.4427710   3.0901154  10.5422044  41.7916489   2.2967490
  11.6421366  40.8659124   2.7701935  12.2723627  47.6886654   8.0041754
  13.1866980  47.4642515   8.1769830  12.1785629  48.5822487   8.3342397
  19.4703758  43.0121851  22.9024124  18.6898994  42.4876499  23.0811644
  19.6471179  42.8694057  21.9725704   7.3029828  29.7239494  11.3322815
   7.2746259  29.4537878  10.4144319   7.4147177  28.9073253  11.8189749
  20.0897670  28.7632895  25.7895923  19.1786098  28.5770035  25.5630541
  20.2435732  29.6472359  25.4560995  19.7154915  34.9087787  23.9398670
  20.3534007  34.9559331  24.6519637  19.0596533  35.5697775  24.1616559
  11.0615790  41.1519384  26.3768816  10.6570733  40.9321642  25.5376530
  11.0416555  40.3340960  26.8738389  29.0840435  42.7785683  28.8023901
  29.8574424  42.6612425  28.2507348  29.3739653  43.3672810  29.4992352
   6.5634775  44.6235657  22.0203853   6.3089305  45.4764700  22.3725104
   7.1112895  44.8308277  21.2633014  25.0442266  42.9265881  26.0421205
  24.6518922  42.2689295  26.6163945  25.5525327  43.4853363  26.6300440
  32.4554563  37.0995212  28.0360293  31.9584775  36.3090849  27.8251910
  33.1787252  37.1020579  27.4090457   3.4643361  34.5170856   7.7579745
   3.8062122  35.2746034   7.2830829   4.0845722  34.3838811   8.4747704
  10.4992366  29.2659140   7.4518546  10.7105577  29.0189171   8.3521708
  11.3184333  29.6149516   7.1006855   9.9134642  38.4421134  20.5826926
  10.2127969  37.8185177  21.2443280   9.1108632  38.8133001  20.9491420
   9.7037864  29.4587111  18.9989698   9.3667883  28.9156699  18.2863891
   8.9805353  30.0477433  19.2138600  26.0983849  37.9002810   8.0841693
  25.1799464  38.1521606   7.9879364  26.4047551  38.3970714   8.8428315
  13.5278273  34.4895601  26.5927291  13.6124301  35.3196263  27.0618391
  13.9813292  33.8541174  27.1466064   8.7644070  37.9979730  27.2440934
   8.4460431  37.8750396  28.1383872   8.0770457  38.5056949  26.8128324
  24.5974326  31.4398932  16.2601089  24.2615318  31.4323950  17.1564043
  23.8595009  31.1471605  15.7253206  15.0812054  33.2098794  17.2943815
  16.0142601  33.3245373  17.1141180  14.9327540  33.6947775  18.1062111
  14.5058370  18.7289417  27.0682287  15.2053833  18.8197565  26.4212227
  14.7865450  18.0019474  27.6240301   9.0422773  32.0432401   2.4326929
   8.2540649  31.5199494   2.5780114   8.7770015  32.9389215   2.6415309
  26.9425368  45.6758165  15.9377158  26.6022944  46.5555429  15.7747698
  26.1797976  45.1040840  15.8506215  16.6376352  47.0962048  15.2100945
  15.9466195  46.9960451  14.5553458  16.2800062  46.6903210  15.9997737
   9.3501401  35.6290388   7.3440441   9.7127306  34.7505164   7.2302040
   9.9527943  36.2004137   6.8680486  45.4355717  33.6628914  28.6002970
  44.6136808  33.7336731  29.0858006  45.2530336  33.0228186  27.9123878
  21.3687444  33.9511180  29.4066715  22.1343184  34.4584394  29.1369462
  21.7053890  33.0662632  29.5478606  22.1136141  37.8713131  26.2360501
  21.9682479  38.6080265  26.8296432  23.0572367  37.7153254  26.2745070
  30.0334597  28.1981611  13.7615919  29.3654776  28.3047962  13.0843472
  30.8198047  27.9354858  13.2831621  26.5241194  49.8271322  22.6633525
  25.8404469  49.2908478  22.2618318  26.2305832  49.9532795  23.5656571
  23.0146027  46.5527439  21.8606544  22.2428703  46.8711996  21.3924193
  22.6894641  46.3259315  22.7319026  33.0914450  28.7266326  31.0952097
  33.0886841  28.9107585  30.1558902  33.0658078  27.7714682  31.1521229
  20.5943990  29.7100925  18.2024610  19.7094703  29.9196601  17.9037726
  20.7835031  30.3680873  18.8714266  27.7486563  29.4534063  27.4673843
  27.1090198  29.4146252  26.7563343  28.5804987  29.2221332  27.0541263
  24.0613651  41.3586760  28.0182624  24.9543619  41.1055803  28.2522106
  23.7931538  41.9602156  28.7128472  18.5561502  49.6324635   9.3274292
  17.6843214  49.2801762   9.1484341  18.4182239  50.5745411   9.4259104
  33.3450627  43.6661291  22.9357362  32.9619455  42.8148603  22.7240872
  32.9204440  44.2764378  22.3328638  24.7887659  27.8749132  23.5621357
  24.3545437  27.1275687  23.9734221  25.3931665  27.4834561  22.9315066
  32.2830415   0.6042031  23.1893277  31.5367079   0.0238542  23.0396152
  32.2053194   1.2743644  22.5103021  16.5811980  40.5956984  27.6382256
  15.8388042  40.1463366  27.2342992  16.1820495  41.2533665  28.2077718
  26.9868135  38.2708812   3.6615857  27.7378988  38.6641026   4.1059717
  26.9842958  37.3600531   3.9558967   8.8659596  37.2483873  24.6695995
   8.7802237  37.5958061  25.5573940   7.9706508  37.2317791  24.3314004
  11.8181705  40.0944662  19.0511477  11.6091478  40.9372282  18.6482894
  11.0572612  39.8943019  19.5962930  23.2990265  32.6833749   3.2617363
  22.7701116  33.4531784   3.4712204  24.1541934  33.0389404   3.0198797
  24.7508883  37.6461935  26.3046312  25.1094270  37.5519609  25.4221344
  25.2973795  38.3164787  26.7148709  15.0246704  31.0381031  19.1866434
  15.1524162  31.6633368  19.9000823  14.9380302  31.5822506  18.4039378
  21.7494798  40.0069284  27.7894497  22.6326394  40.3726721  27.8394055
  21.2180114  40.7135201  27.4227118  11.5398943  53.8928032  17.3116922
  11.4120841  53.1093788  16.7767692  11.3001919  54.6182632  16.7350781
  29.9495077  30.9853101   2.4658522  30.5032539  31.7656636   2.4404487
  30.5439758  30.2630687   2.2628530  19.5771444  32.5537205   0.4465875
  18.7595916  33.0063319   0.2392610  20.0641370  32.5493836  -0.3774587
   7.5424337  34.7652745  27.0537472   6.5938044  34.7116542  26.9377327
   7.6809120  35.5923223  27.5153184  17.2845221  46.9364595  27.9350257
  17.3438966  47.8485918  27.6509118  17.7650034  46.4460754  27.2680235
  29.9150658  37.1971846  25.4113507  29.9946642  36.4023161  25.9386826
  30.4446888  37.0225286  24.6333885  21.9725776  44.8175383  15.5339273
  21.5377879  44.4301796  16.2936291  21.2706399  45.2583599  15.0551876
   7.8643292  35.8753610  11.1381960   7.3002648  35.6070447  10.4128885
   8.2610059  35.0608349  11.4471114  24.1980886  41.6376162  21.5943170
  24.6460247  42.4720955  21.7329645  23.4642553  41.6547203  22.2086692
  17.5588012  49.3289900  18.9055467  17.9265404  49.8082733  18.1630588
  18.0608964  48.5146713  18.9373469   4.8559779  40.5384064   7.9811835
   5.2166975  40.4858303   8.8662535   5.5291885  40.9929085   7.4747771
  12.8681815  51.8217373   4.0496519  13.1371737  51.1563635   3.4162828
  12.3960876  51.3334179   4.7241172  21.8231630  51.3199186   9.4065985
  21.4200687  52.1335173   9.1036018  21.9088268  50.7863426   8.6165413
  18.8486576  35.5833840  14.2437673  18.9938617  34.6539259  14.0669835
  18.0356979  35.6070375  14.7485137  14.5519900  46.9128990  28.1258607
  14.5897985  47.1199608  27.1920896  15.4668140  46.9086552  28.4074831
  32.2268629  47.3441792  18.8513660  32.1627116  46.4038992  18.6840701
  31.5339851  47.5221157  19.4873619  29.2101932  51.0779715  24.8038363
  28.4449363  51.6317797  24.9584889  29.9559975  51.6269302  25.0460196
  17.3997164  31.5120053   2.4505650  16.6897929  30.8699512   2.4477784
  18.1890500  30.9970331   2.2832681  33.3194637  22.6841879  18.6218199
  33.3047295  23.3836508  19.2750915  32.4902105  22.7769828  18.1528171
  24.5247293  44.7302246  15.0395429  23.6367536  44.7671127  15.3950286
  24.4079947  44.8198557  14.0937245   5.5506188  34.4629908   0.9827499
   5.6594896  35.1506162   1.6396749   6.4345753  34.3074107   0.6501131
  20.1191092  46.8186522   1.7812618  20.3384542  47.3791504   2.5255522
  19.6946037  46.0554361   2.1730861   6.7125607  47.2940779  23.5568786
   6.1618358  47.9279089  23.0973172   6.8932152  47.7030134  24.4032621
   8.7244576  32.6964688  29.0683722   8.3692729  33.3384585  28.4536147
   9.0409452  31.9833851  28.5137725  41.5390730  33.1867099  27.7018523
  40.9416199  32.4431968  27.7822638  42.3999262  32.8263259  27.9146647
  23.5938668  25.3914261  27.9830766  22.7848411  25.9005451  27.9330230
  23.6038756  25.0447345  28.8752294  23.5770559  29.6793890   4.7614058
  23.5286570  30.5470967   5.1626166  24.4886112  29.5953536   4.4816932
  37.4164081  35.4303575   8.3165010  37.1625018  35.5423331   7.4004086
  38.0644822  36.1176109   8.4711441  40.6112623  41.1133862  29.4668317
  39.7280860  40.9766197  29.1240144  41.0652637  41.5936279  28.7743855
   5.3955120  20.7401252  10.4371893   6.1391091  20.2351689  10.7663035
   5.0814545  20.2404761   9.6835637  40.4466009  30.0461888   4.0294823
  40.7367706  30.9467459   4.1744980  39.5380878  30.0358415   4.3306955
  26.1428714  44.9710083  27.3648810  26.0932040  44.9073696  28.3186698
  27.0807314  44.9951124  27.1749568  28.5842204  45.5295420   4.1280874
  28.2689834  46.1939669   4.7407826  29.4394898  45.2725601   4.4726261
  30.5603051  29.1226673  29.5486927  29.8945069  29.3309903  28.8932943
  30.8526921  28.2401299  29.3209505   7.1643811  42.6754808  17.6111841
   6.2390089  42.5140572  17.7951980   7.1591532  43.2761717  16.8659484
   8.0520856  23.0277181  18.4549475   7.3504061  22.3774266  18.4233201
   8.5781109  22.7757597  19.2139244  27.8932881  26.0523200  24.8111534
  28.4606266  25.2842021  24.8771310  27.4921131  26.1288381  25.6768537
   5.5604738  37.6883531   4.9453887   5.9781736  37.0379972   5.5100068
   6.2326455  38.3566165   4.8118171  30.9849000  33.2657623  18.8603139
  30.2984428  33.3567262  19.5211720  30.7001781  33.8284326  18.1401992
  23.3240676  26.0738063  19.8705554  22.8784180  26.8327093  19.4941366
  23.3822227  25.4478383  19.1487408  30.6089091  24.5925403  12.2236776
  30.9676933  25.3409648  12.7005064  31.0911417  23.8386607  12.5633061
  34.4215798  37.9727221   9.2249775  34.5865607  37.0534492   9.4346148
  33.5985827  38.1758022   9.6695733  24.9095297  28.3499885  13.8223040
  25.3608918  28.1608677  14.6449447  25.3862810  27.8426313  13.1653965
   3.7101409  27.7496743   5.0814828   3.0618548  27.0676112   5.2568325
   4.4030550  27.3023176   4.5957121  29.2582870  36.5736103  28.2741690
  28.3131266  36.6797280  28.3820748  29.5880914  36.4461684  29.1636753
  43.3970737  42.1818781  27.0908570  44.2027569  42.6774549  26.9441843
  43.6904907  41.3563347  27.4763584  13.6187232  41.6275311  15.6625732
  12.9481471  41.0341454  16.0008797  14.3880141  41.0722399  15.5357822
  30.9521413  55.8532047   3.5398730  30.5257225  55.8770180   4.3965134
  31.8340635  55.5277920   3.7202963  30.8470654  39.0266156  21.1303163
  30.3170300  39.6480632  20.6312156  30.3830457  38.9298105  21.9619083
  43.3450413  47.5722075   1.3514480  42.5732422  47.9842854   1.7397102
  44.0846872  48.0604315   1.7131003  19.4646633  43.2049274  13.4408506
  19.7801995  44.0638494  13.7217745  19.6926844  43.1579065  12.5123962
  10.3365695  47.8796196   6.1408576  10.8485389  47.5616217   6.8844971
   9.6443510  47.2278023   6.0304006  28.1890893  28.4555221  11.8545088
  27.4018788  27.9112101  11.8704685  28.6241150  28.2235050  11.0340484
  19.6782959  38.1281447  23.1585956  19.2230725  38.2875538  22.3317981
  20.6019568  38.2765007  22.9559302  25.7568359  29.7042966  25.2889347
  25.5224562  28.8536525  24.9178553  24.9553680  30.2234483  25.2228999
  20.6950212  42.9782486  10.2961096  21.6335630  42.8291988  10.1814207
  20.2789855  42.2429609   9.8461136  10.3991389  39.2298150  23.6674809
   9.7828573  39.9614644  23.7009025   9.8849583  38.4707928  23.9426780
   7.6554906  30.9711742  16.6641784   6.9896311  31.6546488  16.5885234
   7.2097266  30.2507925  17.1097970  16.0348296  26.5046597  17.4252701
  15.8058405  26.3206697  18.3362818  16.9873416  26.5990353  17.4320948
  18.5449064  37.0145655  18.5765564  19.1685355  36.3023877  18.7184000
  17.6863790  36.6084743  18.6959291  35.0173187  38.1227422   2.2421131
  34.2663622  38.5738277   1.8563470  35.5607533  37.8785086   1.4929393
   2.0106462  32.6525593  15.3143871   2.9001921  32.7353978  14.9707639
   1.4689806  32.4943519  14.5412123   0.3708343  42.5531292  19.7684145
   0.0397417  43.0321598  19.0087199   1.1772493  42.1407843  19.4587350
  19.6344054  42.7828693  20.0547695  18.8771009  42.7832174  19.4693446
  20.0260949  41.9171619  19.9391818  34.7440600  35.3702354  10.1560235
  34.3161893  34.5150304  10.1138175  35.5685425  35.2490544   9.6850914
  37.1183467  44.7754622   9.5742899  36.3545465  44.8033762   8.9980417
  37.1729994  43.8621235   9.8554611  14.7123909  38.9856601  12.0414495
  14.9842513  39.8807693  11.8387091  15.4075217  38.6460781  12.6051068
  42.9945183  35.9180832  11.3557255  43.0751467  35.7353306  10.4196000
  42.8325653  36.8603110  11.4027345  22.2728729  22.8170276   9.5490444
  23.0020118  22.8098392   8.9289325  21.5755916  23.2886505   9.0934122
   7.0653534  33.1053638   7.7313238   6.9580215  33.9930367   7.3896420
   7.9934353  32.9096985   7.6024383  18.2736623  38.9587283   6.9119310
  18.4743500  38.1405044   6.4575475  18.2322013  39.6150160   6.2163740
   7.0338088  43.6622906  29.7524803   7.8978741  44.0721083  29.7115831
   6.7521387  43.6056280  28.8394177   0.9231464  35.9236431  14.2346001
  -0.0013399  35.9451628  14.4817722   1.1075148  36.8085265  13.9196086
  23.0576801  30.6753111   8.7336677  23.2284284  30.0646853   9.4507551
  22.6726627  30.1338720   8.0445820  41.2256861  48.8687086   2.6433918
  40.8375978  49.1619873   3.4677750  40.8130455  49.4169331   1.9760031
   7.7322376   1.6163138  18.6908329   7.1626878   2.2945575  19.0539134
   8.2127178   1.2774257  19.4461644   5.9168750  21.7024279   6.9688797
   5.5781454  22.4833393   6.5310788   6.5075278  22.0419884   7.6412332
  33.2231259  37.4624443  30.5456376  32.7743292  37.2071242  29.7396451
  33.8409138  38.1402040  30.2713839  21.8924308  20.7867122   0.5341549
  21.8503881  21.5433764  -0.0505875  22.7328253  20.3749919   0.3330289
  21.0919642  20.4488516  10.0218105  20.2956223  20.5673242  10.5395317
  21.6066933  21.2381291  10.1901102   8.4108442  33.7373519  12.8876138
   8.0735469  34.2155862  13.6450803   8.9686269  33.0562305  13.2633579
  23.8310528  32.1475744   5.8389294  23.6232567  32.8732157   6.4275676
  23.5356069  32.4450564   4.9784365  30.7607198  29.5145822  21.8349886
  30.5770636  28.6005473  21.6180968  31.6995049  29.5326424  22.0209694
  10.3410506  28.5688353  23.8817906  10.5282831  28.8956666  24.7617674
   9.6302682  29.1264319  23.5653949  26.9322515  41.3077593  28.5258493
  27.3027682  40.7050228  29.1705639  27.4799514  42.0903826  28.5871546
  16.1867785  36.1764479  22.5275991  16.5189040  36.1840129  23.4252999
  15.2830541  35.8717060  22.6091347  29.1518116  51.9070530   8.0563527
  30.0996351  51.8273735   8.1636339  29.0063047  52.8397131   7.8975922
  26.2561464  45.8405638  12.8528023  27.1553540  46.1645889  12.8011942
  26.0882878  45.7482195  13.7906337   3.8426057  17.3548806  12.1504593
   3.5853839  18.1865299  11.7524278   3.1828138  16.7306113  11.8484747
  28.0936265  46.1667347  21.3113976  27.1894979  46.4208651  21.4963388
  28.4153104  45.8073616  22.1381998  14.0866923  22.9794884  26.8609083
  13.8460028  23.8740015  26.6197798  14.3857288  23.0480671  27.7676094
  12.4628270  34.8654032   5.6260985  11.9818056  34.0622711   5.4265302
  12.9327619  34.6680737   6.4363170  32.2445345  32.9073524  23.2167435
  32.5632811  32.6697159  22.3460197  32.9945350  33.3243966  23.6407781
  12.3772752  42.0214367  30.5274966  11.5354919  41.9597483  30.0760229
  12.3516965  42.8714705  30.9668419  31.5934968  48.2384634  12.7554584
  31.2231135  48.3638477  11.8817723  32.3165870  48.8639975  12.8010964
  19.2955303  40.1882172  13.5730481  19.5949054  41.0958242  13.6264312
  19.1386473  39.9338794  14.4824064   4.5009552  16.0903561   5.9645450
   4.3681990  15.1425862   5.9461731   4.3213831  16.3398337   6.8710464
  24.1872907  30.3064132  28.0713237  25.0021410  30.4182792  28.5609557
  23.6233234  29.8013353  28.6570457  18.2372427  32.6310778   4.9126396
  18.2004261  32.4521995   3.9730233  18.1671214  33.5834599   4.9780723
  25.9604788  26.0950065  21.6660283  26.2874150  25.2058268  21.8027947
  25.4574609  26.0428858  20.8533231  23.4731889  42.4765444   9.3973827
  24.2000103  42.8705597   9.8797816  23.8184261  41.6401625   9.0851128
  10.5246794  33.5768175  10.2880716  10.5312324  34.0469551  11.1218345
  10.0216055  32.7819848  10.4652405  23.3264327  36.2608171   5.9840363
  23.3594990  36.2766623   6.9405341  24.1988349  35.9694147   5.7190180
  15.7935548  43.2646847   7.2337955  16.6774106  43.0060291   7.4948078
  15.7876658  43.1697750   6.2813312   1.4826456  29.5378208  -0.0245253
   1.7238611  28.9025593   0.6496319   1.4975277  30.3823161   0.4258522
  17.9192078  41.7808342   8.9798605  18.3891177  41.2228775   9.5996189
  18.4966362  41.8319654   8.2181561  19.4947863  42.8929996  29.2054484
  19.8756790  42.8883600  28.3273075  19.2610347  41.9794703  29.3699560
  13.7103117  37.2141790  20.0083259  13.0377388  37.8852296  19.8918430
  14.4238245  37.4875927  19.4318048  18.5129261  40.0008821  29.6322363
  17.8842795  39.9003339  30.3470263  17.9946160  40.3427649  28.9037440
  23.1733584  39.0013099   5.2945739  23.3015752  38.0533814   5.2596408
  22.2281122  39.1115189   5.3975129  13.6857080  45.0061369   3.4956896
  12.7946496  44.7633934   3.7473345  13.8570607  45.8173943   3.9739448
  10.5184102   3.0991630  15.4449534   9.7633612   2.8816108  14.8983240
  10.8192396   3.9447812  15.1122868  17.2379351  34.3097234   6.9942707
  16.9911695  33.3860922   6.9468999  16.4054990  34.7766066   7.0670933
   2.7773911  41.0616827   6.0044342   3.5780498  41.1877203   6.5136421
   3.0836061  40.9094238   5.1104087   0.2104699   2.4381379   7.1354210
  -0.0421957   1.6865901   6.5991688   1.0903376   2.6631478   6.8330359
  17.4863875  35.1958036   4.1888967  16.7919254  35.7569194   4.5340091
  18.2847917  35.7144213   4.2879850  18.3429480  38.2016444  15.6159043
  18.5874236  38.0339837  16.5260434  18.9503086  37.6687598  15.1026988
  10.9703255  23.6872816  10.7792199  10.4335725  24.4789076  10.7410574
  11.3738859  23.6295533   9.9131727  27.4416828  36.5222430   6.1235815
  28.3453774  36.8334174   6.0712302  27.0227623  37.1081519   6.7540169
  41.6688169  25.3662968  26.7706815  42.4533860  25.8037305  27.1013421
  41.0352446  25.4389691  27.4845002  28.4661484  29.6052480   7.5213522
  29.0058208  29.6091342   6.7308021  27.5942135  29.8573470   7.2173631
  29.3391299  52.1001482  28.6814142  28.6721182  52.0475626  29.3659303
  29.0950823  52.8701591  28.1678388  21.7950535  25.1203561  22.1189812
  22.7164388  25.0533128  21.8684140  21.3199115  24.7095847  21.3966647
  44.8552799  31.0517693   9.1669130  44.4752490  30.1741123   9.1278887
  44.4030656  31.4763856   9.8959094  13.1629741  30.3426266   5.2141911
  13.4298754  29.6962667   5.8678067  13.5592580  31.1616397   5.5115312
  15.5614972  37.2841001  17.2559142  15.3178644  38.0365062  17.7951360
  14.7388136  36.9969368  16.8597305   1.1626249  40.2952194   8.9586729
   1.9948959  39.8224258   8.9540923   0.5557848  39.7163653   8.4972608
  11.3126564  21.7959428   7.9521263  11.1617827  21.7044568   7.0113289
  11.5037191  22.7258301   8.0747485  11.1752880  35.8026862  28.4270275
  12.0901299  35.5446696  28.5398283  10.9325659  36.1968994  29.2648307
  25.2694392  25.0439715  14.8619139  25.2745819  25.8353925  15.4002988
  24.4508624  24.6038294  15.0909054   4.2033586  30.6824374  10.4150498
   4.7037360  31.0595822  11.1386633   3.3248881  31.0493755  10.5144358
  35.2910686  29.9175978  10.9407473  34.6976614  30.5921388  11.2710381
  34.9253011  29.6720529  10.0909507   1.3548040  17.9141128   8.0839270
   1.3404615  17.4645078   7.2390115   2.0493844  17.4766362   8.5762727
  39.5494962  41.3347101   3.2788739  40.0738716  41.8548203   2.6699850
  38.9705539  40.8197021   2.7168918   8.9738685  44.9651146  28.5031146
   8.7431109  45.6743574  27.9031471   9.3853736  45.4050303  29.2470027
  40.3351641  29.7382474  17.3290324  41.1403942  29.2547417  17.1444905
  40.3887653  30.5144739  16.7715120  10.2321064  20.6618953   2.1203375
   9.2839503  20.6168056   2.2436227  10.5963695  20.3892732   2.9624903
   9.7860742  39.3175244   6.8227291  10.2093756  39.2285538   7.6766217
  10.1444948  38.5989904   6.3016939  20.3904986  41.9597387  26.6800946
  20.4565239  42.8981018  26.5030671  19.8060966  41.6279459  25.9984646
   2.5006384  40.9055328  18.6745012   3.2429034  40.3513813  18.9157283
   2.2694810  40.6242609  17.7892423  23.1115389  22.6998901   5.5392659
  23.5921645  22.6955938   6.3670415  23.7523985  22.4129772   4.8887184
  31.4946151  29.6796846  16.2731254  30.9009910  30.1479697  16.8601120
  30.9317708  29.3611908  15.5674326  28.2604170   7.2509269   8.1624261
  28.6377645   6.5709714   7.6043049  27.9888558   7.9374579   7.5531951
  10.2833188  49.2630434  30.1665337  10.5153692  50.1606560  29.9284533
  11.0173404  48.9595556  30.7007043  25.6635857  34.6851087   5.3906780
  26.4273095  35.2522945   5.4967749  25.9684730  33.8194895   5.6626672
  24.7722960  46.5206337   3.9837378  23.9711928  46.4165020   3.4702948
  24.5027208  47.0309687   4.7473603   4.8239166  46.5949488  10.9793901
   5.7314974  46.7337179  11.2500763   4.3268976  47.2574949  11.4592171
   3.1082401  38.4338260   8.3814615   3.6196694  39.1836190   8.0773509
   2.9100335  37.9404306   7.5855291  42.8172731  38.6659670   2.7181193
  43.7527227  38.8647532   2.7586764  42.6285553  38.5915899   1.7826593
  20.1517630  26.4427710   5.6563407  20.3324962  25.5898619   5.2612257
  19.2042923  26.5497804   5.5721998   8.6262041  29.4622707  14.5553446
   8.1213582  28.7927938  15.0170398   8.3189011  30.2905488  14.9237919
  23.0150127  50.3071356  19.6599936  23.0544353  50.3356886  20.6159544
  23.8717747  50.6252003  19.3753409   0.1549574  49.3079090  18.0345726
   0.8632968  49.2472267  18.6755133   0.2148231  48.4944153  17.5336981
  13.6956012  35.4947209  29.1550291  13.4387338  35.1714897  30.0186104
  14.5722377  35.8562303  29.2856128  27.8298593  39.8466063  -0.1903891
  27.5763941  40.2991533   0.6140907  27.4162388  38.9861274  -0.1216374
  14.2082453  40.8210182  21.3525176  13.6025655  41.4240313  21.7835140
  13.7807882  39.9668431  21.4149666  25.3771234  44.3030024  10.7581556
  25.0581527  44.8684263  10.0547469  25.8346462  44.8965025  11.3536906
  33.3786607  36.3997364  12.3334229  32.4769902  36.1715293  12.1072805
  33.8875532  36.1616158  11.5584660  17.5650740  41.6692352  16.7995623
  17.2324347  42.4226952  17.2872904  17.2102594  41.7793512  15.9173993
  11.1807454  39.2678809   9.0945506  11.5363717  40.0806189   9.4540179
  11.8021822  38.5930419   9.3677551  32.6741242  36.9230032   2.6442993
  32.5381064  37.0116186   3.5876334  33.6159348  36.7800927   2.5504884
  18.3862591  40.5613232  25.2368930  18.2118893  40.3169250  24.3279943
  17.8917098  39.9261665  25.7548014  18.8869619  44.9759722  10.8733785
  19.4974709  45.5679846  11.3127327  19.4418144  44.2848492  10.5118203
   3.2217205  36.6839552   5.9599185   2.6697832  36.3750482   5.2414662
   3.9678979  37.0990467   5.5273110  23.8207793  36.7034125  30.5535721
  23.6663222  36.2732935  29.7125172  23.0937982  37.3193979  30.6446478
  23.8846684  39.9135923  19.5592570  23.3347440  39.1926026  19.8658383
  23.9656687  40.4922009  20.3174686  22.0867133  48.3673096  17.7557909
  21.2459660  48.1440878  18.1552196  22.3955393  49.1236782  18.2545578
  12.8553116  36.4597893  16.2416255  12.6413000  36.7646170  15.3598583
  12.1145761  35.9068704  16.4902651  42.7119015  47.2430086   5.8666968
  41.7939712  46.9838619   5.7862055  43.1203984  46.5288019   6.3558501
  42.2812100  29.2106462  14.0658128  42.2803683  28.7713385  14.9162483
  41.9241918  28.5609603  13.4602726  31.0194397  45.6063843  27.3175803
  31.5618539  44.9950361  27.8158513  31.6038585  45.9485817  26.6411284
  15.7887256  37.3129225   4.8708034  15.1179266  37.3883891   5.5494529
  16.1369586  38.1997466   4.7785726  16.3256538  36.5032101   0.0889940
  16.9081831  35.9922433  -0.4729698  16.1789024  35.9448719   0.8525076
   7.2897702  42.5937605   3.3601376   7.7947772  43.3994246   3.4701592
   7.7325660  42.1285677   2.6503757  23.4201980  35.2638316  27.9517070
  23.6883378  34.5097446  27.4266482  23.7510133  36.0214472  27.4692035
  25.2336144  34.6230912  14.6800888  24.5808220  34.2541766  15.2750635
  26.0144234  34.0871453  14.8191321  34.1090560  45.0036907   2.0404986
  34.2017007  44.4484520   1.2663162  33.2584238  45.4285192   1.9301541
  12.6660597  34.9538231  20.7824516  12.9972529  35.7873940  20.4482341
  12.3734081  35.1517510  21.6720653  30.4570913   2.2724370  10.2262139
  31.3826489   2.2704343   9.9821419  30.3578877   3.0446938  10.7829964
   5.4837346  41.6675758   0.1651958   6.2343794  41.1228704  -0.0715788
   5.7795316  42.5643015   0.0082924  25.9887958  33.1983900   2.8459165
  25.6930852  33.6388206   2.0491695  26.0802746  33.9018488   3.4885737
   0.5962062  31.5377092   6.2156290   0.4728008  31.7920256   7.1301377
   1.0834026  30.7149410   6.2594837  18.7651169  48.2448626  13.4661853
  19.5869076  47.8038740  13.6816418  18.1285191  47.8782463  14.0798354
  43.6119699  22.1902108  28.0494556  44.4478321  21.7532420  28.2126058
  43.8300705  23.1218266  28.0219913   6.3450778  45.8024311   0.8566783
   6.4181578  45.4668427   1.7501390   6.6289485  45.0746584   0.3035067
  35.2438045  53.3581448  23.1528640  35.2003932  54.3117476  23.2234931
  34.4121528  53.1097603  22.7492690   1.1332260  54.4647694  28.1149334
   0.2846752  54.8380470  28.3533785   1.7657124  55.1496029  28.3321783
  31.2473345  40.9043407   8.5856742  31.1336565  41.6597891   8.0089527
  30.4397273  40.4009056   8.4829414  37.6093353  22.9990745  13.9323759
  37.5585236  23.7215710  14.5581937  36.8037714  22.5019860  14.0745115
  40.5162144  24.0593505  11.7550588  39.9184966  24.7513890  12.0379853
  39.9440908  23.3249927  11.5322948  15.8865249  28.9542937  15.9169567
  15.7004499  28.6230874  15.0383723  15.5470240  28.2790613  16.5043509
  27.4819255  54.9581528  12.3565674  27.1192074  55.6501389  12.9095805
  28.1389856  54.5316458  12.9066527  18.9840221  29.7665119   4.7411811
  19.1147995  29.7526717   3.7930578  19.3771029  30.5917859   5.0251579
  32.1971989  32.6734042   2.2612585  32.2567225  33.5785031   1.9555022
  32.1794009  32.1504998   1.4597070  24.7381520  42.2105312  18.0101252
  24.4205713  41.7598820  17.2276354  24.6545100  41.5629339  18.7100220
  23.0328059  47.3625469  26.1854294  23.6643624  47.4874830  26.8937800
  23.5391831  46.9564915  25.4819146  45.3457928  32.6344252  25.4096839
  44.8011208  32.1011162  25.9886030  44.7221184  33.1750178  24.9248919
  13.7090957  42.2954607  26.8174767  14.3304908  41.9907951  26.1562061
  12.9077280  41.8038321  26.6376328  24.1852522  33.9372277  21.8079374
  23.3581257  33.5413432  22.0824680  24.8419166  33.2616329  21.9770417
  21.1952353  46.3239002  11.6466725  20.7724547  47.1034575  11.2864256
  22.0875144  46.6064262  11.8472874  28.0065680  44.4001579   8.1435746
  27.1614742  44.0361166   7.8799027  28.6530733  43.8432312   7.7098733
  45.5304289  46.4521265  27.7042357  45.4000711  47.1922159  28.2971120
  44.8948288  45.7979012  27.9944608  11.7770183  17.9791641  30.2919197
  11.1104906  18.4101212  29.7568965  11.2836409  17.3813033  30.8535004
  23.7959862  47.1736240  12.6904428  23.7657475  48.1113958  12.8799272
  24.7280765  46.9789362  12.5927925   5.4228371  14.0468359   9.8218298
   5.2558494  14.4220161   8.9571989   4.6004039  13.6190259  10.0601876
  15.9197724  29.4082451  12.0697188  15.6462252  28.7604070  12.7191114
  15.1208448  29.8939490  11.8646848  20.1215959  34.5505190  19.9719286
  20.4722428  34.5003581  20.8611774  20.8174419  34.1941571  19.4196284
  10.9030890  53.5765076   6.1900485  10.4251993  53.2840300   6.9661349
  10.9582484  54.5272017   6.2868875  25.2555728  52.3962545  22.2774157
  25.9576631  51.7533827  22.3774872  24.4563746  51.8720055  22.2256813
  15.6711245  39.7349548  15.2780652  16.0756123  38.9421105  15.6302297
  16.3687027  40.1573992  14.7769094  20.5953550  22.3873973  23.9723039
  21.5242004  22.5454736  23.8035226  20.4784632  21.4512324  23.8105631
  18.0869818  27.5009942   1.0826940  17.8541183  26.6011643   1.3114092
  17.5681019  28.0414724   1.6784120  42.6388741  22.6544046   0.7713646
  43.0747223  21.8949556   0.3847104  42.2184706  22.3131466   1.5606910
   9.3073452  32.0385289  26.4629862   9.7379404  32.8926301  26.4994574
  10.0253570  31.4119649  26.3729263  15.2205694  20.1841497  23.6928759
  15.4144299  20.7577085  24.4342807  15.0996602  20.7804704  22.9539475
  28.3623385  30.5302954  23.9220873  27.9617381  29.9463105  24.5660684
  29.0749121  30.0158596  23.5428426  30.1029515  37.1230388   7.2763526
  29.7920108  37.9460478   7.6534522  29.8746276  36.4597869   7.9276568
  37.6098228  17.8397191   7.7423656  37.1841931  18.6887491   7.6231211
  38.1492949  17.7301550   6.9592959  21.5246224  47.8859663  15.0894690
  22.1488070  47.7049494  14.3867195  22.0704150  48.0439568  15.8597815
  16.5053821  34.4975924  10.1954341  15.7457840  34.3188596   9.6410894
  16.3149762  34.0435576  11.0163045  20.9879923  48.8579845   5.7309377
  20.4646993  49.6386480   5.5493712  20.3550410  48.1399298   5.7305062
  30.8724666  39.9997377  17.0419530  30.7276917  40.9113026  16.7883316
  31.0633445  40.0392866  17.9790941  20.4494953  24.1288280   7.6882538
  20.5454254  25.0255966   8.0089387  19.5449185  23.8953805   7.8967627
  13.7425137  26.8689513  11.0487398  13.1818485  26.7206097  10.2872404
  14.5599210  27.2062564  10.6822666  26.0240364  31.7340326  22.8637815
  26.6218567  31.0875559  23.2391620  26.4500427  32.5759864  23.0245996
  26.5251350  12.3162746  19.3236256  27.4535537  12.5115848  19.1966391
  26.1038017  12.6233423  18.5208690  23.7016416  31.1370516  18.8767767
  24.4013119  31.4318204  19.4597042  23.0810905  30.6915760  19.4535780
  14.1104114   8.8974261  21.8649173  13.2044828   8.6076272  21.7574859
  14.5753360   8.5100883  21.1232662  26.2214994  25.2933431   0.6491479
  26.8383408  25.3087974   1.3809260  26.4998484  26.0155535   0.0859722
  14.6636915  33.1150961  23.8126016  13.8298023  32.6957178  23.6005092
  14.5907819  33.3373260  24.7407889  23.5089278  25.6380296  24.3655944
  22.8529072  25.9396887  24.9939799  23.0653763  25.6783867  23.5183239
  40.8353813  21.4682531   2.8800377  40.8879955  20.6000137   3.2795676
  40.9578057  22.0755124   3.6097487  26.2851620  15.2239442  17.7069759
  26.7746806  15.1138937  18.5221398  25.9370899  16.1143243  17.7549589
  12.4120319  55.3021292  11.5284073  13.3283782  55.2198685  11.2642610
  12.4311841  55.2366562  12.4831736  22.4680543   7.8665257  30.0786829
  23.3457017   7.8258789  30.4585743  22.3840666   8.7671655  29.7655940
  14.8339367  25.3252482  23.7969446  14.8040426  26.2774277  23.7037110
  14.1513264  25.0052857  23.2071137  14.1306496  12.1540630   8.4858593
  13.4339142  12.6346028   8.9329299  13.8154376  12.0558250   7.5874027
  25.3409719  22.7376652  19.1230139  24.7997093  22.1273541  19.6237978
  26.2178421  22.3545218  19.1460117   4.8002031  53.7486305  23.6716676
   4.2017111  54.3373915  23.2118869   4.8234600  54.0830453  24.5682502
  22.5050902  19.2936516   7.7382338  22.1984720  19.5798862   6.8778342
  21.9005299  19.7039306   8.3566272  17.5470912  18.5781443   8.6496290
  17.7719569  18.9226520   9.5139107  17.9411328  19.1972435   8.0350717
   6.7298651  11.1808109  12.0046886   7.3206288  10.4928637  12.3112139
   6.7531818  11.8422174  12.6962313  13.1120253  24.0780997  30.6759167
  12.8237545  24.9467039  30.9563756  13.5252595  24.2259645  29.8252654
  18.5015416  20.5309105  11.0184654  18.3883095  20.6714582  11.9584926
  17.6811099  20.8349609  10.6302914  20.8857656  26.7491102   1.4302620
  21.4449048  27.5168037   1.5496096  19.9971497  27.1031618   1.3950261
  39.3910646  25.8789849   8.0479654  38.7060666  26.1703706   8.6497172
  38.9448595  25.2804923   7.4488529  28.2727551   8.5522813   1.2625965
  28.2990026   8.9681309   0.4008468  27.9531717   9.2375207   1.8495759
  28.0974936  13.2703876  14.0543255  27.2147131  12.9559898  14.2494711
  28.1816363  14.0779757  14.5612320  17.5934649  19.5189989  22.1358991
  18.2409596  20.1843572  21.9029236  17.1459472  19.8781919  22.9020190
  26.0446477  13.8288963   6.5813717  25.9102917  13.5406196   7.4841865
  26.8535089  14.3398762   6.6109666  33.1621742  26.5082216  27.4234700
  32.2710228  26.2537289  27.6628757  33.2445931  27.4106145  27.7318954
   3.0293715  18.8751650  15.1934159   2.0935151  19.0077066  15.0422955
   3.1133944  17.9377818  15.3680122  38.1679034  26.9940186  21.1402464
  38.6023283  27.0829606  20.2919579  37.4472928  26.3853216  20.9776521
  29.6814203  18.8460863   1.9191464  29.8516273  18.2413697   1.1969408
  30.5403781  19.2091608   2.1350178  36.2967515  21.4411998  29.0843821
  36.0135221  21.9281602  29.8582554  36.9413352  20.8166385  29.4170451
  21.6000366  16.4327037  21.5107679  21.0368228  17.1084988  21.8880272
  22.0373702  16.8668306  20.7783031   8.1596482  35.2612925   0.8895453
   8.9323217  34.9285197   0.4329594   8.3106220  35.0399470   1.8084821
  35.7878375  18.3989263  27.4497318  36.2125921  18.1225884  28.2617998
  35.0433302  18.9276576  27.7367544  13.6497033  31.6732979   2.5547441
  14.3982923  32.2101402   2.8148302  13.5747612  31.0157204   3.2462701
  25.0794101  21.5344739   4.0064374  26.0130572  21.6174960   4.2004597
  24.9997115  21.8061638   3.0920720   2.6483247  26.1696720   2.1971187
   2.1120238  26.2540817   2.9854640   2.8536797  27.0711899   1.9494804
  27.1317935  31.5995169  16.3350809  26.2223530  31.3009477  16.3325810
  27.0789289  32.5264525  16.5679550  29.4906402  10.3474104  13.5463536
  28.8469267  11.0241592  13.3368814  29.1636777   9.5619053  13.1078231
   6.1042392  29.9227071  21.4993453   5.3605849  30.1971889  22.0358801
   5.7106012  29.6219945  20.6802893  14.3965316  14.8785579   0.7513317
  15.1710653  15.1720893   0.2715715  13.6728740  15.0035512   0.1373872
  29.7748518  16.8124485  20.4156709  30.5660200  16.8705916  20.9513044
  29.9357867  17.4096298  19.6851182  22.4152684  31.7155123  30.6397629
  22.2138381  31.4449835  31.5355706  22.5874519  30.8964992  30.1752162
  25.5926800  28.4208822  18.9830899  25.6020713  28.6211371  19.9190605
  26.2826395  28.9717746  18.6133564  23.1804729  30.6639528  25.5999684
  23.6943388  30.5339599  26.3970113  22.5183439  29.9732208  25.6265616
  11.7703152  17.8991604   4.5087335  12.1077812  17.0207882   4.3332046
  11.0021961  17.7546370   5.0613081  15.3338039  21.6796899   2.6692307
  14.5579863  21.9394708   2.1723869  15.0064778  21.0521650   3.3136699
  16.1525297  21.6823149  25.8125830  16.4524543  22.2551107  25.1067638
  15.4817009  22.1924996  26.2663770  23.3738184  18.2781589  24.9271226
  22.6563430  17.9939473  24.3608332  23.3942175  19.2300355  24.8283935
  28.1929421  21.9874811  12.6681360  28.0454731  22.1518683  13.5995134
  27.3429322  21.6953158  12.3389658  16.3627660   3.8081431  23.5405755
  16.3462126   2.8950131  23.2539535  15.6875336   4.2365783  23.0145168
  21.2561965  26.2286592  29.6571970  20.5795789  25.6059980  29.3912721
  21.2990570  26.1435127  30.6096387  37.0978093  22.6190114  24.6016860
  37.9435849  22.4299526  25.0080776  36.4582467  22.4652386  25.2970600
  19.6056163  11.9370627  21.8727231  19.6779931  11.4984119  22.7204132
  20.2151036  11.4645517  21.3057232  35.6912327  25.4192948  27.3314953
  34.8141408  25.7726955  27.1830010  36.2527442  26.1917186  27.3970699
   5.8293706  23.0261779  12.7594411   6.6900033  22.6426220  12.9280531
   5.2174181  22.2980332  12.8669238  22.7201629  10.1410067  28.9692204
  23.2059050  10.0583684  28.1485755  22.9086018  11.0297561  29.2706272
  28.0660272  34.2946625   0.5673679  28.6741996  34.9230170   0.1780995
  27.4115539  34.1411185  -0.1140443  34.6542358  26.4181018  22.1141624
  34.6946716  25.6972551  21.4856911  35.2866650  26.1804461  22.7922344
  23.5965061   2.5957921  22.7304864  24.3474555   3.1241140  22.4599624
  22.8357267   3.1420955  22.5330091  45.1959147   0.8031601  18.1269801
  44.7561227   0.0460017  17.7402949  45.0594608   1.5083428  17.4942648
  19.4417262  22.1372890   3.1815275  19.9264026  21.3606668   2.9019269
  19.9714303  22.5091743   3.8867577  43.9250565  34.4459343   6.5127453
  44.7689915  34.0058613   6.4110788  43.8966656  35.0783300   5.7947596
  11.6645336  20.7699871  21.3093495  12.4938023  21.2355065  21.4181447
  11.2159729  20.8806396  22.1476698  21.2438011  13.9437759  19.9622381
  21.3369632  14.6361387  20.6165981  21.8768883  13.2766771  20.2275896
   2.8296527  13.3480120   6.9350803   2.5345755  12.9783010   6.1029291
   3.0088758  12.5858033   7.4856693  27.8871346  21.3301158   3.5138210
  27.8367019  21.0449767   2.6014718  28.3480549  22.1682549   3.4776863
  33.3937764  22.3325276  12.4089372  33.4185338  22.4043560  11.4547575
  32.5417471  21.9391727  12.5974882  32.4755955  28.4217215   7.2241503
  33.1593323  27.8766322   6.8347746  31.6603708  28.0859733   6.8514371
   3.1632534  40.3024006  30.1109624   2.4822193  40.9662724  30.2191091
   3.9540035  40.7108641  30.4632449  20.7601976  31.6638494  20.1028347
  20.9312892  31.1895418  20.9164643  20.3801656  32.4955535  20.3858185
   9.9802727  48.5078669  11.5722573   9.9119836  49.3035078  11.0445082
  10.6483459  47.9838896  11.1302638  44.7391319  16.1778879  15.3238702
  45.3398800  15.4352868  15.2616107  44.0723705  16.0028994  14.6597600
  13.6308420  16.4589024  10.5485094  14.3148589  16.6705644   9.9132532
  13.5074806  17.2673428  11.0459411  38.1041050  31.8041515   6.5200490
  38.6392665  31.0964894   6.8792808  37.7585101  32.2571969   7.2891682
  17.8516567  23.1758237   8.4023246  18.0488873  22.5452209   7.7097401
  17.4971592  22.6450562   9.1156610  18.7741506  25.8576322  17.5702572
  19.7218752  25.8476520  17.4362755  18.4264421  25.3153515  16.8622589
  17.0742655  18.7839019   4.8996409  17.5286615  18.3573294   4.1731485
  16.3872135  19.3024814   4.4809946  31.3336611  14.6893048  14.5352626
  30.8365107  13.8872313  14.6957314  32.1491265  14.5669353  15.0213420
  21.4726853  15.8337510  30.4077864  21.7761111  15.0385797  30.8458138
  20.7093000  15.5528402  29.9032450  18.2278550  18.3613968  18.0899251
  19.0979946  17.9626620  18.0800009  17.8798175  18.1986833  17.2132123
  35.9691954  15.6011498  17.0657051  35.7125187  15.8348584  17.9577422
  36.7633152  16.1104441  16.9037652  23.0859327  20.5238223  28.6181808
  23.2893920  21.2638426  28.0461597  23.7946725  20.5164361  29.2615056
  15.0123692  20.3328085   7.9675466  15.3669226  19.5148182   7.6191014
  14.4843078  20.6886339   7.2528636  24.2909431  16.2361562  14.2423761
  23.4763050  15.7678843  14.4249094  24.0665770  16.8401325  13.5344887
   0.7428442  18.9882517  22.7846003   0.5012070  18.2956648  22.1696472
   1.5699278  18.6927688  23.1652069  20.8483577  19.3186688   2.6978978
  21.1641002  19.4998431   1.8126210  21.4836001  19.7476196   3.2712206
  26.4496851  55.4225795  24.8868990  26.8792295  56.2744940  24.8096681
  25.7995820  55.5439906  25.5788946  27.8617907  26.3330841   5.6513509
  27.0918155  25.9176040   6.0396084  27.5040150  26.9949126   5.0595673
  26.6673231  24.8922467  18.0976892  25.9997940  25.4331088  17.6756620
  26.2302732  24.0564775  18.2611108  30.4651499  30.5750227  18.5776842
  30.6387091  31.4974499  18.7653947  30.5197263  30.1427722  19.4299829
  13.8222182  22.2402549   6.1210358  14.5686162  22.4331236   5.5536526
  13.9934599  22.7389765   6.9199014  42.8884506  29.5664334  19.5685256
  42.1655846  28.9936066  19.8245740  42.4630070  30.3709006  19.2717779
  39.0066028  22.2301579   1.1170777  39.7081161  21.8185091   1.6217121
  38.9020300  23.0950403   1.5136536  34.1984582  25.2855802  10.5944189
  33.6980128  25.8018422   9.9625477  34.1680837  24.3924117  10.2515491
   8.4422386  37.4713707  18.3481058   8.3601373  36.5925407  18.7184414
   8.8400322  37.9898190  19.0475353  12.8044963  37.6646805  13.6539185
  11.9849062  37.7474976  13.1664312  13.4613681  38.0716014  13.0889702
  32.8128219  33.0651045  26.3692760  33.6353731  33.2999992  25.9397840
  32.2729731  32.6988077  25.6688333  15.8425200  28.3521914   9.3535566
  16.6223741  27.8257489   9.1777247  16.0988235  28.9262915  10.0753236
  26.7525268   7.7075756  14.1352332  26.2523150   6.9153011  14.3309939
  26.2739372   8.4084767  14.5778632   6.3338149  15.7750034  14.3091714
   7.1969759  15.6458044  14.7022259   6.4716965  15.6252325  13.3738697
  31.1677361  26.5283918  15.5527222  30.5669212  27.0749593  15.0462449
  31.9368815  26.4337659  14.9908566  10.5656743  35.3583908  17.1864891
   9.9646318  34.8792005  16.6160893  10.0447893  36.0862374  17.5258279
  35.3691673  16.7425716   1.9004306  34.9323750  16.5215278   1.0778841
  34.7559547  16.4626241   2.5800117  19.1435707  17.6190829  30.6763315
  18.9235747  18.3641601  30.1171398  19.8933935  17.2091448  30.2451134
  14.9375987  54.7838169  12.4428535  15.3533888  55.3215671  13.1167781
  14.5496285  54.0534564  12.9248130  16.4945590  35.3234959  19.7672510
  16.0999513  34.4705653  19.9489725  16.2639046  35.8605075  20.5253077
  41.7886972  27.0030785  19.9930358  42.4819374  26.4933133  19.5737588
  40.9818649  26.5385890  19.7705436   3.8042215  21.1754799   2.9733023
   3.8957864  21.8795848   2.3313650   3.2815045  21.5595889   3.6771902
  22.5449252  28.5479927  16.6615248  21.8022156  28.8671136  17.1741402
  22.8346324  29.3098927  16.1597204  24.2075682  26.5958476   4.1504341
  23.9401555  26.1752915   4.9676585  25.0201321  27.0515203   4.3702817
  38.9006162  23.6523676  20.5826187  38.8571739  22.7614403  20.9298849
  38.8457084  23.5423636  19.6333468  11.5732098  31.4343357  17.6189017
  11.3714480  32.3696017  17.6472342  10.7907200  31.0097480  17.9705644
  36.9231749  18.1259179  20.6997323  37.7203751  17.7234507  20.3551698
  37.0496130  18.1337273  21.6485119  12.4556267  21.3446975   0.6277355
  12.0738339  22.1194124   0.2150806  11.7163682  20.9119964   1.0549315
  26.2210226  28.7786889   4.8940107  25.6759310  29.2052937   5.5551589
  26.9536352  29.3806124   4.7628722  32.7020192   8.8566983   3.6549845
  32.7827573   9.1235089   4.5706949  33.1338644   9.5550877   3.1630549
   0.4448639  20.9065962  29.1700935   0.8671795  20.2112627  28.6657214
   1.1694132  21.4431500  29.4916081  13.4573996  15.9837651  18.6401021
  14.2405033  15.6867194  19.1035068  13.7336648  16.7822993  18.1903780
  35.8092785  21.9690466  22.4088454  35.1481390  22.5266290  22.8190041
  36.6384792  22.2645259  22.7848077   8.4153140  18.2494843  14.9586713
   9.2169362  18.4973896  14.4980454   8.2151484  19.0032172  15.5136955
  33.6455536  17.6123714  25.8581948  33.2970715  17.8144467  24.9898863
  34.5430923  17.9444849  25.8393025  22.4756885  13.9151418   9.0055736
  22.2870970  14.1237509   8.0906161  22.7451634  14.7489786   9.3907102
  31.2384915   5.8768910  29.2729068  31.7095780   6.7029583  29.3821001
  30.9519577   5.8834857  28.3596230  28.0982018  17.6992953  22.3864579
  28.2572937  17.0339251  21.7169785  27.5106263  17.2745442  23.0114174
  34.5850801  30.8826876  19.8270488  34.1170144  30.0895762  20.0880527
  35.4380774  30.5693650  19.5262873  31.7630148  16.8163872  27.5417781
  31.8454862  15.8636177  27.5825429  32.4628997  17.0922732  26.9499350
  42.5020933   7.4562347  11.4772654  42.5070906   8.4104329  11.4016843
  43.1429958   7.1613693  10.8303237  20.6748867  26.7396569   8.5416758
  20.7997918  27.4655032   7.9303038  21.5316987  26.6218233   8.9518219
  40.9290075  31.6680765  25.2670646  41.2329578  32.3337126  25.8841348
  41.4975834  31.7714190  24.5039964  11.5736735  15.4326320  16.6293311
  12.0807767  16.0538661  16.1066961  12.1048534  15.2889025  17.4125433
   9.8907608  22.5215507  20.4361662   9.3493444  22.5253701  21.2255224
  10.5973327  21.9066429  20.6333336  21.1366606  33.7125731  22.2568655
  21.6362500  33.3103442  22.9673982  20.5436754  34.3221402  22.6962161
  20.6016207  27.5406861  22.3279548  19.7166610  27.3391557  22.6320410
  21.0682034  26.7064643  22.3790145  42.1369934  13.6219728  16.4251646
  42.4334431  14.3904340  16.9128260  42.0298767  12.9425275  17.0908293
  37.5259995  12.7490437   5.9407028  37.8968811  13.1542110   6.7246159
  38.2864022  12.4403036   5.4480609  12.4485159  28.0715799  22.2976494
  11.6541696  27.7893496  22.7510715  12.1320856  28.4797144  21.4917159
   3.1658700  23.4364080   1.4341601   2.6802263  24.2009950   1.7436584
   3.8732839  23.8011408   0.9024009  16.5406740  30.1642227  22.9370522
  16.2572479  31.0382605  23.2053041  17.3319530  30.3170276  22.4205637
  21.6130638  54.0104437  22.0559549  22.4483418  54.4484901  22.2192383
  21.0583067  54.6885872  21.6704726  36.2641239  25.6028318  24.2528653
  36.9354153  24.9296069  24.3640709  35.5090690  25.2707005  24.7384715
  21.4498377   2.8314734  20.0907969  21.8658447   3.6256507  20.4261351
  21.5273499   2.9038763  19.1394925  32.8043151  14.3313074  18.4509027
  33.3934641  14.8599970  18.9890683  32.5579667  13.5981476  19.0148354
  14.3844414  18.6115623  18.0559516  14.2868471  18.9538610  17.1673906
  15.2164435  18.9728045  18.3617425  12.8986299  53.3624759  22.7787995
  12.5002658  54.2308236  22.7195525  13.4961796  53.3216443  22.0321417
  26.4285231  54.9492450   5.5696058  25.9681630  55.7812103   5.6797528
  26.0075736  54.5409066   4.8131049   0.8941685  12.9567766  28.2613778
   0.6744705  12.8730273  27.3335052   1.5081631  13.6902523  28.2968807
  23.4382081  11.9297457  15.0359225  22.7246523  11.9458592  15.6737387
  22.9992938  11.8812609  14.1866660   8.4852266  30.1228309  22.6300645
   8.9360261  30.9251380  22.3667884   7.5598729  30.3023911  22.4636006
   7.5596708  12.7468336  28.7184358   7.2130704  13.6365759  28.6516714
   7.9310620  12.6999426  29.5994020  21.6495895  20.3302240   5.3707683
  21.9525170  21.2079620   5.6032324  22.3945642  19.9308872   4.9215755
  15.7870066  33.6853743  13.7581372  15.9413433  34.2084527  14.5447755
  15.2995634  34.2674947  13.1752431  30.4718924  17.4925709   5.4725128
  29.7705078  18.0765986   5.1840609  31.1999249  17.6820219   4.8806444
  15.8341706  25.2719688   5.5365413  16.3327241  24.7483969   4.9092060
  16.4127100  26.0037637   5.7510144   9.4084257  21.5616012  11.0019684
   9.7717869  22.4334955  10.8470500   9.6119922  21.3767242  11.9188190
  30.9716773  21.5254831   0.7430483  31.1580324  21.2920141  -0.1663442
  31.2861228  20.7779384   1.2515077  17.7015793  32.7463889  23.0963430
  16.8527710  33.0011821  23.4580550  18.2553172  33.5175037  23.2187644
   5.0585401   7.7892029   9.2861199   5.1578450   8.0329090  10.2064335
   5.6674111   7.0607483   9.1642100  16.9328535  24.6463728  29.4475550
  17.1058559  24.9720621  30.3308604  16.4904761  23.8085008  29.5835870
  22.1185017  49.4915342   0.7697038  21.5305519  48.7431145   0.8717301
  22.9963160  49.1100979   0.7832010  13.4138703  36.0903096   3.5218602
  13.2068372  35.6793714   4.3612048  14.3695962  36.1420035   3.5097665
  30.8719182  49.4564440   6.2575841  30.3583694  50.2596154   6.3436913
  31.3370442  49.3790963   7.0905948  25.2572513  10.0093257  15.1380050
  24.5802569  10.6688726  15.2893639  25.9071159  10.1718712  15.8217335
  30.7279229  24.5669127  27.5267131  29.9540925  24.8906064  27.0655838
  30.5621290  23.6317086  27.6456294  11.4712071  20.8258486   5.3103626
  12.3091722  21.2570834   5.4779464  11.6641986  19.8910975   5.3826565
  43.2995367  19.5000088   8.9757371  43.7431479  18.7887383   9.4378346
  42.3949623  19.4598401   9.2861629  18.0776334  15.2510417   4.0754864
  18.0681944  16.1164021   3.6664724  18.9966202  14.9844265   4.0507162
  38.8628268  16.9088423  17.2088110  38.9953208  16.0459757  16.8162084
  38.9389586  16.7575765  18.1509113  26.7431903  50.6214275   7.5720632
  26.2287426  51.2477510   7.0628524  27.4505496  51.1438181   7.9501909
  23.0823898  16.4904642   6.0689807  22.7908707  17.4009001   6.1175013
  24.0345693  16.5477657   5.9895748  19.1774833  15.1147079   6.6314691
  18.5053909  15.2880371   5.9723175  18.6969483  14.7444224   7.3718786
  40.1867104  21.4018369   7.4139112  40.0852919  20.8807158   8.2103908
  39.5728183  21.0109591   6.7921555  12.0647299   7.2897905  20.1292992
  11.8418849   8.1745321  19.8398101  12.5957334   6.9316578  19.4179559
  33.4000134  28.5478449  21.2164378  33.8570070  27.7893591  21.5798759
  32.8981090  28.1955266  20.4814577  23.6581326   3.7579668  29.7004091
  23.5315275   3.7226841  30.6485434  23.0055356   4.3880635  29.3949137
  23.7981820  19.9082446  11.0144091  23.8652778  20.7572389  11.4513719
  22.9372191  19.9214327  10.5963182  19.7185671  21.2159657  20.8962035
  19.9707448  22.1131277  20.6777120  20.4699755  20.6849504  20.6323123
   5.5975401  33.2436752   4.1110104   5.6184214  32.2867036   4.1126606
   4.6800202  33.4635019   4.2724583  24.8260760   1.7543811  28.0627770
  24.7654724   2.1069634  27.1749455  24.3873453   2.4059922  28.6097232
  44.6046972   6.4692903  10.2466834  45.1570654   5.8331138  10.7009983
  45.2233267   7.0687068   9.8292738  28.1332326   5.9640443   1.8852688
  28.3617473   6.8584245   1.6320966  27.5831985   5.6456345   1.1695109
  22.6843166  16.3857305   9.5971966  21.8698835  16.8784022   9.4961691
  23.3300400  16.8853748   9.0975696  35.1097250  31.8980026   6.0359550
  35.5278230  32.4075818   5.3418690  34.2725015  32.3375344   6.1846304
  25.6625843   6.4942235  22.2395990  26.4418221   6.7645144  21.7538390
  25.6868267   7.0167732  23.0412135  22.5175309  33.3904958   8.1150544
  21.6181445  33.6970425   7.9994482  22.4275494  32.4664021   8.3478314
   0.4478115  51.9285151  14.5943820   0.7137626  51.0471865  14.8566079
  -0.2067193  51.7875972  13.9103043  25.7141972  30.3283238   7.0537382
  25.0393605  30.9725976   6.8398726  25.6747532  30.2474999   8.0067039
  32.2290683   4.3810517  23.5442924  31.7410231   5.0025576  23.0041337
  32.3357606   3.6108154  22.9860950  20.1415467  35.8808064  26.8271482
  19.3557918  36.4273810  26.8359483  20.8674097  36.5046263  26.8414125
  12.4719620  30.7137871  11.9309056  11.6748011  31.2430477  11.9563854
  12.7437997  30.6459904  12.8461862  16.4295411  25.1420355   1.7773849
  16.9013417  24.4447780   2.2328696  15.5740499  24.7617412   1.5780306
  42.7157116  23.3670020  10.6573093  41.9888401  23.8107944  11.0942769
  42.2946692  22.7440357  10.0649679  34.0054178  15.1195753   4.1167381
  34.8163867  15.3239357   4.5823526  33.3231449  15.1822412   4.7851762
  15.3678238  25.8971429  20.1402274  14.6469700  25.4614067  20.5949072
  15.2778494  26.8200207  20.3777853  27.8938031  31.1636257  11.8172085
  28.2945442  31.3333154  12.6697612  27.9896832  30.2196217  11.6911232
  34.8834085  22.5103760  10.0001419  35.2307940  22.7437043  10.8610213
  35.5886507  22.7274179   9.3904233  26.8756843  10.1255059   2.8178659
  26.1738467   9.4922680   2.9684132  26.7742324  10.7671344   3.5208964
  25.1038218  16.1203313  21.2264148  25.2845645  16.0304558  22.1620891
  25.8678079  15.7355738  20.7968584  17.9750752   7.2993773   0.2161834
  17.6115227   7.7092570   1.0010783  17.7818513   7.9178405  -0.4883733
  19.4756925   1.6596882   0.5429698  19.1548038   1.1371082   1.2779340
  20.3468943   1.9473276   0.8159254  21.3852501  25.6616664  16.6447473
  21.8129325  26.5177727  16.6246748  22.0790744  25.0532198  16.8989789
  22.0012283  10.5107450   5.6905854  21.2427855  11.0194731   5.9772772
  22.6213861  11.1654830   5.3697205  27.4489117  22.8355360   7.4816471
  27.4001694  23.7911320   7.5079519  27.7550435  22.5872254   8.3539176
  18.6411202   0.4153420   3.0248195  18.8356888  -0.5168824   2.9282171
  17.7730179   0.4383633   3.4274352  26.2787008  30.2430296   9.6569002
  26.3031173  30.2907372  10.6125987  26.7032886  31.0500407   9.3658805
  15.9512413  10.7649124  12.7276492  16.0924804  11.6617298  13.0309641
  16.8096685  10.4800653  12.4142814  32.7201128  51.8030330   4.6624097
  31.8424749  52.1429159   4.8369461  32.5799704  50.8842876   4.4332850
  26.5788555   9.9439514  10.6093180  26.8131185  10.5464327  11.3152707
  25.6238866   9.8905897  10.6470013  14.8654389  55.9835242  17.8512466
  14.6862626  56.5445203  18.6058402  15.7845354  55.7351675  17.9503012
  39.2633343  19.3987370  12.2902846  39.1039801  18.9591396  13.1255043
  40.1283073  19.7963476  12.3900962  23.5827327   0.2660839   5.5766916
  23.6515045   1.2076443   5.7346988  23.0842423   0.1956232   4.7625810
  19.7918463   8.6499852   3.5340425  20.5568123   8.3001846   3.0772048
  19.7113168   9.5482290   3.2132551  28.4473443   0.5716440  10.0483930
  28.2444525   0.1096232  10.8617830  29.2560172   1.0472287  10.2383912
  32.2096038  48.6099639   8.3979678  31.6304040  48.5914286   9.1598177
  32.2274947  47.7043100   8.0886090  14.8768759   7.1531600   5.5753303
  14.5686197   6.3679212   5.1229924  15.8312714   7.0985633   5.5265474
  22.9514050  11.8742645  20.5958823  22.9918337  11.2193060  21.2927518
  22.6510954  11.3884664  19.8277382  15.9855449  29.2603755   1.4144561
  15.0587118  29.0373850   1.5009795  16.1024904  29.4404864   0.4816560
  11.6088223  46.0157347  11.4627743  10.9247971  45.5969906  10.9402883
  12.2093260  45.3043890  11.6855097  35.5040503  26.2187958   3.3281469
  36.2271547  26.3829398   3.9334637  35.4468465  27.0160675   2.8015387
  32.3266578   9.4188172   6.3302892  31.3939786   9.6271092   6.2759316
  32.3552322   8.5515368   6.7343187  19.3391907  10.8561051   6.7224371
  18.3936894  10.9772837   6.6354048  19.4709218   9.9142206   6.6141284
   2.8919247  35.0265431   1.3757105   2.7538446  35.5343938   0.5761778
   3.8435167  34.9665928   1.4600335  14.1848874   9.9499381  26.3067865
  15.0280237  10.2761996  25.9922910  14.3937469   9.1191041  26.7337823
  12.7906501  18.4282672  23.4584689  13.6193287  18.8103306  23.1694198
  12.3426545  19.1426229  23.9114904  19.6960044  24.1848230  25.7053581
  18.8860476  24.5908141  25.3965310  19.8996198  23.5233569  25.0441221
  34.1803789  10.1835823  24.7760419  33.9454007  10.1046658  25.7005904
  35.0535607   9.7959137  24.7169039  23.3662558  23.9471102  17.8369311
  24.0572381  23.6041141  18.4036127  23.4704733  23.4676266  17.0150653
   7.5666440  22.6352882   9.0587735   8.2525164  22.2020125   9.5667934
   6.8682581  22.8013015   9.6919620  32.2257614  35.0940251  20.9035114
  33.1026936  34.8178172  21.1698393  31.8217182  34.3011856  20.5508271
  11.5790522  23.8486218   5.0096816  12.4317682  23.4184551   5.0734299
  11.6794431  24.6554446   5.5148453  43.9089584   6.9636571   5.9297276
  44.7723532   6.5903401   6.1069715  43.7469435   6.7651993   5.0074482
  32.8299713  21.2109399  28.8787112  33.6514950  20.9498596  29.2948442
  32.4750924  20.3982139  28.5184715  20.3161955  13.9407158   3.5086572
  20.6552625  14.7490692   3.8931429  20.8868408  13.7746358   2.7583146
  37.6822877   3.8502255  29.6181626  36.8082595   4.2121655  29.4722006
  37.6953936   3.0418199  29.1057757  20.7834029  12.9110765  17.3597777
  19.9778664  13.2463825  16.9661903  20.7480097  13.2091963  18.2686806
  32.7212334  21.6019368  25.5387068  31.7854095  21.6355586  25.7370353
  33.1407738  21.4575124  26.3868594  33.9465332  11.1185646   2.6119909
  33.6656165  11.8198264   2.0241559  34.5689988  11.5385771   3.2055888
   7.3530000  17.3984742  18.1417382   8.2893401  17.4823225  17.9615486
   7.2624248  16.5331173  18.5407209   3.0795866  24.9432468  20.1770902
   2.6383802  24.6404266  19.3834484   2.9614571  24.2295694  20.8039427
  31.8163419   4.5640332   3.1511807  31.2446046   3.8693076   3.4778392
  31.9678044   4.3378919   2.2334924  34.7409582  34.3700147  30.3210272
  35.4810500  34.7880602  30.7611784  35.0668597  34.1680789  29.4439635
  29.7795177  54.6914916   7.8429782  30.6696105  54.5492699   7.5208920
  29.8863578  55.2803480   8.5900158  34.3293333  18.8703060  30.1470058
  34.6388340  19.4759011  30.8205752  34.8928595  18.1019938  30.2384785
  34.8801374  20.1646209   1.4749198  35.6304860  19.7202659   1.8695804
  35.2388358  20.9844065   1.1350439  13.2668960  25.6642079  28.3312774
  12.3497713  25.9014702  28.4684654  13.5241628  26.1466694  27.5456083
  19.8699236  15.2145171  28.3170850  19.8889291  15.9764493  27.7380091
  20.6856775  14.7503781  28.1290648  32.1281481  36.4633155  16.3423383
  31.2637830  36.8743730  16.3540828  32.4954987  36.6533780  17.2055662
  33.2614040  29.6426201  28.3466515  33.9278269  29.8567367  27.6937590
  32.8599262  30.4839563  28.5639124  33.7503934  19.1584206  16.0798478
  34.2486000  18.6482215  15.4413188  34.4122219  19.6652627  16.5503001
  32.0911217   7.2225291   0.7690949  31.9464898   7.3703778   1.7036827
  31.5697908   6.4458764   0.5659739  40.1102877  15.6441891   9.7552323
  39.5011783  16.1262202  10.3145742  40.2939129  14.8390234  10.2391970
  31.0091686  16.6060627   8.1494486  31.0438204  17.4644113   8.5716677
  30.9748530  16.8010175   7.2129411  45.0854015  14.1435802  23.4592620
  44.4004679  14.2775261  24.1143594  45.7343054  13.5949790  23.8999305
   7.9273677  21.7506671  14.2789590   7.7375329  21.3321590  15.1186275
   8.7250978  21.3200617  13.9716518  22.5679564   9.3329877  21.9687295
  23.3274698   9.0368521  22.4704003  22.3653650   8.6008942  21.3862967
   4.1074327  30.3999448  23.2893888   3.1605780  30.5207300  23.2179115
   4.3862858  31.0621023  23.9218584  43.0768959  18.0507267   0.8587328
  43.6849195  18.7591374   0.6473237  43.6186959  17.3915148   1.2924652
   5.7022637  25.6535530   9.3086994   5.4361242  26.5703273   9.3788838
   5.1015222  25.1847386   9.8879695   8.7836063  23.2270432   6.1027324
   8.4085280  23.0539751   6.9662112   9.2763501  22.4338555   5.8922845
  21.7999220  16.4191365   3.1337279  22.7020288  16.6924322   3.3002907
  21.8001628  16.1369073   2.2190815  17.4623036  14.0681922   8.6361486
  16.7361009  14.6913016   8.6605585  17.0416749  13.2088768   8.6658537
  38.3217049  16.3629329  11.5598989  37.3803544  16.4069307  11.3921022
  38.5847163  17.2741044  11.6896033  27.2166872  26.9814825  28.9030713
  27.0257306  26.4703226  28.1166348  27.4018550  27.8622365  28.5771637
  25.9025192  25.5423641   7.3487359  24.9954462  25.8175874   7.2156948
  26.2244034  26.1090922   8.0497652  22.3818803  -0.0028687  28.7881737
  21.4781189  -0.2664464  28.6150487  22.4933720   0.8092610  28.2939601
  27.4992275  22.8549528  15.4219854  26.7739820  23.4572983  15.2563596
  28.2145357  23.4173107  15.7191670  13.5741818  28.4606981   7.4727595
  14.2615426  28.2479620   8.1040382  13.2228947  27.6112413   7.2058272
  37.9374504  30.1183629  10.1989591  37.0634174  30.3807116  10.4878724
  38.2740712  30.8820844   9.7302949   2.5900398  10.7808399   8.2033777
   2.1523129  10.7232821   9.0526801   1.8829475  10.6987584   7.5634432
  26.3438320  37.3991370   0.3272408  25.4088283  37.2656488   0.1717525
  26.5457535  36.8338251   1.0728152  18.8098526  15.6053734  10.8992445
  18.2907963  15.0114572  10.3569555  19.0662014  16.3103008  10.3046048
  21.8151426   2.6125744   6.8630266  21.3979721   3.0818835   7.5854874
  22.6948738   2.9861984   6.8109709  44.8315668   9.2336345   7.4719584
  45.3006601   8.7777412   8.1707752  44.5037842   8.5336816   6.9072837
  26.2692690  11.4300442  12.9829013  25.7319021  12.2011113  12.8014493
  25.7624435  10.9300721  13.6227357   6.7797965  10.9408021  19.2257500
   6.4927745  10.2166080  19.7819793   6.8147218  10.5671871  18.3451676
  23.3680511  20.8612394  25.1985359  23.2124996  21.5127277  25.8823466
  23.4998679  21.3762808  24.4025540  27.7853346  15.1246333  20.1003647
  28.1605244  14.3055058  19.7771049  28.5234499  15.7336497  20.1230454
  22.4398375  23.2026625  26.5745929  22.9839420  23.9762759  26.7219219
  21.5472651  23.5442615  26.5211538  32.0061159  53.1036043  14.8902214
  32.6323104  53.7964010  14.6801162  31.2656808  53.2645559  14.3053436
  26.4196515  22.9139066  25.0626943  27.3335791  23.1430554  25.2313826
  26.3210917  23.0042410  24.1148773  13.2035267  29.1439080  18.0372810
  12.8156698  29.9878335  17.8057945  13.9269042  29.3655419  18.6236548
  33.9906788  53.7004972   0.2210261  33.6006474  54.2015526  -0.4952494
  33.4271479  52.9319342   0.3103261  23.6349678  48.3895924   5.5755430
  23.8721490  48.9570656   4.8420912  22.7586222  48.6794462   5.8289921
  37.9023647  21.4818335   4.3249220  38.7502599  21.0602427   4.1850325
  37.5769186  21.6636348   3.4432963  16.4412069  20.1935005  19.2204285
  16.6187656  20.4256821  20.1319098  17.2295594  19.7332013  18.9325809
  23.6860991  22.6260328  14.4917715  22.7648067  22.3895311  14.5990860
  23.7321258  23.0210447  13.6210942  11.5975833  25.3656697  14.7221255
  11.6254365  26.1182284  15.3129840  10.7798195  24.9191213  14.9414182
  33.7489343  14.8073649  29.3145251  33.5439992  15.4626036  29.9815297
  34.6241045  14.4960201  29.5455575  31.8396783   5.9142572  20.7084680
  32.6834393   6.2001485  21.0585618  31.3891959   6.7262667  20.4762197
  28.8836884  19.0816426   9.9741739  28.2450867  18.4648395  10.3319097
  28.7172246  19.0789819   9.0315634  11.1487651  21.1893916  17.5588850
  11.0329604  21.7127371  18.3519367  11.1817443  20.2852106  17.8712944
   4.0999597  11.1237943  11.2095463   4.2347607  10.6204486  10.4066133
   4.9832919  11.3436735  11.5055358  38.5380006   2.6358888   8.7027323
  38.8966584   2.5979403   7.8160775  39.2133045   3.0800909   9.2154527
  32.1840858  51.5151154   0.8141948  31.8987513  51.0298451   0.0400321
  31.5150571  52.1890294   0.9344903  20.0894070  46.4150932  29.6734229
  20.0365806  45.4762777  29.4943496  20.4710698  46.4707174  30.5494773
  10.4995167  51.2374020  21.2544701  11.3782573  51.5061808  20.9865073
  10.3023219  50.4798841  20.7035485  17.5870728  12.6100612  25.5406115
  17.6180506  13.3097434  26.1930812  17.3935783  13.0585909  24.7174392
  36.4928365  27.2708917   9.3324161  35.7179284  27.6638007   9.7341317
  37.1589088  27.9569840   9.3755150  13.2228816   7.0578998  11.2393105
  13.6064243   7.9087090  11.0265899  13.9748704   6.4735961  11.3359153
  26.0007811  11.5195668   4.9247497  26.4072156  12.1865094   5.4781294
  25.1221657  11.4095938   5.2883083  17.9830766  26.8663478   9.4454068
  18.8183928  26.6375756   9.0378004  18.0450797  26.5134263  10.3330064
  33.9340663  41.9876286  28.2510138  34.4946694  41.2301549  28.0831170
  34.4655943  42.7408060  27.9932666  11.6795206   3.5179114  18.2648611
  11.1368525   2.9137376  17.7581882  12.4134672   3.7236831  17.6858854
   7.1574897   3.0918077   8.8013252   7.1068281   4.0444613   8.7231192
   7.6592165   2.9436404   9.6029171  42.9396248  13.7594891  28.3030939
  42.9529810  13.2789350  29.1308141  42.8376198  13.0821300  27.6345038
  33.0726552   6.4871407   4.7725853  32.7834487   7.3243207   4.4096502
  32.9810214   5.8677596   4.0485677  20.2174687  17.2816157  26.5958166
  19.7150922  17.8827333  26.0458088  20.7179070  17.8521764  27.1791291
  28.1852818   6.9720447  17.8091764  28.9021778   7.0975935  17.1874607
  27.8309727   6.1089885  17.5950956  22.1023035   4.8192653  17.8122044
  22.5717139   4.0288496  17.5455022  22.3193216   5.4650670  17.1398389
  12.7250159  15.6114852   6.1281570  12.4757302  16.0613537   6.9354400
  13.6345017  15.8708322   5.9804877  14.6336293   4.9317658   4.2003998
  13.8482761   4.3884316   4.2655119  14.9296308   4.8176432   3.2972988
  24.0096831   7.1183151  19.6802187  24.8177528   7.6189303  19.7926545
  23.8570118   7.1190256  18.7352729   2.1246706  13.9480495   1.9041618
   2.4200760  13.6339962   1.0495647   2.6688276  14.7160327   2.0783051
  15.0955713  52.6640525  30.4069948  15.1666057  52.8833171  29.4779587
  15.6187463  51.8686216  30.5060363  43.1828976   9.3372840  20.0845861
  43.6014986   9.8940998  20.7410645  42.2679710   9.2870402  20.3613758
  30.0943494  14.7440648  17.9349434  31.0396075  14.6996963  18.0789971
  29.8532629  15.6320000  18.1989133  27.1973515  10.1564765  23.6015964
  26.4401126  10.1726604  23.0163097  27.8572106   9.6522129  23.1256390
  32.8832650   7.9685920  28.2337189  33.4471393   8.7361491  28.3292937
  32.6915526   7.9274029  27.2968197  27.3688483   4.0020624  28.5933113
  28.3170581   3.9127341  28.6889672  27.0853209   3.1650722  28.2254910
  44.6029997   9.2497826   2.9501637  44.4855499   8.8370162   3.8057693
  45.4695129   9.6538651   2.9960998  41.4366579  25.3894663   1.0059031
  42.0245838  25.7119441   1.6889724  41.6642666  24.4645786   0.9110054
  24.3041515  12.1784949  25.5268216  24.5865440  12.8317916  26.1668921
  23.7597799  12.6674664  24.9097347  26.7788911  56.1049984  28.7402797
  25.8462214  56.2490770  28.5802841  26.8118024  55.6767289  29.5956945
  30.6369185  11.5128803  29.9876809  31.2853026  10.9277642  30.3794336
  31.1413622  12.0615828  29.3871021   3.5043496   0.0704194   2.1316871
   4.1318929   0.7508917   1.8880090   4.0419593  -0.6297711   2.5017413
  30.6293225   6.6127276   9.9617928  30.2701378   7.4792081  10.1526570
  30.6227732   6.5558952   9.0063041  38.3765960  54.8414852  19.3195093
  39.2878413  54.5947992  19.4776618  38.0538964  54.1838237  18.7034106
  20.4360700   0.1638464   6.5049803  20.9948826   0.9309451   6.6295588
  19.8916948   0.1337733   7.2917348  23.4644008  54.8040719  19.5552337
  22.9840922  53.9828541  19.6607614  23.4570718  55.1995396  20.4268885
  17.5470638   8.5286331  21.4464521  17.5264966   8.2711715  22.3681474
  17.1857536   7.7753741  20.9792399  25.9681654   7.0856452   9.5512712
  25.6464100   7.9852635   9.6095109  26.7022443   7.1330017   8.9388031
  15.4761970   4.6087262   1.3586410  16.4045978   4.8397654   1.3890537
  15.4694986   3.6584795   1.2436708   9.2687339  42.5169536   1.3209113
   9.5270085  43.4378573   1.2826642   8.7188876  42.3900994   0.5477294
   1.2394229   4.9992222  10.7675871   2.1658818   5.2201223  10.8630260
   1.2387098   4.1736859  10.2831062   8.9010209   3.4431544  11.1175120
   8.8631552   2.8008044  11.8261623   9.5372510   4.0926895  11.4167571
  16.6561627   1.2067053  24.7180867  16.5116274   1.9351646  25.3219795
  17.1982121   0.5908072  25.2111197  27.5976396   9.1266590  27.0057917
  27.5715613   8.2958084  26.5312004  28.1845999   9.6790767  26.4895153
  40.5089235  47.3099001  17.4363756  40.1367807  47.9526176  16.8325078
  41.2564945  47.7579173  17.8321671  17.5790584   7.0966643   3.9254722
  16.8747234   7.4492019   3.3815416  18.3186066   7.6841670   3.7700995
  26.2447834  47.9588356   6.6371697  26.5903950  48.8074353   6.9140512
  25.4447150  48.1713261   6.1565787  36.2920713   6.1733282  26.1453009
  35.7563424   6.4337629  25.3960371  36.4027166   5.2280009  26.0435867
  26.0574627  12.8431654  16.0091853  25.2373862  12.9268003  15.5226588
  26.0834384  13.6185026  16.5699065  26.3319635   4.9488962  30.9980726
  25.7062888   4.2249018  30.9736609  26.7340231   4.9473891  30.1294088
  25.2862763  16.3988447  24.2658994  24.7410727  15.6255019  24.4105593
  24.7219110  17.1364844  24.4974450  18.8097608  51.2688454  17.5598121
  19.4245708  51.1514702  16.8356133  19.2469168  51.8849363  18.1476545
  22.7893209   5.0613588  21.2180448  22.5166821   5.5218112  22.0116973
  23.3883595   5.6680655  20.7829690  37.1173167  13.2030272   2.1235474
  37.9096556  12.6810920   2.2500976  36.5988469  13.0465698   2.9128155
  16.3569200   7.3458236  23.6602592  16.1889184   6.9620228  24.5209002
  15.4866505   7.5175983  23.3005977  33.6263514  50.8671471  15.6458104
  33.1594849  51.6787388  15.4468477  32.9925895  50.1744219  15.4595065
  23.0196428  45.5525406  28.8048625  22.8845739  46.0085043  29.6355748
  23.6492777  46.0970911  28.3323622   8.6443698   9.6912670  13.0880070
   9.4970345  10.0873017  13.2678699   8.6401552   8.8862598  13.6058664
  37.1557212  13.7279916  12.7011013  37.6522899  14.2950332  12.1110892
  36.4634442  14.2907679  13.0478990  30.8538294   4.5282990  11.6430771
  30.7928324   5.1581383  10.9248745  31.2036848   5.0343633  12.3763788
  16.2033939  44.4284948  11.3995934  15.8176470  44.7481211  10.5839539
  17.1270359  44.6724196  11.3394356  39.1777968   8.4648353   9.2340004
  39.2431879   9.1044068   8.5248429  38.3037639   8.6011887   9.5996630
  24.6287656  17.5542533  27.4859190  24.0648198  17.8686500  26.7792702
  25.5178952  17.7366745  27.1819425  23.4022737  54.3033799   7.0086288
  24.2726684  54.1821419   7.3880273  23.4865928  55.0833026   6.4601374
  -0.1427576  51.4966955  19.5977938   0.6891708  51.3909256  20.0592470
  -0.0508731  50.9580847  18.8118625  30.3474116  12.0382559  17.1859956
  29.8915434  12.8093541  17.5233722  30.2632833  12.1072865  16.2350023
  12.0631516  12.7584827  13.3629021  12.5492394  12.0432317  12.9525789
  11.4343119  12.3219717  13.9375767   3.0386645  52.9288571  20.8569741
   3.1691602  53.2971504  19.9831522   3.8786051  52.5245406  21.0743666
  30.5935526  54.8309109  22.2291231  30.3191209  55.4874122  21.5888691
  29.7749043  54.4542175  22.5518441   2.0203053  38.5496160  13.7733757
   2.1747242  39.1024979  13.0074072   2.8602444  38.5360738  14.2322385
  20.7296896   4.0387869   8.9000285  20.6862283   3.3856386   9.5984125
  19.9201441   3.9140701   8.4047365  20.1105022   3.5502920  22.7455664
  19.8025143   2.6918763  23.0362511  20.6602645   3.3625087  21.9848228
   8.1011307  48.5393318  16.3202214   8.5363156  48.3030214  17.1393692
   8.8176638  48.7117454  15.7094133  19.6634567   1.3723545  14.1086829
  19.4358885   0.5672104  14.5736432  20.1771402   1.0776405  13.3566833
  24.2151856  51.2947198  10.8171781  23.3957267  51.6139664  10.4392895
  24.7454047  52.0822271  10.9393772  29.9572206  14.4112420  25.8407450
  29.0898275  14.8088217  25.7646227  29.9961877  14.0922475  26.7423868
  20.4978418  10.9399080  11.4832529  20.2378321  11.2099993  10.6025251
  19.7597313  11.1911285  12.0385107  17.2032166  12.5588143  20.4226446
  17.5035703  13.3145940  19.9178517  17.9872203  12.2448123  20.8731723
   7.9950176  16.2399137  21.3661218   8.9328610  16.2794340  21.1787009
   7.6950060  17.1446884  21.2789035  14.8631144  28.1357574  23.4150815
  14.0562725  28.3922553  22.9684877  15.4960537  28.8118792  23.1732512
  19.4412088   4.0059111  17.1512270  20.2940297   4.2246577  17.5268328
  19.5683599   4.0854266  16.2058473  10.9603333  56.0162907  26.4419103
  11.7600334  56.4978012  26.6537094  10.8336473  55.4243981  27.1834254
   3.4184587   6.2842607  13.4350920   4.1556507   5.6882596  13.5676157
   2.6463637   5.7626516  13.6542380   1.1940228   0.8642696  29.9842143
   0.3027903   0.5722851  29.7926736   1.1127840   1.3648655  30.7960248
  43.2872963   8.4989756  15.6664717  43.5445118   9.4168019  15.7540262
  43.4118509   8.1308365  16.5412235  35.5295968   2.7978086  14.1638768
  35.7590032   1.9874117  13.7090564  36.2955379   3.3607334  14.0512609
   6.4323610  51.3692953  23.6148739   5.6408101  50.8728041  23.8226604
   6.1660618  52.2858616  23.6871433  36.2780881   0.8538394  28.9304495
  36.0594726   0.5135945  28.0628824  36.3311052   0.0763499  29.4862628
  38.1593180  15.4610705   0.2700051  37.6429152  14.8376012   0.7807359
  38.5677028  14.9302948  -0.4139010  35.4241562   8.4810251   8.1483048
  36.0211301   8.8611346   7.5038141  34.5526242   8.7418419   7.8505778
  12.2476040   4.4083518  20.7327366  12.1844278   5.2953577  20.3785324
  11.8629252   3.8520199  20.0554252  14.7852182  44.9823829  25.5548191
  13.8730609  45.0854035  25.2835488  14.9747348  44.0552803  25.4106116
  31.9076252   9.5573646  23.4698486  32.7980471   9.6659380  23.8039041
  31.6733479  10.4200542  23.1276321  29.1729045  15.4568827  29.4593954
  28.7874579  16.3240814  29.5844173  28.4340167  14.8991919  29.2159677
  24.0861320  14.7503734  27.0704246  23.1317401  14.6807027  27.0931149
  24.2633677  15.6729245  27.2540498  37.3170519  56.1417927   0.6257066
  37.2891426  55.2881975   1.0579428  36.7767811  56.7074201   1.1774358
   9.0462732   3.2678518  21.1222053   9.4094962   3.9872476  21.6387033
   8.2846296   2.9746303  21.6223574  29.3530035  20.0752687  29.2461562
  30.1914763  19.6235263  29.3416882  28.7287617  19.3801117  29.0380383
  12.3145974  12.0436907  18.3654153  13.1848586  11.7783594  18.6628664
  11.9438267  12.5226009  19.1066349  30.8810019  25.4757571  22.6440191
  31.4916325  25.6472015  23.3609366  30.1347208  26.0478020  22.8230762
  35.3939652  22.6558590  26.6449928  35.1321125  23.5161209  26.9730353
  35.7579970  22.2087908  27.4090910  18.7361503  20.8579016  27.1443701
  18.2327759  20.7221913  27.9471326  18.2228255  21.4923429  26.6441536
  26.6920543   0.8041511  14.1900015  27.3956752   1.1643295  14.7298384
  25.9327555   1.3517272  14.3896401  34.8668051  11.9909847  15.5641007
  34.1035914  12.5404668  15.7424402  34.8585677  11.3358319  16.2619102
  16.4590120  41.5813740   3.7656459  17.1637714  41.3295301   4.3624028
  16.5600944  42.5274941   3.6613735  31.1100078  26.5418720  29.4050646
  30.4527307  26.0058832  28.9612889  31.8435502  25.9455943  29.5554066
  25.4173732  50.6475272   1.5494835  24.4927168  50.8513679   1.6898088
  25.6935287  50.2181192   2.3591620   9.4377315  54.0807807  19.4289410
   9.8631579  54.4742291  18.6670732  10.0402677  54.2493217  20.1533556
  28.6770511   8.1572342  11.7829776  28.3031726   8.7075770  11.0948133
  27.9549599   7.5911909  12.0557582  15.8606732  20.9796476  14.3476415
  15.7510221  20.8703136  15.2922332  16.7714751  20.7359600  14.1824543
  35.0668836  27.5114512   6.8246692  35.5256939  27.8691101   7.5848031
  35.1975942  26.5654230   6.8892944  26.4005160   6.0437548   4.2378938
  27.0700049   6.1580956   3.5634005  26.3040376   5.0950807   4.3212119
  20.5536699  10.1591575  24.0161804  21.3350725  10.1268792  23.4642748
  20.2020621   9.2693937  23.9857999  26.2725043  17.6895952  15.3271091
  26.8806767  17.4354076  14.6330297  25.5303884  17.0936489  15.2254045
  15.5021691  39.8570832  24.5441679  14.9510217  39.5439991  23.8269195
  15.4417741  39.1715392  25.2094612  33.7278414  55.5672362  14.1408753
  34.4751215  55.8734986  13.6270583  34.0818429  55.4287364  15.0193596
  30.9464860  48.9878919   1.1459245  31.7580318  49.1320731   1.6325802
  31.1847925  49.1420164   0.2317654   6.6686665   2.6415646  23.3530656
   6.8463169   3.5599774  23.5560176   7.2998463   2.1530765  23.8814834
  28.7212563   1.8670240  21.7165432  28.6492562   1.9094510  20.7629982
  28.3650517   1.0086256  21.9456760  20.2782893  54.5844687  28.1909177
  19.9606252  53.8495839  27.6662601  19.9792123  54.3913636  29.0794532
  11.6056204  51.6608211   0.8852915  11.8581676  52.2233977   0.1531992
  12.3501658  51.0706361   1.0017648  18.8242841   3.5833263   6.9372690
  18.9302921   3.8350198   6.0198569  18.3498299   2.7526355   6.9044429
  28.3780551  27.5374389  22.7070832  27.8579617  27.2371149  21.9617391
  27.9718590  27.1196175  23.4664655   3.7245546  19.9946952  26.5434084
   3.3134352  19.1820478  26.8380559   4.2595182  20.2753758  27.2858802
  16.3905323  13.0561626   4.4809067  16.9007123  13.8653517   4.4468328
  15.5053747  13.3203542   4.2300466  18.4279263   0.4122641  17.7237129
  17.9361963   1.2331879  17.7464533  19.3458545   0.6832343  17.7090454
  42.0551844  56.4144602   6.5494031  42.7109761  56.0713500   5.9424067
  41.6394143  55.6352160   6.9183820  13.7041879  38.6649951   6.5173167
  14.0177596  38.2301780   7.3103100  13.6165428  39.5848270   6.7672318
  13.2332659  17.2098839  15.4699802  13.0611169  18.1166124  15.2161300
  13.1253672  16.7100227  14.6608269  20.7256079   6.1176187  19.7579789
  21.4274144   5.7451946  20.2918315  20.8143806   5.6839377  18.9092898
  13.1014538   5.8377784   0.8011759  13.2476711   6.7228830   1.1350067
  13.8529563   5.3357023   1.1164440  31.4347029  52.5700285  25.6953207
  31.7469931  53.4160878  25.3745536  30.8209872  52.7911591  26.3958094
  26.0955596  48.2815423  16.0893774  26.1887908  49.1914877  15.8073509
  26.0292625  48.3319326  17.0429480  34.2973089  10.0362349  28.8441155
  34.1217351  10.1583338  29.7771204  35.2439833  10.1511848  28.7614942
  33.1277633  13.8842499   1.6818163  33.3287454  14.3466127   2.4954858
  32.2051167  13.6433005   1.7648725  16.3495266  52.8078868  25.1442525
  17.0318031  53.0744021  25.7604513  16.2302125  53.5683953  24.5753739
  16.2870359  44.4137820   4.0608713  15.3374255  44.4853278   4.1575831
  16.4727056  44.8188706   3.2137221  28.2070279   6.7279881  20.8508563
  28.2468700   7.5683737  21.3073611  28.5583138   6.9117904  19.9796247
  12.1589565  49.0754249  16.5501952  12.1590197  48.6415591  15.6969702
  11.3411748  48.7952926  16.9612813  33.1251788   0.2576900  10.3346467
  33.7273026   0.8068012  10.8367968  33.2726598   0.5115931   9.4235951
  26.2515521  11.8576181  29.6194074  26.7131662  11.0193181  29.5994689
  26.9473815  12.5130987  29.6683896  22.0747948   5.5705184  28.4994907
  22.3076916   5.7842165  27.5959835  22.0749426   6.4136338  28.9526882
  17.5593984   4.7913477  29.1384197  17.7238584   5.6836659  29.4433028
  18.4256792   4.4512632  28.9145145  11.7238736  52.0129126  27.7099466
  11.9217968  52.2061621  26.7935896  11.9575799  51.0907759  27.8161454
  18.2929707   5.6316435  25.1816002  17.8548372   5.1304162  24.4938204
  17.5824130   5.9341019  25.7471595  30.6658554  42.6176604  16.1958992
  30.4672289  42.6820108  15.2617490  29.8537898  42.8760716  16.6317916
   9.2241347   4.8920453  18.6848235   8.9389122   4.5448339  19.5300007
  10.0940585   4.5153198  18.5523748  34.4484258  53.6310875   6.3443840
  33.8911581  54.3609946   6.0743463  33.9831924  52.8505086   6.0435718
  38.8423800  36.2276527   2.6550832  38.9628172  36.9355460   3.2880247
  39.6153378  35.6738850   2.7651334  39.2220140   0.9200685  29.5431437
  39.5997834   0.2571554  30.1211298  38.3258557   1.0318212  29.8603879
  35.5772591  11.5118337   4.6649399  35.9496379  10.6407821   4.8021770
  36.1398554  12.0957005   5.1736802  25.8350039   4.5616290  24.5140386
  25.7056165   5.2474207  25.1691580  25.7915473   5.0205153  23.6751318
  15.0024784  53.4531551  27.7524981  14.1157746  53.7838126  27.6087857
  15.2311623  53.0164423  26.9319997  26.7597985  14.6065843  11.8766320
  26.2814069  15.3360498  12.2706544  27.3916006  14.3448734  12.5463843
  12.4270701  20.6192565  26.9171852  13.0700135  19.9230945  27.0521445
  12.8945696  21.4238334  27.1415341  24.3371010   2.9917514   6.2922299
  24.2815852   3.9186803   6.0599524  24.9006701   2.9719892   7.0656836
   6.0033411   3.5445407  12.2677279   5.8983487   3.7793165  13.1897306
   6.9147938   3.2613590  12.1949720   8.6472750   2.1315297  13.5167241
   8.1133205   1.8296802  14.2515790   8.9895016   1.3286686  13.1236255
   5.7828325  42.4120685   6.0021615   5.9959608  42.0571979   5.1390994
   6.5213513  42.1569201   6.5550816  25.6604314   2.8165835   3.7464643
  25.4219055   2.5628549   4.6380690  26.5597343   3.1358984   3.8207865
  25.5942225  10.7794952  21.4091754  26.0963297  10.4302621  20.6728625
  25.5585146  11.7225087  21.2489176  15.2558148   7.7265638  19.1601777
  15.8367097   7.1449041  19.6505499  15.8404362   8.3780849  18.7729192
  32.3957157  19.4501448   2.3601171  32.6262665  19.0431631   3.1952477
  33.2270861  19.7749877   2.0143856  36.8031573   3.4735957  25.9278631
  37.5293279   2.8603280  25.8146811  36.2691712   3.3602530  25.1415777
  33.1733775   9.8608178  11.0682476  33.8307071  10.4810715  10.7529140
  32.3947477  10.0502002  10.5447006  20.2612329  13.8453770  12.5913513
  19.8291707  14.3912387  11.9343948  21.0504198  13.5246634  12.1548212
  45.2860461   6.9063991  16.3357735  46.0948617   6.6104615  16.7534697
  44.8872527   6.1067665  15.9925771  13.5342872  12.5130534  27.1892452
  13.3828878  11.7614722  26.6161537  12.6855981  12.6748681  27.6012826
  20.1273370   3.7631312  25.7566381  19.4523883   4.4368923  25.8386278
  20.1794934   3.5894844  24.8167658  31.4293456  44.6390410  19.1021311
  31.8019581  44.0235134  18.4708488  30.6344295  44.2081424  19.4162464
  16.8849397   9.6199828  17.9836237  16.7910790   9.5231795  17.0359683
  17.6305687   9.0634936  18.2085431  29.0474796  55.7150222  20.0342035
  29.2935324  55.9598243  19.1421485  28.4360647  54.9870186  19.9227774
  29.0034413   0.6035683  17.1408057  29.1790748   1.0891123  16.3348079
  28.8443303  -0.2943001  16.8496895  25.9794641  17.0351779   6.1822635
  26.3862514  17.8401172   5.8615953  26.6034031  16.3451993   5.9567392
  20.0260758  18.2089055  22.9871106  20.3644919  18.8376760  23.6245704
  19.1594851  18.5440087  22.7569866  41.8738222  20.2668953  12.2735575
  42.6080179  20.8026004  11.9732085  42.2013664  19.8311698  13.0603806
  39.5615435  44.7676059   8.0495560  38.7357759  44.9412831   8.5014153
  40.1266956  44.3864056   8.7215096  28.0211878  24.7015810  11.5320110
  28.8599110  24.6248651  11.9868624  28.2566667  24.7869372  10.6081629
  22.6386857  51.1275315  22.6083159  22.6594162  50.6687065  23.4481263
  22.2163844  51.9642173  22.8028655  18.8071275  52.2302305   0.4586584
  18.5035896  52.5235444  -0.4004478  18.3418095  51.4073613   0.6089819
  29.1892219  12.6697993  10.9329426  29.1224170  13.3700967  11.5820599
  28.2816458  12.4341166  10.7406163   5.3292261  26.7440486  22.6081800
   4.6098696  26.6215324  23.2276511   5.9362827  26.0297346  22.8017569
  25.4870248  52.9149317  27.9982874  24.9283814  53.6780470  27.8506223
  25.5864191  52.8712931  28.9493123   1.3007055  52.5673353  24.4786671
   1.8614899  53.3105554  24.7008685   1.4768683  51.9214191  25.1627663
  24.3152595   5.7007325   6.2452757  23.8271022   6.2778890   6.8324953
  24.7994661   6.2956315   5.6726760  17.1388519   1.2535030   7.5117940
  17.2151470   0.4617798   6.9792670  16.1976910   1.3587837   7.6509452
  31.1194944   3.6688620  19.4444684  30.5065417   3.9967370  18.7864271
  31.3810658   4.4468984  19.9368826  24.6504140   3.1416363  14.0472960
  23.8368249   3.6448184  14.0139580  24.5906448   2.5401977  13.3050489
  17.1522689  25.0868607  25.2331856  17.1450138  25.7348657  25.9376503
  16.2396562  25.0307608  24.9499497  24.0889049  27.4380255   1.4097294
  25.0176454  27.6688242   1.3896450  24.0124440  26.8152857   2.1326264
  19.7271228  32.8584313  15.5851746  20.2336097  33.0190420  14.7889912
  18.9481199  32.3912358  15.2833211  25.7535362  17.9765475  18.2147757
  26.2535477  18.1508768  19.0121642  26.3008666  18.3205318  17.5088469
  24.2485833  54.1984361   3.9277241  23.4772730  54.3583054   4.4715589
  23.9319706  54.2928822   3.0293539  27.2170115  21.2417769   0.4417691
  27.8399754  21.9542742   0.2986083  27.5150275  20.5425382  -0.1400241
  30.3935051  48.7555691  26.7921895  31.1143088  48.1789800  26.5387714
  30.6031990  49.5951398  26.3830671  24.9659896   7.4830961   0.3034909
  25.3326201   6.5988952   0.3017758  25.1954031   7.8358394   1.1632428
  20.5680203   7.1983325   0.9943586  21.2064648   7.3922074   0.3080392
  19.7180140   7.3411006   0.5780199  31.8599105   7.9179543  25.7224941
  31.2011099   7.2433740  25.5577040  32.0342231   8.2979250  24.8614073
  40.1253414  54.8778682  27.6966402  39.4571233  54.4179895  27.1884799
  39.6371174  55.5289604  28.2005722  26.9658113  28.4311652   1.5202743
  27.8906918  28.2127595   1.4057137  26.9706488  29.2080808   2.0793913
  22.0006156  33.4557271  18.0547476  21.3228011  32.8562975  17.7425253
  22.6544237  32.8870630  18.4614253   2.9016292  42.6874685  16.4402246
   3.3024338  41.8735504  16.1350584   3.3279139  42.8646708  17.2787428
  10.6140256  37.6147556  11.9099331  10.8197236  37.3749328  11.0063815
   9.6805000  37.8258085  11.8951261  14.1116774  54.3511724   5.8336198
  14.7127450  53.8954639   5.2443165  13.3335447  53.7943363   5.8595926
  43.0210020   3.1311492  20.9495616  42.3496927   3.2649592  20.2804804
  43.4217711   2.2921208  20.7223105  20.6299329  51.2648582   2.3614224
  20.1429081  51.9054985   1.8431386  21.0845160  50.7276583   1.7125758
  41.9051055  26.3756633  12.9266655  42.6941658  26.7194319  12.5078118
  41.5133567  25.8037353  12.2666168  16.8560147   3.6837844  14.1545665
  16.4377618   2.8311423  14.2741609  17.7586257   3.5504941  14.4439793
   3.3388072  44.3586636  20.8731341   3.4273377  45.2230453  21.2746787
   2.3958287  44.1945744  20.8633232  31.3406181   0.7613400  13.6977601
  32.1481347   0.3850106  14.0477943  31.6277838   1.3029841  12.9626489
   1.4973509  48.2775974  24.3716621   0.8064382  47.9801559  24.9636078
   1.9290227  48.9885330  24.8454356   1.2169013   1.2485341  15.2217126
   1.0536991   0.3093080  15.1353884   0.3672902   1.6557864  15.0527799
  19.6168649  15.0333241  25.0991392  19.9814308  15.7869319  25.5632567
  18.9454567  15.4058913  24.5276165   4.7890678  49.9165010  18.2940626
   5.0608379  49.0925837  17.8896713   5.3537446  50.5775642  17.8936064
  29.0070809  50.9493065  10.5285144  28.1051220  51.0869932  10.8179021
  29.0615238  51.4056492   9.6888590  18.2413399  32.6405883  28.5690427
  17.6135552  31.9797325  28.2768345  18.9021039  32.6658273  27.8769541
  12.6046503  46.9895554  14.9917340  13.1995595  46.3048983  14.6858561
  11.9903743  46.5336132  15.5670738  30.6154990  47.9433870   3.9185259
  30.4413915  48.6216593   4.5711118  30.2919483  48.3128357   3.0969068
  21.0260081  53.7744141   8.4072265  21.6689777  53.9782667   7.7280649
  20.5921364  54.6090078   8.5845479  11.3733947  53.0247831  10.0834143
  10.5992138  53.3004045   9.5925891  11.7792630  53.8430071  10.3697944
  45.2486652  40.7528162  24.9241352  45.8525203  41.4828920  24.7878051
  44.3899981  41.1053658  24.6903992  44.9449890  38.3411694  23.8681507
  45.0772903  39.0522408  24.4951320  45.3498869  37.5787663  24.2817092
   5.5385649  51.0650301  26.4062905   5.3839809  51.5597296  27.2110319
   6.4886159  51.0854816  26.2913275  14.9960268  46.8467140   8.2518089
  15.7096016  47.2080517   8.7776190  15.4225123  46.5269136   7.4567801
  22.6922631   0.6329755   0.6870779  22.5751877   0.5148963  -0.2555672
  22.5876474   1.5743379   0.8253607  41.4755069  45.0898504  27.9554772
  40.8863501  44.3811655  27.6968479  42.2224547  44.6458721  28.3569551
  18.0914807  52.4024010   8.9067250  17.3075140  52.8083134   9.2766732
  18.7935448  53.0267906   9.0896803  16.7242098   6.0598353  20.5433750
  17.4134266   5.8520345  21.1742711  16.0060930   5.4688577  20.7698321
  45.3747025  54.2855835  20.9103608  45.7405373  53.7958002  20.1738095
  44.8688048  53.6378813  21.4010525  45.0827011   7.3076562  23.6123180
  44.5543966   6.8901376  22.9320192  45.6017661   6.5944318  23.9839506
  28.8434029  48.5139465  23.8450742  28.0804181  48.6784601  23.2909775
  28.9413929  49.3139553  24.3614244  41.9905813  45.9479570  15.4564774
  42.3443027  46.3902712  16.2281442  41.9176467  45.0302982  15.7188082
  45.1121837  32.1963072  17.6937509  45.1146064  31.6283727  16.9232464
  44.3133256  31.9582415  18.1642628  12.1052468  42.1773672  22.3543382
  11.6710818  42.8857613  22.8296375  11.4547110  41.4758921  22.3232460
   2.4456163   2.2742108   5.3823161   1.7305642   2.1113233   4.7671738
   2.8137890   1.4079741   5.5564177   7.6262283  40.3417969  30.1884270
   8.4392858  40.6618881  29.7976422   7.6821208  39.3893528  30.1112437
  25.7288885  49.0096760  25.1340413  26.3501740  49.2593908  25.8180594
  25.8073401  48.0575132  25.0752258   6.0826010  48.0287218  30.1999497
   6.0537773  47.2335291  30.7319903   5.4891199  47.8504324  29.4704127
  41.8482233  48.2552481  13.6448014  40.9657402  48.5402632  13.8819122
  41.9873576  47.4573183  14.1548812  17.6563036  37.0284891  24.6830440
  18.3248615  37.5144410  24.2002273  17.6147902  37.4611521  25.5358696
   0.3348879  52.3843765  29.8371363   0.7656629  52.4126577  30.6914568
   0.7959624  53.0405569  29.3145728  36.6318954  47.6611376  16.3791788
  37.2712888  47.6038504  17.0891964  36.5100177  48.6005592  16.2418401
  15.8089578  50.4834509  15.0512195  14.9929798  49.9989510  14.9260211
  16.3989341  50.1358509  14.3823886   1.3499302  10.4166249  26.0810215
   1.3727739   9.8375253  26.8428290   1.2716837   9.8249654  25.3326604
  30.8589865  51.5641975  12.5301492  31.2215222  52.3784781  12.1812296
  30.2943136  51.2345028  11.8310928  40.8333956   1.2661628  11.1171174
  40.7531290   2.1613482  10.7878363  41.6735662   0.9598378  10.7757819
   6.4019215  45.0870037   6.3865312   5.9340197  44.2878342   6.1443886
   6.3717407  45.1016998   7.3431429   5.8557260  12.6721076   1.0187301
   5.8025831  13.2064036   1.8111571   5.5537778  11.8061856   1.2930163
  38.5021843  11.1549787  17.1326661  38.0711616  10.5036143  16.5793335
  39.2390610  10.6863622  17.5246382   0.0196710  49.3244696   1.8423283
  -0.1721019  48.7672615   2.5966305   0.9708909  49.2781973   1.7460427
  38.9449401  46.7936850   2.0073313  39.4764079  47.1715975   2.7080113
  39.5619781  46.6494274   1.2899151  44.5356163  47.8599262  25.5359936
  44.9916322  47.3584366  26.2118578  43.6079706  47.6810122  25.6899261
  16.9613183  54.9782705   6.4595183  16.0241306  54.7837257   6.4515671
  17.3802149  54.1480398   6.2326511  26.5843272  48.6823511   3.5194763
  27.0793104  48.5546827   2.7102026  26.3122797  47.8010321   3.7754067
  12.9642427   6.9321231  25.3718328  12.2130704   7.4435786  25.6724763
  12.6605189   6.5102509  24.5680881  29.1038491  47.0095491  18.2914078
  29.0208234  47.6745129  18.9749026  28.2384612  46.6029644  18.2464242
   9.0056801   3.8770131  27.5799656   9.8243827   4.2282466  27.2298360
   9.2196804   3.6193255  28.4766436  13.1664991  54.0945053   2.2795452
  12.9964983  53.5998726   3.0812126  12.5123489  54.7932720   2.2859891
  16.1021435  50.9684896   3.7553519  16.3778555  51.7407465   4.2491490
  16.3980699  50.2276897   4.2843851   9.7624499   0.0438289   5.0358828
   9.0617061  -0.5863162   5.2035340   9.4169676   0.8770589   5.3561958
  36.0672069  33.5774803  27.0519588  36.3726544  32.6816297  27.1947396
  36.8096900  34.1266632  27.3036546  11.0474384  45.1297426  22.6690960
  10.9962070  45.7408619  21.9341540  10.1856220  45.1796675  23.0826306
  20.0235629   3.9335088  28.8255262  20.7807827   4.5099811  28.9281201
  20.0970721   3.5982779  27.9319668  12.1150076  43.3680105  18.0668402
  12.7237630  42.8348875  18.5781443  12.5671804  43.5181427  17.2366405
  42.7596374  34.4401383  30.1370192  42.2502117  35.1133537  30.5881262
  42.2125815  34.1829419  29.3948507  20.7728910  48.0467129  27.5338268
  20.6040764  47.3229265  28.1370401  21.6379952  47.8584528  27.1699762
  32.5669312  52.9902649  22.4101067  31.9949937  52.2249269  22.3520088
  31.9669366  53.7333965  22.4733210   1.2990277  46.2250090  20.4728985
   0.3509066  46.1936092  20.6006193   1.4098544  46.3420773  19.5293713
  43.4106117  51.2939310   3.8335156  43.4084187  51.7329168   2.9829180
  43.9030912  50.4866600   3.6851487   1.7473641  51.5976286   3.9415452
   1.8920942  51.8599176   3.0324298   2.2558516  52.2248363   4.4556299
  44.1368587  52.3110485   6.2044293  43.7467046  52.1426201   5.3467321
  44.8367047  51.6624928   6.2807357   3.4065354  54.4697332  18.0656159
   4.1593295  54.5601892  18.6498678   3.1630605  55.3694201  17.8476298
  21.2290430   6.7722157   5.1995188  21.6565967   6.1888341   5.8264935
  20.8154535   7.4443034   5.7412529  40.7227699  47.4816418  29.9554021
  41.5970860  47.1707106  29.7206171  40.8717601  48.3423424  30.3468469
  10.7306457  45.6302643  19.2536071  11.0355997  44.8906612  18.7280372
  11.5326738  46.0650110  19.5433894  38.0425961   5.2200870  18.4351337
  38.5756840   5.5683497  17.7204573  37.2156240   4.9753932  18.0198336
  34.8628212   9.8103360  17.3737431  35.1217140   9.1671447  16.7138100
  33.9316787   9.6428040  17.5191343  15.2847552   2.6094464  10.1593864
  15.0855136   3.4985713   9.8661417  14.4285154   2.2119788  10.3178191
  33.0851817  -0.3230258   5.4916435  33.6422968  -0.0293752   4.7707948
  32.8707266   0.4777602   5.9701616   9.3753701  31.4027858  11.0555518
   9.5694971  31.4443016  11.9919395   8.6591691  30.7714272  10.9871876
  44.0915254   2.1507005  16.1020458  43.7935033   3.0336551  16.3206935
  43.5353841   1.8846587  15.3698158  17.5387120   1.6281012  11.5157056
  16.8022287   1.7919139  10.9266472  17.1555507   1.6582707  12.3923516
  19.7980320  51.6829586   4.9560663  19.8104274  51.1423302   4.1662586
  20.1877046  52.5137663   4.6837622   7.7444780  52.6142788  10.5647445
   7.1639395  53.3745432  10.5994737   7.1529031  51.8627596  10.5261576
  40.8747779   6.2377623   1.6955073  40.1160408   5.6733636   1.5471798
  40.8304857   6.8877963   0.9942742  42.7869852  11.6337613  26.4350999
  43.2587403  10.8800248  26.0807601  42.5841935  12.1710185  25.6692902
  24.3823671  50.5013275  28.1375504  24.8842478  51.2450075  27.8039503
  23.6611986  50.8986950  28.6256576   9.1507608  50.7390547   2.2921237
   9.8613286  51.1909008   1.8369749   9.1222465  51.1478662   3.1571609
   4.9335963  47.6937914   2.3208556   5.6900495  48.2577038   2.1595675
   5.1337290  46.8843317   1.8508036   9.0873653   7.1323852  27.4491405
   9.4253534   6.4124421  27.9817510   8.5351610   6.7065123  26.7934489
  19.0029693   8.2436589   6.3323826  19.0304506   8.3180503   5.3784734
  18.5113609   7.4387673   6.4957917   5.3452295  53.2810163   7.5137806
   5.7484853  53.5273504   8.3462089   4.9504137  52.4255657   7.6827765
   1.1883012   3.9821938  28.6410553   1.3720578   4.0726689  29.5760844
   0.2918686   3.6485890  28.6043160  43.5284743   9.2716054   0.4179870
  43.8302375   9.1913251   1.3228217  44.3317591   9.2806796  -0.1024771
  17.0236921   2.8126697  17.1223119  16.5664029   3.3421878  17.7755586
  17.9226851   3.1411437  17.1344141  11.3647354  51.9294405  15.5092895
  11.5622044  51.1460161  16.0225976  11.0071218  51.5934467  14.6874297
  45.1856351  35.5103874   2.2895753  45.2173947  34.5751762   2.0880739
  46.0474852  35.7055259   2.6574984   3.3305717  52.3286057  14.7129905
   2.4307775  52.1417618  14.4452393   3.4078711  51.9367790  15.5828929
  35.0908901  52.5005913   3.1427625  35.4189791  51.6082478   3.0318063
  34.1659821  52.3900509   3.3631200   1.0786901   0.9611443  26.7499438
   1.5279138   1.2888841  27.5290555   1.6096820   0.2186564  26.4618579
  14.7475314   4.3047646   7.4030578  14.5788503   4.3660525   6.4628339
  14.7645676   5.2135686   7.7030790  15.0047529  47.6177597   1.7998478
  15.4547369  46.7800522   1.9093552  14.6154594  47.5681973   0.9267924
   5.9765387  15.9257773  23.4245793   6.5177500  15.5375365  22.7371267
   6.5954268  16.4078311  23.9730636  11.3692904  11.6474275  28.7203917
  10.5324197  11.1999349  28.5953774  11.9933844  10.9433822  28.8966224
  10.1987350   1.0032824   9.1783023  11.0104108   0.5097941   9.2961293
   9.9316567   0.8138160   8.2788557   4.2170084   4.6234111  10.5211258
   3.8552243   4.1761426   9.7560793   4.8057798   3.9813260  10.9177494
  32.3951554   6.8414048   7.3074484  32.6872945   6.5445212   6.4456201
  33.0108643   6.4398078   7.9205179   1.7897835  46.6257286  17.7542678
   2.3777097  47.3783255  17.6897207   1.5211532  46.4535570  16.8518118
  39.3351091   2.3790196  22.1958945  39.1628285   1.5642051  22.6677290
  39.5251764   2.1013001  21.2998042   6.3746679  48.9202833   5.4843521
   6.2266654  49.5822430   4.8089761   6.9812024  49.3352747   6.0976446
  14.2151582  50.5914307  17.7813033  14.9915981  50.7589245  17.2471515
  13.6425555  50.0732994  17.2157065  42.9065804  29.7728086   7.5894237
  42.3818131  30.0885320   8.3250660  43.6152632  30.4112315   7.5093144
  16.0355997   5.4709939  15.9900892  16.1465192   4.6060924  15.5952787
  15.2989542   5.8576707  15.5167329  35.0195397   1.1150769  20.4521060
  35.8740742   0.7462195  20.6755972  34.4046356   0.3941134  20.5875254
   5.9654105  50.6604195  11.0498357   5.0260472  50.8295679  11.1220634
   6.1295700  49.9512625  11.6714311   3.2461330  49.6030760  25.7735488
   4.0406549  50.1312590  25.8509669   2.7381155  49.8185730  26.5556688
   4.2290300  53.4554100  31.0655592   3.9618286  54.2366505  30.5813027
   4.6050787  52.8784847  30.4007497  42.4031155  54.8298979  10.1969206
  43.2950669  55.0183249   9.9051154  41.9463692  54.5479250   9.4043887
  10.0389040   5.6851367  15.8653402   9.5845866   5.3194217  16.6243398
  10.6679392   6.3031701  16.2376010  33.4169377   6.9362287  10.2076519
  33.5737766   7.8286532  10.5162120  32.5040711   6.7608146  10.4359865
  13.6989522  49.4436646  13.3654475  13.7917292  49.4034719  12.4136019
  13.0688810  48.7539244  13.5740185  20.8025980  49.1675091  11.0995197
  19.8809123  49.4184256  11.0381210  21.2832284  49.9650335  10.8777654
  39.4840242  48.7617970  15.4354680  39.4175269  48.4969473  14.5180464
  38.6066450  49.0721273  15.6593704  19.0324771  51.9440413  23.5720706
  19.5972216  52.4132442  22.9579473  18.3161592  51.6104937  23.0318236
  14.0110517   9.5270041  10.8578134  14.7002876  10.0791434  11.2270391
  13.2662714  10.1174525  10.7442212   7.1805823  54.1830158   5.5194789
   6.3627476  54.2900276   6.0052013   7.0084596  54.5865917   4.6687537
   1.8957473  42.4476576  24.9681983   2.7077073  42.1407032  24.5648000
   2.0792319  43.3537340  25.2163795  31.7629290  43.1663322   3.4048596
  31.1580920  42.9941416   2.6832262  31.5268970  44.0418339   3.7114811
  14.8733771  42.3406506  29.2644075  14.0894902  41.9747829  29.6741529
  14.5401621  42.8685522  28.5387901   0.1395242  44.5414877  13.1830525
   0.7797565  43.8346243  13.1013346  -0.1326920  44.7232533  12.2835577
   6.1642605  51.9594049  14.3808901   5.2245849  52.1104193  14.4830441
   6.4495546  51.6379404  15.2361679  12.4220836  44.3466139   1.0050484
  12.7008593  44.6257687   1.8771663  12.9826581  44.8389578   0.4053897
  35.3402568  31.1072397  23.0607734  36.1375029  30.6644511  22.7699677
  34.7318674  31.0107732  22.3281155  13.3357477  30.5955482  14.9860648
  13.9912486  30.5524445  15.6822625  12.9162431  29.7352624  14.9984792
   6.8046892  23.5975170   4.0846410   7.5758243  23.8697886   4.5820853
   7.1607208  23.1592464   3.3117291  15.5592632  50.3559160  28.8325584
  16.4119792  49.9475050  28.6831965  15.0982225  50.2594090  27.9992760
  41.0511847   5.9560756  14.0855765  41.7820273   6.3650731  13.6220884
  40.8913891   5.1413135  13.6092746  45.6387316  39.9059606  21.6190467
  44.9487671  40.1435947  20.9996030  45.2142662  39.3050909  22.2314337
  22.5456619  45.0594282   2.5441992  21.7116094  45.2052307   2.9906633
  22.4674845  44.1812658   2.1714357  41.0934777  53.6320305   4.6266228
  41.1785234  52.7698278   4.2196742  40.1682205  53.6947775   4.8636755
  13.5720503  47.8115320   4.8687568  13.0196142  47.4855375   5.5792320
  13.1578195  48.6316299   4.6002728  10.1719856  49.4865704  19.3588030
  10.8900928  48.9032221  19.1133225   9.4054842  48.9153433  19.4079006
   1.8487395  32.3621392   1.4602527   0.9118287  32.5546813   1.4970859
   2.2695008  33.2217669   1.4450177   1.6675770  37.4188924  27.2609520
   1.6765456  38.3748078  27.3097301   2.5821841  37.1779943  27.1136665
  43.7430721  43.2830620   4.3123171  43.8829471  43.8661003   5.0584620
  43.6725770  42.4106979   4.6999365  19.9423337  33.8722777   7.2905763
  19.9930215  33.2896113   6.5328416  19.0568793  34.2341900   7.2556099
   2.8209314  33.4253311   5.2488264   2.6402190  32.4934411   5.3719219
   3.1294489  33.7245011   6.1041316   3.1288022  27.3372960  26.1900210
   3.0484420  26.8412328  25.3753448   3.6680335  28.0933237  25.9578919
   8.9891571  25.9973693  11.2543678   8.0472898  26.0703158  11.4086282
   9.3900329  26.3596797  12.0444703   1.5812135  37.0983720  21.3769674
   1.2842593  37.8619170  20.8819413   1.2479678  37.2426891  22.2626042
   6.7914546  17.3894584   4.1503366   6.3280708  18.2092285   3.9786276
   6.1848444  16.8793106   4.6869978  19.6631324  37.1504974   4.0598282
  20.1427031  37.9767919   4.0008077  19.5198572  36.8911815   3.1496295
  42.3539699  46.3665247  25.7660937  41.5662186  46.9020891  25.6720114
  42.2125368  45.8722591  26.5735126   4.9239156  32.5863719  19.9223864
   5.2600950  31.7254353  20.1713920   3.9913711  32.4420881  19.7618401
   7.4735427  26.6390324   1.9218286   6.8097514  26.7041039   1.2352570
   6.9725621  26.5220046   2.7290186  12.8393102  35.1635218   0.9983620
  13.0014300  34.2205048   0.9725603  13.0019355  35.4096818   1.9089612
  27.1609426  30.6021094   2.9895314  28.1137919  30.6931877   2.9855403
  26.8353081  31.4837122   2.8079518   0.4541174  15.9580982  18.2709801
  -0.1319839  15.2577865  18.5578275  -0.0085558  16.3749421  17.5440657
  43.1202195  31.8696237  23.1811595  43.6950819  31.1212778  23.0207133
  43.3979820  32.5262809  22.5425005   4.9161357  32.5993705  25.2730513
   5.3851414  32.2037268  26.0077167   5.5782717  33.1205130  24.8189402
  37.7336015  35.8657622  20.2638888  38.1966294  35.3907156  19.5738399
  37.0038618  36.2911582  19.8136139  10.5786455  46.7688894  16.7936707
   9.9700958  46.1532307  16.3851798  10.6989908  46.4329863  17.6818812
  21.9094896  42.8221416  17.3458087  21.6411614  42.0705271  16.8173122
  22.8388762  42.6730824  17.5197315   7.5208634  39.1464782  21.4383388
   6.6968215  38.8503337  21.8249726   7.6443791  40.0299740  21.7853475
  27.3222375  37.3531628  24.8072338  28.1883216  37.4203539  25.2092505
  26.9057703  38.1946373  24.9935365   6.6524589  51.8176365  17.2145971
   6.9311559  51.7766905  18.1294092   7.0719540  52.6066494  16.8715032
   8.3451718  47.6709509  19.2399597   8.2336551  46.7286730  19.1138494
   7.5566870  47.9448700  19.7084606  37.6512660   0.8218268  15.6366849
  38.2799072   0.3266076  16.1618483  38.1466694   1.0947303  14.8644602
  35.2039982  33.8164043  16.0266137  34.5394172  33.1886220  16.3102579
  34.7036733  34.5471382  15.6633854  27.2541356  10.1181296  16.7818928
  27.4752688  11.0320167  16.6026020  28.0136490   9.6232013  16.4746225
  14.6597576  37.2408628   9.7283322  14.3912458  37.4214077  10.6291854
  14.8965287  38.0974412   9.3727404  42.4094166  37.1818137  17.1749806
  42.1324389  38.0977702  17.1517754  42.8692661  37.0917177  18.0096376
  15.4272532  15.0519788  20.4841280  15.1248360  14.6777225  21.3115978
  16.1308193  15.6505775  20.7349372  19.4380367  52.9239511  26.0740042
  19.8088181  52.1221638  26.4426351  19.1096044  52.6625061  25.2137661
  35.5452897  50.6999540  25.7537651  35.3305282  51.2920856  26.4745188
  36.3816829  50.3088570  26.0062003  37.5810332  30.0016093   4.0984750
  37.3749770  30.5589342   4.8489153  37.3719866  30.5403996   3.3354318
  15.0264907  48.0405855  18.6904263  14.5860660  48.8885069  18.6331260
  15.9172261  48.2517672  18.9701092  13.0457342  48.9431047  21.9905591
  12.7648687  49.3981218  22.7844763  13.7873757  49.4563675  21.6699934
   9.5146841  10.8057737   3.0601009   9.2775542  10.9250247   2.1404370
   9.0219402  11.4825666   3.5241970  44.6164057  15.6271255  29.5479298
  43.9590944  15.5644822  30.2409315  44.2525504  15.1150465  28.8257003
   3.6175233  30.0652528  13.2047379   3.8419694  29.1443777  13.0711472
   4.2720479  30.3835511  13.8264406   4.5566356  39.2548609  27.5065374
   4.4164753  38.3134580  27.4048090   3.6862645  39.6392679  27.4020505
  22.7953720  45.5804348   8.4478315  22.4835777  45.0553846   9.1849455
  23.4991932  46.1150503   8.8153275  18.2247424  30.7315564  17.7055418
  17.8529382  30.7528901  16.8237603  17.8832138  31.5193415  18.1286049
  17.1199787  24.0385103  16.1011672  16.6383231  23.2746005  16.4184701
  16.6092396  24.7878814  16.4074683   6.4514250  45.6870079   3.6664065
   6.9985652  46.4713764   3.6259588   6.2272590  45.5988550   4.5928034
  38.0261512  21.0010910  16.8748856  37.1004297  21.2221336  16.9769204
  38.4916378  21.8018246  17.1165037   8.8026839  28.6388183   4.5145854
   8.7228578  29.0360904   5.3817844   8.8241982  27.6969194   4.6836895
  41.7163418  40.1776886   7.0231160  41.2518616  40.9708929   6.7560634
  42.5204490  40.1847076   6.5038928   1.9527078  32.1163988  19.6112406
   1.4902002  32.1036768  18.7732935   1.9090280  33.0295014  19.8950839
  40.6408210  36.5727210  20.7897067  39.7315635  36.4221740  20.5312157
  40.5900912  36.8138170  21.7146564   2.7738035  52.4318981  27.1879244
   2.1775867  53.1806278  27.2005272   2.2881199  51.7316103  27.6237488
   6.3389343  31.3781404  29.6598315   6.8977416  32.0915627  29.9680471
   5.5034977  31.5186691  30.1053977   1.2625159  28.9515257  12.2312117
   0.8150016  28.5849953  12.9938507   1.9976813  29.4426537  12.5980306
  39.3379803  43.3441687  27.4225873  39.2454816  43.6366987  26.5158889
  38.5263856  42.8707933  27.6055101   2.7571923  20.1429272   6.8050975
   2.1179438  20.0653076   7.5133121   2.4986185  20.9355474   6.3348579
  21.7379403  43.4845209   6.6013008  22.3849726  43.4536314   5.8965832
  21.9291949  44.2989016   7.0665288   1.4233612  47.8284216   5.8281311
   2.3723030  47.8370094   5.7029613   1.3000347  47.4503756   6.6988238
   5.7580954  38.3339357  17.3115218   5.1038498  37.6378083  17.2515059
   6.4423728  37.9716444  17.8743184  12.1797585  33.1012487   8.3034667
  12.7739024  32.3665023   8.4563454  11.6729283  33.1717515   9.1124042
  13.8635123  44.4705725  15.4203594  13.7839699  43.5173798  15.4567933
  14.5737398  44.6750784  16.0286248   2.9133883  18.0683827  23.7925959
   3.4691206  17.2952938  23.6939764   2.5205657  17.9718864  24.6601272
  38.0985094  35.6088829  27.9671717  38.9253624  35.9672117  28.2898927
  38.0665339  35.8713913  27.0472264  12.2255349  27.2548437   4.2710122
  11.3986647  27.7369547   4.2802199  12.8351295  27.8335667   3.8130792
   7.7573538  46.9303989  11.1756119   8.7024099  46.8035555  11.2593445
   7.6459855  47.3425102  10.3188785  11.8306935  31.6317129  28.5845923
  12.1217561  31.0831141  29.3129826  11.3269043  32.3323131  28.9988232
  13.6192608  44.8138380  21.8765092  12.6902664  44.7139263  22.0844007
  13.7251770  45.7478571  21.6959000  44.3640794  26.9113183   7.3051366
  43.4975585  26.5653229   7.5188216  44.7444309  27.1444082   8.1520327
   8.8513947  53.7023020   8.2181987   8.1689888  53.9976788   7.6154503
   8.3907878  53.5431910   9.0420660  40.2200658  44.9743652  18.6781168
  41.1392201  44.8524475  18.4403718  40.0648673  45.9117031  18.5617316
  22.4151969  29.4595098   2.2971472  22.7594543  29.6794415   3.1627973
  23.0758142  28.8806891   1.9166430  27.2394991  17.5856423  29.5192289
  27.0902538  18.3396959  28.9488244  26.3701630  17.3598719  29.8501563
   5.0208437  28.4946156  28.5987377   4.6706733  27.9613209  27.8851485
   4.6117133  29.3518114  28.4801674   9.4207507  17.1870613   0.9354171
   8.4877580  17.2542214   0.7323274   9.5685863  17.8541744   1.6057428
  31.9949545  52.4126053   8.6262441  32.3285641  52.9612160   9.3361485
  32.5872530  51.6609430   8.6058360  42.8090916  21.3816690  15.1801324
  41.8643896  21.2330198  15.1392174  42.9036347  22.1801949  15.6994092
   4.0705439  33.4775972  13.7482532   3.2611281  33.7357235  13.3072885
   4.5590246  32.9891872  13.0856260   6.0944146  32.0831513  12.1349144
   6.4148057  31.1813498  12.1165729   6.8873113  32.6184225  12.1670020
  44.1760027  39.3671608  14.4222939  43.2731821  39.0735698  14.5445704
  44.6985319  38.7589216  14.9450195  24.8400187  51.6760159  18.2069516
  25.2323699  52.5481796  18.1666350  25.4151607  51.1296558  17.6712883
   7.9855168  27.4493766  21.3831830   8.1671423  28.3036304  21.7749643
   7.1482319  27.1843958  21.7639351  19.7528231  47.4559927  19.1603017
  20.0857139  46.5923548  18.9162898  19.8883271  47.5063372  20.1065230
  14.2009604  34.9996638   7.9963958  13.4539342  34.5636034   8.4063137
  14.4103551  35.7226181   8.5877711  35.0817121  15.3853226  13.5236597
  34.5021559  15.0607371  14.2128551  35.0146879  16.3382983  13.5834634
   5.6904066  36.7094421   2.5275334   5.4716468  36.8295860   3.4516224
   5.9032112  37.5889635   2.2154673   4.5344096  36.2896037  27.1746850
   4.7588959  35.8893204  28.0146933   4.3042293  35.5508399  26.6112351
  38.9598186  29.7621870  26.0882449  39.6676119  30.3778839  25.8980393
  38.8975002  29.2187929  25.3027058  38.4361334  33.2829905  23.9898777
  39.1695995  33.1171417  23.3976340  38.1360353  32.4118471  24.2492723
   9.6839058  41.8248987  23.9258933  10.1015913  42.6052332  24.2903852
   9.0345007  42.1659565  23.3109260  13.6880589  14.8554361  28.1984305
  13.7804687  13.9540827  27.8897977  13.0234241  14.8063815  28.8855171
  11.1968946   3.9640120   2.1635326  10.6343365   3.9936427   2.9374083
  11.3025391   4.8806743   1.9089803  15.6851113  28.5981441  20.1933146
  16.6338921  28.4714818  20.1913238  15.5661833  29.5208502  19.9681449
  39.5607705  40.6917334  19.1299069  40.2410866  40.3862095  18.5298598
  38.8760276  41.0394907  18.5585701  12.8578365  49.3790150  26.8175220
  13.5079789  48.8436651  26.3626075  12.0576262  49.2725372  26.3031697
  40.8648153  25.3973317  15.3076124  40.7500748  24.4765139  15.0727427
  40.8148269  25.8651567  14.4740224   5.6029588  39.3763351  23.3890986
   4.8276505  39.9348712  23.4453821   6.1948872  39.7201061  24.0581846
  40.2763249  22.5483608  14.7136104  39.3638767  22.7446699  14.5011663
  40.6678499  22.2955322  13.8775373   6.2715155   0.3027467  21.8384051
   6.1847156   1.2088660  22.1344495   6.6739321  -0.1532241  22.5775862
  18.9269352  40.1326847  10.7384944  19.0564072  39.3441796  10.2114940
  19.1227615  39.8570776  11.6339970  14.7251034  49.9235582   6.9069775
  15.2295232  50.7336092   6.8320903  13.9448941  50.0771141   6.3741287
  14.7579741  33.3316517  20.9749627  14.9167824  33.4197831  21.9147730
  13.8886070  33.7096429  20.8424759   2.4661106  48.4429598   2.4755439
   3.3439150  48.0751753   2.3734387   2.4326521  48.7334204   3.3869943
   1.9153370  34.4710255  12.3305106   1.5442963  34.9476552  13.0730629
   1.4539018  33.6323905  12.3294961  44.9562860  23.4686613   7.9344404
  44.8870394  24.0106845   8.7203461  44.0495227  23.2779026   7.6943928
  25.1809478  51.7442799   5.6808877  24.9984670  52.3857737   4.9942899
  24.3182349  51.5006113   6.0164207  42.6585586  40.5279827   0.0302061
  41.8269344  40.7713509  -0.3764931  43.0128576  41.3526106   0.3629025
   8.2294011  51.3576984  12.8811550   7.4664629  51.6685343  13.3685338
   8.0581880  51.6187048  11.9762826   7.8918916  39.4280863   4.7483381
   7.8933555  40.3828382   4.6799382   8.5893196  39.2317033   5.3738436
   6.8977040  48.7080097  25.8936548   6.1521482  49.2357254  26.1798263
   7.6651591  49.2247581  26.1390400  11.3783610  38.4461999  27.4348187
  11.5617728  37.7638268  28.0805397  10.5078185  38.2312417  27.0998836
   8.4864765  37.0417666   3.6667260   8.2781774  37.9443526   3.9079269
   8.2556516  36.9822288   2.7396830   1.8580426  19.3850267  18.0108583
   2.2191676  19.0884876  17.1754634   2.5279871  19.1576445  18.6556101
   5.1378924  29.0375590  25.4897380   5.2041179  29.1668582  24.5436263
   5.5176610  29.8310447  25.8670831  17.4623168  50.2024984  12.2653830
  17.8321838  49.4431305  12.7157068  16.9652081  49.8303127  11.5369666
  14.1125441  38.1615305  26.2829471  13.2788575  38.6209297  26.3836932
  14.4242156  38.0316663  27.1786189   7.3717576  54.4603682  17.3059448
   7.8657061  54.4624138  18.1258472   6.8071264  55.2310705  17.3645624
  44.3783438  20.4871297   0.2401503  44.9431510  20.4993653  -0.5325547
  44.9158177  20.8660030   0.9357151   1.1404091  27.8673959  16.0670042
   1.0720077  28.1994295  16.9621611   1.6680618  27.0726776  16.1459911
  20.8281374  44.8965502  18.8115191  21.3923812  44.3091917  18.3086574
  20.2850294  44.3122387  19.3405223  44.1660532  50.5432940  25.1799607
  44.1809328  49.5896149  25.2606177  44.5004639  50.8598757  26.0191131
  14.4342756  44.1666794   9.4870647  14.1251254  44.8536730   8.8965615
  14.7938192  43.4958315   8.9066132  37.1291722  38.8784385  11.4010131
  36.8435956  39.2666292  12.2280478  36.3653649  38.9464760  10.8281255
  21.0029554  38.9943171  30.4685855  21.1778140  39.3314743  29.5899630
  20.0667095  39.1435957  30.6004739   8.6700124  24.5848846   0.5471310
   9.1885054  24.2618155   1.2840303   8.2438427  25.3739357   0.8818063
  38.3765830  17.0002389  26.6341710  39.1019828  17.5853217  26.4157581
  37.6795210  17.5842011  26.9330430   0.2321735  26.9130182   0.2451714
   0.2954946  26.9401646   1.1998900   0.1377318  25.9833503   0.0377354
  14.4476175  28.8412642  29.7769141  13.7362337  29.2934227  30.2304757
  14.1219008  27.9503608  29.6487278  14.3966317  21.5250206  12.2349119
  13.5645199  21.9153118  12.5022984  14.9190962  21.5022731  13.0366254
  21.5637541  28.9183402   6.5049493  20.8769155  28.4780097   6.0043555
  22.3083711  28.9597011   5.9048945  40.6039221  38.8766050   4.1944298
  40.3473569  39.7335887   3.8538655  41.4023597  38.6572766   3.7141951
  40.8479820  19.3265367   0.1238977  41.1570801  20.2105713  -0.0740218
  41.6101457  18.8844562   0.4979341  44.9802435  23.9473057  30.6352145
  44.1090812  23.6127710  30.8482734  44.8889138  24.3090391  29.7537161
  17.6271188  47.2066784  30.6068684  18.5608959  47.2054577  30.3964146
  17.1921432  47.0588875  29.7671146   1.4720392  51.1620140  22.0529947
   1.9293755  51.7132139  21.4179710   1.4985928  51.6631269  22.8681097
  16.9888079  11.0989884   2.7504295  16.9264925  11.7770366   3.4231824
  16.7373240  11.5418796   1.9399761   2.0022534  35.5423331   3.9604595
   2.1771020  35.2620578   3.0620697   2.1856998  34.7682858   4.4928393
   5.0555670  28.1867051   9.3037212   4.7921187  28.9977050   9.7385865
   6.0028547  28.2702327   9.1946298   9.1114473  55.1760101  30.0706715
   9.8567855  55.7732344  30.0072034   8.3434922  55.7432318  30.0018630
  11.3878429  14.2216945  29.2358128  11.3541472  13.2759047  29.0923602
  10.9345746  14.3539536  30.0684511  42.8695460  31.5986776   0.2446370
  41.9382976  31.3774323   0.2369213  43.3090161  30.7947850  -0.0325938
  44.1354801  42.6810932   0.7979833  43.8813259  43.6031914   0.8351091
  44.9149938  42.6250648   1.3506597   5.6153530  39.6229267   2.0599878
   5.7431883  40.2318907   2.7873465   5.1644123  40.1391459   1.3918531
  27.0911264  39.1796613  10.3600359  27.6447487  38.7565565  11.0163248
  26.7392445  39.9508166  10.8047032  13.7204707  49.9666834   2.3211099
  14.5004094  50.4955196   2.4892089  14.0040958  49.0656662   2.4759036
  10.7034457  33.6947894  19.4481421  11.4551914  34.1376829  19.8417830
  10.5509806  34.1646457  18.6282516   5.3099346  26.0114360   3.6682436
   4.6187779  25.6329203   3.1248659   5.8912450  25.2762938   3.8628560
  22.9532933  32.8378153  24.0684870  23.1981492  32.0308256  24.5213053
  23.4393954  33.5250735  24.5241341  13.1803668  41.4683914   7.2932249
  13.4810042  41.3875198   8.1983811  12.7064419  42.2997522   7.2716326
   7.7509558  33.5153127  24.7494888   8.5214621  32.9870749  24.5408821
   7.9833072  33.9680862  25.5601931   3.3201954  30.8425236  28.0187846
   3.2350475  31.4000463  28.7921858   2.4329728  30.7885146  27.6636071
  45.6278448  20.8156109   9.3727481  44.7955200  20.3445578   9.3330204
  45.6051423  21.4059424   8.6196053  10.6394732  34.2789435  26.3449002
  10.4863334  34.9771070  26.9815693  11.5924358  34.2257690  26.2723363
   1.7529017  36.5105057  30.1202035   0.8165526  36.3416028  30.2248675
   1.8333124  36.8762040  29.2392782   3.7830883  39.0207720  11.5805578
   4.6229345  39.4501519  11.4176941   3.5621512  38.6032104  10.7480562
   0.0248073  27.4970031   3.2836062   0.3541731  28.3950520   3.3190975
  -0.0373909  27.2283030   4.2002103  11.6950619  42.5406313  13.4742069
  12.1343517  43.1735229  12.9061341  12.3663139  42.2776651  14.1038895
   6.1553395  37.6113319  12.7855611   6.6445321  36.9700885  12.2700715
   5.3085124  37.6775694  12.3442805   6.3608706  35.6075668  14.6229291
   6.3721991  36.5060091  14.2929184   5.4525989  35.3247833  14.5165908
   4.9353173  30.4702044   5.3279728   4.5691556  29.5861936   5.3540725
   4.6644518  30.8661938   6.1562574  34.2448522  36.2023950  14.7174990
  33.9873363  36.3794327  13.8127482  33.4741260  36.4342427  15.2356315
  19.6028924  45.8866835  14.7854519  18.7000525  46.0620689  15.0506949
  20.0847864  46.6731405  15.0413752  12.1836102  50.4574728   8.4996271
  11.3972056  50.7261324   8.9746207  12.8919935  50.9546709   8.9085513
  13.4140849   2.4825410   1.6743177  13.3815742   2.3932961   0.7218418
  12.7030063   3.0885581   1.8825072   8.3952951  26.0161924   8.5703045
   7.5514358  25.5676866   8.5157573   8.7309074  25.7903957   9.4378370
   4.2423519  44.9867535  29.1605382   4.5406982  44.2961216  28.5687177
   3.3641714  44.7127199  29.4249969   7.6337940  43.8869572  14.8577694
   8.0237776  44.4421339  14.1825477   7.0264596  44.4639158  15.3209094
  17.7870059  36.7948914  10.0097024  17.1098483  37.4394655   9.8042399
  17.3606658  35.9484839   9.8753124  45.3136938   5.4212087  26.6699335
  45.7066623   4.8724946  27.3486972  44.3977766   5.1448530  26.6390324
  44.6821552  29.7865748  24.5314860  44.8109917  28.8993645  24.1960931
  43.7965955  29.7790599  24.8947501   0.9456399  50.5600023   6.3094831
   1.0967572  51.0536575   5.5034417   0.9535111  49.6433401   6.0339850
   1.3885942  45.2960730   8.8294154   1.6657424  44.4361734   9.1456306
   0.9238024  45.1126528   8.0129856   5.1167697  51.3400316  29.3462918
   4.8240378  50.4759312  29.6359100   6.0412240  51.3745594  29.5921048
   5.7391793  20.0710154   4.6203920   4.8846728  20.3997827   4.3411735
   6.0149211  20.6755447   5.3094077  41.3710691  42.6807928  25.2501134
  41.8971763  42.3284864  24.5322511  41.9963278  42.8133869  25.9626452
  30.0904466  27.7636886  25.6441460  29.6581341  27.5658154  24.8133734
  30.8327879  28.3173156  25.4019490   8.7223524  50.0441933   6.7659873
   9.2044103  49.2835808   6.4414614   8.8920414  50.7291126   6.1192060
  44.3567106  29.2130280  30.3896058  43.9776485  28.3386827  30.4794110
  45.2821942  29.0960383  30.6041414  45.4220283  29.1525936  18.5563350
  44.6598177  29.4157028  19.0721250  45.5256585  28.2191396  18.7411559
   7.6053047  51.6622210  30.1978355   8.1588459  51.7734241  29.4248811
   7.5763065  52.5309753  30.5986559  45.2844256  22.5319529   2.4930280
  45.5164744  23.0998182   3.2278171  45.0990844  23.1352115   1.7733350
   2.5956094  24.1458368  26.7229033   2.4411999  24.7968841  27.4073938
   1.9687769  24.3686247  26.0346607   2.9717961  34.3556190  26.3233328
   2.7340290  33.9039874  27.1331024   3.5570011  33.7468886  25.8725381
   6.7963874  39.5773315  26.1905265   6.0555291  39.5644093  26.7964927
   6.9461304  40.5063248  26.0150743   8.3792168  34.1919541  15.8440101
   7.8630435  34.8727775  15.4124129   7.7280587  33.6090207  16.2344110
  20.1169395  41.5742397   7.5796783  20.7608891  40.8783293   7.7110964
  20.6414890  42.3606300   7.4291021  27.6608290  35.9543419  22.3076162
  27.3387815  35.2570868  22.8788886  28.3491553  36.3823724  22.8167603
  41.5128393  37.8974366   8.9487261  41.7612295  38.4846449   8.2347792
  41.7831106  37.0292115   8.6497754  39.7028257  40.8890581   9.1403955
  40.3419860  40.4664516   8.5667151  38.9189340  40.9811115   8.5988492
  36.8010546  52.0168734   6.7828667  36.1098720  52.6707935   6.6785288
  36.3333566  51.1872530   6.8789172  15.8012938  54.0842676   3.1871414
  15.9224164  55.0337029   3.1989518  14.9888980  53.9525175   2.6983809
  12.9423809  41.1671162  10.3008401  12.3443913  41.5395212  10.9488785
  13.7944114  41.1606646  10.7369995  44.0791066  33.6598682  21.3155285
  44.9444979  33.9458680  21.0230646  43.4882881  33.9252615  20.6107370
  39.7226520  11.7678622   3.8978854  40.4783065  11.4359073   4.3826759
  39.5679487  11.1126403   3.2174572  12.9343748  47.1004629  20.0611448
  12.9170704  47.6395702  20.8519006  13.6190283  47.4923563  19.5190203
   4.1046792  31.5063071   7.7281994   4.3713760  32.4233603   7.7923721
   4.1363469  31.1840677   8.6289716   4.1516984   1.5422515  20.4725543
   3.4420341   1.8416623  21.0408524   4.5585424   0.8232335  20.9560034
  27.4020433   4.5041589  16.6519725  26.4756131   4.4827203  16.8917692
  27.4149036   4.2679099  15.7244754  10.7876742  36.7818666   0.0859929
  10.9212565  37.4999690   0.7046341  11.4678478  36.1456704   0.3070156
   7.1247685  27.1102571  15.2145803   7.2433078  27.2981334  16.1456466
   6.7436445  26.2324476  15.1939964  44.4018169  35.5245256  24.2762211
  45.2781966  35.7392454  23.9567122  44.4437091  35.6878829  25.2184484
   2.5398108  33.8136697  29.4035571   1.6921024  33.3890724  29.2718778
   2.3233642  34.7258472  29.5967184   4.5283940  18.6826575   1.5296286
   4.4142839  19.5292330   1.9615085   4.0854084  18.0587530   2.1047263
  32.6402654  39.6842051   1.5393044  33.2323231  40.1024961   0.9142177
  31.9735695  39.2657995   0.9946172   3.7236542  51.0571146   7.6231414
   3.9533016  50.1616240   7.8713185   2.8297752  50.9908104   7.2872597
  35.2649332  28.5809565   2.0448722  34.7120322  28.7591004   2.8056598
  34.8908342  29.1175008   1.3460149  13.8926411  27.6754928   1.9719918
  14.7035289  27.1710610   1.9068545  13.3022034  27.2621822   1.3420787
  23.0378485  50.6696892   3.7117651  22.9143286  50.9815550   4.6082658
  22.1602774  50.6848907   3.3298364   2.8508899  48.5831165  11.8684351
   2.4964699  48.8499880  12.7166092   2.9059374  49.3956661  11.3654768
   9.3615752  47.1704531  26.0129046   9.8561704  47.7810526  25.4663014
   9.0291864  47.7078581  26.7318940  11.0998631  36.3602352   9.6152627
  10.4838133  36.2665105   8.8886744  11.1500823  35.4856515  10.0010264
  10.1593423  43.5290384  10.6971109   9.6889865  43.5477257   9.8636556
   9.9438959  42.6762295  11.0746467   6.0284072  40.2560234  10.9511256
   6.8735301  40.1838112  10.5075216   6.2125361  40.7746410  11.7343020
  16.0715842  42.4129725  24.9736706  16.9849670  42.3721743  25.2570412
  15.7926536  41.4982653  24.9319926   0.9288688  34.2614698   8.5356671
   1.7716017  34.2890573   8.0825973   0.6045230  35.1610398   8.4931582
  43.4210713  36.0815597   4.1940677  43.7838037  35.7530475   3.3714274
  42.8393875  36.7949176   3.9313996  37.3089464  40.8439255   7.9230505
  37.7007557  40.5982590   7.0849788  37.2408689  41.7979479   7.8851235
  17.6226056  44.0078545  18.2610154  17.6341605  44.7074461  18.9142179
  17.2543538  44.4172668  17.4780679  10.2634430  42.4288177  28.6469737
   9.7889650  43.2372618  28.4532844  10.8680534  42.3240709  27.9123262
  13.7992835  40.5843639   3.6058712  13.6506367  40.8645868   4.5089826
  14.6750736  40.9084225   3.3956122  41.5942092  49.6823549  26.5188593
  42.1471701  50.4573917  26.4199245  40.7418243  49.9509335  26.1760206
  15.0666928  39.6201921  18.9154351  15.4473174  40.3969002  18.5054600
  14.9955952  39.8490214  19.8421574  26.8738951  34.0519834  17.2562766
  26.0668076  34.2723989  17.7213132  27.5676121  34.4618893  17.7729642
   4.3148437  48.5776138   8.3438051   4.9397361  48.3039856   9.0152729
   3.4644070  48.2916403   8.6772841  35.1769186  34.7106886   4.4879758
  34.5489158  35.4124546   4.6593425  35.9565712  34.9606037   4.9838746
  16.2629831  48.5822773   5.1509905  15.7846785  49.0628433   5.8266497
  15.6929350  47.8450251   4.9325037  28.7122679  50.6210661  13.9103281
  29.6514964  50.7130146  13.7502360  28.4274578  49.9524069  13.2874274
  22.0909929  40.1920080   2.1380402  23.0473733  40.2112246   2.1034606
  21.8209291  40.0655842   1.2284718  16.0954869  55.3230715  -0.0377980
  15.5908811  54.5248508   0.1185664  15.8587646  55.9018946   0.6868800
   9.3863767  41.6336155   5.2511674   9.7915584  40.9877777   5.8299178
   9.9706393  41.6768074   4.4941977  39.8814405  23.3513212  17.8198898
  40.5501403  22.7119780  18.0654764  40.2196617  23.7570238  17.0216143
  15.7780004  31.9495964   7.4612087  15.1189923  31.9139767   8.1545138
  15.9532726  31.0325837   7.2500211  44.3029333  44.7694016   6.7230010
  43.8476707  44.5006561   7.5209630  45.0572787  44.1826963   6.6684741
   8.2957470  47.6389837   2.9498589   7.8090221  48.1537771   2.3061834
   9.2135751  47.7531338   2.7032948   4.0736744  46.6533375  25.7201395
   3.7717870  47.4701881  25.3228382   4.9909544  46.5830898  25.4557637
  12.3751402  24.6131158   8.4555113  13.2550359  24.5286059   8.8227630
  12.4455023  25.3327274   7.8282630  10.8431017   1.4204901  20.1885772
  10.3073657   2.1032879  20.5923176  11.1785412   1.8219076  19.3869698
   6.9698548  49.2910433   1.3154584   7.6481283  49.9604511   1.2256285
   6.7585874  49.0418863   0.4157254  40.3491755  55.5648184   0.5702611
  40.9884368  56.2198877   0.8503703  39.5080311  55.9055662   0.8745639
   4.4682205  22.9273343  16.3678634   4.2994118  22.2914696  15.6725860
   4.8858604  22.4177623  17.0622313  10.3091514  35.2718997  23.6832333
  10.6637788  35.0273061  24.5380116   9.5094419  35.7573819  23.8857222
  45.5810247  48.6670923  30.0670034  44.7157111  48.9520645  29.7733088
  45.4792398  48.5231447  31.0078275   7.8290606  12.5887787   4.7782257
   7.3578858  12.0360494   5.4016972   8.3619553  13.1660724   5.3250229
   0.7922389  16.6311085  25.3724980   1.4561239  16.1805797  24.8504734
   0.0109393  16.0843074  25.2899694  26.9565392  54.0670109   8.0953139
  26.7561221  54.2934847   7.1871436  27.8836465  54.2823982   8.1968701
  42.4036948  52.9164696  28.3902070  42.4923099  53.4302616  29.1929508
  41.5459491  53.1610107  28.0427811  29.6180822  37.6417828  16.5758816
  28.8190020  37.5981975  17.1010522  29.8427583  38.5720778  16.5584043
   7.9130775  28.5251760  27.4572477   8.1448859  28.7330699  28.3623872
   6.9995117  28.7988138  27.3750771  15.5624652  16.2809741   8.5405344
  16.0549581  17.0703304   8.7654781  15.5300915  16.2833500   7.5838852
   9.8056275  22.9949331  29.6942679   9.2159742  23.1978059  30.4204794
  10.1632047  23.8432002  29.4319414   3.9212522  26.9193792  13.4918058
   4.4545859  26.5202379  14.1791725   3.1552947  26.3496161  13.4217322
  41.0952757  34.6681213   2.6779282  41.3148258  34.4448829   1.7733872
  41.4097090  33.9239740   3.1913564  10.7257318  29.8666930  26.6870320
  11.1412275  30.4262137  27.3431823  10.1880014  29.2597723  27.1956799
   7.3834050  55.1759052   2.6992068   7.3705119  56.0756063   2.3727109
   8.2898927  54.8916149   2.5821987  11.9709516  50.0518513   5.8309186
  12.0104027  50.3721714   6.7320681  11.4264238  49.2661381   5.8796364
  32.5462580  48.3007908  16.3564599  32.5582838  48.0297947  17.2744191
  31.7241955  47.9499435  16.0139012  42.6029540  28.4901834   5.1857838
  41.7716350  28.9617395   5.1330956  43.0944531  28.9467716   5.8685621
  45.0509266  45.4035711   0.6399234  44.4509080  46.1413765   0.7487813
  45.6855874  45.5043030   1.3493532  18.3705735  45.4465342   6.7583990
  17.5201309  45.3255844   7.1807128  18.9201319  45.8414841   7.4353272
   1.3628307  15.0627816   8.4130311   1.8268636  14.4951916   7.7976066
   0.5129547  15.2185297   8.0011022   1.5345892  22.9604197  11.6872867
   0.6357603  22.7462387  11.9372162   1.6214439  22.6250768  10.7949671
  13.7570190  27.1755099  25.9774876  12.9640305  27.3222995  25.4618764
  14.3886828  27.8051257  25.6298971   4.8006710   7.9196811  27.6684761
   4.3865022   7.1420538  28.0426288   5.5998278   8.0360979  28.1823111
  19.9386168  10.5401361  28.6801577  20.8454013  10.2391911  28.7385035
  19.8733640  10.9369147  27.8115153   8.2811153  21.1543989  27.9325867
   8.5190994  20.2279377  27.8970098   9.0369666  21.5804958  28.3367658
   7.5568694  18.9133668  21.2286496   6.6245335  19.1158903  21.1514115
   7.7180701  18.8831019  22.1716928  12.7514470  22.7289295  16.0616863
  12.0435667  22.2411036  16.4825952  12.5532556  23.6467767  16.2474525
  17.3598266  14.7718441  27.4628282  18.2218695  14.7924733  27.8783846
  16.9531405  15.6012726  27.7136016  42.3477407  23.0202127   7.3573526
  41.9550513  23.6369991   6.7396149  41.7910655  22.2431898   7.3065313
  43.1135982  15.9236860   4.2940649  43.4616624  15.7161188   3.4268864
  42.7656017  16.8110633   4.2063602   7.8793335  19.0853965  23.9295435
   8.3058167  19.8654199  24.2843771   7.8456229  18.4748936  24.6660089
  32.1384169  23.0309153   6.8862542  32.1123482  22.6843214   7.7781185
  31.2241520  23.0317354   6.6027912  12.8494215  33.2080722  15.3259552
  13.6198330  33.4740782  15.8278894  12.9608369  32.2661090  15.1973963
   5.0300711  23.3397770  25.3754067   4.2058128  23.7646675  25.6126809
   5.3151155  22.9044986  26.1788464  16.0796726  49.6829279  24.2601371
  16.1267877  49.8084088  23.3123684  15.8967209  50.5555256  24.6084666
   7.8197688  16.8476987  25.8735037   7.0879006  16.7104971  26.4749837
   8.5994250  16.6785920  26.4024377  16.3596869  54.9895465  23.5018563
  15.7836509  54.6984465  22.7949786  16.3622606  55.9441157  23.4309840
   8.9587790  26.5149665  25.8053851   9.2160815  27.1688390  25.1553988
   8.5032570  27.0160627  26.4818716   6.8649602  27.1416426  12.4803030
   5.9159118  27.0249510  12.4364555   7.0505971  27.2458696  13.4135270
  36.9878258   5.6727314  14.6733701  36.5648611   5.1456028  15.3512108
  36.5886475   6.5384692  14.7593141   6.8772268  17.9297125  30.9558702
   6.8873930  17.9628170  29.9992967   6.1343020  18.4787178  31.2066436
   6.0069841  24.6902585  14.8522437   5.4805475  24.1409254  15.4330432
   5.9176177  24.2825150  13.9908552  29.2227006  23.5366154  24.7177291
  29.5086455  22.8786111  24.0840912  29.7064900  23.3261681  25.5164075
  41.8051638  18.1965792   3.3275541  40.9197675  18.1247342   2.9709848
  42.3727096  18.2174540   2.5570449  18.5758567  35.1854825  29.6235609
  19.5286965  35.1244950  29.5556593  18.2514691  34.4415164  29.1160965
   7.4858451  20.4974055   2.5463899   6.8180507  20.0140762   3.0328831
   7.0292991  21.2719631   2.2179731  43.3245648  12.6951754   2.2174558
  42.8694989  12.0135725   1.7229232  42.8924365  13.5087252   1.9573935
  38.2948013  31.9822431  18.0070555  38.7690641  31.3682628  18.5677111
  38.3548654  32.8204799  18.4652936  18.4568274  20.6047368   6.6833648
  17.9701519  20.1416731   6.0014924  19.3261075  20.2041888   6.6711649
   3.2615769  16.8273401   3.1404885   3.9355162  16.4348817   3.6954793
   2.7261472  17.3438215   3.7428125  10.6910563  12.0648491  15.4907036
  10.4613793  11.2987971  16.0166728  10.9095824  12.7398038  16.1332881
   1.5842730   4.8936242   0.6267103   2.4494657   4.5017025   0.7453283
   1.6981342   5.8081913   0.8852323  41.3975377  30.5356598   9.9029744
  41.5985431  31.2150359  10.5466163  41.1165865  29.7852468  10.4265964
  45.1954180  44.1691351  17.6345515  45.3902467  43.3892488  17.1148825
  45.7959660  44.8355722  17.3007286  43.3790238  24.7653747  24.6422180
  42.6791157  25.0369835  25.2360090  43.0241974  24.0016174  24.1872391
   8.3822024  21.5170646  25.0489283   8.4671545  22.4559712  24.8831844
   8.3476192  21.4443898  26.0027385  17.6411533  50.9591522  21.2778211
  18.3800364  51.4904576  20.9811759  17.6392412  50.2027770  20.6911993
  38.5744907   3.5448131   3.2311591  38.3897604   4.2785880   3.8174018
  38.6689068   3.9462689   2.3673591  40.2918680  15.7593298   5.7445701
  40.4882921  15.3047884   4.9253997  39.8804410  15.0932992   6.2953528
  43.2559475   2.8802860   5.8532175  43.9192553   3.1640467   6.4822921
  42.9430185   2.0432645   6.1962971  17.5759280  16.2755322  23.1729293
  18.0442381  16.3108826  22.3388624  17.0277178  15.4936552  23.1068540
  13.1398559  20.0821853  14.9533939  14.0051341  20.2904868  14.6010661
  12.9472232  20.8006787  15.5557990   9.7166669   9.6825737  31.1111379
   9.3172979  10.5375040  31.2718534   9.4870490   9.4775295  30.2047896
  12.2789907  13.8467598   9.6579775  11.5298581  14.3753552   9.3829855
  12.9903042  14.4779098   9.7671303  11.4379239  13.5653377  20.9297705
  12.0501196  13.3881438  21.6439486  11.1066318  14.4449079  21.1109710
   3.9438280   7.9088777  19.4459891   4.7204632   8.3101261  19.8359501
   3.5633773   7.3871577  20.1525998  19.3776762  24.8868775  28.4629989
  19.2373502  24.7917104  27.5209355  18.5287070  24.6799517  28.8537216
  15.1613045  18.2099617   1.6858062  14.6618330  18.4936547   0.9201177
  15.8494353  17.6487362   1.3284072   6.9285154  15.4012108  11.5263637
   6.9068801  16.2327111  11.0526880   6.6834825  14.7465813  10.8724150
   7.0233029  54.8201612  26.9088554   7.6665628  54.2775568  27.3649573
   6.1805087  54.4144808  27.1122098  16.9041777  43.3331760  31.1178712
  17.4582481  43.5667714  30.3731080  16.3094425  42.6665541  30.7741604
  33.8439645  23.7916684  24.0721035  33.6898698  23.0623913  24.6726394
  33.4622408  23.5038257  23.2428479   5.2679712  18.7907636  16.9587982
   4.8332545  18.6421514  16.1190546   5.9038621  18.0787265  17.0286357
  11.4811158  26.5889859  30.9715033  10.8203292  26.9195247  31.5800571
  11.0307097  26.5481567  30.1278806  17.0543480  15.8599973  30.7418370
  17.5318706  15.0305521  30.7268858  17.7334619  16.5289402  30.6549382
  13.8290596  22.4878120  21.8658566  13.4068644  23.3194280  22.0812583
  14.5639586  22.7310538  21.3028407  44.0568399   6.9157010  19.4600853
  43.6906522   7.7673954  19.6983179  43.7119938   6.7433208  18.5839590
  16.6522670  26.7340279  27.3426414  16.4314175  25.8752084  27.7030396
  17.0562887  27.2033668  28.0725193  44.6907132  39.8857713  17.7383041
  43.9442782  39.8522687  18.3365893  45.2298178  39.1344905  17.9856396
  37.4599750   4.0985054  12.4520334  37.2958030   4.8468843  13.0257973
  36.8359549   4.2056534  11.7341551  14.6888983  15.1917684  25.2609181
  15.2019358  15.9953511  25.1755977  14.3547118  15.2150297  26.1575842
  44.9065328  17.8790593  10.4355701  45.5871018  17.7169538   9.7822842
  45.1106988  17.2746480  11.1491760   1.9988126  32.4082947  10.1533341
   1.3099426  31.7459607  10.2081430   1.6523790  33.0647326   9.5489311
   6.7973560   5.8104783  30.4774952   6.3725060   6.6496623  30.6549931
   7.7275109   6.0238796  30.4033113  33.0961967  16.6853201   0.3170260
  33.1980610  17.6214552   0.1452478  32.1552801  16.5665960   0.4466924
  44.1659003   6.5620923  13.7793303  44.0579679   7.4236554  14.1821837
  43.6305901   6.5995568  12.9866946  36.8160047  22.5197864   8.0461615
  37.7129914  22.7890849   7.8483617  36.7676540  21.6111898   7.7489311
  19.7838318  10.5774677   1.2993130  19.9097490  10.5132461   0.3526052
  18.8351309  10.6381643   1.4111790   1.0799981  17.3585606   1.5475997
   0.9644973  18.3072209   1.6017779   1.8600044  17.1818256   2.0735153
  10.9876192   9.5428705  19.2571390  11.2230480   9.9579620  18.4273767
  10.7734013  10.2729821  19.8378968  43.5530007  36.8915296  21.2898850
  43.7738904  36.0548377  21.6990185  42.6018457  36.9563174  21.3755488
  10.9409130  13.7752175   3.5772410  11.1645472  12.8494418   3.4815362
  10.3353977  13.7999928   4.3181658  10.0491607  19.0409446  27.6216936
  10.9061241  19.4111836  27.4101019  10.0279343  18.2048237  27.1562028
  18.6570203  14.7256851  19.5313013  18.7362587  15.6555343  19.7442198
  19.5580864  14.4027138  19.5296824   3.5497117  15.3884935  24.4126797
   4.4602054  15.3915083  24.1173434   3.2095686  14.5390487  24.1316533
  12.4625289  30.5165887   0.1154474  11.8308091  31.2245631   0.2416752
  13.0271864  30.5590010   0.8871953  43.5797563  42.4287319   8.2221276
  42.7883769  42.2017145   7.7338505  43.3691670  42.2167969   9.1315055
   2.4702737  25.5341911  16.0769784   3.0963117  25.1712179  16.7035222
   2.6538557  25.0713325  15.2594864  40.3910704   6.1942577  10.3211880
  40.9817196   6.6363537  10.9310377  40.2034463   6.8511802   9.6507537
   3.9131302  12.8611064  20.3076458   3.4234580  13.6542928  20.0901413
   4.8209369  13.0728829  20.0902319   1.5047137  54.8819686  13.9733219
   0.7611036  54.3186431  14.1876590   2.2469565  54.4813525  14.4258857
   0.4287358  19.2289245  15.2132595  -0.0009685  18.4183228  15.4862285
   0.0105124  19.4535553  14.3820786  26.5967202  19.8838186  21.5145493
  25.6889367  19.6107185  21.3819718  27.0371485  19.0999377  21.8428540
  12.8698421  11.3397503   3.7018927  12.6822793  11.9604146   4.4060453
  13.4285057  10.6775308   4.1088232  43.5012354  31.0253239  28.0590248
  44.1093975  30.6726384  28.7086272  42.6603709  30.6217456  28.2742119
  37.8771461  27.3520350   4.6082243  37.6755883  28.2636571   4.3971571
  38.5002442  27.0821166   3.9335951   1.2047671  24.6135521  24.4270134
   1.4484325  24.2633986  23.5701299   0.2896426  24.3563724  24.5394325
  18.8370824   6.7495286  11.0650897  18.8364017   6.4153665  11.9620669
  17.9665518   6.5359259  10.7292604  14.0835142  52.6039060   9.3583989
  14.7654521  52.9965588   9.9033910  13.2783961  52.7171599   9.8635626
   1.1655214  30.0942588   3.3595570   1.4754656  30.8010912   2.7933821
   0.3720492  30.4431343   3.7656602   2.1019465  15.6150997  10.9733033
   1.8793595  15.3874373  10.0706089   2.3696437  14.7862685  11.3703024
   4.3135279  11.1061800   4.7144183   3.6073002  11.7504871   4.6660169
   4.8044008  11.3474143   5.4999646   1.8014441  12.3794687   4.2920741
   1.9054724  12.7387154   3.4109672   0.8577095  12.2521257   4.3889269
  17.5704908  23.1326962  23.4864974  18.5249388  23.0691504  23.5214758
  17.3802269  24.0312028  23.7561536  43.0524641  15.4253685  13.2555139
  42.5185777  14.6344864  13.3310318  43.6554938  15.2394474  12.5357783
  10.0431800  32.8905153  22.0238662  10.2091813  32.9379797  21.0823679
  10.1022100  33.7976861  22.3235154   5.9783244  33.2862401  17.3548770
   5.2760994  33.0229759  17.9496908   5.8177137  34.2155552  17.1911454
   2.7240589  26.1706877   8.5718712   1.8948156  26.5441060   8.8704451
   3.3720794  26.8517542   8.7520036  11.9587433  11.1437035  10.1127172
  11.8971717  12.0302999   9.7572047  11.0494125  10.8616316  10.2116334
   5.2900618  16.5775168  26.8741059   4.8507655  16.8578541  26.0711956
   4.5965204  16.1792469  27.4000454  14.4667625  32.3419428  27.8424072
  13.6049223  31.9599700  28.0084205  15.0725460  31.7905521  28.3376122
   5.9112501  54.6657487   9.9096617   5.1058817  55.1830567   9.9119696
   6.5941960  55.2846559  10.1680597  20.3818917  24.0057826  20.1071429
  19.4739532  24.2823172  19.9830174  20.7426834  23.9637947  19.2215371
   7.9220963  34.8998594  19.2514384   7.3171902  34.2034197  18.9959157
   8.6995858  34.4384146  19.5657790  -0.0893138  19.7612405  20.0511551
   0.5246531  19.4201827  19.4008040   0.3353699  19.5936894  20.8924651
   9.3953001  14.2068088   6.0636052   9.9331594  14.9309480   5.7433518
   9.3676215  14.3303728   7.0123919  38.9866324  35.7493854  25.3922296
  39.8568083  35.5128717  25.7133031  38.6830957  34.9700212  24.9267292
   4.8779112  19.3537712   7.9871401   4.0363160  19.5166957   7.5612244
   5.4989314  19.9026179   7.5082525   6.9729102  30.3598905   3.5384473
   7.7085227  29.9548197   3.9978203   6.2231421  30.2202535   4.1168770
  14.6797025  12.3056293   1.6953191  14.0650272  12.1399391   2.4101290
  14.4749248  13.1942880   1.4044842  18.2122529  56.3111732  21.2441158
  18.0002511  55.5895834  20.6520057  19.1634715  56.3991611  21.1835027
  12.1170437  22.8753376  13.1401491  11.7559445  23.2693601  12.3460543
  12.1301568  23.5895658  13.7772834   1.7799117  23.2799029  18.1042159
   1.3191232  22.5530958  17.6851034   2.6886529  23.1834412  17.8194058
   5.8728927   9.6409696  14.9746644   6.2676495  10.4606926  14.6772552
   5.0180769   9.6169156  14.5446146   6.9260836   8.1154704   3.0888637
   6.3118124   7.3857719   3.0085977   7.6061523   7.9283434   2.4417766
   8.1271613  17.9543006  10.8255752   7.6217449  18.3617008  11.5290054
   9.0123469  17.8756309  11.1812290   9.4603521  25.0457454  22.1890521
  10.0046039  24.6543550  21.5057993   9.2989439  25.9387302  21.8844914
  29.3134035  24.7917175  16.6715717  28.8926197  25.1239467  17.4645388
  29.9609448  25.4596567  16.4462245  16.2943363   2.5279820  28.3142948
  16.8029332   3.3337396  28.4054804  16.8488789   1.8497773  28.6999798
   0.6777809  54.2988319   6.6265553  -0.0287152  53.6634708   6.5107477
   1.4515771  53.8647025   6.2673855  38.4445460  13.0998135  25.8717346
  38.6793961  12.3257947  25.3599024  38.8122238  12.9335916  26.7397285
  42.6186283  38.3521104  26.3215089  42.6425822  39.2259431  25.9315395
  42.9212640  38.4825110  27.2201943   5.6259543  13.4987915  26.6100097
   6.1317837  13.8243747  25.8654523   6.0707676  12.6910996  26.8669271
  11.4774978   8.5945898  12.7316129  11.9786835   9.4079649  12.7904761
  12.1066308   7.9482555  12.4111831  39.1883190  26.6931581   1.9842646
  40.0494243  26.5513754   1.5910387  38.8107850  27.4142480   1.4805475
  16.7847562  10.0328195  25.9438095  16.8629408  10.9448421  25.6639293
  17.1720815   9.5286500  25.2282510  44.4532254  22.6788044  12.4596882
  44.2864688  23.3010721  13.1676483  43.9335792  23.0063319  11.7255735
   1.1607333  19.9061728   2.3230502   0.7767520  20.6227112   2.8283840
   1.9868878  20.2607107   1.9944106  10.4112637  11.2265980   7.3019713
  10.4060352  10.6849849   6.5127569   9.7441608  10.8349025   7.8656912
  12.0222855  17.1392357   8.3362556  12.5053000  17.0442975   9.1571784
  11.1015761  17.0859218   8.5925454  40.6601836   8.6556613  21.8728232
  39.9465014   8.3948117  21.2907171  40.8290358   7.8797668  22.4073410
  10.7544601   9.3389881   5.0532258  11.5892911   9.7466797   4.8228410
  10.1291823   9.7028267   4.4264233  37.8201695   8.6714041  15.1943266
  37.7448447   9.2991698  14.4756687  36.9329889   8.3307439  15.3087509
  41.2337835   8.8607860  25.5850855  42.1435343   9.1559720  25.5470029
  41.1619948   8.2147247  24.8824600   1.1654145   7.6598722   0.5412522
   0.5632551   7.9640263  -0.1378104   1.6358878   8.4474397   0.8144266
  36.0232915  37.3044920  28.8608297  35.2582742  36.7625570  29.0539277
  36.7209573  36.6762280  28.6743343  39.1475965  31.1901951  13.7555349
  40.0496103  31.3509679  14.0325809  38.6196299  31.3978291  14.5264888
  10.3366816   5.7220906   8.5584301  10.2034163   6.4430308   7.9430294
  10.2002239   6.1148334   9.4206160  35.7622136   4.2967749  16.8003380
  35.0364734   4.5055065  17.3885250  35.5330767   3.4442082  16.4303935
  36.2800570  26.3914204  12.2471166  35.9221287  25.9219027  11.4936757
  35.7902826  27.2134566  12.2718072  31.3240218  13.9485073  28.6032080
  32.1388483  14.1833842  29.0471955  30.6970692  14.6146297  28.8850624
   0.7132357   5.0872874  13.3657157   0.0763872   5.7366300  13.6640620
   0.6684925   5.1292294  12.4104834   5.8006406  22.0790839  27.8208417
   6.7018431  21.7598295  27.7745450   5.4515803  21.6952062  28.6252216
   9.5440024   7.3892164  21.1400485  10.4402506   7.1895868  20.8696437
   9.0642476   7.4962997  20.3187084   9.9570286  28.5291076   1.6550851
   9.7942567  29.3342614   2.1464750   9.4170165  27.8694963   2.0904383
  13.9443290  19.6754479  30.1296868  13.3853078  20.3321242  30.5450206
  13.3322942  19.0384579  29.7610568   5.6933564   4.7160867  14.7249234
   5.2517569   4.7361353  15.5739355   6.1838037   5.5373752  14.6905959
  22.5118746   6.7216927   7.9736203  22.0899214   6.0126662   8.4588718
  22.2783674   7.5144875   8.4565091   0.0516609  16.6705489  21.6947889
   0.7104757  16.2263227  21.1610675  -0.2558594  15.9990311  22.3036623
  15.6154168  16.8181980  28.3871889  15.7303429  16.9303465  29.3308234
  14.8897529  16.1992621  28.3061719  11.6065347   8.0226648  16.2387216
  12.3122311   8.6572117  16.3635218  10.9577942   8.4868938  15.7097054
   9.0436614  26.2296033   5.8333868   8.8837624  26.4177227   6.7581975
   9.3022799  25.3081346   5.8176428   4.4021320  21.0208368  13.7784600
   3.9847448  20.3359723  14.3009365   4.6723223  20.5774522  12.9743207
   2.1116641  23.2292295  22.2327971   1.7396238  22.5674534  21.6498137
   2.7386868  22.7477431  22.7724695  10.3998375  20.4247618  13.5262752
  11.0255766  19.7595334  13.2396483  10.9257936  21.0484123  14.0269375
  44.0604189  44.0637493  29.2878363  43.8449100  43.1996584  29.6387427
  44.4644342  44.5264292  30.0219545   6.6264230  15.2128232  30.4820114
   6.0220718  14.7021472  31.0207155   6.4380336  16.1235738  30.7084524
  10.1028967  29.1003895  29.7356725  10.8478022  29.1224742  30.3363895
   9.3370020  29.0355706  30.3061414  10.2429605  27.6404643  13.0920804
   9.8405403  28.3717537  13.5605955  10.7392275  27.1706486  13.7623215
  42.1271683  10.2443457   8.4209770  42.9891743  10.3925729   8.8098300
  41.5301390  10.2090609   9.1683340  13.0759716  55.8606459   8.0875707
  13.5089338  55.0356894   7.8679758  13.6393499  56.5351845   7.7083158
  14.5088017   9.6554875   6.1521944  13.7957430   9.3685967   6.7226991
  14.8169100   8.8526773   5.7317218  44.6125711  12.3014903   9.2669344
  44.9662625  12.6440573   8.4460920  45.3190373  11.7651927   9.6268255
  39.8356946  15.0644553  24.5857928  39.9591179  15.9057796  25.0253073
  39.2514290  14.5751166  25.1649413  39.8111476  12.5500178  13.8746572
  38.8722642  12.3694515  13.9207637  40.2173157  11.8315673  14.3595159
  42.6737927  18.2833052  27.9776383  43.2552354  18.6687362  27.3222003
  43.2237026  18.1794965  28.7542041  16.9853163  10.2952600   9.4260573
  17.4560094  10.7346785   8.7178266  16.0607493  10.4093206   9.2060632
   3.8190755  19.0872371  29.5770097   4.1943702  18.3431888  30.0479412
   3.2868999  18.6904514  28.8873839  40.9251018  16.8895411  29.8813737
  40.7232888  17.7155530  30.3209292  41.5304120  17.1326566  29.1808549
   9.3815541   7.1431506  13.7289000  10.2134883   7.6092964  13.6462808
   9.5019597   6.5707296  14.4865727  16.0920358  21.3709474  10.2259660
  15.5713308  21.1299968   9.4597799  15.4494178  21.4843082  10.9262669
  12.8178120   2.8738466   4.6452463  12.7345526   2.0040131   4.2544919
  12.3463464   2.8094393   5.4757899   7.1719241  17.3998022   8.2087702
   7.5876826  17.7035904   9.0156710   6.2902564  17.7712512   8.2390815
   8.6681283  15.8952081  15.8459568   9.6085513  15.8622777  16.0213184
   8.4947056  16.8140209  15.6411648  16.4208329   9.1491294  15.2475905
  16.9758928   8.4227526  14.9638355  16.4292836   9.7592968  14.5101237
   7.5712115  13.5580885  17.2111523   7.6772857  14.4109726  16.7897642
   8.0462140  13.6388505  18.0382442   2.4449924  22.7885413  29.1592053
   2.3988803  23.4893680  29.8095496   2.3828426  23.2389617  28.3168927
  30.0382222  13.5094202   4.7822016  30.7216336  13.8511753   5.3587300
  29.9235834  12.6004016   5.0592846   7.6854050  30.4326606   6.5699655
   6.9049984  30.9422016   6.7880630   8.4143400  31.0342169   6.7216766
  35.5816497  36.6022778  18.8490009  34.6634795  36.4979076  19.0986037
  35.6114353  37.4424767  18.3913875   4.6376598  27.8216410  19.8704112
   4.8221654  27.8161430  20.8096457   4.2376965  26.9688892  19.6998954
  11.7565095  56.1709468  29.1576791  12.5171721  56.7508800  29.1216016
  12.0727444  55.3889912  29.6101975  11.6510367   4.6956673  27.0997951
  12.3765016   5.0041026  26.5568400  11.9019675   4.9334416  27.9923919
  15.6954455  11.3925314  22.3049450  16.0778522  11.7662811  21.5110254
  15.6904948  10.4484808  22.1469045   9.1109896   6.9380540  10.8733010
   8.1735164   6.7486292  10.9119511   9.3486333   7.1561289  11.7745233
  42.9760237   4.6044853  16.4401937  42.7892746   5.1728708  17.1873844
  42.3938496   4.9190563  15.7485640   7.7076137  21.9524741  22.1758389
   7.6810002  21.5862870  23.0598235   6.9578761  21.5578318  21.7304373
  44.6259908  19.5203364  26.3949180  45.1039848  18.7830997  26.0151339
  45.0467162  20.2955937  26.0231686  10.5855310  23.5445070   2.4135527
  10.8845174  23.5946703   3.3214744  10.4156411  22.6137543   2.2684106
  10.0885117  31.8846846  13.8759184  10.4835951  32.3373437  14.6210647
  10.0263476  30.9714794  14.1559577  38.9049645  26.1081028  12.6132977
  37.9521455  26.0257053  12.6530337  39.0655090  27.0510793  12.6486897
  11.8912005   3.6346364   7.2523141  12.3924923   3.5018548   8.0568683
  11.2567294   4.3158430   7.4751043  32.4097647   1.5499434   7.4112612
  31.6094746   1.9454318   7.0657814  32.8471805   2.2624856   7.8772897
   0.9135292  55.7107710   2.2036584   0.7774594  55.9803929   3.1119651
   1.8034875  55.9979260   1.9993359  42.9412608   4.4868138   8.5978043
  43.6030938   5.0871551   8.9410239  43.2813653   3.6149809   8.7989706
   2.4240053  19.6376193  10.9525335   1.6871980  19.8708224  10.3877652
   2.8571793  20.4709291  11.1374319  26.3781357  13.7454057   9.3222028
  27.1486020  14.1460192   8.9195585  26.3629580  14.0969944  10.2123642
   1.6381112  16.2063217  29.9177504   0.7744631  15.8316517  29.7446441
   1.6110013  16.4536679  30.8420428  44.3515698  24.6676564  14.3568969
  43.4004237  24.6023560  14.2715240  44.5337687  24.3626356  15.2457154
  11.9364154  18.8669920  19.3464267  12.8362012  18.8231719  19.0228558
  11.9824016  19.4505024  20.1038122   7.2532892  14.2668569  19.9009216
   7.4985301  14.9787068  20.4919863   7.1206635  13.5131216  20.4758334
   5.3085065  21.2303400  18.4776986   5.1179069  20.2931809  18.4372354
   5.1955295  21.4581060  19.4005144  18.0444920   9.2816579  11.6961133
  17.6648080   9.6057755  10.8793998  18.5811412   8.5347241  11.4309156
   8.6065876  24.0528870  24.5973349   8.5008454  24.9018383  25.0266743
   9.0362078  24.2564988  23.7665510  23.0107069  11.0301340   2.2757947
  23.4713340  10.3167725   2.7175748  22.1625042  10.6561100   2.0372799
   0.7356017  30.4782534  26.9831753   0.3854008  29.5885015  27.0271134
   0.6137141  30.7388139  26.0702229   1.6609672  18.2815230   5.1632380
   2.3270544  18.9100432   5.4416668   0.8508456  18.7902451   5.1295114
   0.8264871  12.7977014  19.2910695   0.7943688  11.9010842  19.6246552
   1.1540496  12.7086806  18.3960772  15.9355760  14.1640174  23.0038381
  15.9770656  13.2497966  22.7232838  15.2565634  14.1769719  23.6783791
  20.0274324  16.8866503   8.6155164  19.7921526  16.3336062   7.8705209
  19.4386089  17.6385546   8.5510385  12.8815734   2.6622197  29.7039212
  12.7388287   2.4723835  28.7766575  13.8253295   2.5599772  29.8268145
  34.4703866  33.1887555  21.2801695  35.3040983  33.4277654  21.6851759
  34.6768691  32.4269748  20.7386112  26.1913063  25.5907011  26.8507183
  26.3296760  24.6508813  26.9683093  25.2677645  25.7252669  27.0633051
  38.9707585  13.9547431   7.8859043  39.1660310  14.8170650   8.2526469
  39.6698059  13.3902347   8.2158971   5.3716928  23.1159401  20.6484437
   5.5200899  23.0952406  21.5938449   6.0201412  23.7375498  20.3177667
   4.6318132  21.5242672  30.1362420   3.7924743  21.9759202  30.0482028
   4.3964580  20.6094193  30.2908189  15.1710844  24.2028666   8.0524182
  15.7153296  24.6670413   7.4163592  15.6771624  23.4217072   8.2758212
  12.5121629  31.8186808  22.7965740  11.6391790  32.2112656  22.7938614
  12.5070512  31.2181878  22.0511798  13.3732772  25.9355068   6.1848432
  14.2434537  25.6539822   5.9024113  13.0449069  26.4643621   5.4577136
  18.1015277  28.1959867  29.3207935  18.2667136  27.9103279  30.2193165
  18.8998616  28.6585188  29.0659220  11.0554576  28.2522798  10.1278067
  10.1644266  27.9489899   9.9537039  11.0180438  28.6085606  11.0154426
  10.6075060  11.6022635  25.0553107  11.3548124  11.2652230  24.5611763
  10.5323946  12.5165510  24.7820592  21.4932442   5.8235109  10.9597504
  20.6304359   6.2368137  10.9909832  21.3157129   4.9172160  10.7080674
  13.6788535  30.9931827   9.0773249  13.2168031  30.6782818   9.8542273
  13.8588345  30.2024794   8.5687727  21.6157794  14.3128240   6.3948238
  22.2229290  15.0074792   6.1397660  20.7642555  14.7467220   6.4484137
   5.3307241   5.4336810  17.8921211   5.1927418   5.7685679  18.7781477
   5.4785389   4.4954646  18.0110025  13.0732930  25.5525160  21.6722846
  12.3577225  25.3896856  21.0577321  13.0373204  26.4946461  21.8375993
   4.5018789  31.7600012   0.7040893   3.6006120  31.9042540   0.9924296
   4.9667230  32.5553465   0.9640444  32.4856581  39.5251083  13.0602574
  33.0700244  40.2832222  13.0575562  32.4639143  39.2362094  12.1479535
  31.9804443  16.4430106  22.3400998  32.8098191  16.1124206  21.9950223
  31.9254507  16.0770726  23.2228780  13.2299674  10.3912866  13.4265983
  13.3878112  10.2307248  14.3569410  14.0969229  10.3396189  13.0241656
  42.4276580  32.1031642  18.6315358  42.2516076  32.9232502  19.0927279
  41.9491355  32.1848202  17.8065634  40.9384040   9.4211036  13.8797188
  40.1613231   8.9214152  13.6293423  41.3255121   8.9186883  14.5966280
  21.6848850  10.3566051  18.7057996  21.0826063  10.9884107  18.3129704
  21.1460996   9.8660970  19.3265605   0.3647686  27.9241610   9.9218625
   0.7171690  28.5235190  10.5797493   0.3585331  27.0703650  10.3545594
  40.0536968  30.6948638   0.2928943  40.4015310  29.9226546   0.7389204
  39.7130574  31.2455082   0.9978679  41.2632872  18.8128459  20.7208720
  41.4973329  18.5636687  21.6149447  42.0270042  18.5707843  20.1970652
   4.3162525   4.2035043   0.2137905   5.1245308   4.5836538   0.5578905
   4.3706262   4.3408620  -0.7319410  11.0095727  19.9155641   9.8691839
  11.1686766  20.2602482   8.9904857  10.4054689  20.5426741  10.2667046
  10.0992167  14.3490040   0.9531823  10.5512500  14.1946054   1.7826760
   9.7742891  15.2468109   1.0209792   9.5745248  32.7959490   6.8576384
  10.0481582  32.8422332   6.0271198  10.2610290  32.7324057   7.5216466
  10.1171899   3.1814259  30.0917297  11.0702050   3.1255314  30.1615122
   9.7959650   2.8559887  30.9326442   5.7398427  29.0251303  17.6079348
   5.4475856  28.3053184  18.1671194   4.9374074  29.3558216  17.2042349
  44.9127687  19.9169219  12.9348314  45.0865666  19.8800385  11.9942653
  44.7500098  20.8433604  13.1121755   2.4775527   2.9535758  22.3663378
   1.6154832   3.3674726  22.4082589   2.9760820   3.3666015  23.0713987
  26.6075611  40.6997013  23.3500442  26.9551826  41.4513159  22.8699783
  25.6634641  40.7327414  23.1957093  35.4173972  46.2290367  21.3154006
  34.7230984  45.5730148  21.3771677  35.0717784  46.8875559  20.7127976
  27.3266864  12.4954069  25.6519127  27.5067878  11.5569091  25.7068372
  26.5862131  12.5623107  25.0490427   7.6290250  20.3398871  16.5973246
   6.7230588  20.1295733  16.8236566   8.0441743  20.5435658  17.4354160
   8.2911026  51.5549534  26.4668274   8.9006877  51.6325261  25.7329202
   8.7935841  51.8468901  27.2274303  17.7076745  46.3551881  23.1366420
  18.2047617  46.6390201  23.9038277  17.3363662  45.5103847  23.3909416
   9.6060127  48.1778064  22.4076581   9.2779690  48.1108757  21.5109181
   8.9528596  47.7195551  22.9364562   2.7183762   3.7723956  25.4519248
   2.3999393   3.4033895  26.2757349   1.9259000   4.0448716  24.9893570
   6.7207998  48.9407667  13.0041075   7.4907070  49.5069786  13.0577564
   7.0655501  48.0939295  12.7208304  41.5400819  12.1227908  19.3944359
  41.0047121  12.2711718  20.1739192  41.2703542  11.2601507  19.0792704
  42.8885262  12.7649736   6.8192571  43.2212670  12.4142277   7.6453882
  43.0184080  13.7106097   6.8909174  44.7185882  11.2702489  21.9152689
  44.6212420  12.2156668  21.8015075  45.6630817  11.1201429  21.8748736
  39.4317640   6.4113820  16.4386749  39.8586257   6.1888224  15.6113374
  38.9115704   7.1894526  16.2380826   9.8875350  15.5052149   9.2470344
   8.9948076  15.6821859   8.9504703   9.8027843  15.3618002  10.1896271
  10.4643357  14.7055578  11.9420513   9.7570145  14.4013524  12.5107273
  11.1576867  14.0550864  12.0533403  10.0590861  54.2474753   1.6618785
  10.0619400  54.3429062   0.7094535  10.4991066  53.4122869   1.8202266
  19.6311581   1.1592285  23.4130335  20.1576853   0.5942468  23.9785385
  18.8432717   0.6474415  23.2298923  20.0885987   2.0187996  10.4559982
  19.2633355   1.9998474  10.9405732  19.9369812   1.4484750   9.7023582
  36.7769880  15.3764617  23.2884002  36.8050761  15.3245270  24.2437768
  37.1976937  16.2109673  23.0814266  13.9793313  14.6134293   3.5886463
  13.0380523  14.7637892   3.6759218  14.1484582  14.6923852   2.6498207
  13.1255329   5.0273103  14.8074135  13.1999135   4.1434312  15.1672157
  13.1025505   5.5975682  15.5758604  29.4732381   7.3623407  14.7948015
  28.5728456   7.6266670  14.6059763  29.7285153   6.8275660  14.0430820
  13.1065094   6.3806140  17.8236973  14.0047371   6.6978353  17.9174519
  12.7173388   6.9548005  17.1640861  19.9812984  11.5650892  26.1767793
  20.2338099  10.9174609  25.5187178  19.1300333  11.8877244  25.8809996
   1.7460172   1.3513350  12.2888291   2.6276022   1.7241953  12.2926843
   1.5631706   1.1592744  13.2085633  15.0436497  50.7251479  21.7180014
  14.5644498  51.5105634  21.4539552  15.9395754  50.8791061  21.4182591
  12.2856200   0.1501766   4.0370822  13.0176127   0.0649763   4.6479499
  11.5084100  -0.0194409   4.5694405  44.0208477   1.5280674  25.4310441
  44.7721380   1.0077341  25.7157326  43.2605339   0.9858491  25.6411719
  34.3506361   9.1616637  20.2591896  34.7178520   9.8981076  20.7481003
  34.8126210   9.1764593  19.4209874   2.9603782  48.8993403  16.3408327
   3.8906360  48.8538595  16.1199617   2.9022408  49.6008190  16.9895077
  14.1400599  19.1675019   4.0512713  14.3873417  18.6808002   3.2650122
  13.2509184  18.8715613   4.2464074  38.8177712   4.9238989  23.5628557
  38.6776741   4.0589583  23.1775212  38.6780728   4.7937205  24.5008183
  13.7665546   1.7419223  27.3308253  14.6168602   1.8967891  27.7421975
  13.5672295   2.5609049  26.8772078  18.7994087  47.3525950   4.9323710
  18.5530102  46.4886650   5.2627429  17.9957533  47.8693279   4.9903115
  15.7417762  21.7172670  17.1000838  15.7567132  21.4842272  18.0283630
  14.9214077  22.1972609  16.9868100  12.5374293  52.2549891  19.1752315
  12.2709441  52.8560450  18.4795666  13.1931388  51.6904642  18.7658560
  44.9168626  35.9110137  27.1479940  45.0466283  35.1223966  27.6747513
  45.7116467  36.4258262  27.2877026   2.3642102   9.7162688  17.6744175
   2.9121196   9.1265142  18.1923139   2.2418906   9.2601931  16.8417931
   9.3214226  52.9718041  28.6079049  10.2718079  52.8667613  28.5635734
   9.1940027  53.8448101  28.9791965  41.2190510  20.8572388  28.6383510
  41.6627718  20.2863574  28.0111051  41.8891390  21.4865685  28.9051056
  19.7899985   7.5162309  15.9722745  19.4836402   8.2237792  15.4050422
  19.2934906   7.6272339  16.7830706  21.6659427   9.4043571   8.9228591
  21.5168595  10.3369892   9.0784344  20.9105635   9.1239876   8.4061107
   5.6671071  45.7922860  15.1289964   4.7879308  45.6775197  14.7682881
   5.9829897  46.6058328  14.7358155  43.2258315   1.8005155   9.9323374
  43.5075526   1.0130430   9.4667703  43.6088523   1.7126545  10.8051527
  33.7620772   4.4271395  18.7931061  33.3181418   3.5838613  18.7034631
  34.2067720   4.3749687  19.6391296   6.6608876   6.8365735  26.0232615
   7.1146822   7.5808179  25.6277847   5.8406949   7.2037971  26.3529038
   2.4623476   0.8052295  17.9479575   2.3755988   1.4274430  18.6701465
   1.5611178   0.5950885  17.7032995  32.0404507  12.4687135   8.4948581
  31.7037727  11.6663682   8.8937593  32.9866351  12.3327100   8.4451622
  20.5710053  19.0242875  28.4099913  21.1803675  19.6735191  28.7612844
  19.8236406  19.5381713  28.1040502   9.0010673  13.9143825  14.0462637
   9.3235928  14.6451366  14.5737171   9.6821582  13.2459962  14.1211426
  18.0744863   6.4950550  13.8495517  18.7575805   6.6173810  14.5088327
  17.5868356   5.7279104  14.1494143  17.5277019  52.2823509   6.2790686
  17.9766059  52.1158197   7.1079135  18.1883645  52.1060749   5.6092310
  39.7100635   1.3017729  19.6016109  40.5060346   1.3403399  19.0713525
  39.0877755   0.8116862  19.0642059  22.5761045   6.7937607   3.0142167
  22.0561851   6.6499740   3.8049382  21.9282950   6.9413197   2.3251587
  43.4254910  51.8276169   9.1666257  43.8225430  50.9844180   8.9484590
  43.2332560  52.2283372   8.3188635  20.4774141  11.9073272   9.0501126
  19.9497581  11.7034805   8.2779368  20.9676933  12.6919937   8.8048443
  17.8136790  17.0925653  20.5754042  17.5614548  17.8664982  21.0790324
  17.8646362  17.4015510  19.6708810   7.4406588   1.1843845  15.9511900
   7.4596834   1.4223535  16.8781424   6.5258420   1.2980407  15.6934595
  32.7053667  24.8950553  20.1802906  33.1739141  25.6279397  19.7808250
  32.0566822  25.3077435  20.7504925  15.0336444   4.0448210  21.2558842
  15.2406287   3.2157323  20.8246064  14.0847695   4.1318360  21.1647940
   9.1013908  10.9126103  27.2863531   9.7316986  11.3444102  26.7097306
   8.6273223  11.6315937  27.7041459  18.2193649   4.0577275   1.3803204
  18.4025991   3.3361953   0.7786163  18.6059582   4.8252180   0.9587320
  27.2967100   1.8677956  24.2807937  27.6697993   1.8781126  23.3993554
  26.9660711   2.7565393  24.4113445   5.2228701   1.5444236  25.7250643
   5.9093237   0.9587396  25.4057097   5.2027440   2.2592306  25.0887656
  14.6622074  47.8420909  25.5596018  15.0122046  46.9982787  25.2737451
  15.2785838  48.4869989  25.2126050  38.7559636   7.3411232  20.3636026
  38.8073499   6.7692041  19.5977700  38.0773403   6.9470662  20.9117079
  37.1406890   2.5482625   5.5357355  36.9666500   3.0403855   4.7333908
  38.0706121   2.6943204   5.7093471  17.9334700  55.6224205  26.7293358
  17.9943430  56.1016919  27.5556684  18.6083090  54.9466778  26.7941093
   7.3127997  55.9506560  24.5178962   7.1402127  55.6600467  25.4134345
   8.1745070  55.5890864  24.3106270  15.5454576  27.2097206  13.6496472
  16.2871873  26.6096592  13.7270641  14.9244416  26.7511392  13.0837190
  24.2442298   9.6231103  26.6074538  24.2778563  10.4508007  26.1278391
  25.1402497   9.4885886  26.9161367  26.7924953  15.2210188   1.3053211
  27.6617026  14.8548913   1.1420306  26.2372160  14.4578195   1.4647635
  21.5425181  26.4632225  26.3596559  20.9447742  27.1628022  26.0959816
  20.9882498  25.6852913  26.4216471  17.8452563  10.5414343  30.3578711
  18.6992562  10.4254508  29.9413800  17.2658420  10.8109295  29.6452117
  14.5480168   1.6712251   6.9637140  14.4518721   2.5689557   7.2816261
  14.5242190   1.7509852   6.0101398  21.4330769  13.9204824  26.6512465
  20.8202338  14.4695449  26.1621785  21.0192966  13.0575359  26.6697145
  12.1215999  16.1251152  25.1130271  12.9514134  15.8545911  25.5060387
  12.3673606  16.7860436  24.4657207  18.3864808  23.4818769   0.6241581
  19.1387236  23.6475801   0.0559102  18.7350476  22.9378629   1.3304028
  14.7921956  10.1400387  30.5311281  15.4986310  10.1956451  29.8876308
  14.8618209  10.9515464  31.0339596  10.9504604   8.3707821  25.9972698
  10.8731687   9.2887956  26.2570957  10.1291907   7.9709220  26.2833819
   3.4003645  55.5616626  29.6902609   2.6496941  55.9683618  30.1230669
   3.9457116  56.2982962  29.4142175   3.4585005   3.6464959   7.5496489
   3.0877870   3.1824496   6.7990059   3.7372455   4.4909096   7.1953911
  44.1505007   2.3368885   3.4023306  44.1286209   2.6940206   4.2901424
  43.2990824   2.5671941   3.0304736  44.8297999   0.8735022  20.7616973
  44.8641402   0.9355339  19.8071277  44.9405867  -0.0593821  20.9452319
  24.6281481   1.7400935  19.9126732  24.9177074   2.3889652  20.5540419
  24.9755621   0.9097718  20.2384067  17.7387369   5.9447443   7.2348136
  17.5820994   6.0298485   8.1752676  17.9074514   5.0117159   7.1035695
  25.3666115   0.6181737   2.0982902  25.6034255   1.1607339   2.8504732
  24.4095564   0.6298269   2.0864059   5.3292531   6.0537946   4.3882748
   5.9309340   5.3850746   4.7154224   4.7324824   6.2169999   5.1186585
  26.1113930  54.7894908   0.3021428  26.3819456  53.9710162   0.7182348
  26.1211061  55.4330098   1.0106768  18.7813616  54.9530734  11.7922592
  18.6962366  55.4904396  12.5798023  18.9801753  54.0763118  12.1208835
  40.0881481  12.7923477  30.3573820  39.3916488  12.1552944  30.1983758
  40.6645298  12.7117348  29.5974380  26.1477208   1.9481404  30.8180585
  25.7052445   1.3242657  31.3935813  26.0588527   1.5711515  29.9427221
   6.5690047  49.1423853  21.0876012   6.1324304  49.7346570  21.6998506
   6.4649564  49.5616134  20.2334023  45.5603820  11.7824280  13.3282161
  45.0434666  11.2752700  13.9541733  45.7077949  12.6219058  13.7638509
  10.8973396  16.1798966  21.4194131  11.5498090  16.3665628  20.7443786
  11.2364674  16.6083610  22.2053146   2.1693686  12.2542286  16.8770385
   3.0721071  12.3675966  16.5796447   2.1496452  11.3739622  17.2525060
  34.9317147   1.5430288  16.7003751  35.8115585   1.2490036  16.4644623
  34.5362533   1.8061596  15.8693492  22.3088813   5.8705038  23.8834286
  22.4279809   6.4602464  24.6279097  21.5866184   5.2988791  24.1438389
   7.4111170   5.9575403   8.3542895   7.7041656   6.8551040   8.1970227
   7.7447569   5.7459474   9.2261523  18.5929930  12.0392609  13.6718082
  17.7750456  12.4856186  13.8908005  19.1039538  12.6948631  13.1971109
  18.2888269  13.4942746   0.1099798  18.9326274  13.2728088   0.7828144
  17.7887118  12.6881421  -0.0175661  24.0815639  55.0989067  26.3663310
  23.1950116  55.2119968  26.7090700  23.9946270  54.4209089  25.6962619
   7.8343570   0.3138810  10.3360510   8.6021441   0.6461590   9.8709422
   8.1820738  -0.0246865  11.1610937  16.2846625   2.5888121   4.5244929
  17.1608448   2.9738778   4.5084018  15.6925333   3.3408809   4.5271650
  33.6355938   3.2508400   9.0025556  34.5817746   3.2400960   8.8581324
  33.5296453   3.6497694   9.8661888  28.0770540   3.8639441   3.6949983
  28.0040121   4.4615564   2.9508501  28.9635468   3.5086536   3.6307433
   2.4685630   6.1752760   3.6034554   3.3746633   5.8721578   3.5457224
   2.4259180   6.9186950   3.0020064  42.3672645  53.7162662  12.8921664
  42.2539584  54.3425695  12.1772277  42.0882915  52.8783365  12.5230050
  25.8474016   3.5554844   8.4321815  25.3202224   4.0807557   9.0341824
  26.7484784   3.6836505   8.7286019  18.8032448  52.3927592  13.0746102
  18.2801783  51.6876962  12.6931405  19.3946433  51.9499137  13.6831892
  13.8276541   3.7902075  25.3936270  14.6866167   4.0931723  25.0993029
  13.2152259   4.1424030  24.7477773  41.9744281   1.5377511  28.9521836
  42.0727627   1.9192475  29.8245498  41.0422565   1.3309711  28.8848836
  13.5462451  52.2533166  13.1307927  13.8854766  51.4259820  13.4723655
  12.6359951  52.0634034  12.9036168  24.5094824  21.2813258  30.6889665
  24.1844773  22.1780515  30.7694937  25.4154301  21.3265562  30.9946555
  11.9759345   2.9407772  10.1869822  11.2816763   2.3757283   9.8479283
  11.5117836   3.6485833  10.6339788  15.7461917   0.7938664   2.5034136
  14.8850191   1.1907016   2.3725121  16.1478448   1.3166830   3.1973654
  19.6989191   9.6666026  14.0803504  19.6526051  10.6192625  14.1611290
  19.3155682   9.4799787  13.2233524   9.3165165   9.7044808  10.1746547
   8.9524055  10.0509834  10.9892666   9.6134758   8.8230753  10.4008663
   4.8118252   0.8728699  11.5556407   4.8377523   0.9179072  10.5998528
   5.4538959   1.5218022  11.8435013  22.5113797  51.4494594   6.6326910
  21.6512847  51.5660160   6.2290996  22.7537012  52.3240783   6.9369161
  24.4571853   2.2685368  25.2542940  24.0346599   2.0050505  24.4368110
  24.7003269   3.1836674  25.1141122  42.2174908  10.1838255  11.4838195
  42.7363671  10.9242451  11.7981088  41.7510186   9.8719209  12.2592878
  27.2669649   5.8281034  11.3890660  26.6803455   6.3423854  10.8344281
  28.1418800   6.0108209  11.0464752  32.9092337   2.6858491  12.4263442
  33.6947788   2.8833726  12.9363787  32.4376692   3.5175973  12.3810220
  19.1959572  56.0843253   9.0248400  19.0293097  55.5385387   9.7933304
  18.3554375  56.5045387   8.8426864  12.4297464  53.8751487  30.4531813
  12.7504086  54.0070172  31.3453794  13.0516481  53.2606214  30.0635314
  11.7206621   4.8241898  12.2520161  11.9248104   5.0588989  13.1572604
  11.9739330   5.5936724  11.7421317  22.8355837  33.7634584  15.5072117
  22.5036597  33.6300417  16.3950503  22.0574713  33.9688178  14.9889445
  25.8429885   3.7689438  21.5426469  25.6896567   4.7090894  21.6367102
  26.5225267   3.7030411  20.8717418   2.0764560   3.9985308  15.5861473
   1.4251435   4.2472506  14.9302804   1.9595194   3.0546278  15.6938767
   1.0340968   8.1647837   9.2213923   1.8824874   8.0220389   8.8017625
   1.2469228   8.5825372  10.0559092  45.2197340  11.0477376  29.7725054
  45.2309234  10.3050804  29.1687108  45.4774771  11.7969739  29.2354346
   4.7141927   1.5400773   8.9949864   5.6361324   1.6044644   8.7457603
   4.2788377   2.2193217   8.4798896  28.5416293  12.2369742   0.8113144
  29.1357422  11.9370329   0.1233476  28.2386947  11.4330637   1.2334415
  44.1696446  15.3888416   7.0622218  43.6114053  15.9743989   7.5738120
  43.7903787  15.4034781   6.1834866  20.5727506  23.7270784   4.9613217
  21.5007615  23.4983492   5.0134134  20.2426457  23.5923910   5.8496463
  29.2740536  17.6867330  26.8277157  28.8018012  16.8620062  26.7135388
  30.0232196  17.4594831  27.3784778  30.7298756  22.1643972  17.0517004
  30.5605626  22.9645085  16.5543222  30.2746677  21.4781857  16.5637159
  20.0232911   3.9316303  14.3184745  19.9172890   2.9905593  14.1792607
  20.9167528   4.1173461  14.0295684   2.9810196  17.9169917  20.5250788
   3.1156349  17.5286722  21.3895559   3.2537445  17.2351456  19.9111259
  13.0670333   2.0101535  12.3747492  13.0178440   1.2683468  11.7718112
  12.5555670   2.6986054  11.9497001  22.9113364  14.3500137  23.9314768
  22.4779844  14.8792017  23.2618514  22.2933292  13.6423528  24.1145483
  31.6612436   8.9644283  14.7440743  31.2155582   8.3613205  15.3389347
  30.9587027   9.3410230  14.2141259  26.6483736  48.8000884  18.8203740
  27.1581101  49.3205126  19.4413090  26.4268160  48.0027094  19.3013418
   3.5420060  15.9713054  14.9879313   3.4530929  16.2443757  14.0748274
   4.4812715  15.8287311  15.1049113  22.6679134  13.8504350   1.0006672
  23.5392094  14.0117681   0.6386602  22.7634645  13.0415380   1.5034477
  41.4032940  53.8657650   7.4530667  41.3066302  53.5480192   6.5553331
  40.7058985  53.4258654   7.9392356
  45.5393566  56.1187335  30.9282700  90.0000000  90.0000000  90.0000000
