default_name
  2387
  13.6148799  12.6052933  15.1325469  13.6146362  13.6952933  15.1325470
  13.1008154  14.0590286  16.0223690  13.1008152  14.0590292  14.2427250
  15.0416362  14.2462933  15.1325470  16.0056362  13.4822933  15.1325470
  15.1696362  15.5752933  15.1325470  14.3454589  16.1591008  15.1326161
  16.4676362  16.2192933  15.1325470  17.0218000  15.9206045  16.0223709
  17.2756362  15.8262933  13.9005470  16.7377649  16.1271140  13.0014911
  18.2449320  16.3241491  13.9271065  17.4226145  14.7462897  13.8911202
  16.3276362  17.7342933  15.1325470  15.2156362  18.2582933  15.1325470
  17.4606362  18.4402933  15.1325470  18.3499191  17.9614664  15.1323873
  17.4606362  19.8892933  15.1325470  16.9467711  20.2531347  14.2427934
  16.7496362  20.4382933  16.3645470  17.2581717  20.0899936  17.2635347
  16.7649224  21.5278661  16.3381335  15.7168058  20.0900522  16.3739698
  18.8806362  20.4372933  15.1325470  19.8436362  19.6732933  15.1325470
  19.0086362  21.7662933  15.1325470  18.1844589  22.3501008  15.1325458
  20.3066362  22.4102933  15.1325470  21.0892383  21.6515874  15.1325470
  20.4042422  23.0322172  14.2427244  20.4042419  23.0322170  16.0223694
  29.1609480  26.3580800  22.9128460  29.0803530  25.4435410  22.6420170
  28.7473900  26.8547870  22.2068170  27.2927520  28.1359820  24.7937730
  26.5169620  27.6560260  25.0836300  27.9440450  27.4565470  24.6193890
  21.3093350  28.4479630  25.6713490  20.4778230  28.1928340  26.0710000
  21.9174330  28.5190400  26.4071410  31.3134950  32.5420010  23.5736860
  30.8516480  31.7707250  23.9024030  32.1260500  32.5686080  24.0789310
  21.2894610  32.4819720  25.8671510  21.5922650  31.5917460  25.6881730
  22.0338200  33.0389940  25.6393760  19.7185300  23.4081520  19.4555880
  18.8302000  23.7497490  19.3535760  20.0026490  23.2081840  18.5636710
  17.6818310  26.0087170  25.3395580  18.2534420  25.2409370  25.3399220
  17.6819850  26.3075930  24.4302190  26.7336510  30.8117010  24.8007890
  26.6644790  29.8706950  24.6397020  27.4956370  30.9018420  25.3730460
  18.9243180  21.4171530  27.1264510  18.7446020  20.5197280  27.4067270
  18.5223260  21.9643400  27.8011460  27.7641680  23.6187390  25.0276820
  28.1406500  22.7459270  24.9150490  27.6661190  23.9546090  24.1367260
  21.8946690  21.9913020  20.4894260  22.0013440  22.8916750  20.7963020
  20.9839050  21.9430990  20.1988910  31.5465800  21.1137830  21.9605160
  32.3675420  20.6234400  22.0030640  31.5799880  21.7035490  22.7137000
  19.5429850  23.9132030  25.7346850  20.2239960  24.1770400  26.3534250
  19.2277900  23.0732900  26.0684860  23.7354420  24.9599390  24.8219440
  24.2432640  25.4580360  25.4624460  24.2667660  24.1834590  24.6458800
  28.4061610  29.7117260  20.5872760  27.7878880  30.1766710  20.0235480
  28.9184860  30.4044740  21.0042270  23.2693370  29.2393130  27.2656360
  22.9362750  29.8662050  27.9077430  23.4460050  29.7655010  26.4858030
  31.7827280  23.0538210  24.7332700  31.0782850  23.3423100  25.3135810
  32.1439440  23.8638320  24.3732260  21.7005850  21.3107910  27.0953310
  22.0422660  22.1549960  26.8007180  20.7621660  21.4591650  27.2118650
  17.7744810  30.3973790  17.9612390  17.3972790  30.8860890  17.2297290
  18.0317880  31.0699070  18.5918920  25.3833740  18.7990180  23.4197900
  25.6908720  18.2437070  22.7033400  24.4534440  18.9334640  23.2370890
  32.2294220  31.2373690  20.7995530  32.1190550  30.2948020  20.9244950
  32.2262470  31.5989330  21.6858290  30.3334240  29.4187310  27.0387970
  30.7503030  29.2047420  26.2041430  31.0574060  29.6760100  27.6096590
  27.7714500  26.8639010  20.1558020  26.8443780  26.7976390  20.3846490
  27.9239320  27.8019140  20.0413260  27.7583580  23.1356010  17.1525180
  26.8187250  23.2969970  17.2377640  28.0766840  23.8541690  16.6061170
  31.8011790  28.4259310  20.6593270  31.1824210  28.0878860  20.0119570
  31.7836240  27.7819070  21.3672460  31.2438350  24.6043850  28.0759080
  30.8309530  25.4297560  28.3299070  30.5114300  24.0188890  27.8835440
  23.3771140  27.3903750  22.9377750  22.9728140  26.6781000  22.4423650
  23.4634260  27.0456990  23.8265790  23.8452840  31.0771310  25.1016960
  23.5481130  30.4716780  24.4224740  24.7952660  31.1148620  24.9906320
  22.0899760  24.1646960  26.7176790  22.6414350  24.2742300  25.9430040
  22.6043270  24.5384560  27.4332020  29.9776490  27.6646120  17.6666020
  30.4169770  26.8268550  17.5203840  30.6904910  28.2975520  17.7530160
  28.0871870  32.6042190  21.6347260  28.5267780  33.3466520  21.2202650
  28.0258760  32.8468760  22.5586220  20.0775770  26.2848730  20.4384400
  19.9573370  27.0110820  19.8265670  19.7676660  25.5151640  19.9612310
  17.7161140  29.4563870  26.2453040  17.7941560  29.5912640  25.3008760
  18.3302820  28.7479760  26.4381160  18.9608770  31.1564060  22.6559220
  18.5536850  31.2978650  21.8012820  19.8521780  30.8724220  22.4530430
  30.4568180  33.0998870  17.5508270  29.7633340  33.0976160  16.8910550
  31.1991040  32.6758190  17.1202440  22.5439430  19.6283800  23.8208070
  22.1007580  20.4093340  23.4892590  23.1024420  19.9513690  24.5279010
  25.6598250  19.2494500  18.7013900  25.0352430  19.2454370  19.4267210
  25.5728370  18.3825460  18.3049870  24.5815330  20.1731130  25.6797670
  24.8787660  21.0793960  25.5989690  25.1300890  19.6849910  25.0657240
  22.3353650  24.7517370  21.5489320  22.1094570  24.5354540  22.4535940
  21.5546180  25.1845830  21.2035290  29.5651410  24.7580740  20.1479970
  28.9660300  25.4816540  19.9643590  30.1131020  24.6957520  19.3656420
  28.1716280  23.3944280  22.1783250  28.5645850  23.7116480  21.3651940
  28.5333130  22.5156160  22.2927770  17.2080450  19.9845080  24.4013450
  16.9193500  20.5547940  25.1138430  17.9526210  19.5049530  24.7644680
  28.7571420  25.9850030  26.2734030  28.0252540  26.4936840  26.6224130
  28.3595760  25.1680010  25.9722810  25.1948810  22.6604230  24.6786520
  25.1984870  22.2194180  23.8291060  26.0899930  22.9821560  24.7858340
  21.0451190  22.5430720  23.6380730  20.7051240  23.0205950  24.3947780
  20.2828510  22.0895840  23.2781830  25.2568960  23.6616310  17.6693280
  25.3781780  23.6202790  18.6179100  24.8717470  24.5240460  17.5140010
  29.2197330  21.4383710  25.6856970  29.2370070  21.8892360  26.5298820
  28.9712910  20.5389350  25.8990410  24.2690460  25.9717450  17.0676580
  23.7007360  25.5235700  16.4412490  24.9779460  26.3310230  16.5341730
  25.4956780  26.7206010  26.4251930  25.8626910  26.2464580  27.1713270
  25.3061840  27.5947580  26.7660270  18.3597270  21.4649700  22.5545400
  18.0744190  21.1005370  23.3924020  18.2976130  20.7330160  21.9408540
  21.8137940  29.9675640  19.3402990  21.0400200  29.4273260  19.1801710
  22.5432570  29.4482250  19.0020750  28.0335860  20.3578960  19.2758770
  27.2200470  19.8592130  19.2004080  27.8397810  21.1977210  18.8595120
  30.7484250  24.7298610  17.5720930  31.6363870  25.0415840  17.3972270
  30.7189340  23.8570860  17.1801510  21.8575340  29.6356020  22.9781800
  22.3754010  28.8324280  22.9238690  21.4059360  29.5735160  23.8198630
  26.7444840  30.9022300  18.2509100  27.0860540  31.6464530  17.7552420
  25.9157550  31.2153420  18.6133930  29.6272250  30.2238140  23.6154610
  29.9796070  29.6266270  22.9555980  28.7434580  29.8982370  23.7862860
  25.7135530  30.9835830  21.0225020  26.4006660  31.5305040  21.4032610
  24.9267950  31.5276560  21.0574630  17.8527930  26.6008650  16.5142100
  18.7222780  26.8833450  16.7978020  17.3618250  27.4144520  16.3990910
  25.0162740  27.9881860  20.6350380  25.4725520  28.7987110  20.8610570
  24.6650950  27.6705000  21.4668870  27.3195350  33.4988200  27.8642680
  27.9637570  33.7047580  28.5416100  27.6824790  32.7376600  27.4113530
  20.9174520  18.3319510  21.1072900  20.7889150  18.3237410  22.0557820
  20.0936540  18.6702600  20.7563910  28.5927430  31.5020550  26.5820130
  29.2349660  30.8013710  26.6952300  29.1176780  32.2818990  26.4017020
  32.4383150  31.7869170  16.3059270  32.2120730  31.0699610  16.8983910
  32.0479350  31.5381610  15.4681020  24.2367800  33.1967230  17.8977400
  24.2277900  33.9296920  17.2821910  23.3166160  32.9498810  17.9904360
  19.8374440  28.4182120  18.6424160  19.2302390  29.1581020  18.6519460
  20.3123790  28.5081480  17.8162360  29.4107230  22.5832940  28.3181050
  29.7788050  21.7628150  28.6460620  28.5505430  22.6434830  28.7336700
  27.2227400  33.2595470  16.5602590  27.3239380  33.0559460  15.6304570
  26.3229140  33.0053750  16.7650370  24.7453290  23.8175830  20.5426490
  24.0369440  24.2862170  20.9840100  25.0297770  23.1597840  21.1771680
  28.7768720  20.5426490  21.9822280  28.6536500  20.5612620  21.0331790
  29.7253280  20.5905430  22.1020680  22.9488310  22.1260910  17.9177200
  23.7978840  22.5631060  17.8517390  22.5819580  22.4381170  18.7449260
  31.8698090  26.6973670  22.8308770  30.9288230  26.7123900  23.0056460
  32.1842160  25.9109630  23.2769070  21.8479730  28.3793270  16.3912730
  22.6143000  28.2674630  16.9538160  21.9254420  27.6831240  15.7389500
  18.2286680  32.0287300  20.0521670  17.3026460  32.2708440  20.0427080
  18.6943110  32.8561560  19.9306420  24.9720910  30.3547450  15.8648080
  24.8671550  29.7399800  16.5909460  24.8045130  29.8313340  15.0811090
  28.2123640  29.4167480  16.4690070  27.6633740  29.8636780  17.1132810
  28.8342900  28.9116730  16.9927740  23.8798760  28.3758400  18.3655370
  24.3015180  28.2098270  19.2086760  24.0049600  27.5658630  17.8710510
  26.3926400  27.3996010  15.6132470  26.9132060  26.6845030  15.2473620
  27.0394800  28.0381880  15.9132980  30.2545970  19.2599860  17.8400410
  30.5348260  18.4167760  18.1959830  29.4811700  19.4922970  18.3539160
  24.7925390  20.4926870  16.2847610  24.4447390  19.8150860  15.7050060
  24.9938160  20.0316380  17.0991000  20.5970590  30.8534670  16.1321210
  21.0345460  31.3964340  16.7878790  21.0818320  30.0281620  16.1417550
  17.8116390  33.6423700  23.5841470  18.1419400  32.7744760  23.3520110
  18.2407390  33.8482220  24.4146430  22.4078310  31.9732710  21.2443440
  22.1073850  31.8497680  22.1447350  22.3015800  31.1141300  20.8359170
  18.1331030  27.0214520  22.6811980  17.4779870  26.7526160  22.0371680
  18.9708980  26.9119000  22.2313960  31.0821470  21.8155810  16.9030470
  31.5006350  21.6286790  16.0627130  30.7757530  20.9634860  17.2133400
  19.1706960  27.4067090  27.2215320  19.5380000  27.3194490  28.1011340
  18.6017780  26.6433640  27.1222180  17.3469110  24.2313450  18.6237310
  16.4433190  24.4943650  18.4488970  17.8309730  24.5024620  17.8437270
  19.2262670  18.5924510  25.4756960  19.8738860  18.0421890  25.0352120
  19.6464510  18.8467660  26.2972770  24.2865070  33.4759370  27.9845190
  24.0456430  33.7433930  27.0975710  25.2267710  33.6465100  28.0396050
  29.8702090  18.1594260  27.7063280  28.9961930  18.4929370  27.5036210
  29.7612840  17.6867440  28.5315150  20.0559300  32.2320410  28.4541290
  19.3293360  31.6125700  28.3867240  20.1168450  32.6261020  27.5839370
  27.6176910  19.0764100  26.6456190  26.8348700  19.5509600  26.9252950
  27.3239840  18.1718930  26.5369370  25.5031130  21.4950850  22.1572220
  24.6905640  21.1207740  21.8168100  26.0072770  20.7395930  22.4593410
  30.0056110  18.1593300  23.3955290  30.6085480  18.7313510  23.8703810
  29.2649100  18.7232740  23.1729190  23.5280310  19.6450770  20.7617270
  22.8983050  18.9438080  20.9287400  22.9885450  20.4054900  20.5450430
  21.7059760  32.3075140  17.9883770  21.0768640  32.7760240  18.5369600
  21.8207590  31.4624360  18.4229960  29.1609480  26.3580800   4.1384970
  29.0803530  25.4435410   3.8676680  28.7473900  26.8547870   3.4324680
  27.2927520  28.1359820   6.0194240  26.5169620  27.6560260   6.3092810
  27.9440450  27.4565470   5.8450400  21.3093350  28.4479630   6.8970000
  20.4778230  28.1928340   7.2966510  21.9174330  28.5190400   7.6327920
  31.3134950  32.5420010   4.7993370  30.8516480  31.7707250   5.1280540
  32.1260500  32.5686080   5.3045820  21.2894610  32.4819720   7.0928020
  21.5922650  31.5917460   6.9138240  22.0338200  33.0389940   6.8650270
  17.6818310  26.0087170   6.5652090  18.2534420  25.2409370   6.5655730
  17.6819850  26.3075930   5.6558700  26.7336510  30.8117010   6.0264400
  26.6644790  29.8706950   5.8653530  27.4956370  30.9018420   6.5986970
  18.9243180  21.4171530   8.3521020  18.7446020  20.5197280   8.6323780
  18.5223260  21.9643400   9.0267970  27.7641680  23.6187390   6.2533330
  28.1406500  22.7459270   6.1407000  27.6661190  23.9546090   5.3623770
  31.5465800  21.1137830   3.1861670  32.3675420  20.6234400   3.2287150
  31.5799880  21.7035490   3.9393510  19.5429850  23.9132030   6.9603360
  20.2239960  24.1770400   7.5790760  19.2277900  23.0732900   7.2941370
  23.7354420  24.9599390   6.0475950  24.2432640  25.4580360   6.6880970
  24.2667660  24.1834590   5.8715310  22.0190520  19.5997950  10.3139370
  22.0208960  20.1170340   9.5085270  21.1894830  19.1228130  10.2909300
  23.2693370  29.2393130   8.4912870  22.9362750  29.8662050   9.1333940
  23.4460050  29.7655010   7.7114540  31.7827280  23.0538210   5.9589210
  31.0782850  23.3423100   6.5392320  32.1439440  23.8638320   5.5988770
  21.7005850  21.3107910   8.3209820  22.0422660  22.1549960   8.0263690
  20.7621660  21.4591650   8.4375160  22.4812470  31.2073930  10.3062050
  23.0986470  31.8825010  10.0246500  21.6205590  31.6161910  10.2149550
  25.3833740  18.7990180   4.6454410  25.6908720  18.2437070   3.9289910
  24.4534440  18.9334640   4.4627400  32.2294220  31.2373690   2.0252040
  32.1190550  30.2948020   2.1501460  32.2262470  31.5989330   2.9114800
  30.3334240  29.4187310   8.2644480  30.7503030  29.2047420   7.4297940
  31.0574060  29.6760100   8.8353100  31.2438350  24.6043850   9.3015590
  30.8309530  25.4297560   9.5555580  30.5114300  24.0188890   9.1091950
  23.3771140  27.3903750   4.1634260  22.9728140  26.6781000   3.6680160
  23.4634260  27.0456990   5.0522300  23.8452840  31.0771310   6.3273470
  23.5481130  30.4716780   5.6481250  24.7952660  31.1148620   6.2162830
  22.0899760  24.1646960   7.9433300  22.6414350  24.2742300   7.1686550
  22.6043270  24.5384560   8.6588530  22.9371270  30.8153000  12.9781270
  22.0399800  31.0392970  13.2254670  22.9624140  30.9387940  12.0292670
  21.7642490  27.6866320  11.5538640  21.6250260  28.5589120  11.9226040
  20.8823850  27.3439130  11.4086580  28.0871870  32.6042190   2.8603770
  28.5267780  33.3466520   2.4459160  28.0258760  32.8468760   3.7842730
  23.5622840  33.6288020  13.7623790  23.5338270  34.0330970  12.8952220
  23.3987810  32.6998380  13.5995390  17.7161140  29.4563870   7.4709550
  17.7941560  29.5912640   6.5265270  18.3302820  28.7479760   7.6637670
  18.9608770  31.1564060   3.8815730  18.5536850  31.2978650   3.0269330
  19.8521780  30.8724220   3.6786940  17.7720660  30.4978040  10.0104010
  17.9351700  30.0283400   9.1923380  18.2373110  29.9901600  10.6752850
  22.5439430  19.6283800   5.0464580  22.1007580  20.4093340   4.7149100
  23.1024420  19.9513690   5.7535520  26.8309240  22.4952320  10.6499900
  26.3688610  22.7035340  11.4619840  26.4287350  21.6811670  10.3470570
  31.8313750  23.7161270  11.7796560  30.9807340  23.4167020  12.1005630
  31.6715540  23.9603280  10.8680380  28.9263460  25.2163020  13.8795350
  29.2516870  24.3826770  13.5397580  29.7143790  25.7391540  14.0273680
  24.5815330  20.1731130   6.9054180  24.8787660  21.0793960   6.8246200
  25.1300890  19.6849910   6.2913750  22.3353650  24.7517370   2.7745830
  22.1094570  24.5354540   3.6792450  21.5546180  25.1845830   2.4291800
  24.7752860  25.6502950  13.4406100  24.6796460  24.7097680  13.2906500
  25.6184840  25.8718020  13.0454170  28.1716280  23.3944280   3.4039760
  28.5645850  23.7116480   2.5908450  28.5333130  22.5156160   3.5184280
  26.4808450  22.1451590  14.6636620  25.7906770  21.9523790  15.2982710
  27.2240750  22.4286230  15.1960920  17.2080450  19.9845080   5.6269960
  16.9193500  20.5547940   6.3394940  17.9526210  19.5049530   5.9901190
  28.7571420  25.9850030   7.4990540  28.0252540  26.4936840   7.8480640
  28.3595760  25.1680010   7.1979320  25.1948810  22.6604230   5.9043030
  25.1984870  22.2194180   5.0547570  26.0899930  22.9821560   6.0114850
  21.0451190  22.5430720   4.8637240  20.7051240  23.0205950   5.6204290
  20.2828510  22.0895840   4.5038340  29.2197330  21.4383710   6.9113480
  29.2370070  21.8892360   7.7555330  28.9712910  20.5389350   7.1246920
  19.3459640  29.8729470  12.1699820  18.9614430  29.2323140  12.7682780
  19.6571830  30.5765590  12.7394550  25.4956780  26.7206010   7.6508440
  25.8626910  26.2464580   8.3969780  25.3061840  27.5947580   7.9916780
  18.3597270  21.4649700   3.7801910  18.0744190  21.1005370   4.6180530
  18.2976130  20.7330160   3.1665050  23.2856150  25.7614650   9.9692650
  22.9813220  26.6406630  10.1943010  24.2402610  25.8214440  10.0050090
  27.9544720  29.0350060  12.2454890  27.8882030  28.1145730  11.9912480
  27.3249860  29.1325500  12.9599530  21.8575340  29.6356020   4.2038310
  22.3754010  28.8324280   4.1495200  21.4059360  29.5735160   5.0455140
  19.3419880  26.6017390  11.1164010  18.9834820  27.2671240  11.7037350
  19.0474440  25.7700940  11.4876630  22.5433000  27.0601630  14.0003560
  22.2433140  27.2058810  13.1031380  23.3144240  26.5006920  13.9076950
  27.8861450  31.8570630  11.9958690  27.9005990  30.9251590  11.7777600
  27.1786550  31.9430390  12.6348460  29.6272250  30.2238140   4.8411120
  29.9796070  29.6266270   4.1812490  28.7434580  29.8982370   5.0119370
  25.7135530  30.9835830   2.2481530  26.4006660  31.5305040   2.6289120
  24.9267950  31.5276560   2.2831140  25.0162740  27.9881860   1.8606890
  25.4725520  28.7987110   2.0867080  24.6650950  27.6705000   2.6925380
  27.3195350  33.4988200   9.0899190  27.9637570  33.7047580   9.7672610
  27.6824790  32.7376600   8.6370040  20.9174520  18.3319510   2.3329410
  20.7889150  18.3237410   3.2814330  20.0936540  18.6702600   1.9820420
  28.5927430  31.5020550   7.8076640  29.2349660  30.8013710   7.9208810
  29.1176780  32.2818990   7.6273530  30.3665050  32.3015450  11.0112700
  30.7021290  32.8882140  11.6890620  29.4465390  32.1708160  11.2410490
  18.2041040  34.0790890  12.7802640  18.3132160  33.1385630  12.6398030
  17.5521600  34.3445640  12.1316370  26.1953630  32.3506780  14.1800760
  25.8750500  31.6316020  14.7246450  25.5211990  33.0261850  14.2536820
  29.4107230  22.5832940   9.5437560  29.7788050  21.7628150   9.8717130
  28.5505430  22.6434830   9.9593210  24.7453290  23.8175830   1.7683000
  24.0369440  24.2862170   2.2096610  25.0297770  23.1597840   2.4028190
  26.3709220  25.2372530   9.7675530  26.8694470  25.7118350  10.4327380
  26.5132170  24.3136050   9.9745560  28.7768720  20.5426490   3.2078790
  28.6536500  20.5612620   2.2588300  29.7253280  20.5905430   3.3277190
  31.8698090  26.6973670   4.0565280  30.9288230  26.7123900   4.2312970
  32.1842160  25.9109630   4.5025580  29.1864110  31.2539670  14.5397660
  28.5802270  31.2771270  13.7993410  28.8818220  30.5222710  15.0764910
  18.0697290  27.6333260  13.5358300  18.5736310  27.0540540  14.1074530
  17.3304710  27.9173490  14.0734670  25.1235230  29.0404250  13.0693820
  24.3580900  29.6089250  12.9848490  25.3051190  28.7480460  12.1762050
  30.9404240  28.8224410  12.1624050  31.3545260  28.9769490  13.0114470
  30.0055240  28.9479630  12.3249830  31.4126410  26.1620570  14.1663200
  31.9947180  25.4072890  14.0783680  31.5888180  26.6928010  13.3894680
  25.2959920  19.8790560   9.5107540  24.8477220  19.9014820   8.6653090
  24.6625120  19.4809580  10.1077840  25.7019470  28.7744890  10.1319980
  26.1207580  29.6177620   9.9596220  24.7828100  28.9116930   9.9026760
  28.0383370  26.5061070  11.5157820  28.1579580  25.9102210  12.2552660
  28.8977370  26.5430760  11.0959120  30.3771270  27.0598260  10.0920330
  29.8506490  27.5840880   9.4885470  30.7202610  27.6925650  10.7230060
  24.8052140  23.0482420  12.7733640  25.3951830  22.7398270  13.4611460
  23.9872380  22.5762170  12.9293540  29.6245570  22.6648230  13.0066660
  28.9361090  22.0029770  12.9416650  30.3451590  22.2186500  13.4515120
  17.8116390  33.6423700   4.8097980  18.1419400  32.7744760   4.5776620
  18.2407390  33.8482220   5.6402940  22.4078310  31.9732710   2.4699950
  22.1073850  31.8497680   3.3703860  22.3015800  31.1141300   2.0615680
  18.1331030  27.0214520   3.9068490  17.4779870  26.7526160   3.2628190
  18.9708980  26.9119000   3.4570470  19.1706960  27.4067090   8.4471830
  19.5380000  27.3194490   9.3267850  18.6017780  26.6433640   8.3478690
  19.2262670  18.5924510   6.7013470  19.8738860  18.0421890   6.2608630
  19.6464510  18.8467660   7.5229280  18.9794670  18.7480180   9.4438790
  18.6309490  19.2044000  10.2096970  18.6482370  17.8537310   9.5261220
  20.5859040  31.9199780  13.6091980  20.5428670  31.5492690  14.4906440
  20.7170050  32.8577350  13.7493800  24.2865070  33.4759370   9.2101700
  24.0456430  33.7433930   8.3232220  25.2267710  33.6465100   9.2652560
  26.4919490  19.9392060  12.9658210  26.4308380  20.5313890  13.7153620
  27.4319870  19.8318020  12.8208470  29.1294050  19.5962120  12.6050500
  29.7434460  19.9141410  11.9431580  29.6743610  19.1110710  13.2246360
  29.8702090  18.1594260   8.9319790  28.9961930  18.4929370   8.7292720
  29.7612840  17.6867440   9.7571660  30.7774070  20.3665130  10.3161510
  30.4487430  19.5516890   9.9363240  31.7256370  20.3234940  10.1927200
  20.0559300  32.2320410   9.6797800  19.3293360  31.6125700   9.6123750
  20.1168450  32.6261020   8.8095880  27.6176910  19.0764100   7.8712700
  26.8348700  19.5509600   8.1509460  27.3239840  18.1718930   7.7625880
  25.5031130  21.4950850   3.3828730  24.6905640  21.1207740   3.0424610
  26.0072770  20.7395930   3.6849920  30.0056110  18.1593300   4.6211800
  30.6085480  18.7313510   5.0960320  29.2649100  18.7232740   4.3985700
  23.5280310  19.6450770   1.9873780  22.8983050  18.9438080   2.1543910
  22.9885450  20.4054900   1.7706940  23.6535870  18.9234750  14.4226270
  23.3720140  19.4268350  13.6587090  24.0355570  18.1256500  14.0568400
  30.2551330  18.3388330  15.0006740  30.1416780  18.6582940  15.8958260
  31.0721070  18.7400840  14.7044020  29.1609480   7.5837310  22.9128460
  29.0803530   6.6691920  22.6420170  28.7473900   8.0804380  22.2068170
  27.2927520   9.3616330  24.7937730  26.5169620   8.8816770  25.0836300
  27.9440450   8.6821980  24.6193890  21.3093350   9.6736140  25.6713490
  20.4778230   9.4184850  26.0710000  21.9174330   9.7446910  26.4071410
  31.3134950  13.7676520  23.5736860  30.8516480  12.9963760  23.9024030
  32.1260500  13.7942590  24.0789310  21.2894610  13.7076230  25.8671510
  21.5922650  12.8173970  25.6881730  22.0338200  14.2646450  25.6393760
  19.7185300   4.6338030  19.4555880  18.8302000   4.9754000  19.3535760
  20.0026490   4.4338350  18.5636710  17.6818310   7.2343680  25.3395580
  18.2534420   6.4665880  25.3399220  17.6819850   7.5332440  24.4302190
  27.5398260  16.0534530  23.1940850  26.9209700  16.5092030  22.6235290
  28.3950040  16.2085990  22.7930550  26.7336510  12.0373520  24.8007890
  26.6644790  11.0963460  24.6397020  27.4956370  12.1274930  25.3730460
  18.9243180   2.6428040  27.1264510  18.7446020   1.7453790  27.4067270
  18.5223260   3.1899910  27.8011460  27.7641680   4.8443900  25.0276820
  28.1406500   3.9715780  24.9150490  27.6661190   5.1802600  24.1367260
  21.8946690   3.2169530  20.4894260  22.0013440   4.1173260  20.7963020
  20.9839050   3.1687500  20.1988910  31.5465800   2.3394340  21.9605160
  32.3675420   1.8490910  22.0030640  31.5799880   2.9292000  22.7137000
  19.5429850   5.1388540  25.7346850  20.2239960   5.4026910  26.3534250
  19.2277900   4.2989410  26.0684860  23.7354420   6.1855900  24.8219440
  24.2432640   6.6836870  25.4624460  24.2667660   5.4091100  24.6458800
  28.4061610  10.9373770  20.5872760  27.7878880  11.4023220  20.0235480
  28.9184860  11.6301250  21.0042270  23.2693370  10.4649640  27.2656360
  22.9362750  11.0918560  27.9077430  23.4460050  10.9911520  26.4858030
  31.7827280   4.2794720  24.7332700  31.0782850   4.5679610  25.3135810
  32.1439440   5.0894830  24.3732260  21.7005850   2.5364420  27.0953310
  22.0422660   3.3806470  26.8007180  20.7621660   2.6848160  27.2118650
  17.7744810  11.6230300  17.9612390  17.3972790  12.1117400  17.2297290
  18.0317880  12.2955580  18.5918920  30.9348800  15.7413980  25.7105360
  30.9475960  15.3376270  24.8427620  30.3824020  16.5161270  25.6066790
  32.2294220  12.4630200  20.7995530  32.1190550  11.5204530  20.9244950
  32.2262470  12.8245840  21.6858290  30.3334240  10.6443820  27.0387970
  30.7503030  10.4303930  26.2041430  31.0574060  10.9016610  27.6096590
  27.7714500   8.0895520  20.1558020  26.8443780   8.0232900  20.3846490
  27.9239320   9.0275650  20.0413260  27.7583580   4.3612520  17.1525180
  26.8187250   4.5226480  17.2377640  28.0766840   5.0798200  16.6061170
  31.8011790   9.6515820  20.6593270  31.1824210   9.3135370  20.0119570
  31.7836240   9.0075580  21.3672460  31.2438350   5.8300360  28.0759080
  30.8309530   6.6554070  28.3299070  30.5114300   5.2445400  27.8835440
  23.3771140   8.6160260  22.9377750  22.9728140   7.9037510  22.4423650
  23.4634260   8.2713500  23.8265790  23.8452840  12.3027820  25.1016960
  23.5481130  11.6973290  24.4224740  24.7952660  12.3405130  24.9906320
  22.0899760   5.3903470  26.7176790  22.6414350   5.4998810  25.9430040
  22.6043270   5.7641070  27.4332020  29.9776490   8.8902630  17.6666020
  30.4169770   8.0525060  17.5203840  30.6904910   9.5232030  17.7530160
  28.0871870  13.8298700  21.6347260  28.5267780  14.5723030  21.2202650
  28.0258760  14.0725270  22.5586220  20.0775770   7.5105240  20.4384400
  19.9573370   8.2367330  19.8265670  19.7676660   6.7408150  19.9612310
  17.7161140  10.6820380  26.2453040  17.7941560  10.8169150  25.3008760
  18.3302820   9.9736270  26.4381160  18.9608770  12.3820570  22.6559220
  18.5536850  12.5235160  21.8012820  19.8521780  12.0980730  22.4530430
  30.7542050  16.8167820  18.9910270  30.5943190  16.5270760  19.8892100
  30.5888760  16.0407950  18.4555500  23.2330430  16.5966350  20.7681890
  23.0572910  15.6801890  20.5549690  22.3786170  16.9553640  21.0079690
  30.4568180  14.3255380  17.5508270  29.7633340  14.3232670  16.8910550
  31.1991040  13.9014700  17.1202440  30.0218110  15.9518090  21.6256760
  30.4775060  15.1707470  21.9395380  30.3610630  16.6624910  22.1697940
  22.3353650   5.9773880  21.5489320  22.1094570   5.7611050  22.4535940
  21.5546180   6.4102340  21.2035290  29.5651410   5.9837250  20.1479970
  28.9660300   6.7073050  19.9643590  30.1131020   5.9214030  19.3656420
  28.1716280   4.6200790  22.1783250  28.5645850   4.9372990  21.3651940
  28.5333130   3.7412670  22.2927770  17.3950680   5.1521710  15.6116170
  17.3125350   6.0952470  15.7531160  17.0433740   5.0096620  14.7328520
  28.7571420   7.2106540  26.2734030  28.0252540   7.7193350  26.6224130
  28.3595760   6.3936520  25.9722810  25.1948810   3.8860740  24.6786520
  25.1984870   3.4450690  23.8291060  26.0899930   4.2078070  24.7858340
  21.0451190   3.7687230  23.6380730  20.7051240   4.2462460  24.3947780
  20.2828510   3.3152350  23.2781830  25.2568960   4.8872820  17.6693280
  25.3781780   4.8459300  18.6179100  24.8717470   5.7496970  17.5140010
  29.2197330   2.6640220  25.6856970  29.2370070   3.1148870  26.5298820
  28.9712910   1.7645860  25.8990410  24.2690460   7.1973960  17.0676580
  23.7007360   6.7492210  16.4412490  24.9779460   7.5566740  16.5341730
  25.4956780   7.9462520  26.4251930  25.8626910   7.4721090  27.1713270
  25.3061840   8.8204090  26.7660270  18.3597270   2.6906210  22.5545400
  18.0744190   2.3261880  23.3924020  18.2976130   1.9586670  21.9408540
  21.8137940  11.1932150  19.3402990  21.0400200  10.6529770  19.1801710
  22.5432570  10.6738760  19.0020750  30.7484250   5.9555120  17.5720930
  31.6363870   6.2672350  17.3972270  30.7189340   5.0827370  17.1801510
  21.8575340  10.8612530  22.9781800  22.3754010  10.0580790  22.9238690
  21.4059360  10.7991670  23.8198630  26.7444840  12.1278810  18.2509100
  27.0860540  12.8721040  17.7552420  25.9157550  12.4409930  18.6133930
  29.6272250  11.4494650  23.6154610  29.9796070  10.8522780  22.9555980
  28.7434580  11.1238880  23.7862860  25.7135530  12.2092340  21.0225020
  26.4006660  12.7561550  21.4032610  24.9267950  12.7533070  21.0574630
  17.8527930   7.8265160  16.5142100  18.7222780   8.1089960  16.7978020
  17.3618250   8.6401030  16.3990910  25.0162740   9.2138370  20.6350380
  25.4725520  10.0243620  20.8610570  24.6650950   8.8961510  21.4668870
  27.3195350  14.7244710  27.8642680  27.9637570  14.9304090  28.5416100
  27.6824790  13.9633110  27.4113530  28.5927430  12.7277060  26.5820130
  29.2349660  12.0270220  26.6952300  29.1176780  13.5075500  26.4017020
  32.4383150  13.0125680  16.3059270  32.2120730  12.2956120  16.8983910
  32.0479350  12.7638120  15.4681020  24.2367800  14.4223740  17.8977400
  24.2277900  15.1553430  17.2821910  23.3166160  14.1755320  17.9904360
  19.8374440   9.6438630  18.6424160  19.2302390  10.3837530  18.6519460
  20.3123790   9.7337990  17.8162360  29.4107230   3.8089450  28.3181050
  29.7788050   2.9884660  28.6460620  28.5505430   3.8691340  28.7336700
  27.2227400  14.4851980  16.5602590  27.3239380  14.2815970  15.6304570
  26.3229140  14.2310260  16.7650370  24.7453290   5.0432340  20.5426490
  24.0369440   5.5118680  20.9840100  25.0297770   4.3854350  21.1771680
  28.7768720   1.7683000  21.9822280  28.6536500   1.7869130  21.0331790
  29.7253280   1.8161940  22.1020680  25.8645510  17.0038300  21.2550260
  26.1187010  16.9659690  20.3329630  24.9157990  16.8771630  21.2478510
  22.9488310   3.3517420  17.9177200  23.7978840   3.7887570  17.8517390
  22.5819580   3.6637680  18.7449260  31.8698090   7.9230180  22.8308770
  30.9288230   7.9380410  23.0056460  32.1842160   7.1366140  23.2769070
  21.8479730   9.6049780  16.3912730  22.6143000   9.4931140  16.9538160
  21.9254420   8.9087750  15.7389500  20.5426490   7.0374850  17.0745620
  20.6230080   6.0902360  17.1863020  21.4346240   7.3681730  17.1806280
  21.3441200  17.1870240  24.1780160  22.0803680  16.6385700  24.4488730
  21.7282120  18.0526250  24.0386150  18.2286680  13.2543810  20.0521670
  17.3026460  13.4964950  20.0427080  18.6943110  14.0818070  19.9306420
  24.4543510  16.3600550  16.0005730  25.2472120  16.6489380  15.5487520
  23.9347860  15.9292720  15.3218210  24.9720910  11.5803960  15.8648080
  24.8671550  10.9656310  16.5909460  24.8045130  11.0569850  15.0811090
  28.2123640  10.6423990  16.4690070  27.6633740  11.0893290  17.1132810
  28.8342900  10.1373240  16.9927740  23.8798760   9.6014910  18.3655370
  24.3015180   9.4354780  19.2086760  24.0049600   8.7915140  17.8710510
  26.3926400   8.6252520  15.6132470  26.9132060   7.9101540  15.2473620
  27.0394800   9.2638390  15.9132980  22.7757660   5.6748140  15.3113530
  22.5746720   4.8115500  15.6726870  22.6049710   5.5881500  14.3735130
  21.5740460   2.7748760  15.2991410  21.8766360   2.7816190  14.3910560
  22.3135050   2.4246620  15.7959070  26.9574430  16.7064130  17.9034210
  27.8525220  17.0449100  17.9252970  26.9892060  15.9843540  17.2758490
  20.5970590  12.0791180  16.1321210  21.0345460  12.6220850  16.7878790
  21.0818320  11.2538130  16.1417550  17.8116390  14.8680210  23.5841470
  18.1419400  14.0001270  23.3520110  18.2407390  15.0738730  24.4146430
  22.4078310  13.1989220  21.2443440  22.1073850  13.0754190  22.1447350
  22.3015800  12.3397810  20.8359170  18.3006600  15.7350800  26.3223100
  17.8637590  15.9151600  27.1547250  18.8684280  16.4925420  26.1804820
  18.1331030   8.2471030  22.6811980  17.4779870   7.9782670  22.0371680
  18.9708980   8.1375510  22.2313960  31.0821470   3.0412320  16.9030470
  31.5006350   2.8543300  16.0627130  30.7757530   2.1891370  17.2133400
  19.1706960   8.6323600  27.2215320  19.5380000   8.5451000  28.1011340
  18.6017780   7.8690150  27.1222180  17.3469110   5.4569960  18.6237310
  16.4433190   5.7200160  18.4488970  17.8309730   5.7281130  17.8437270
  19.8896320   4.5135500  16.5331690  20.5988020   4.0918720  16.0478970
  19.1736260   4.5810730  15.9015040  24.2865070  14.7015880  27.9845190
  24.0456430  14.9690440  27.0975710  25.2267710  14.8721610  28.0396050
  20.0559300  13.4576920  28.4541290  19.3293360  12.8382210  28.3867240
  20.1168450  13.8517530  27.5839370  23.6604400  15.6721920  25.2390700
  24.1769420  15.0609280  24.7138960  24.3101780  16.1750700  25.7301710
  26.3999900  16.5630410  26.0659680  26.6877710  16.3084710  25.1892690
  26.9123120  16.0107770  26.6565250  18.3389300  16.7751310  21.6638050
  18.1711340  16.1421990  22.3619940  17.4723810  16.9810710  21.3132240
  25.5031130   2.7207360  22.1572220  24.6905640   2.3464250  21.8168100
  26.0072770   1.9652440  22.4593410  19.9452000  15.4684540  19.1088190
  19.4199620  15.8492570  18.4050150  19.8696580  16.0935310  19.8297900
  22.5444970  17.4166920  17.9837440  23.2763790  17.1326200  17.4361330
  22.8038640  17.1780200  18.8736820  21.7059760  13.5331650  17.9883770
  21.0768640  14.0016750  18.5369600  21.8207590  12.6880870  18.4229960
  29.1609480   7.5837310   4.1384970  29.0803530   6.6691920   3.8676680
  28.7473900   8.0804380   3.4324680  27.2927520   9.3616330   6.0194240
  26.5169620   8.8816770   6.3092810  27.9440450   8.6821980   5.8450400
  21.3093350   9.6736140   6.8970000  20.4778230   9.4184850   7.2966510
  21.9174330   9.7446910   7.6327920  31.3134950  13.7676520   4.7993370
  30.8516480  12.9963760   5.1280540  32.1260500  13.7942590   5.3045820
  21.2894610  13.7076230   7.0928020  21.5922650  12.8173970   6.9138240
  22.0338200  14.2646450   6.8650270  17.6818310   7.2343680   6.5652090
  18.2534420   6.4665880   6.5655730  17.6819850   7.5332440   5.6558700
  27.5398260  16.0534530   4.4197360  26.9209700  16.5092030   3.8491800
  28.3950040  16.2085990   4.0187060  26.7336510  12.0373520   6.0264400
  26.6644790  11.0963460   5.8653530  27.4956370  12.1274930   6.5986970
  18.9243180   2.6428040   8.3521020  18.7446020   1.7453790   8.6323780
  18.5223260   3.1899910   9.0267970  27.7641680   4.8443900   6.2533330
  28.1406500   3.9715780   6.1407000  27.6661190   5.1802600   5.3623770
  31.5465800   2.3394340   3.1861670  32.3675420   1.8490910   3.2287150
  31.5799880   2.9292000   3.9393510  19.5429850   5.1388540   6.9603360
  20.2239960   5.4026910   7.5790760  19.2277900   4.2989410   7.2941370
  23.7354420   6.1855900   6.0475950  24.2432640   6.6836870   6.6880970
  24.2667660   5.4091100   5.8715310  23.2693370  10.4649640   8.4912870
  22.9362750  11.0918560   9.1333940  23.4460050  10.9911520   7.7114540
  31.7827280   4.2794720   5.9589210  31.0782850   4.5679610   6.5392320
  32.1439440   5.0894830   5.5988770  21.7005850   2.5364420   8.3209820
  22.0422660   3.3806470   8.0263690  20.7621660   2.6848160   8.4375160
  22.4812470  12.4330440  10.3062050  23.0986470  13.1081520  10.0246500
  21.6205590  12.8418420  10.2149550  30.9348800  15.7413980   6.9361870
  30.9475960  15.3376270   6.0684130  30.3824020  16.5161270   6.8323300
  32.2294220  12.4630200   2.0252040  32.1190550  11.5204530   2.1501460
  32.2262470  12.8245840   2.9114800  30.3334240  10.6443820   8.2644480
  30.7503030  10.4303930   7.4297940  31.0574060  10.9016610   8.8353100
  31.2438350   5.8300360   9.3015590  30.8309530   6.6554070   9.5555580
  30.5114300   5.2445400   9.1091950  23.3771140   8.6160260   4.1634260
  22.9728140   7.9037510   3.6680160  23.4634260   8.2713500   5.0522300
  23.8452840  12.3027820   6.3273470  23.5481130  11.6973290   5.6481250
  24.7952660  12.3405130   6.2162830  22.0899760   5.3903470   7.9433300
  22.6414350   5.4998810   7.1686550  22.6043270   5.7641070   8.6588530
  31.9338450  15.8759690   9.9896570  31.4569010  16.6831880   9.7969180
  31.2500240  15.2238020  10.1422780  22.9371270  12.0409510  12.9781270
  22.0399800  12.2649480  13.2254670  22.9624140  12.1644450  12.0292670
  21.7642490   8.9122830  11.5538640  21.6250260   9.7845630  11.9226040
  20.8823850   8.5695640  11.4086580  28.0871870  13.8298700   2.8603770
  28.5267780  14.5723030   2.4459160  28.0258760  14.0725270   3.7842730
  23.5622840  14.8544530  13.7623790  23.5338270  15.2587480  12.8952220
  23.3987810  13.9254890  13.5995390  17.7161140  10.6820380   7.4709550
  17.7941560  10.8169150   6.5265270  18.3302820   9.9736270   7.6637670
  18.9608770  12.3820570   3.8815730  18.5536850  12.5235160   3.0269330
  19.8521780  12.0980730   3.6786940  28.7787650  16.5312480  10.7882780
  29.2932320  16.4420490  11.5905210  27.9356730  16.8772180  11.0810690
  23.2330430  16.5966350   1.9938400  23.0572910  15.6801890   1.7806200
  22.3786170  16.9553640   2.2336200  30.0218110  15.9518090   2.8513270
  30.4775060  15.1707470   3.1651890  30.3610630  16.6624910   3.3954450
  17.7720660  11.7234550  10.0104010  17.9351700  11.2539910   9.1923380
  18.2373110  11.2158110  10.6752850  26.8309240   3.7208830  10.6499900
  26.3688610   3.9291850  11.4619840  26.4287350   2.9068180  10.3470570
  31.8313750   4.9417780  11.7796560  30.9807340   4.6423530  12.1005630
  31.6715540   5.1859790  10.8680380  28.9263460   6.4419530  13.8795350
  29.2516870   5.6083280  13.5397580  29.7143790   6.9648050  14.0273680
  22.3353650   5.9773880   2.7745830  22.1094570   5.7611050   3.6792450
  21.5546180   6.4102340   2.4291800  24.7752860   6.8759460  13.4406100
  24.6796460   5.9354190  13.2906500  25.6184840   7.0974530  13.0454170
  28.1716280   4.6200790   3.4039760  28.5645850   4.9372990   2.5908450
  28.5333130   3.7412670   3.5184280  19.9063400   3.2873130  11.5939880
  19.5126790   4.1348340  11.8012660  19.2181800   2.6499500  11.7848520
  26.4808450   3.3708100  14.6636620  25.7906770   3.1780300  15.2982710
  27.2240750   3.6542740  15.1960920  28.7571420   7.2106540   7.4990540
  28.0252540   7.7193350   7.8480640  28.3595760   6.3936520   7.1979320
  25.1948810   3.8860740   5.9043030  25.1984870   3.4450690   5.0547570
  26.0899930   4.2078070   6.0114850  21.0451190   3.7687230   4.8637240
  20.7051240   4.2462460   5.6204290  20.2828510   3.3152350   4.5038340
  29.2197330   2.6640220   6.9113480  29.2370070   3.1148870   7.7555330
  28.9712910   1.7645860   7.1246920  19.3459640  11.0985980  12.1699820
  18.9614430  10.4579650  12.7682780  19.6571830  11.8022100  12.7394550
  25.4956780   7.9462520   7.6508440  25.8626910   7.4721090   8.3969780
  25.3061840   8.8204090   7.9916780  18.3597270   2.6906210   3.7801910
  18.0744190   2.3261880   4.6180530  18.2976130   1.9586670   3.1665050
  23.2856150   6.9871160   9.9692650  22.9813220   7.8663140  10.1943010
  24.2402610   7.0470950  10.0050090  27.9544720  10.2606570  12.2454890
  27.8882030   9.3402240  11.9912480  27.3249860  10.3582010  12.9599530
  21.8575340  10.8612530   4.2038310  22.3754010  10.0580790   4.1495200
  21.4059360  10.7991670   5.0455140  19.3419880   7.8273900  11.1164010
  18.9834820   8.4927750  11.7037350  19.0474440   6.9957450  11.4876630
  22.5433000   8.2858140  14.0003560  22.2433140   8.4315320  13.1031380
  23.3144240   7.7263430  13.9076950  27.8861450  13.0827140  11.9958690
  27.9005990  12.1508100  11.7777600  27.1786550  13.1686900  12.6348460
  29.6272250  11.4494650   4.8411120  29.9796070  10.8522780   4.1812490
  28.7434580  11.1238880   5.0119370  25.7135530  12.2092340   2.2481530
  26.4006660  12.7561550   2.6289120  24.9267950  12.7533070   2.2831140
  25.0162740   9.2138370   1.8606890  25.4725520  10.0243620   2.0867080
  24.6650950   8.8961510   2.6925380  27.3195350  14.7244710   9.0899190
  27.9637570  14.9304090   9.7672610  27.6824790  13.9633110   8.6370040
  28.5927430  12.7277060   7.8076640  29.2349660  12.0270220   7.9208810
  29.1176780  13.5075500   7.6273530  30.3665050  13.5271960  11.0112700
  30.7021290  14.1138650  11.6890620  29.4465390  13.3964670  11.2410490
  26.1953630  13.5763290  14.1800760  25.8750500  12.8572530  14.7246450
  25.5211990  14.2518360  14.2536820  29.4107230   3.8089450   9.5437560
  29.7788050   2.9884660   9.8717130  28.5505430   3.8691340   9.9593210
  24.7453290   5.0432340   1.7683000  24.0369440   5.5118680   2.2096610
  25.0297770   4.3854350   2.4028190  26.3709220   6.4629040   9.7675530
  26.8694470   6.9374860  10.4327380  26.5132170   5.5392560   9.9745560
  28.7768720   1.7683000   3.2078790  28.6536500   1.7869130   2.2588300
  29.7253280   1.8161940   3.3277190  25.8645510  17.0038300   2.4806770
  26.1187010  16.9659690   1.5586140  24.9157990  16.8771630   2.4735020
  31.8698090   7.9230180   4.0565280  30.9288230   7.9380410   4.2312970
  32.1842160   7.1366140   4.5025580  21.3441200  17.1870240   5.4036670
  22.0803680  16.6385700   5.6745240  21.7282120  18.0526250   5.2642660
  29.1864110  12.4796180  14.5397660  28.5802270  12.5027780  13.7993410
  28.8818220  11.7479220  15.0764910  30.6164480  16.2076470  13.1507070
  31.5686230  16.1234490  13.1007310  30.4692700  16.8718180  13.8240860
  18.0697290   8.8589770  13.5358300  18.5736310   8.2797050  14.1074530
  17.3304710   9.1430000  14.0734670  25.1235230  10.2660760  13.0693820
  24.3580900  10.8345760  12.9848490  25.3051190   9.9736970  12.1762050
  20.1020370   7.0019360  14.4308370  20.1425710   6.7033230  15.3393600
  20.9565870   7.4026970  14.2715890  22.0426180   5.5811460  12.3982860
  21.5122640   5.0902410  11.7706200  22.7114250   6.0095660  11.8640790
  30.9404240  10.0480920  12.1624050  31.3545260  10.2026000  13.0114470
  30.0055240  10.1736140  12.3249830  31.4126410   7.3877080  14.1663200
  31.9947180   6.6329400  14.0783680  31.5888180   7.9184520  13.3894680
  22.5298480   2.5473830  12.4780150  22.4355350   1.9294580  11.7531020
  21.9495870   3.2740120  12.2510060  25.7019470  10.0001400  10.1319980
  26.1207580  10.8434130   9.9596220  24.7828100  10.1373440   9.9026760
  28.0383370   7.7317580  11.5157820  28.1579580   7.1358720  12.2552660
  28.8977370   7.7687270  11.0959120  30.3771270   8.2854770  10.0920330
  29.8506490   8.8097390   9.4885470  30.7202610   8.9182160  10.7230060
  23.5526890  16.3054410  11.2477710  23.0147980  17.0300470  10.9286410
  23.8060850  15.8284750  10.4575050  24.8052140   4.2738930  12.7733640
  25.3951830   3.9654780  13.4611460  23.9872380   3.8018680  12.9293540
  29.6245570   3.8904740  13.0066660  28.9361090   3.2286280  12.9416650
  30.3451590   3.4443010  13.4515120  26.4089100  17.5405620  11.5064360
  26.3347800  18.4440760  11.8136730  25.5067940  17.2217520  11.4786430
  17.8116390  14.8680210   4.8097980  18.1419400  14.0001270   4.5776620
  18.2407390  15.0738730   5.6402940  22.4078310  13.1989220   2.4699950
  22.1073850  13.0754190   3.3703860  22.3015800  12.3397810   2.0615680
  18.3006600  15.7350800   7.5479610  17.8637590  15.9151600   8.3803760
  18.8684280  16.4925420   7.4061330  18.1331030   8.2471030   3.9068490
  17.4779870   7.9782670   3.2628190  18.9708980   8.1375510   3.4570470
  19.1706960   8.6323600   8.4471830  19.5380000   8.5451000   9.3267850
  18.6017780   7.8690150   8.3478690  18.7222960   5.5432690  12.3530250
  17.8279010   5.5099450  12.6923960  19.2620510   5.7419480  13.1181500
  20.5859040  13.1456290  13.6091980  20.5428670  12.7749200  14.4906440
  20.7170050  14.0833860  13.7493800  24.2865070  14.7015880   9.2101700
  24.0456430  14.9690440   8.3232220  25.2267710  14.8721610   9.2652560
  20.4247070  16.0918540  10.7289760  19.8307390  15.9603240  11.4679800
  20.4170910  15.2556680  10.2631860  20.0559300  13.4576920   9.6797800
  19.3293360  12.8382210   9.6123750  20.1168450  13.8517530   8.8095880
  23.6604400  15.6721920   6.4647210  24.1769420  15.0609280   5.9395470
  24.3101780  16.1750700   6.9558220  26.3999900  16.5630410   7.2916190
  26.6877710  16.3084710   6.4149200  26.9123120  16.0107770   7.8821760
  18.3389300  16.7751310   2.8894560  18.1711340  16.1421990   3.5876450
  17.4723810  16.9810710   2.5388750  25.5031130   2.7207360   3.3828730
  24.6905640   2.3464250   3.0424610  26.0072770   1.9652440   3.6849920
  26.4672260  17.4846510  14.6584390  27.3939570  17.2490780  14.7020350
  26.4522690  18.3118510  14.1770420  10.3865990  26.3580800  22.9128460
  10.3060040  25.4435410  22.6420170   9.9730410  26.8547870  22.2068170
   8.5184030  28.1359820  24.7937730   7.7426130  27.6560260  25.0836300
   9.1696960  27.4565470  24.6193890   2.5349860  28.4479630  25.6713490
   1.7034740  28.1928340  26.0710000   3.1430840  28.5190400  26.4071410
  12.5391460  32.5420010  23.5736860  12.0772990  31.7707250  23.9024030
  13.3517010  32.5686080  24.0789310   2.5151120  32.4819720  25.8671510
   2.8179160  31.5917460  25.6881730   3.2594710  33.0389940  25.6393760
   7.9593020  30.8117010  24.8007890   7.8901300  29.8706950  24.6397020
   8.7212880  30.9018420  25.3730460   8.9898190  23.6187390  25.0276820
   9.3663010  22.7459270  24.9150490   8.8917700  23.9546090  24.1367260
   3.1203200  21.9913020  20.4894260   3.2269950  22.8916750  20.7963020
   2.2095560  21.9430990  20.1988910  12.7722310  21.1137830  21.9605160
  13.5931930  20.6234400  22.0030640  12.8056390  21.7035490  22.7137000
   4.9610930  24.9599390  24.8219440   5.4689150  25.4580360  25.4624460
   5.4924170  24.1834590  24.6458800   9.6318120  29.7117260  20.5872760
   9.0135390  30.1766710  20.0235480  10.1441370  30.4044740  21.0042270
   4.4949880  29.2393130  27.2656360   4.1619260  29.8662050  27.9077430
   4.6716560  29.7655010  26.4858030  13.0083790  23.0538210  24.7332700
  12.3039360  23.3423100  25.3135810  13.3695950  23.8638320  24.3732260
   2.9262360  21.3107910  27.0953310   3.2679170  22.1549960  26.8007180
   1.9878170  21.4591650  27.2118650  14.6246570  32.6713340  26.9960180
  13.9410090  33.3412450  26.9876850  15.1640860  32.8693990  26.2305040
  16.0770710  22.4993000  25.1241910  15.1295620  22.5331980  25.2557340
  16.4020700  23.3131950  25.5091270   6.6090250  18.7990180  23.4197900
   6.9165230  18.2437070  22.7033400   5.6790950  18.9334640  23.2370890
  13.4550730  31.2373690  20.7995530  13.3447060  30.2948020  20.9244950
  13.4518980  31.5989330  21.6858290  11.5590750  29.4187310  27.0387970
  11.9759540  29.2047420  26.2041430  12.2830570  29.6760100  27.6096590
   8.9971010  26.8639010  20.1558020   8.0700290  26.7976390  20.3846490
   9.1495830  27.8019140  20.0413260   8.9840090  23.1356010  17.1525180
   8.0443760  23.2969970  17.2377640   9.3023350  23.8541690  16.6061170
  15.5052850  27.8174530  27.1304210  14.6771480  27.8867620  26.6554340
  16.1003330  28.4028840  26.6620040  13.0268300  28.4259310  20.6593270
  12.4080720  28.0878860  20.0119570  13.0092750  27.7819070  21.3672460
  12.4694860  24.6043850  28.0759080  12.0566040  25.4297560  28.3299070
  11.7370810  24.0188890  27.8835440   4.6027650  27.3903750  22.9377750
   4.1984650  26.6781000  22.4423650   4.6890770  27.0456990  23.8265790
   5.0709350  31.0771310  25.1016960   4.7737640  30.4716780  24.4224740
   6.0209170  31.1148620  24.9906320   3.3156270  24.1646960  26.7176790
   3.8670860  24.2742300  25.9430040   3.8299780  24.5384560  27.4332020
  11.2033000  27.6646120  17.6666020  11.6426280  26.8268550  17.5203840
  11.9161420  28.2975520  17.7530160   9.3128380  32.6042190  21.6347260
   9.7524290  33.3466520  21.2202650   9.2515270  32.8468760  22.5586220
  11.6824690  33.0998870  17.5508270  10.9889850  33.0976160  16.8910550
  12.4247550  32.6758190  17.1202440   3.7695940  19.6283800  23.8208070
   3.3264090  20.4093340  23.4892590   4.3280930  19.9513690  24.5279010
   6.8854760  19.2494500  18.7013900   6.2608940  19.2454370  19.4267210
   6.7984880  18.3825460  18.3049870   5.8071840  20.1731130  25.6797670
   6.1044170  21.0793960  25.5989690   6.3557400  19.6849910  25.0657240
   3.5610160  24.7517370  21.5489320   3.3351080  24.5354540  22.4535940
   2.7802690  25.1845830  21.2035290  10.7907920  24.7580740  20.1479970
  10.1916810  25.4816540  19.9643590  11.3387530  24.6957520  19.3656420
   9.3972790  23.3944280  22.1783250   9.7902360  23.7116480  21.3651940
   9.7589640  22.5156160  22.2927770   9.9827930  25.9850030  26.2734030
   9.2509050  26.4936840  26.6224130   9.5852270  25.1680010  25.9722810
   6.4205320  22.6604230  24.6786520   6.4241380  22.2194180  23.8291060
   7.3156440  22.9821560  24.7858340   6.4825470  23.6616310  17.6693280
   6.6038290  23.6202790  18.6179100   6.0973980  24.5240460  17.5140010
  10.4453840  21.4383710  25.6856970  10.4626580  21.8892360  26.5298820
  10.1969420  20.5389350  25.8990410   5.4946970  25.9717450  17.0676580
   4.9263870  25.5235700  16.4412490   6.2035970  26.3310230  16.5341730
   6.7213290  26.7206010  26.4251930   7.0883420  26.2464580  27.1713270
   6.5318350  27.5947580  26.7660270   3.0394450  29.9675640  19.3402990
   2.2656710  29.4273260  19.1801710   3.7689080  29.4482250  19.0020750
  13.7982430  28.9641000  25.1329380  14.5181550  29.4596290  24.7425490
  13.5964250  28.2858890  24.4883250   9.2592370  20.3578960  19.2758770
   8.4456980  19.8592130  19.2004080   9.0654320  21.1977210  18.8595120
  11.9740760  24.7298610  17.5720930  12.8620380  25.0415840  17.3972270
  11.9445850  23.8570860  17.1801510   3.0831850  29.6356020  22.9781800
   3.6010520  28.8324280  22.9238690   2.6315870  29.5735160  23.8198630
   7.9701350  30.9022300  18.2509100   8.3117050  31.6464530  17.7552420
   7.1414060  31.2153420  18.6133930  14.2455030  26.0410450  17.0400790
  14.1618750  26.4724670  16.1897230  14.9649220  26.5008800  17.4727610
  15.2742280  32.8952710  19.7682920  14.6318440  32.2408330  20.0426640
  14.8872940  33.3007800  18.9923590  10.8528760  30.2238140  23.6154610
  11.2052580  29.6266270  22.9555980   9.9691090  29.8982370  23.7862860
   6.9392040  30.9835830  21.0225020   7.6263170  31.5305040  21.4032610
   6.1524460  31.5276560  21.0574630   6.2419250  27.9881860  20.6350380
   6.6982030  28.7987110  20.8610570   5.8907460  27.6705000  21.4668870
   8.5451860  33.4988200  27.8642680   9.1894080  33.7047580  28.5416100
   8.9081300  32.7376600  27.4113530   9.8183940  31.5020550  26.5820130
  10.4606170  30.8013710  26.6952300  10.3433290  32.2818990  26.4017020
  13.6639660  31.7869170  16.3059270  13.4377240  31.0699610  16.8983910
  13.2735860  31.5381610  15.4681020  13.2455910  29.7041110  17.9673430
  12.9577610  30.1653800  18.7551310  14.0408080  29.2438880  18.2357650
   5.4624310  33.1967230  17.8977400   5.4534410  33.9296920  17.2821910
   4.5422670  32.9498810  17.9904360  10.6363740  22.5832940  28.3181050
  11.0044560  21.7628150  28.6460620   9.7761940  22.6434830  28.7336700
  14.0025770  21.5389880  19.1268610  13.3738930  21.6435550  18.4126840
  13.5077690  21.7586660  19.9162490   8.4483910  33.2595470  16.5602590
   8.5495890  33.0559460  15.6304570   7.5485650  33.0053750  16.7650370
   5.9709800  23.8175830  20.5426490   5.2625950  24.2862170  20.9840100
   6.2554280  23.1597840  21.1771680  10.0025230  20.5426490  21.9822280
   9.8793010  20.5612620  21.0331790  10.9509790  20.5905430  22.1020680
   4.1744820  22.1260910  17.9177200   5.0235350  22.5631060  17.8517390
   3.8076090  22.4381170  18.7449260  13.0954600  26.6973670  22.8308770
  12.1544740  26.7123900  23.0056460  13.4098670  25.9109630  23.2769070
   3.0736240  28.3793270  16.3912730   3.8399510  28.2674630  16.9538160
   3.1510930  27.6831240  15.7389500   1.7683000  25.8118340  17.0745620
   1.8486590  24.8645850  17.1863020   2.6602750  26.1425220  17.1806280
   6.1977420  30.3547450  15.8648080   6.0928060  29.7399800  16.5909460
   6.0301640  29.8313340  15.0811090   9.4380150  29.4167480  16.4690070
   8.8890250  29.8636780  17.1132810  10.0599410  28.9116730  16.9927740
   5.1055270  28.3758400  18.3655370   5.5271690  28.2098270  19.2086760
   5.2306110  27.5658630  17.8710510   7.6182910  27.3996010  15.6132470
   8.1388570  26.6845030  15.2473620   8.2651310  28.0381880  15.9132980
   4.0014170  24.4491630  15.3113530   3.8003230  23.5858990  15.6726870
   3.8306220  24.3624990  14.3735130  11.4802480  19.2599860  17.8400410
  11.7604770  18.4167760  18.1959830  10.7068210  19.4922970  18.3539160
   2.7996970  21.5492250  15.2991410   3.1022870  21.5559680  14.3910560
   3.5391560  21.1990110  15.7959070   6.0181900  20.4926870  16.2847610
   5.6703900  19.8150860  15.7050060   6.2194670  20.0316380  17.0991000
   1.8227100  30.8534670  16.1321210   2.2601970  31.3964340  16.7878790
   2.3074830  30.0281620  16.1417550   3.6334820  31.9732710  21.2443440
   3.3330360  31.8497680  22.1447350   3.5272310  31.1141300  20.8359170
  16.4026740  31.7529110  15.9470120  15.5719700  31.8205760  16.4177350
  16.5798570  32.6433230  15.6436980  15.8583200  28.4976590  18.4504320
  16.6202110  29.0673240  18.5564010  15.8737570  27.9303790  19.2212630
  16.8643170  29.3526690  23.2946250  17.2352000  28.5694010  22.8882220
  17.5045100  30.0415790  23.1163550  15.9102370  28.7910960  15.6076840
  16.1851210  29.6989840  15.4796060  15.7213110  28.7273490  16.5438830
  12.3077980  21.8155810  16.9030470  12.7262860  21.6286790  16.0627130
  12.0014040  20.9634860  17.2133400  15.8067710  26.7279950  20.6006270
  15.4311310  25.9607880  20.1687560  15.0770830  27.1102650  21.0881200
  15.0818670  24.9537440  23.9013510  15.6056150  24.4600090  23.2703680
  15.6678090  25.0887800  24.6461080  15.2608390  25.0377310  27.4233060
  14.3111100  25.0040850  27.5378050  15.4421400  25.9477420  27.1882830
  14.5718640  24.2110790  19.8405920  15.0677760  23.9781660  20.6254800
  14.3734710  23.3722630  19.4243560  16.0005800  22.8471740  22.3743600
  15.8905080  22.6927780  23.3125870  16.7613390  22.3192680  22.1319010
   5.5121580  33.4759370  27.9845190   5.2712940  33.7433930  27.0975710
   6.4524220  33.6465100  28.0396050  11.0958600  18.1594260  27.7063280
  10.2218440  18.4929370  27.5036210  10.9869350  17.6867440  28.5315150
   8.8433420  19.0764100  26.6456190   8.0605210  19.5509600  26.9252950
   8.5496350  18.1718930  26.5369370  13.3954490  19.7787200  24.6905280
  13.8362580  19.7232300  23.8426880  13.1262080  20.6945210  24.7615460
  15.2593060  19.4102440  22.7014100  15.1981460  18.4663660  22.5545120
  16.0385090  19.5182530  23.2467560   6.7287640  21.4950850  22.1572220
   5.9162150  21.1207740  21.8168100   7.2329280  20.7395930  22.4593410
  11.2312620  18.1593300  23.3955290  11.8341990  18.7313510  23.8703810
  10.4905610  18.7232740  23.1729190   2.5598980  19.9075630  17.7071880
   3.0891740  19.1205430  17.5779830   3.1927300  20.5866820  17.9407410
   4.7536820  19.6450770  20.7617270   4.1239560  18.9438080  20.9287400
   4.2141960  20.4054900  20.5450430   2.9316270  32.3075140  17.9883770
   2.3025150  32.7760240  18.5369600   3.0464100  31.4624360  18.4229960
  10.3865990  26.3580800   4.1384970  10.3060040  25.4435410   3.8676680
   9.9730410  26.8547870   3.4324680   8.5184030  28.1359820   6.0194240
   7.7426130  27.6560260   6.3092810   9.1696960  27.4565470   5.8450400
   2.5349860  28.4479630   6.8970000   1.7034740  28.1928340   7.2966510
   3.1430840  28.5190400   7.6327920  12.5391460  32.5420010   4.7993370
  12.0772990  31.7707250   5.1280540  13.3517010  32.5686080   5.3045820
   2.5151120  32.4819720   7.0928020   2.8179160  31.5917460   6.9138240
   3.2594710  33.0389940   6.8650270   7.9593020  30.8117010   6.0264400
   7.8901300  29.8706950   5.8653530   8.7212880  30.9018420   6.5986970
   8.9898190  23.6187390   6.2533330   9.3663010  22.7459270   6.1407000
   8.8917700  23.9546090   5.3623770  12.7722310  21.1137830   3.1861670
  13.5931930  20.6234400   3.2287150  12.8056390  21.7035490   3.9393510
   4.9610930  24.9599390   6.0475950   5.4689150  25.4580360   6.6880970
   5.4924170  24.1834590   5.8715310  17.0621860  23.1304580   9.7505300
  16.3574030  23.5186290   9.2320410  17.3279780  23.8254870  10.3526230
   3.2447030  19.5997950  10.3139370   3.2465470  20.1170340   9.5085270
   2.4151340  19.1228130  10.2909300   4.4949880  29.2393130   8.4912870
   4.1619260  29.8662050   9.1333940   4.6716560  29.7655010   7.7114540
  13.0083790  23.0538210   5.9589210  12.3039360  23.3423100   6.5392320
  13.3695950  23.8638320   5.5988770   2.9262360  21.3107910   8.3209820
   3.2679170  22.1549960   8.0263690   1.9878170  21.4591650   8.4375160
   3.7068980  31.2073930  10.3062050   4.3242980  31.8825010  10.0246500
   2.8462100  31.6161910  10.2149550  14.6246570  32.6713340   8.2216690
  13.9410090  33.3412450   8.2133360  15.1640860  32.8693990   7.4561550
  16.0770710  22.4993000   6.3498420  15.1295620  22.5331980   6.4813850
  16.4020700  23.3131950   6.7347780   6.6090250  18.7990180   4.6454410
   6.9165230  18.2437070   3.9289910   5.6790950  18.9334640   4.4627400
  13.4550730  31.2373690   2.0252040  13.3447060  30.2948020   2.1501460
  13.4518980  31.5989330   2.9114800  11.5590750  29.4187310   8.2644480
  11.9759540  29.2047420   7.4297940  12.2830570  29.6760100   8.8353100
  15.5052850  27.8174530   8.3560720  14.6771480  27.8867620   7.8810850
  16.1003330  28.4028840   7.8876550  12.4694860  24.6043850   9.3015590
  12.0566040  25.4297560   9.5555580  11.7370810  24.0188890   9.1091950
   4.6027650  27.3903750   4.1634260   4.1984650  26.6781000   3.6680160
   4.6890770  27.0456990   5.0522300   5.0709350  31.0771310   6.3273470
   4.7737640  30.4716780   5.6481250   6.0209170  31.1148620   6.2162830
   3.3156270  24.1646960   7.9433300   3.8670860  24.2742300   7.1686550
   3.8299780  24.5384560   8.6588530   4.1627780  30.8153000  12.9781270
   3.2656310  31.0392970  13.2254670   4.1880650  30.9387940  12.0292670
   2.9899000  27.6866320  11.5538640   2.8506770  28.5589120  11.9226040
   2.1080360  27.3439130  11.4086580   9.3128380  32.6042190   2.8603770
   9.7524290  33.3466520   2.4459160   9.2515270  32.8468760   3.7842730
   4.7879350  33.6288020  13.7623790   4.7594780  34.0330970  12.8952220
   4.6244320  32.6998380  13.5995390  16.1427420  31.6027970  12.2187970
  16.2690480  31.3639850  11.3005150  16.1848800  30.7712510  12.6910050
  15.9951430  23.6560430  13.1837710  15.3795700  24.1640100  12.6553170
  15.6747850  22.7558760  13.1263650   3.7695940  19.6283800   5.0464580
   3.3264090  20.4093340   4.7149100   4.3280930  19.9513690   5.7535520
   8.0565750  22.4952320  10.6499900   7.5945120  22.7035340  11.4619840
   7.6543860  21.6811670  10.3470570  13.0570260  23.7161270  11.7796560
  12.2063850  23.4167020  12.1005630  12.8972050  23.9603280  10.8680380
  10.1519970  25.2163020  13.8795350  10.4773380  24.3826770  13.5397580
  10.9400300  25.7391540  14.0273680   5.8071840  20.1731130   6.9054180
   6.1044170  21.0793960   6.8246200   6.3557400  19.6849910   6.2913750
   3.5610160  24.7517370   2.7745830   3.3351080  24.5354540   3.6792450
   2.7802690  25.1845830   2.4291800   6.0009370  25.6502950  13.4406100
   5.9052970  24.7097680  13.2906500   6.8441350  25.8718020  13.0454170
   9.3972790  23.3944280   3.4039760   9.7902360  23.7116480   2.5908450
   9.7589640  22.5156160   3.5184280   7.7064960  22.1451590  14.6636620
   7.0163280  21.9523790  15.2982710   8.4497260  22.4286230  15.1960920
   9.9827930  25.9850030   7.4990540   9.2509050  26.4936840   7.8480640
   9.5852270  25.1680010   7.1979320   6.4205320  22.6604230   5.9043030
   6.4241380  22.2194180   5.0547570   7.3156440  22.9821560   6.0114850
  10.4453840  21.4383710   6.9113480  10.4626580  21.8892360   7.7555330
  10.1969420  20.5389350   7.1246920   6.7213290  26.7206010   7.6508440
   7.0883420  26.2464580   8.3969780   6.5318350  27.5947580   7.9916780
   4.5112660  25.7614650   9.9692650   4.2069730  26.6406630  10.1943010
   5.4659120  25.8214440  10.0050090  13.7982430  28.9641000   6.3585890
  14.5181550  29.4596290   5.9682000  13.5964250  28.2858890   5.7139760
   9.1801230  29.0350060  12.2454890   9.1138540  28.1145730  11.9912480
   8.5506370  29.1325500  12.9599530   3.0831850  29.6356020   4.2038310
   3.6010520  28.8324280   4.1495200   2.6315870  29.5735160   5.0455140
   3.7689510  27.0601630  14.0003560   3.4689650  27.2058810  13.1031380
   4.5400750  26.5006920  13.9076950   9.1117960  31.8570630  11.9958690
   9.1262500  30.9251590  11.7777600   8.4043060  31.9430390  12.6348460
  15.3229170  28.4977970  11.3427270  14.5977360  29.0906750  11.1456660
  15.8504630  28.4901510  10.5440640  10.8528760  30.2238140   4.8411120
  11.2052580  29.6266270   4.1812490   9.9691090  29.8982370   5.0119370
   6.9392040  30.9835830   2.2481530   7.6263170  31.5305040   2.6289120
   6.1524460  31.5276560   2.2831140   6.2419250  27.9881860   1.8606890
   6.6982030  28.7987110   2.0867080   5.8907460  27.6705000   2.6925380
   8.5451860  33.4988200   9.0899190   9.1894080  33.7047580   9.7672610
   8.9081300  32.7376600   8.6370040   9.8183940  31.5020550   7.8076640
  10.4606170  30.8013710   7.9208810  10.3433290  32.2818990   7.6273530
  11.5921560  32.3015450  11.0112700  11.9277800  32.8882140  11.6890620
  10.6721900  32.1708160  11.2410490   7.4210140  32.3506780  14.1800760
   7.1007010  31.6316020  14.7246450   6.7468500  33.0261850  14.2536820
  10.6363740  22.5832940   9.5437560  11.0044560  21.7628150   9.8717130
   9.7761940  22.6434830   9.9593210   5.9709800  23.8175830   1.7683000
   5.2625950  24.2862170   2.2096610   6.2554280  23.1597840   2.4028190
   7.5965730  25.2372530   9.7675530   8.0950980  25.7118350  10.4327380
   7.7388680  24.3136050   9.9745560  10.0025230  20.5426490   3.2078790
   9.8793010  20.5612620   2.2588300  10.9509790  20.5905430   3.3277190
  14.8032590  21.4540490  10.6103920  14.3006190  22.1945890  10.9497730
  15.6189250  21.8424490  10.2940710  13.0954600  26.6973670   4.0565280
  12.1544740  26.7123900   4.2312970  13.4098670  25.9109630   4.5025580
  10.4120620  31.2539670  14.5397660   9.8058780  31.2771270  13.7993410
  10.1074730  30.5222710  15.0764910   6.3491740  29.0404250  13.0693820
   5.5837410  29.6089250  12.9848490   6.5307700  28.7480460  12.1762050
  13.4915090  30.7709580  13.6268840  14.2324560  31.1085340  13.1236300
  12.7287770  30.9401640  13.0738610   3.2682690  24.3554950  12.3982860
   2.7379150  23.8645900  11.7706200   3.9370760  24.7839150  11.8640790
  12.1660750  28.8224410  12.1624050  12.5801770  28.9769490  13.0114470
  11.2311750  28.9479630  12.3249830  12.6382920  26.1620570  14.1663200
  13.2203690  25.4072890  14.0783680  12.8144690  26.6928010  13.3894680
   3.7554990  21.3217320  12.4780150   3.6611860  20.7038070  11.7531020
   3.1752380  22.0483610  12.2510060   6.5216430  19.8790560   9.5107540
   6.0733730  19.9014820   8.6653090   5.8881630  19.4809580  10.1077840
   6.9275980  28.7744890  10.1319980   7.3464090  29.6177620   9.9596220
   6.0084610  28.9116930   9.9026760   9.2639880  26.5061070  11.5157820
   9.3836090  25.9102210  12.2552660  10.1233880  26.5430760  11.0959120
  11.6027780  27.0598260  10.0920330  11.0763000  27.5840880   9.4885470
  11.9459120  27.6925650  10.7230060   6.0308650  23.0482420  12.7733640
   6.6208340  22.7398270  13.4611460   5.2128890  22.5762170  12.9293540
  10.8502080  22.6648230  13.0066660  10.1617600  22.0029770  12.9416650
  11.5708100  22.2186500  13.4515120   3.6334820  31.9732710   2.4699950
   3.3330360  31.8497680   3.3703860   3.5272310  31.1141300   2.0615680
  15.1625290  34.0111290  11.8356920  14.5627280  34.0703850  11.0920840
  15.2919190  33.0716270  11.9653770  16.8643170  29.3526690   4.5202760
  17.2352000  28.5694010   4.1138730  17.5045100  30.0415790   4.3420060
  13.8476930  30.7363270   9.9333080  13.0336770  31.1660430  10.1958870
  14.2551130  31.3481680   9.3202130  15.1967330  25.8751470  11.4602300
  14.9653420  25.6464220  10.5600250  15.4571880  26.7951020  11.4147190
  15.0818670  24.9537440   5.1270020  15.6056150  24.4600090   4.4960190
  15.6678090  25.0887800   5.8717590  15.2608390  25.0377310   8.6489570
  14.3111100  25.0040850   8.7634560  15.4421400  25.9477420   8.4139340
  16.0005800  22.8471740   3.6000110  15.8905080  22.6927780   4.5382380
  16.7613390  22.3192680   3.3575520  14.3471520  18.7865870  10.0583110
  14.9843740  19.4000010  10.4242300  14.4946410  18.8226530   9.1132340
   1.8115550  31.9199780  13.6091980   1.7685180  31.5492690  14.4906440
   1.9426560  32.8577350  13.7493800   5.5121580  33.4759370   9.2101700
   5.2712940  33.7433930   8.3232220   6.4524220  33.6465100   9.2652560
   7.7176000  19.9392060  12.9658210   7.6564890  20.5313890  13.7153620
   8.6576380  19.8318020  12.8208470  10.3550560  19.5962120  12.6050500
  10.9690970  19.9141410  11.9431580  10.9000120  19.1110710  13.2246360
  11.0958600  18.1594260   8.9319790  10.2218440  18.4929370   8.7292720
  10.9869350  17.6867440   9.7571660  12.0030580  20.3665130  10.3161510
  11.6743940  19.5516890   9.9363240  12.9512880  20.3234940  10.1927200
   8.8433420  19.0764100   7.8712700   8.0605210  19.5509600   8.1509460
   8.5496350  18.1718930   7.7625880  13.3954490  19.7787200   5.9161790
  13.8362580  19.7232300   5.0683390  13.1262080  20.6945210   5.9871970
  15.2593060  19.4102440   3.9270610  15.1981460  18.4663660   3.7801630
  16.0385090  19.5182530   4.4724070   6.7287640  21.4950850   3.3828730
   5.9162150  21.1207740   3.0424610   7.2329280  20.7395930   3.6849920
  11.2312620  18.1593300   4.6211800  11.8341990  18.7313510   5.0960320
  10.4905610  18.7232740   4.3985700   4.7536820  19.6450770   1.9873780
   4.1239560  18.9438080   2.1543910   4.2141960  20.4054900   1.7706940
   4.8792380  18.9234750  14.4226270   4.5976650  19.4268350  13.6587090
   5.2612080  18.1256500  14.0568400  11.4807840  18.3388330  15.0006740
  11.3673290  18.6582940  15.8958260  12.2977580  18.7400840  14.7044020
  10.3865990   7.5837310  22.9128460  10.3060040   6.6691920  22.6420170
   9.9730410   8.0804380  22.2068170   8.5184030   9.3616330  24.7937730
   7.7426130   8.8816770  25.0836300   9.1696960   8.6821980  24.6193890
   2.5349860   9.6736140  25.6713490   1.7034740   9.4184850  26.0710000
   3.1430840   9.7446910  26.4071410  12.5391460  13.7676520  23.5736860
  12.0772990  12.9963760  23.9024030  13.3517010  13.7942590  24.0789310
   2.5151120  13.7076230  25.8671510   2.8179160  12.8173970  25.6881730
   3.2594710  14.2646450  25.6393760   8.7654770  16.0534530  23.1940850
   8.1466210  16.5092030  22.6235290   9.6206550  16.2085990  22.7930550
   7.9593020  12.0373520  24.8007890   7.8901300  11.0963460  24.6397020
   8.7212880  12.1274930  25.3730460   8.9898190   4.8443900  25.0276820
   9.3663010   3.9715780  24.9150490   8.8917700   5.1802600  24.1367260
   3.1203200   3.2169530  20.4894260   3.2269950   4.1173260  20.7963020
   2.2095560   3.1687500  20.1988910  12.7722310   2.3394340  21.9605160
  13.5931930   1.8490910  22.0030640  12.8056390   2.9292000  22.7137000
   4.9610930   6.1855900  24.8219440   5.4689150   6.6836870  25.4624460
   5.4924170   5.4091100  24.6458800   9.6318120  10.9373770  20.5872760
   9.0135390  11.4023220  20.0235480  10.1441370  11.6301250  21.0042270
   4.4949880  10.4649640  27.2656360   4.1619260  11.0918560  27.9077430
   4.6716560  10.9911520  26.4858030  13.0083790   4.2794720  24.7332700
  12.3039360   4.5679610  25.3135810  13.3695950   5.0894830  24.3732260
   2.9262360   2.5364420  27.0953310   3.2679170   3.3806470  26.8007180
   1.9878170   2.6848160  27.2118650  14.6246570  13.8969850  26.9960180
  13.9410090  14.5668960  26.9876850  15.1640860  14.0950500  26.2305040
  16.0770710   3.7249510  25.1241910  15.1295620   3.7588490  25.2557340
  16.4020700   4.5388460  25.5091270  12.1605310  15.7413980  25.7105360
  12.1732470  15.3376270  24.8427620  11.6080530  16.5161270  25.6066790
  13.4550730  12.4630200  20.7995530  13.3447060  11.5204530  20.9244950
  13.4518980  12.8245840  21.6858290  11.5590750  10.6443820  27.0387970
  11.9759540  10.4303930  26.2041430  12.2830570  10.9016610  27.6096590
   8.9971010   8.0895520  20.1558020   8.0700290   8.0232900  20.3846490
   9.1495830   9.0275650  20.0413260   8.9840090   4.3612520  17.1525180
   8.0443760   4.5226480  17.2377640   9.3023350   5.0798200  16.6061170
  15.5052850   9.0431040  27.1304210  14.6771480   9.1124130  26.6554340
  16.1003330   9.6285350  26.6620040  13.0268300   9.6515820  20.6593270
  12.4080720   9.3135370  20.0119570  13.0092750   9.0075580  21.3672460
  12.4694860   5.8300360  28.0759080  12.0566040   6.6554070  28.3299070
  11.7370810   5.2445400  27.8835440   4.6027650   8.6160260  22.9377750
   4.1984650   7.9037510  22.4423650   4.6890770   8.2713500  23.8265790
   5.0709350  12.3027820  25.1016960   4.7737640  11.6973290  24.4224740
   6.0209170  12.3405130  24.9906320   3.3156270   5.3903470  26.7176790
   3.8670860   5.4998810  25.9430040   3.8299780   5.7641070  27.4332020
  11.2033000   8.8902630  17.6666020  11.6426280   8.0525060  17.5203840
  11.9161420   9.5232030  17.7530160   9.3128380  13.8298700  21.6347260
   9.7524290  14.5723030  21.2202650   9.2515270  14.0725270  22.5586220
  11.9798560  16.8167820  18.9910270  11.8199700  16.5270760  19.8892100
  11.8145270  16.0407950  18.4555500   4.4586940  16.5966350  20.7681890
   4.2829420  15.6801890  20.5549690   3.6042680  16.9553640  21.0079690
  11.2474620  15.9518090  21.6256760  11.7031570  15.1707470  21.9395380
  11.5867140  16.6624910  22.1697940   3.5610160   5.9773880  21.5489320
   3.3351080   5.7611050  22.4535940   2.7802690   6.4102340  21.2035290
  10.7907920   5.9837250  20.1479970  10.1916810   6.7073050  19.9643590
  11.3387530   5.9214030  19.3656420   9.3972790   4.6200790  22.1783250
   9.7902360   4.9372990  21.3651940   9.7589640   3.7412670  22.2927770
   9.9827930   7.2106540  26.2734030   9.2509050   7.7193350  26.6224130
   9.5852270   6.3936520  25.9722810   6.4205320   3.8860740  24.6786520
   6.4241380   3.4450690  23.8291060   7.3156440   4.2078070  24.7858340
   6.4825470   4.8872820  17.6693280   6.6038290   4.8459300  18.6179100
   6.0973980   5.7496970  17.5140010  10.4453840   2.6640220  25.6856970
  10.4626580   3.1148870  26.5298820  10.1969420   1.7645860  25.8990410
   5.4946970   7.1973960  17.0676580   4.9263870   6.7492210  16.4412490
   6.2035970   7.5566740  16.5341730   6.7213290   7.9462520  26.4251930
   7.0883420   7.4721090  27.1713270   6.5318350   8.8204090  26.7660270
   3.0394450  11.1932150  19.3402990   2.2656710  10.6529770  19.1801710
   3.7689080  10.6738760  19.0020750  13.7982430  10.1897510  25.1329380
  14.5181550  10.6852800  24.7425490  13.5964250   9.5115400  24.4883250
  11.9740760   5.9555120  17.5720930  12.8620380   6.2672350  17.3972270
  11.9445850   5.0827370  17.1801510   3.0831850  10.8612530  22.9781800
   3.6010520  10.0580790  22.9238690   2.6315870  10.7991670  23.8198630
   7.9701350  12.1278810  18.2509100   8.3117050  12.8721040  17.7552420
   7.1414060  12.4409930  18.6133930  14.2455030   7.2666960  17.0400790
  14.1618750   7.6981180  16.1897230  14.9649220   7.7265310  17.4727610
  15.2742280  14.1209220  19.7682920  14.6318440  13.4664840  20.0426640
  14.8872940  14.5264310  18.9923590  10.8528760  11.4494650  23.6154610
  11.2052580  10.8522780  22.9555980   9.9691090  11.1238880  23.7862860
   6.9392040  12.2092340  21.0225020   7.6263170  12.7561550  21.4032610
   6.1524460  12.7533070  21.0574630   6.2419250   9.2138370  20.6350380
   6.6982030  10.0243620  20.8610570   5.8907460   8.8961510  21.4668870
   8.5451860  14.7244710  27.8642680   9.1894080  14.9304090  28.5416100
   8.9081300  13.9633110  27.4113530   9.8183940  12.7277060  26.5820130
  10.4606170  12.0270220  26.6952300  10.3433290  13.5075500  26.4017020
  13.2455910  10.9297620  17.9673430  12.9577610  11.3910310  18.7551310
  14.0408080  10.4695390  18.2357650   5.4624310  14.4223740  17.8977400
   5.4534410  15.1553430  17.2821910   4.5422670  14.1755320  17.9904360
  10.6363740   3.8089450  28.3181050  11.0044560   2.9884660  28.6460620
   9.7761940   3.8691340  28.7336700  14.0025770   2.7646390  19.1268610
  13.3738930   2.8692060  18.4126840  13.5077690   2.9843170  19.9162490
   8.4483910  14.4851980  16.5602590   8.5495890  14.2815970  15.6304570
   7.5485650  14.2310260  16.7650370   5.9709800   5.0432340  20.5426490
   5.2625950   5.5118680  20.9840100   6.2554280   4.3854350  21.1771680
  10.0025230   1.7683000  21.9822280   9.8793010   1.7869130  21.0331790
  10.9509790   1.8161940  22.1020680   7.0902020  17.0038300  21.2550260
   7.3443520  16.9659690  20.3329630   6.1414500  16.8771630  21.2478510
   4.1744820   3.3517420  17.9177200   5.0235350   3.7887570  17.8517390
   3.8076090   3.6637680  18.7449260  13.0954600   7.9230180  22.8308770
  12.1544740   7.9380410  23.0056460  13.4098670   7.1366140  23.2769070
   3.0736240   9.6049780  16.3912730   3.8399510   9.4931140  16.9538160
   3.1510930   8.9087750  15.7389500   1.7683000   7.0374850  17.0745620
   1.8486590   6.0902360  17.1863020   2.6602750   7.3681730  17.1806280
  15.0980180  15.0939030  24.5063030  15.2227600  15.9170200  24.9786840
  15.9645740  14.8829760  24.1587180   2.5697710  17.1870240  24.1780160
   3.3060190  16.6385700  24.4488730   2.9538630  18.0526250  24.0386150
   5.6800020  16.3600550  16.0005730   6.4728630  16.6489380  15.5487520
   5.1604370  15.9292720  15.3218210   6.1977420  11.5803960  15.8648080
   6.0928060  10.9656310  16.5909460   6.0301640  11.0569850  15.0811090
   9.4380150  10.6423990  16.4690070   8.8890250  11.0893290  17.1132810
  10.0599410  10.1373240  16.9927740   5.1055270   9.6014910  18.3655370
   5.5271690   9.4354780  19.2086760   5.2306110   8.7915140  17.8710510
   7.6182910   8.6252520  15.6132470   8.1388570   7.9101540  15.2473620
   8.2651310   9.2638390  15.9132980   4.0014170   5.6748140  15.3113530
   3.8003230   4.8115500  15.6726870   3.8306220   5.5881500  14.3735130
   2.7996970   2.7748760  15.2991410   3.1022870   2.7816190  14.3910560
   3.5391560   2.4246620  15.7959070   8.1830940  16.7064130  17.9034210
   9.0781730  17.0449100  17.9252970   8.2148570  15.9843540  17.2758490
   1.8227100  12.0791180  16.1321210   2.2601970  12.6220850  16.7878790
   2.3074830  11.2538130  16.1417550   3.6334820  13.1989220  21.2443440
   3.3330360  13.0754190  22.1447350   3.5272310  12.3397810  20.8359170
  15.8583200   9.7233100  18.4504320  16.6202110  10.2929750  18.5564010
  15.8737570   9.1560300  19.2212630  16.8643170  10.5783200  23.2946250
  17.2352000   9.7950520  22.8882220  17.5045100  11.2672300  23.1163550
  12.3077980   3.0412320  16.9030470  12.7262860   2.8543300  16.0627130
  12.0014040   2.1891370  17.2133400  15.8067710   7.9536460  20.6006270
  15.4311310   7.1864390  20.1687560  15.0770830   8.3359160  21.0881200
  15.0818670   6.1793950  23.9013510  15.6056150   5.6856600  23.2703680
  15.6678090   6.3144310  24.6461080  15.2608390   6.2633820  27.4233060
  14.3111100   6.2297360  27.5378050  15.4421400   7.1733930  27.1882830
  14.5718640   5.4367300  19.8405920  15.0677760   5.2038170  20.6254800
  14.3734710   4.5979140  19.4243560  16.0005800   4.0728250  22.3743600
  15.8905080   3.9184290  23.3125870  16.7613390   3.5449190  22.1319010
  16.8896070   1.9036170  15.6149740  17.8145380   1.7717350  15.4068030
  16.8671860   1.9828990  16.5686190  16.9634560   2.6746830  18.2406450
  16.1686060   2.6091950  18.7699360  17.1677840   3.6097470  18.2291800
  13.9052980  16.7138380  22.2344840  14.5012050  16.3922950  21.5579260
  14.1631130  16.2410200  23.0258110   5.5121580  14.7015880  27.9845190
   5.2712940  14.9690440  27.0975710   6.4524220  14.8721610  28.0396050
  14.4565190  17.3633680  26.0642570  13.9968160  18.1149490  25.6900590
  13.8277650  16.6440150  26.0057370   4.8860910  15.6721920  25.2390700
   5.4025930  15.0609280  24.7138960   5.5358290  16.1750700  25.7301710
   7.6256410  16.5630410  26.0659680   7.9134220  16.3084710  25.1892690
   8.1379630  16.0107770  26.6565250   6.7287640   2.7207360  22.1572220
   5.9162150   2.3464250  21.8168100   7.2329280   1.9652440  22.4593410
  15.9273830  17.0272080  20.4302130  16.1026020  16.3409820  19.7863050
  15.2295400  17.5519130  20.0378800   3.7701480  17.4166920  17.9837440
   4.5020300  17.1326200  17.4361330   4.0295150  17.1780200  18.8736820
   2.9316270  13.5331650  17.9883770   2.3025150  14.0016750  18.5369600
   3.0464100  12.6880870  18.4229960  10.3865990   7.5837310   4.1384970
  10.3060040   6.6691920   3.8676680   9.9730410   8.0804380   3.4324680
   8.5184030   9.3616330   6.0194240   7.7426130   8.8816770   6.3092810
   9.1696960   8.6821980   5.8450400   2.5349860   9.6736140   6.8970000
   1.7034740   9.4184850   7.2966510   3.1430840   9.7446910   7.6327920
  12.5391460  13.7676520   4.7993370  12.0772990  12.9963760   5.1280540
  13.3517010  13.7942590   5.3045820   2.5151120  13.7076230   7.0928020
   2.8179160  12.8173970   6.9138240   3.2594710  14.2646450   6.8650270
   8.7654770  16.0534530   4.4197360   8.1466210  16.5092030   3.8491800
   9.6206550  16.2085990   4.0187060   7.9593020  12.0373520   6.0264400
   7.8901300  11.0963460   5.8653530   8.7212880  12.1274930   6.5986970
   8.9898190   4.8443900   6.2533330   9.3663010   3.9715780   6.1407000
   8.8917700   5.1802600   5.3623770  12.7722310   2.3394340   3.1861670
  13.5931930   1.8490910   3.2287150  12.8056390   2.9292000   3.9393510
   4.9610930   6.1855900   6.0475950   5.4689150   6.6836870   6.6880970
   5.4924170   5.4091100   5.8715310  17.0621860   4.3561090   9.7505300
  16.3574030   4.7442800   9.2320410  17.3279780   5.0511380  10.3526230
   4.4949880  10.4649640   8.4912870   4.1619260  11.0918560   9.1333940
   4.6716560  10.9911520   7.7114540  13.0083790   4.2794720   5.9589210
  12.3039360   4.5679610   6.5392320  13.3695950   5.0894830   5.5988770
   2.9262360   2.5364420   8.3209820   3.2679170   3.3806470   8.0263690
   1.9878170   2.6848160   8.4375160   3.7068980  12.4330440  10.3062050
   4.3242980  13.1081520  10.0246500   2.8462100  12.8418420  10.2149550
  14.6246570  13.8969850   8.2216690  13.9410090  14.5668960   8.2133360
  15.1640860  14.0950500   7.4561550  16.0770710   3.7249510   6.3498420
  15.1295620   3.7588490   6.4813850  16.4020700   4.5388460   6.7347780
  12.1605310  15.7413980   6.9361870  12.1732470  15.3376270   6.0684130
  11.6080530  16.5161270   6.8323300  13.4550730  12.4630200   2.0252040
  13.3447060  11.5204530   2.1501460  13.4518980  12.8245840   2.9114800
  11.5590750  10.6443820   8.2644480  11.9759540  10.4303930   7.4297940
  12.2830570  10.9016610   8.8353100  15.5052850   9.0431040   8.3560720
  14.6771480   9.1124130   7.8810850  16.1003330   9.6285350   7.8876550
  12.4694860   5.8300360   9.3015590  12.0566040   6.6554070   9.5555580
  11.7370810   5.2445400   9.1091950   4.6027650   8.6160260   4.1634260
   4.1984650   7.9037510   3.6680160   4.6890770   8.2713500   5.0522300
   5.0709350  12.3027820   6.3273470   4.7737640  11.6973290   5.6481250
   6.0209170  12.3405130   6.2162830   3.3156270   5.3903470   7.9433300
   3.8670860   5.4998810   7.1686550   3.8299780   5.7641070   8.6588530
  13.1594960  15.8759690   9.9896570  12.6825520  16.6831880   9.7969180
  12.4756750  15.2238020  10.1422780   4.1627780  12.0409510  12.9781270
   3.2656310  12.2649480  13.2254670   4.1880650  12.1644450  12.0292670
   2.9899000   8.9122830  11.5538640   2.8506770   9.7845630  11.9226040
   2.1080360   8.5695640  11.4086580   9.3128380  13.8298700   2.8603770
   9.7524290  14.5723030   2.4459160   9.2515270  14.0725270   3.7842730
   4.7879350  14.8544530  13.7623790   4.7594780  15.2587480  12.8952220
   4.6244320  13.9254890  13.5995390  10.0044160  16.5312480  10.7882780
  10.5188830  16.4420490  11.5905210   9.1613240  16.8772180  11.0810690
   4.4586940  16.5966350   1.9938400   4.2829420  15.6801890   1.7806200
   3.6042680  16.9553640   2.2336200  11.2474620  15.9518090   2.8513270
  11.7031570  15.1707470   3.1651890  11.5867140  16.6624910   3.3954450
  15.9951430   4.8816940  13.1837710  15.3795700   5.3896610  12.6553170
  15.6747850   3.9815270  13.1263650   8.0565750   3.7208830  10.6499900
   7.5945120   3.9291850  11.4619840   7.6543860   2.9068180  10.3470570
  13.0570260   4.9417780  11.7796560  12.2063850   4.6423530  12.1005630
  12.8972050   5.1859790  10.8680380  10.1519970   6.4419530  13.8795350
  10.4773380   5.6083280  13.5397580  10.9400300   6.9648050  14.0273680
   3.5610160   5.9773880   2.7745830   3.3351080   5.7611050   3.6792450
   2.7802690   6.4102340   2.4291800   6.0009370   6.8759460  13.4406100
   5.9052970   5.9354190  13.2906500   6.8441350   7.0974530  13.0454170
   9.3972790   4.6200790   3.4039760   9.7902360   4.9372990   2.5908450
   9.7589640   3.7412670   3.5184280   7.7064960   3.3708100  14.6636620
   7.0163280   3.1780300  15.2982710   8.4497260   3.6542740  15.1960920
   9.9827930   7.2106540   7.4990540   9.2509050   7.7193350   7.8480640
   9.5852270   6.3936520   7.1979320   6.4205320   3.8860740   5.9043030
   6.4241380   3.4450690   5.0547570   7.3156440   4.2078070   6.0114850
  10.4453840   2.6640220   6.9113480  10.4626580   3.1148870   7.7555330
  10.1969420   1.7645860   7.1246920   6.7213290   7.9462520   7.6508440
   7.0883420   7.4721090   8.3969780   6.5318350   8.8204090   7.9916780
   4.5112660   6.9871160   9.9692650   4.2069730   7.8663140  10.1943010
   5.4659120   7.0470950  10.0050090  13.7982430  10.1897510   6.3585890
  14.5181550  10.6852800   5.9682000  13.5964250   9.5115400   5.7139760
   9.1801230  10.2606570  12.2454890   9.1138540   9.3402240  11.9912480
   8.5506370  10.3582010  12.9599530   3.0831850  10.8612530   4.2038310
   3.6010520  10.0580790   4.1495200   2.6315870  10.7991670   5.0455140
   3.7689510   8.2858140  14.0003560   3.4689650   8.4315320  13.1031380
   4.5400750   7.7263430  13.9076950   9.1117960  13.0827140  11.9958690
   9.1262500  12.1508100  11.7777600   8.4043060  13.1686900  12.6348460
  15.3229170   9.7234480  11.3427270  14.5977360  10.3163260  11.1456660
  15.8504630   9.7158020  10.5440640  10.8528760  11.4494650   4.8411120
  11.2052580  10.8522780   4.1812490   9.9691090  11.1238880   5.0119370
   6.9392040  12.2092340   2.2481530   7.6263170  12.7561550   2.6289120
   6.1524460  12.7533070   2.2831140   6.2419250   9.2138370   1.8606890
   6.6982030  10.0243620   2.0867080   5.8907460   8.8961510   2.6925380
   8.5451860  14.7244710   9.0899190   9.1894080  14.9304090   9.7672610
   8.9081300  13.9633110   8.6370040   9.8183940  12.7277060   7.8076640
  10.4606170  12.0270220   7.9208810  10.3433290  13.5075500   7.6273530
  11.5921560  13.5271960  11.0112700  11.9277800  14.1138650  11.6890620
  10.6721900  13.3964670  11.2410490   7.4210140  13.5763290  14.1800760
   7.1007010  12.8572530  14.7246450   6.7468500  14.2518360  14.2536820
  10.6363740   3.8089450   9.5437560  11.0044560   2.9884660   9.8717130
   9.7761940   3.8691340   9.9593210   5.9709800   5.0432340   1.7683000
   5.2625950   5.5118680   2.2096610   6.2554280   4.3854350   2.4028190
   7.5965730   6.4629040   9.7675530   8.0950980   6.9374860  10.4327380
   7.7388680   5.5392560   9.9745560  10.0025230   1.7683000   3.2078790
   9.8793010   1.7869130   2.2588300  10.9509790   1.8161940   3.3277190
   7.0902020  17.0038300   2.4806770   7.3443520  16.9659690   1.5586140
   6.1414500  16.8771630   2.4735020  14.8032590   2.6797000  10.6103920
  14.3006190   3.4202400  10.9497730  15.6189250   3.0681000  10.2940710
  13.0954600   7.9230180   4.0565280  12.1544740   7.9380410   4.2312970
  13.4098670   7.1366140   4.5025580  15.0980180  15.0939030   5.7319540
  15.2227600  15.9170200   6.2043350  15.9645740  14.8829760   5.3843690
   2.5697710  17.1870240   5.4036670   3.3060190  16.6385700   5.6745240
   2.9538630  18.0526250   5.2642660   6.3491740  10.2660760  13.0693820
   5.5837410  10.8345760  12.9848490   6.5307700   9.9736970  12.1762050
   3.2682690   5.5811460  12.3982860   2.7379150   5.0902410  11.7706200
   3.9370760   6.0095660  11.8640790  12.1660750  10.0480920  12.1624050
  12.5801770  10.2026000  13.0114470  11.2311750  10.1736140  12.3249830
  12.6382920   7.3877080  14.1663200  13.2203690   6.6329400  14.0783680
  12.8144690   7.9184520  13.3894680   3.7554990   2.5473830  12.4780150
   3.6611860   1.9294580  11.7531020   3.1752380   3.2740120  12.2510060
   6.9275980  10.0001400  10.1319980   7.3464090  10.8434130   9.9596220
   6.0084610  10.1373440   9.9026760   9.2639880   7.7317580  11.5157820
   9.3836090   7.1358720  12.2552660  10.1233880   7.7687270  11.0959120
  11.6027780   8.2854770  10.0920330  11.0763000   8.8097390   9.4885470
  11.9459120   8.9182160  10.7230060   4.7783400  16.3054410  11.2477710
   4.2404490  17.0300470  10.9286410   5.0317360  15.8284750  10.4575050
   6.0308650   4.2738930  12.7733640   6.6208340   3.9654780  13.4611460
   5.2128890   3.8018680  12.9293540  10.8502080   3.8904740  13.0066660
  10.1617600   3.2286280  12.9416650  11.5708100   3.4443010  13.4515120
   7.6345610  17.5405620  11.5064360   7.5604310  18.4440760  11.8136730
   6.7324450  17.2217520  11.4786430   3.6334820  13.1989220   2.4699950
   3.3330360  13.0754190   3.3703860   3.5272310  12.3397810   2.0615680
  16.8643170  10.5783200   4.5202760  17.2352000   9.7950520   4.1138730
  17.5045100  11.2672300   4.3420060  13.8476930  11.9619780   9.9333080
  13.0336770  12.3916940  10.1958870  14.2551130  12.5738190   9.3202130
  15.1967330   7.1007980  11.4602300  14.9653420   6.8720730  10.5600250
  15.4571880   8.0207530  11.4147190  13.6355400   2.3264410  14.2382000
  14.5125580   2.3347810  14.6216000  13.6476240   1.5895250  13.6274350
  15.0818670   6.1793950   5.1270020  15.6056150   5.6856600   4.4960190
  15.6678090   6.3144310   5.8717590  15.2608390   6.2633820   8.6489570
  14.3111100   6.2297360   8.7634560  15.4421400   7.1733930   8.4139340
  16.0005800   4.0728250   3.6000110  15.8905080   3.9184290   4.5382380
  16.7613390   3.5449190   3.3575520  13.9052980  16.7138380   3.4601350
  14.5012050  16.3922950   2.7835770  14.1631130  16.2410200   4.2514620
   1.8115550  13.1456290  13.6091980   1.7685180  12.7749200  14.4906440
   1.9426560  14.0833860  13.7493800   5.5121580  14.7015880   9.2101700
   5.2712940  14.9690440   8.3232220   6.4524220  14.8721610   9.2652560
  14.4565190  17.3633680   7.2899080  13.9968160  18.1149490   6.9157100
  13.8277650  16.6440150   7.2313880   4.8860910  15.6721920   6.4647210
   5.4025930  15.0609280   5.9395470   5.5358290  16.1750700   6.9558220
   7.6256410  16.5630410   7.2916190   7.9134220  16.3084710   6.4149200
   8.1379630  16.0107770   7.8821760   6.7287640   2.7207360   3.3828730
   5.9162150   2.3464250   3.0424610   7.2329280   1.9652440   3.6849920
   7.6928770  17.4846510  14.6584390   8.6196080  17.2490780  14.7020350
   7.6779200  18.3118510  14.1770420
  34.2066150  35.8473890  30.2224290  90.0000000  90.0000000  90.0000000
