
 2387  0.0000000e+00
   2.6752159  10.4855120  16.8250716   1.8916485  11.2172651  16.6284525
   1.4568207  11.6266203  17.5402939   1.1614463  10.6315899  16.0699809
   2.4576065  12.2775936  15.7279909   2.4635670  13.5016513  16.0542297
   2.9562828  11.8668485  14.5205092   3.0957553  10.8764815  14.3797195
   3.5733268  12.8281069  13.5626483   4.3339870  13.4578097  14.0241396
   4.2166254  11.9083548  12.5187957   5.0483391  11.3700330  12.9732895
   3.5270378  11.2129080  12.0403373   4.5951960  12.5377989  11.7134452
   2.5779936  13.8611770  12.9174340   1.4131686  13.4710658  12.7586091
   2.9392788  15.1123416  12.6727355   3.8942620  15.4411089  12.6677489
   2.0594022  16.1046267  12.0534897   1.1172197  16.0009956  12.5916898
   2.5963947  17.4455237  12.2365737   3.6096403  17.4714994  11.8356264
   1.9935915  18.2748699  11.8665552   2.7514836  17.7000201  13.2850409
   1.6523788  15.7994127  10.6292343   2.2400305  15.0487602   9.8803335
   0.6095788  16.4928305  10.1770949   0.0171516  17.0583594  10.7681191
   0.0414989  16.2502801   8.8600469   0.0486300  15.1690876   8.7219316
  -0.9405616  16.7092717   8.7460917   0.7739160  16.7269206   8.2085270
   1.0533327  23.0024246  12.3742602   0.3292507  22.6053528  12.8582726
   0.8606619  22.8120617  11.4561806  20.2207661   3.1474036  11.0305023
  20.7965159   3.5497800  10.3802419  19.5870197   3.8317990  11.2454402
  26.6506860  22.0109793  18.9348225  27.2355315  22.1850987  19.6722988
  26.0628268  21.3253828  19.2520146  23.3066275  14.7943089  25.3382178
  23.0027422  15.4284249  24.6887680  23.9307555  14.2455039  24.8633404
  19.9686452   7.1733612   7.0303498  20.7118770   7.0620662   6.4375160
  19.8051908   8.1164902   7.0350919  13.7823739  30.5579301  13.7168155
  14.1236272  29.8805495  14.3007098  14.0305796  30.2654763  12.8398345
  26.0944533  26.0886999  23.5955418  26.4971232  25.2516814  23.3642719
  25.3627729  26.1792799  22.9850734  25.0073868   7.4102928  20.4945256
  24.6185594   6.7695977  21.0899713  25.7952314   6.9805553  20.1615741
  27.6409554  19.3279175   2.4573280  27.9633522  20.1639370   2.7940252
  26.7048168  19.3343166   2.6569130  29.4754799  25.7400562   9.8585129
  29.0201243  25.5811550   9.0316933  29.9076088  24.9094393  10.0574362
  11.0861066   9.3586981  18.1531119  11.4856341   9.0168571  18.9529586
  11.7882040   9.3291998  17.5031722  18.7588406   4.9252989  23.8373466
  19.5839190   5.3120925  23.5443159  18.0836976   5.4248931  23.3781953
  25.8383110   4.7295425   7.6340878  25.6515708   3.9633892   7.0915312
  26.4201966   5.2672933   7.0969993  12.0295662  29.8393659   8.9533879
  11.3971752  30.5517152   8.8592078  11.5464682  29.0544818   8.6949231
   4.3911984  10.3437324  23.5640482   4.0751460  11.0587593  24.1163925
   4.8280456  10.7808586  22.8330759   3.1156630  30.6764698   8.7030580
   3.5629982  29.8881340   8.3954074   3.3539147  30.7415771   9.6278455
  27.0937940  27.5307389  10.8732317  26.4255285  26.8850776  10.6435082
  27.8554207  27.2842427  10.3484497  22.2061253   6.1209015  16.7267158
  21.8992805   6.7545132  17.3752620  22.9338574   5.6715635  17.1565225
  25.1549491  16.1468542  22.0068574  26.1028012  16.0524213  22.1011353
  24.9452456  15.6687617  21.2045574  17.4554163  29.3064405   6.7576075
  17.8086954  28.4197857   6.8301636  17.5496679  29.6744587   7.6361918
  22.9107425  25.8964507  24.7957921  23.2098815  25.0042502  24.6205020
  22.6361415  25.8812134  25.7126307  13.3885807   6.9703442   2.7357290
  14.3184370   6.9841820   2.5089906  13.0484909   7.8008515   2.4028156
  28.4738549  13.0667975  13.0057641  29.4112929  13.2584002  12.9787560
  28.4206542  12.1163847  12.9051634  19.7678905  10.7671094  18.4929917
  20.1712113  10.8613431  19.3559424  20.4955679  10.8560181  17.8775142
   3.1677619   2.8242393  14.9218116   3.9315597   2.5131031  14.4359718
   3.2025424   3.7771412  14.8381350  28.5761065   3.9345789  19.3831811
  29.3178648   3.3509490  19.5425955  27.8273863   3.3473811  19.2790542
   5.5482472  29.8999387  10.9472795   6.0282601  30.4929988  10.3692671
   5.3043641  30.4420039  11.6975589  20.5069137   3.9487461  25.6516691
  21.1990809   4.4337563  26.1010023  20.3208423   4.4669727  24.8686953
  15.2020261   2.6082156   9.0188744  15.3302714   1.7319248   9.3820550
  15.0421998   3.1629060   9.7824218  22.1920344  30.8872795  24.2460164
  21.3508954  31.2125874  23.9252480  22.3176136  30.0559950  23.7883767
   4.1284588  24.0400048  24.8574775   4.0702823  24.3364569  23.9492019
   4.8539832  23.4156342  24.8596329  22.8606883  17.4435222  18.4801352
  22.2716228  16.8210101  18.9064050  22.7410404  18.2586861  18.9673960
  20.0374222  21.7906948   9.4026991  19.2340982  22.2721144   9.2048736
  19.7593224  20.8770843   9.4675680  -0.1437762  10.2895691  23.5543108
   0.2310178  11.1656286  23.4633088   0.5645082   9.6983625  23.2992744
  26.3882762   2.1944079  19.4279871  26.4903265   1.8415613  18.5440657
  26.1133700   1.4441933  19.9550895   6.4900070  23.2103692  20.9028149
   6.8447405  22.5107882  20.3541946   7.0054393  23.1677936  21.7082644
  29.6465808  14.4839241  19.9105370  28.9676839  14.9270298  19.4016266
  29.6135383  13.5746147  19.6133840   5.1907879  29.3496792  19.5300644
   4.9707943  28.9496605  20.3713816   6.1401802  29.4675056  19.5618409
  26.4367193  29.7709755  17.9512314  26.4612669  30.6986240  17.7165232
  27.2958655  29.5985607  18.3364246  14.9252849  13.5245087  19.8483086
  15.0900751  13.8635923  18.9684796  15.7486826  13.1078102  20.1025033
  17.3866487  16.1512047   4.4572761  16.5468264  16.6069847   4.5138194
  17.6168382  15.9595638   5.3664043  13.0111271  25.6356235  13.1810695
  13.9038568  25.3195663  13.3202583  13.1143051  26.4070006  12.6237804
   9.8053286   0.3329425   8.1707889  10.1325962   0.0007437   7.3348629
  10.4278752   1.0171264   8.4168810  23.3481094  13.1176283  15.6862476
  23.7709883  12.9882147  14.8373344  22.4363151  12.8653624  15.5405690
   8.2565427   2.6461081   0.5747296   7.9723984   1.8675999   1.0537054
   8.0006504   3.3787493   1.1350777  25.1932716  19.8826504  20.0587203
  24.3368483  19.4611382  20.1301267  25.6294012  19.6806622  20.8865001
  26.5094498  13.9321003  25.7497378  27.2719396  14.5071552  25.6852980
  26.4197087  13.5543738  24.8748084  26.5206509   9.3921063  -0.1331212
  26.3712507  10.2390311   0.2871511  27.4187260   9.1617439   0.1048467
   0.5021471   6.4806378  20.3866625   1.3430208   6.9364661  20.4238272
   0.7265467   5.5840194  20.1377606  27.4162623   3.4897759  25.1734352
  26.7069453   4.0059521  24.7904706  27.1003201   2.5868299  25.1402330
  22.2032523   1.2933852  17.9420396  22.8396487   0.8573021  17.3754163
  21.3858080   1.2727112  17.4444576   5.2275938   8.0336926   6.8485357
   6.1830032   7.9819987   6.8759563   4.9619365   7.2796152   6.3222053
  10.4207558  16.4387725  14.6398731  11.2499613  15.9991596  14.4517394
  10.4453224  17.2342298  14.1080113  24.4973784   6.1660087  10.6666281
  25.3765040   5.9233212  10.9572651  24.6439915   6.7761511   9.9438121
   4.4773438  23.3980232   5.6898503   4.8076132  24.0579468   6.2994866
   5.2175477  22.8068024   5.5527644  29.1606101   9.1970275  25.9883668
  29.8110827   9.6760128  26.5018775  29.2905196   9.5039437  25.0910594
  14.6827259  17.7296589   4.6153732  14.0765300  17.1352563   4.1732832
  14.1430047  18.1853376   5.2613540  10.0635746  23.5970881   4.6409299
  10.8257916  23.8603689   5.1566245  10.1603928  22.6505425   4.5365121
  29.1897437  18.3621746   6.1714423  29.9585197  18.2796627   5.6071699
  28.4567353  18.0912644   5.6186855   6.6101366   5.7887250   9.4238025
   6.1137586   6.6064948   9.4569141   7.4995332   6.0380650   9.6748573
   5.8408443  15.5349420  13.4960433   5.4710475  15.5719219  14.3781491
   6.1450187  16.4265082  13.3262845  17.6500517  17.5219206  12.0811441
  17.9410511  17.4601463  12.9909422  18.4597021  17.5278477  11.5705897
   7.9720360  13.9680473   6.8543083   8.8974529  13.9212505   6.6142112
   7.9578262  14.4983188   7.6510746  28.0382681   3.7746504  11.5007166
  28.3100247   3.9325875  12.4048428  27.2536850   3.2317725  11.5778069
  27.9996650   1.9244611   5.3901048  28.5450650   2.2392532   6.1109872
  27.9047516   2.6822037   4.8129984  26.0918403   2.2573612   3.0246500
  26.6703367   1.7577837   2.4484639  26.1185861   1.7865346   3.8576226
   0.5492634  22.1025538  16.3541802   0.9888024  22.2713614  17.1875676
   0.3839058  22.9722428  15.9901341   4.9247539  13.6756565   7.5681732
   5.7957900  13.3592751   7.3285268   4.8932490  14.5702841   7.2292314
  22.5266600  22.1702991  20.3154802  22.9452729  22.3751215  19.4793940
  23.0374265  22.6547096  20.9640908   3.9299569   0.6868217   5.3729530
   3.4629387   1.0767434   6.1119314   4.1156057   1.4238761   4.7911306
   4.4082841  24.7229234  22.0481140   4.4875058  25.6673596  21.9139606
   5.1011475  24.3451117  21.5064270   9.4947460  20.8948755   3.6267817
   8.5409572  20.8746171   3.5486138   9.6912721  20.2690840   4.3239146
   1.6369626  22.9893498  18.5288870   2.1684453  22.9296223  19.3227327
   0.9041640  23.5546217  18.7732327  15.7188475  12.1376135  13.4826821
  15.6664586  11.1818792  13.4745043  15.0461054  12.4090244  14.1071671
  14.1165919  30.4378390  10.6416285  13.4144396  30.4821849   9.9925959
  14.9078078  30.2759314  10.1278234  27.0590981  21.7133850  10.2603805
  27.2772320  21.2077087   9.4774765  26.2526139  21.3140243  10.5864573
  18.0060154  11.0848852   0.8663182  18.6142975  10.3503366   0.9478955
  17.3578315  10.7892414   0.2270321   3.2985136  20.9922693   1.1415239
   3.4585282  20.0874732   1.4097973   3.9227626  21.5075407   1.6524454
  19.7047448  17.5304518   0.1494000  19.5310223  18.4120832  -0.1804163
  18.9178884  17.3001788   0.6434272  29.0838218   8.2604307  18.4709050
  29.7152829   7.5840992  18.7159850  28.7943077   8.0110782  17.5932767
  12.3679366   4.9238588   4.2416759  12.0753899   4.4669845   3.4530588
  12.6397100   5.7875564   3.9312025   6.6804880   4.3775896   7.0867040
   6.5705008   4.9716858   7.8291227   7.6143307   4.4214157   6.8811729
  16.8607297   1.0186503  18.8085226  15.9091356   0.9719918  18.7162022
  17.0029667   1.6673158  19.4978957  26.2365874  25.4842569  12.7954318
  25.2795085  25.4944946  12.7843716  26.4866885  26.4062216  12.7349116
  21.5641451  18.1079342  14.0143366  20.6962514  18.4819033  13.8622113
  21.3930321  17.2814467  14.4658585   6.6039205  10.5281731   8.2445270
   6.4530146   9.5834824   8.2125980   6.7861414  10.7724186   7.3371345
  25.7262047  28.1977105   7.3711334  26.4446505  28.8012028   7.1817491
  25.7638224  27.5516939   6.6658113   4.4255259   9.2342709  13.7956295
   5.0182774   9.1483138  14.5422802   4.9568775   8.9882396  13.0384217
   7.8128740  12.9466776  14.3076704   7.1149370  13.4292130  13.8646398
   7.6468966  13.0873303  15.2398191  22.7262044   3.1501055  13.0860257
  23.0625892   2.9181227  13.9516246  22.0045090   2.5390136  12.9378569
   6.0994331  17.2328899   9.4877674   5.3217021  17.3598788  10.0311329
   6.3475887  16.3201151   9.6343591  26.7796832   1.2564949  17.0109594
  27.7074697   1.1039738  16.8315649  26.3297295   0.9473471  16.2247014
   7.7815983   0.5565270  21.9724679   8.3905933   1.2766941  21.8090200
   7.9382631   0.3127487  22.8847504  10.0412929  29.9149795  14.5979526
   9.9691337  28.9607044  14.6175601  10.1213300  30.1300760  13.6686732
  14.5678419  11.4374062  22.3777129  15.4210324  11.8709656  22.3598411
  14.7665972  10.5116888  22.2370794   7.8563592  29.7582793  19.8996739
   8.2499287  30.2884960  19.2067055   7.9289767  30.2994776  20.6858448
   2.5609726  18.8185773   9.2387116   1.7885203  19.2804847   9.5645750
   3.2872099  19.4196270   9.4047093   9.0347963  16.5966372  19.6030742
   9.7043424  16.0884813  20.0610191   9.5004230  17.0021442  18.8716442
  12.6581311   5.0608160  15.5365849  11.8820858   4.5301964  15.7166576
  12.3199153   5.9490754  15.4232836  13.3349985  22.1580263   2.8121998
  12.8761048  22.8445407   3.2962920  14.1884369  22.0924278   3.2406594
  19.6897409   6.9669745  15.2907336  19.0246818   7.5506089  15.6558287
  20.5204389   7.3247621  15.6040430  20.1168254  20.1790355   2.3026397
  19.9830338  19.2439006   2.1481921  21.0318574  20.3321896   2.0670702
  11.8730301   1.4532926  15.2251413  12.1958393   1.5358212  14.3278005
  11.4620871   0.5892541  15.2533319  17.2740832  12.1615366  20.6598864
  17.6393035  13.0204920  20.8721254  17.4993387  11.6131596  21.4114017
   8.1099313  17.8995420  15.3914729   7.6029921  17.6301243  16.1574069
   8.9292091  17.4096109  15.4620639   4.2074016   4.2021558   3.7846236
   3.3095181   3.8951367   3.6590199   4.7074682   3.4085047   3.9751009
  12.0484492  10.2871752   5.6847793  12.6858852  10.5063069   6.3644058
  12.2088716  10.9266245   4.9908000   6.2218655  20.3849222   8.8405367
   6.8397893  21.0322477   8.5008712   6.7748154  19.7034409   9.2227026
  10.6774616  17.5307107  17.3460549  10.7858682  16.9408166  16.6000622
  11.4156413  18.1366444  17.2815102  16.4819038  26.1688113  16.5302827
  16.7200661  26.2397647  17.4546601  17.2628689  26.4586949  16.0588004
  22.9034087  15.9207557  10.7743579  22.7186391  16.8392883  10.9702999
  22.3137948  15.7067929  10.0513011  11.0847759  26.9476606  21.9258536
  10.3464079  27.3002674  21.4291514  10.8238769  27.0416786  22.8419999
  28.5823250  19.2513184  20.1720909  27.6905847  19.0845493  19.8667626
  28.5732603  18.9891247  21.0926346  17.4779076  17.8460926  16.9462657
  16.5242094  17.8935856  17.0128345  17.6374287  17.3263830  16.1584294
  28.1739897  16.8856813   4.0830131  27.8902334  17.6226713   3.5421177
  27.4126047  16.3065865   4.1172500  29.6618676  18.1312966  14.5315216
  29.1807437  18.0402493  13.7090466  28.9815426  18.2365859  15.1965807
  29.4164178   5.1904561  24.2347002  28.9028642   4.3981411  24.3919587
  28.9569709   5.6363871  23.5231638  13.7834162  26.7187210  22.9708078
  12.9186005  26.5484162  22.5975492  14.3282122  26.9483300  22.2180106
  29.7352415   2.3124024   9.8300133  29.8851400   1.4363693  10.1854394
  29.1956835   2.7491719  10.4890607  14.3416778  21.7513363  12.0773461
  14.9069683  21.0505197  12.4022033  13.9231864  22.1047709  12.8623178
  11.0101688   3.5501335  10.4094412  10.7647038   4.2698238  10.9908416
  10.5071878   3.7058065   9.6100595   4.8839900   6.7090843  25.5903359
   5.1890704   6.5937112  26.4902516   4.2520139   6.0022304  25.4592033
  18.3462310  16.2043623  14.6808793  18.0605161  15.3931860  14.2606523
  19.2119586  15.9991650  15.0339248   7.5254112  10.5545104  12.5893944
   7.8168874  11.1744595  13.2579249   7.5462156  11.0547042  11.7735451
  10.9795227  20.8489899  11.9172673  10.3337207  21.4471153  11.5412096
  11.6887477  20.8275036  11.2747959  11.7756181  15.0607781  24.7857487
  12.5760084  14.7413496  24.3691204  11.9621855  15.9766201  24.9922672
  29.1792628  24.5711599  19.8930697  29.3026683  23.7261508  20.3254608
  28.6562869  25.0821857  20.5107931  17.1195447  19.5221363   3.6517833
  16.5726006  18.7472115   3.5230372  17.2368753  19.8812888   2.7723096
   0.8669620   2.1564074  13.7007868   0.4035621   2.9834759  13.8328850
   1.7080980   2.2802578  14.1405380   4.2587879  28.3611679   7.6857571
   5.1276043  28.1729531   7.3308424   3.7458208  28.6409855   6.9276003
  10.4765603  12.1119740   7.8910118  10.5145023  12.5904848   7.0628703
   9.5442626  12.0774080   8.1051606  18.1276861  29.1102167   9.5361904
  19.0736666  29.2288896   9.6214537  18.0138328  28.1664439   9.4240956
   5.3342175  29.1466471  24.5269888   4.9884728  28.6901101  25.2939719
   5.1951146  30.0743148  24.7175520   9.1304800  23.9649630  14.4375322
   9.5110891  23.8216257  15.3040324   8.2961652  23.4963918  14.4619105
  22.6832196  20.9440281   9.7072917  21.8760678  21.4028742   9.4744903
  22.6479098  20.1285698   9.2072803  28.1957239  17.8061440  12.1825882
  27.7682967  16.9509794  12.1353956  27.4776167  18.4363701  12.1245380
  12.8329110  20.3816104  10.2904560  13.5625768  20.7223225  10.8078887
  13.2098424  19.6549809   9.7943070   6.7620730  20.1655984   3.0447481
   6.6229331  20.2970910   3.9826081   6.3707173  19.3113887   2.8620003
  20.7731718  23.4605310  23.4327861  20.6258482  23.9692221  24.2301341
  21.7169089  23.3009265  23.4214516  24.4875044  21.2935482  13.3759878
  24.9367708  21.9815687  13.8669238  23.9714045  20.8278237  14.0339897
   7.4703482   4.5624612   2.2749521   7.8973940   5.2850388   2.7351119
   6.5433267   4.8006247   2.2630622   2.0357837  26.3746373  20.1599455
   1.2429480  25.8436839  20.2356505   2.7472103  25.7364802  20.1064730
   8.9345598   1.9491724  12.2007108   8.3207041   2.2430948  11.5276396
   9.6415752   2.5940374  12.1781182  27.0039320  10.6302506  19.8169283
  26.3379025  10.6203705  19.1295103  26.7253280  11.3277203  20.4103474
  27.5588214  11.4923435   4.8843128  28.3952378  11.0336357   4.8054153
  27.6440350  12.2476059   4.3024570   5.3759755  18.0490971  24.2841506
   5.6877888  18.9469671  24.1708660   5.9165562  17.6951265  24.9903440
  17.5175825   5.8351791   6.3966183  16.6884806   6.2629133   6.6107802
  18.1813875   6.3646173   6.8385319  24.8256207  17.6989029  16.3716002
  25.3038716  16.8698702  16.3862343  24.2419910  17.6521264  17.1288438
  22.2468376  28.2790971  13.9059865  22.2666454  27.8569388  13.0471373
  22.3353863  29.2130423  13.7158978   2.0379496  30.7411331   0.8816840
   2.9027835  30.3464550   0.9935977   1.9773489  30.9233183  -0.0560615
  20.1504096  10.0409559  23.8061061  20.2318057  10.5146460  24.6338893
  20.2191313   9.1180424  24.0505184  14.0853307   6.5340755   7.0668197
  14.1049239   6.5746067   8.0229604  13.2462213   6.1217020   6.8617159
   8.3005002  15.6029904  11.9424945   7.4519708  15.1897383  12.1020252
   8.1721332  16.5179420  12.1927196  15.1627919  14.3075285   6.1941197
  14.4159124  14.9060438   6.1807182  15.2808473  14.0513180   5.2794315
  20.3462776  25.7870503  21.7093277  20.5944100  25.0875278  22.3137522
  19.8362627  25.3465362  21.0295749   8.2091162   9.7077638  17.8366661
   9.1388104   9.5007306  17.7416110   8.1319425  10.0618112  18.7226272
   8.3766520  22.1994307   8.2830078   8.2441145  23.1468155   8.3165294
   9.3118221  22.0823481   8.4502822   9.3084804   9.4684666   4.7027256
  10.2008335   9.6121418   5.0178458   9.2053596  10.0913012   3.9832308
   5.8007283  14.6488861  10.2063986   5.2487559  14.5482973   9.4308706
   6.3214392  13.8462404  10.2355142   7.9924271   7.0487263  14.4886696
   8.8130543   6.7977836  14.9127328   8.2637045   7.5506784  13.7201107
  23.4451070   1.0455253   1.6438909  23.5163691   1.5849092   2.4314304
  24.3173280   0.6671526   1.5330024  26.6133666  23.7197308  22.7097291
  26.2774563  22.9202084  23.1148785  27.1267056  23.4122280  21.9626349
  20.6814281  15.8353849   8.9680982  20.1632968  16.1525007   9.7078383
  20.2287570  15.0423189   8.6810994  28.0386442  19.2691273   8.5550294
  28.5794062  18.8705820   7.8731428  27.1394343  19.0685552   8.2953642
  26.4553174  17.6921894   6.4038138  26.5529170  16.7638256   6.6156010
  25.8870297  18.0365707   7.0927862  23.9137369   7.9834934   5.9853883
  24.1737061   8.7440296   5.4655500  24.3881088   8.0839964   6.8106790
   5.4848358  11.3123371  18.6362934   6.0691235  11.8380549  19.1826093
   5.4184410  11.8019678  17.8164852   0.4710004  21.7930532  23.4612914
  -0.1508549  21.4784050  24.1174336   1.3105032  21.4183021  23.7278076
  19.8823830  28.6469951  19.0434805  19.2175308  28.0040828  18.7967698
  20.2522102  28.9406470  18.2108770  17.7754352  27.3683286  23.0785108
  18.2598588  27.9319334  23.6817646  18.4252212  26.7398286  22.7638721
   2.6063904   2.8800526  23.8121730   3.2439646   2.6076752  23.1522171
   2.5016525   3.8208371  23.6700941  11.1238408  22.4450127   9.0261839
  11.7443275  21.7213510   9.1130267  11.2350309  22.9535536   9.8294614
   8.5857469   1.3089393  14.8334529   8.4862024   1.7534802  13.9916064
   9.1854864   0.5851553  14.6526696  24.2682653   8.2135504  15.5889632
  24.7236925   8.9147866  15.1230409  23.8395839   7.7067828  14.8992898
  18.4072173  23.5555834  25.4431178  18.3471584  24.3360084  25.9940841
  17.9277170  23.7865871  24.6475389   3.7931484  27.5672237  10.8867214
   4.1233125  27.6817219  11.7778514   4.3801785  28.0938999  10.3442858
   9.5607084  11.3743641  15.7621288   8.9951092  12.0701124  15.4270756
   9.0509433  10.9679558  16.4629889   3.2400155   5.5407719  13.6147831
   3.3811286   5.6103520  12.6706026   3.9731598   6.0187773  14.0023957
  15.2144617   9.9422411   1.6985510  15.8672566   9.3107752   2.0007680
  15.5194611  10.7833866   2.0386694   2.6846401   8.9605003   6.7377388
   2.8829280   9.8746544   6.9407994   3.5342399   8.5202080   6.7612225
  27.8405070   6.5468448  26.0472675  28.1793714   7.4333489  25.9227176
  28.4443283   5.9885955  25.5573817  22.4206495   2.0842173   7.3699041
  22.3632836   3.0320479   7.2492500  21.9139838   1.9127180   8.1636997
  12.0837846  13.8670135   1.4029008  11.4711991  14.0978503   0.7045585
  12.9398742  13.8512063   0.9750110  17.6881692  23.6183029  12.3458596
  18.5242602  23.2731491  12.6589866  17.9214761  24.4142490  11.8680902
  13.1453979  27.8082277  11.4107585  12.1984088  27.6688768  11.4158940
  13.2590508  28.6660053  11.0014558  15.6422419  26.6760655  10.5130130
  14.7721857  27.0412632  10.6738407  15.4749531  25.8476206  10.0636608
  17.6282599  25.6572104   3.6737637  17.0088199  26.3270426   3.9633326
  18.2439139  25.5696940   4.4014601  24.1285030   2.5896507  15.5266710
  24.1169158   2.9960400  16.3932439  23.8461486   1.6881710  15.6810947
   7.7391216   3.4549955  10.3154228   7.0092103   4.0593962  10.4502056
   8.1432173   3.7459902   9.4979499  25.4674715  15.1225793  16.4097925
  26.2379259  14.9443281  15.8704777  24.7383398  14.7444689  15.9182354
  22.7303105  20.7823787   1.8717752  23.0408698  21.3861917   2.5464521
  23.4636741  20.1837573   1.7301451  12.6185123  22.6517177  20.5747028
  13.0070964  22.2011662  21.3245245  11.8981639  23.1599116  20.9476252
  19.3025529   4.4296261  16.4839172  19.5179737   5.1894613  15.9431040
  20.0651598   4.3153282  17.0510149  10.4778907   0.6998394   1.2155988
   9.9422834   1.2968133   0.6931235  10.9294841   1.2675426   1.8401029
  22.2613231  26.1709358  15.6937502  21.3675109  25.9641363  15.9668312
  22.1670810  26.9340469  15.1236520  20.5341157  12.2081139   0.2788587
  20.8088406  13.1047012   0.0867839  19.5942648  12.2763969   0.4469438
  19.3400991  18.9157925   8.2335802  18.4515977  18.7975548   8.5694643
  19.2333734  18.9571236   7.2832485  14.4547525   7.1692133  15.3159485
  14.1256264   6.4702266  15.8810375  15.2564528   6.8113792  14.9345539
  21.1126987   5.1491064  22.5732017  21.9183818   4.6420863  22.6733685
  20.6622592   4.7395778  21.8345356  21.8539619  14.3317417   3.9218309
  22.3182082  14.4400410   3.0917837  21.2499905  15.0735048   3.9570143
  25.8183837  15.3735042   3.4333676  25.2053046  15.7334912   4.0742844
  25.5284715  15.7344878   2.5955885  11.6357484   4.2614124   1.5357724
  10.8426395   4.7894595   1.4442486  12.2362140   4.6154187   0.8797598
  16.7922297  30.2957537  22.8765459  17.5138989  30.3146364  23.5050915
  17.2151699  30.1481726  22.0306302  21.8172071   6.8390296   4.7036942
  21.6097972   7.2461436   3.8625916  22.5003097   7.3958204   5.0773152
   9.3457916   4.3324067   8.2137233   9.8299721   4.0053918   7.4555332
   9.6416011   5.2371265   8.3147937  16.6036573   6.3086488  14.0139532
  17.5230112   6.5026714  14.1966438  16.5501490   5.3533818  14.0428317
  21.9301176  29.2645878  20.5768732  22.5381422  28.8744635  19.9489073
  21.0869765  28.8570207  20.3787951  10.4387042  27.5993729  11.7066765
   9.9716708  27.1366143  12.4023509  10.5147168  28.4984565  12.0262170
  13.9943645   9.2806268  13.3285193  14.3650386   8.7365162  14.0233425
  13.9551017   8.7024075  12.5667099  21.1010247  21.0254051   6.9341749
  21.3266903  21.7758228   6.3844627  20.8103376  21.4122917   7.7600390
  19.6633908  20.0627418  13.2536191  20.0428674  20.9395166  13.3127230
  19.0015742  20.1340719  12.5657624   7.6235315  18.1632849  21.1787059
   6.6903374  17.9517647  21.1534145   8.0033657  17.6572796  20.4604318
  15.6524891  11.2878231  17.5927045  16.4222664  11.7191938  17.2217681
  15.1810402  11.9870476  18.0455377  14.9152560  17.1194325  18.5855973
  14.1417784  17.3268817  18.0612636  14.9939246  17.8520129  19.1966379
   0.9149072   6.2426907  15.0744138   1.0909269   6.0730320  15.9998665
   1.7462585   6.0625130  14.6355305   7.4746707   0.6977030   2.5761076
   8.0934337   0.7742115   3.3024069   7.6001718  -0.1924471   2.2472997
  17.1988726  20.1991187  14.4686768  17.3301375  20.4722665  15.3766380
  18.0824828  20.0428436  14.1354451  19.3885318  11.4733217  12.5512459
  19.6607295  10.5623291  12.4406435  18.8056938  11.4586661  13.3103993
  28.3916909  22.1080830  21.0524487  29.0473012  22.2642853  21.7321610
  28.6369440  21.2644579  20.6724715  -0.3018310  29.9313068  18.4964273
   0.5775497  29.5659804  18.5936967  -0.1785615  30.7117033  17.9560439
  23.5195345   6.0866998  13.8876341  23.2893080   5.4168985  13.2437418
  22.9935927   5.8697508  14.6574114   4.4776991  27.7757790   0.8075744
   4.9802941  27.8599026   1.6178543   4.2182446  26.8547918   0.7811862
  26.5070367   6.4507963   2.3715210  26.4785290   7.3711612   2.6329505
  27.1119618   6.4310743   1.6299631   0.6769088  12.3991191  21.9720612
   0.5637172  11.8438435  21.2006415   0.6610849  13.2924247  21.6285662
  13.4226841  25.2034050   7.5944163  14.0259260  24.6239334   8.0597617
  12.9702181  25.6844479   8.2873132   3.3757222   5.6802317  11.0367594
   3.3447936   5.1066156  10.2710960   3.1021723   6.5358826  10.7062052
  25.1321170  28.8355778  15.6834137  25.6370256  28.9539019  16.4879644
  24.9459073  27.8971473  15.6533325  12.8806684  15.7842590   6.6793406
  12.4228761  15.2203085   7.3027349  12.2040698  16.0530903   6.0579115
   8.4971282  27.2522015  20.7157298   8.3943984  28.1343931  20.3587790
   8.1273482  26.6779274  20.0451298  26.5095949  12.3904489  23.4749480
  27.2496653  11.8573986  23.7654396  26.8196082  12.8150366  22.6750417
  22.5163031  18.8012920   7.8916528  21.8718624  19.3196283   7.4097230
  22.4690127  17.9314206   7.4950173  23.0436990  12.3937418  20.2197317
  22.1087691  12.2146942  20.3201298  23.4043262  11.5860178  19.8539929
   7.9078266  30.7447722  24.4770995   6.9878432  30.9237911  24.6715537
   8.0181930  29.8150351  24.6761934  14.3073001  29.9949604  22.0210143
  13.7524929  29.9221760  22.7976247  15.1727655  30.2162987  22.3648353
  21.9140532  10.9227325   2.7722619  21.8738588  10.6336500   1.8606446
  22.3027435  11.7964222   2.7295564  10.6931872  23.6250901  17.3129155
  11.6253275  23.8418746  17.3314740  10.6676382  22.6974750  17.0781638
  24.7693723  15.6515165  19.0666610  24.1009328  16.2066027  18.6650402
  25.2508881  15.2825972  18.3261997   3.0660637   7.2824997  20.0200844
   3.5334023   6.5332544  19.6506822   3.7574490   7.8617644  20.3404999
  20.8282145  17.7150538  21.7555350  20.5185135  17.6386644  20.8530491
  20.1261004  18.1794216  22.2112053  24.9625301  22.2401905  26.2550712
  25.7272053  22.8141189  26.2091327  24.2576885  22.7476215  25.8526516
   9.8097354   5.4164072  18.2693756   9.7941148   4.6574827  17.6862597
  10.7153666   5.4646059  18.5755467  14.2530417  29.3229965   5.6736378
  14.6037805  30.0764660   5.1987748  14.9816298  29.0216164   6.2163739
   8.2237527   5.0878233  20.9657379   9.0776536   5.4708892  20.7648726
   7.7048537   5.8202952  21.2980958  20.0500258   1.5515896  16.3458061
  20.1150616   1.6086050  15.3925216  19.8431119   2.4433180  16.6255200
  25.8385745  24.4409325  10.0106154  25.1025096  24.7084000  10.5609796
  26.3678829  23.8779690  10.5755411  15.4949832   3.4719892  11.7786173
  16.2118542   4.0670868  11.9981293  14.7641718   3.7666412  12.3220543
   2.5831085  21.4349184   6.6492345   2.9378277  22.1167694   6.0787227
   3.2750326  21.2759022   7.2912481   6.3216183  27.4210004   6.1767010
   5.7530806  27.3944447   5.4070954   6.8432734  26.6206724   6.1168436
  22.6171857   5.7499977  19.7665167  23.2782894   5.2797695  20.2745128
  22.9625278   6.6393562  19.6890259  26.5914830  14.5562079   9.1471434
  27.0490941  13.7433865   8.9323288  26.5923079  15.0546886   8.3299845
  22.2896194   0.0823566  13.3452727  21.5406847  -0.0183571  12.7577474
  23.0417824   0.1757574  12.7606728  20.9626863   7.3420690  24.2190489
  21.8306539   7.4094437  24.6169587  21.0735271   6.7109392  23.5079784
   6.5911004  16.7351317  17.5790453   6.9988320  16.6985738  18.4442914
   5.8810351  16.0946429  17.6216245   4.4540066   1.5539338  18.6710956
   5.2686066   1.9935705  18.9147784   4.7220797   0.6652166  18.4375312
   5.3040210   1.9453335   3.1132247   6.1142723   1.4527303   2.9826119
   4.8731033   1.9285257   2.2586729  19.4054029   1.9633621  13.5736763
  18.9437434   1.1524910  13.3601749  19.1504142   2.5734943  12.8816128
  19.2801470  20.1649737  25.7536000  19.7992844  20.9602094  25.6338805
  18.6380572  20.3968549  26.4245528   0.3893945  15.0513385  16.0732226
   0.7753703  15.7943700  15.6093697   1.0971591  14.4092176  16.1278204
  20.2615431  28.0306715   6.5517360  21.2028500  27.8835577   6.4593727
  20.1624915  28.9817947   6.5095169  10.8732307  16.8122530   4.9959967
  10.6807649  17.2696388   4.1774700  10.5332696  17.3902929   5.6790254
  18.9947954  19.4356213  22.6778867  18.9027384  19.7472976  23.5782268
  19.1113153  20.2318392  22.1595313   3.5004094  19.7128300   3.9559394
   4.0496200  20.0061993   4.6829444   3.3300430  18.7894539   4.1418964
  16.9008062  28.8388342   2.5253348  16.0307595  29.2074293   2.3723797
  17.3025367  28.8048595   1.6571812   1.8856377  16.7209145  20.4060479
   1.0355324  17.1512838  20.4973479   1.6824526  15.8686205  20.0206276
  19.2502766  29.3611428  24.7817302  19.3414646  30.0459507  24.1191936
  20.0645476  28.8613659  24.7232580  28.3738148   4.3624397   4.2282603
  28.2720069   4.4986530   3.2862876  28.0695414   5.1797863   4.6227191
   3.7746043  14.3533550   4.3573483   4.5542521  13.8561867   4.1099461
   3.0456681  13.8557575   3.9868268   6.4336297  26.9058373  14.5034434
   5.7766935  27.5566723  14.2562987   5.9240362  26.1439087  14.7791459
  22.5958323   2.0584748   4.4279861  22.7651596   1.6277812   5.2658772
  21.6453028   2.1684931   4.4030121   0.4461473  15.6320854   2.7235314
   0.6820905  16.2268158   2.0115894  -0.0483574  16.1763283   3.3363092
  21.2291604  15.8032181  15.0257331  20.9276920  15.2688171  15.7604152
  21.4575988  15.1690390  14.3461257  21.2385633  13.7701901  13.0240921
  21.4810517  14.1442688  12.1770386  20.7613101  12.9699715  12.8047327
   9.2847350  31.0664962  17.4691820   9.6297303  30.1961216  17.2700405
   8.9918998  31.4072141  16.6239655   9.0395200   8.3367517  12.5120213
   9.8551822   8.8329460  12.5807097   8.3723545   8.9972641  12.3253514
  22.9680911  11.4407633   6.1023327  22.4091999  11.0150216   5.4522463
  23.7352554  10.8720849   6.1678835   5.6183820   8.5504752  19.9353244
   6.0320574   9.3863964  20.1505973   6.2538009   8.1063545  19.3738677
  24.8825309  19.2998087  25.6500365  24.7762868  20.2510929  25.6488397
  23.9882371  18.9589524  25.6670882   7.3162633  13.9101936  23.5797163
   7.1111077  14.2713835  24.4420882   7.4358720  12.9732372  23.7347480
   0.0029920   9.7348545   4.1664579   0.7037756  10.2959965   4.4985058
   0.4182259   8.8814590   4.0418555   3.3801427   2.8179792   0.7082713
   3.0908212   3.5879664   0.2187366   2.5748909   2.3337940   0.8909395
  22.5414520  16.4514728  23.2934304  21.9411116  16.7418571  22.6067682
  23.3270150  16.1729809  22.8227277  14.2393699  30.5443001   1.5336178
  15.0023034  31.0516047   1.2564800  13.5489753  31.1963272   1.6538165
   3.2251665  13.4926943  26.4688869   2.9531428  13.1292061  25.6262084
   4.0985176  13.8487486  26.3054438  14.8102233  14.4104006  17.3325972
  14.5694110  15.2949574  17.6078991  14.9040839  14.4726135  16.3820414
   4.6748347  28.5305281  13.4056568   4.1747517  29.2906175  13.1083155
   4.6022171  28.5543820  14.3598008  11.1437765  18.5462572  13.0358340
  11.7806449  18.1318905  12.4536564  11.0815027  19.4476749  12.7199199
   8.3724544  27.8521318  16.6943173   7.8727076  27.3922999  17.3688797
   7.9730961  27.5750522  15.8697132   6.3414674  17.1159375   4.6596263
   5.4023748  17.2703433   4.7620604   6.6840511  17.1217966   5.5534003
   8.8555953  15.1649535   9.2339802   8.6240098  15.3065550  10.1518846
   9.7671935  14.8741114   9.2590773  17.0371189  11.4700913   8.1132321
  17.7668336  10.8537591   8.0509095  17.2581616  12.0284009   8.8586573
   9.8016522   7.6599759  21.4773585  10.0708792   8.5770249  21.4247300
   8.8690016   7.6959717  21.6897227   1.5689081  21.6446404   3.3054042
   2.2482676  21.0569386   3.6360255   1.4965338  21.4281277   2.3758267
  12.3529410  12.1802904  19.6386689  12.1798241  12.0915319  18.7014454
  13.2616448  12.4771454  19.6873206  28.9488215  24.4479660  15.2058864
  28.6097521  25.1331047  15.7819569  29.0782255  24.8850826  14.3642104
  14.3866313  28.3544439  15.5668684  14.3487370  28.6189598  16.4860149
  14.9411309  27.5742144  15.5648370  27.1308944   6.2118699  19.3525434
  27.8347776   6.8526580  19.2516828  27.5754878   5.3642370  19.3431139
  17.6247594  15.2560951   7.1643561  16.7519614  14.8668291   7.2184420
  17.5898406  16.0058786   7.7583575   3.1283000   8.1917093   9.3704949
   3.3663156   8.2572649   8.4456799   2.4306276   8.8370536   9.4845817
  11.6353953  29.3354964   0.4137308  11.7644548  28.9539623   1.2820655
  11.4145327  30.2510214   0.5848009  18.9988274   7.1722126   9.6423600
  19.5348830   7.6776737  10.2534137  19.5115942   7.1516466   8.8343511
   7.1498874  13.1651644  19.7804914   8.0744984  13.0333666  19.5708374
   7.1158007  14.0360836  20.1761822  15.1066642   4.3378407  17.1294338
  14.9474006   3.4083992  17.2937805  15.2479034   4.3931824  16.1843330
  23.4578586   9.5488451  19.5725111  24.1612434   8.9741967  19.8746065
  22.9368758   9.7222827  20.3565554   6.0323146  27.0944025  18.2832944
   5.7243493  27.8082134  18.8417423   5.5175498  26.3357927  18.5585403
  15.7473063  27.7735420  21.3498996  15.2499330  28.5767194  21.5040458
  16.4333165  27.7848192  22.0173542  28.0858641  25.8366207   2.9167044
  28.8925486  25.9347061   3.4225422  28.3434516  26.0296635   2.0152533
  17.4995556   5.4703901  18.3761154  16.5835479   5.1982401  18.4317485
  17.9144969   4.8041771  17.8281967  25.1014609   6.3120607  17.4902344
  25.8415503   6.5293602  18.0570531  24.8804468   7.1370558  17.0580697
  16.9953021  17.3746723   9.0880018  16.0582360  17.5132507   9.2256039
  17.2827014  16.8933195   9.8638427  16.8968829   3.3668468   0.3129586
  17.6041754   3.9519594   0.0416382  16.6768035   3.6522434   1.1997136
   7.4368599   2.6934959  18.9937945   8.1070021   2.1329548  19.3848653
   7.3682192   3.4376909  19.5918675  10.7187188  27.1858076   8.4004541
  10.8089554  27.2647647   7.4507948   9.8468024  27.5334422   8.5879226
   6.7305282  20.8314870  13.0446446   6.6526654  21.6016434  13.6076975
   6.4749148  21.1427854  12.1763206   7.3504880  12.2711327  10.1661255
   7.1306422  11.6141035   9.5056607   8.2911470  12.4125816  10.0594189
  21.8689921  16.4617360   6.6737483  21.4238319  16.0613537   7.4205802
  21.1857530  16.5559304   6.0100124  11.7594573  18.9957424  20.6327818
  11.2694261  18.2429357  20.9635232  12.6643083  18.8265606  20.8951710
   5.8151364   8.6915306  16.1655825   6.1432129   7.8282503  15.9138983
   6.5616065   9.1181139  16.5863436   1.1758415  27.9138017   1.4541131
   1.5638725  28.7664199   1.2573892   1.2368099  27.8368545   2.4062664
  13.3363906  20.9082437   5.6217762  14.2414752  21.1654019   5.4459043
  12.8793327  21.7341089   5.7807632  26.1134049  23.2709074   2.8757268
  26.9617977  22.9851627   3.2145643  26.2516322  23.3661819   1.9333640
  23.9746433  13.3262447  22.7832794  23.9245969  13.0812935  21.8593073
  24.8557502  13.0666260  23.0525064   0.5665451   1.8512060  25.4258945
   0.1742321   1.3525369  24.7091987   1.2616401   2.3614361  25.0102784
  15.3644088   0.6238169   4.3833278  15.5771389   0.8723336   3.4837625
  16.1879542   0.7243580   4.8607133  23.1840834  19.7210322  15.4623377
  22.5346246  19.1322480  15.0779319  23.9049336  19.1466592  15.7206070
   6.5612594  22.9719355  14.8031807   6.6703693  22.8102972  15.7403040
   5.7790080  23.5204222  14.7442210   3.2919396   7.7489046  16.5402343
   3.9756955   8.4187273  16.5330484   2.9275693   7.7880720  17.4245002
  11.5035054  31.0400914  21.4577554  11.4400909  31.2170832  22.3963101
  12.2175691  30.4072690  21.3810671  24.1013312  18.5182758   2.3440060
  24.3742442  18.0785414   3.1492263  24.2706871  17.8784748   1.6524851
  24.1785902  13.7526802   5.8085301  23.5154242  13.9429430   5.1450231
  24.0389437  12.8318886   6.0295965  14.3875935   5.6343176  22.0102974
  13.4423581   5.4867436  21.9789358  14.7569409   4.9373629  21.4680191
  17.8045376   4.7269444  10.4650571  17.6108655   4.2279915   9.6714785
  18.1024273   5.5787138  10.1457121   3.3653885  11.3914643   8.3145505
   4.0711551  10.8809469   8.7114137   3.7627083  12.2410105   8.1231326
  10.3009232   9.1150858   7.9173172  10.7063826   9.9098494   7.5706446
  10.8424004   8.8789036   8.6704767  25.6092101  30.5839916   1.1581562
  26.4767795  30.9860297   1.2019956  25.6512719  30.0060531   0.3962831
  16.4475420  31.1720566   9.3748518  17.0149293  31.4389996   8.6516328
  16.9402078  30.4859165   9.8251005   1.3829274  24.9003768  23.9936213
   0.8765787  24.0882134  24.0088038   2.2877688  24.6211410  24.1333298
  28.5832697  15.5989967  25.4330164  28.1657224  16.4330326  25.6481217
  29.4767552  15.6857322  25.7652711  26.5233064  24.6824839  26.2701782
  26.4756966  25.0638392  25.3935189  27.3872232  24.9360754  26.5950935
  22.0546609  18.6338186  24.8798557  21.5066772  18.4280205  25.6372162
  22.0006495  17.8547406  24.3263646  14.8827312  17.3928978  25.4647231
  14.7390840  17.5171473  26.4028907  14.0162084  17.5025990  25.0731421
  22.3567748  19.2264245   4.8756558  21.7236257  19.6004305   4.2628962
  23.1137395  19.8099957   4.8238391   1.4120505  11.6455209   5.5598849
   1.7389056  12.1271074   6.3198006   1.6709039  12.1792233   4.8086271
  22.8302073  13.3344591   8.4382671  22.7320480  12.6450479   7.7815264
  22.8922987  14.1428530   7.9294676   6.3624281   1.2604000   6.8769698
   5.8324904   0.9053375   6.1632971   6.3086409   2.2096111   6.7659048
   1.6627672  13.3454955   2.8074763   1.1700681  14.1650760   2.7654240
   2.1262029  13.3014512   1.9711039  23.5849182   7.0613331   2.4331270
  24.4482509   6.8362755   2.0863608  23.5651390   6.6632217   3.3033872
  13.8120022   8.7209922  22.3043871  13.7396851   7.9423362  22.8563809
  13.7632957   8.3853936  21.4092708  12.3691618  27.3696798   6.2241723
  12.8880119  28.0758757   5.8390500  13.0173135  26.7321581   6.5236642
  19.4606674   9.8449184   6.5037819  19.5772743   9.6369412   5.5767532
  19.7537661  10.7525732   6.5843244  17.1222770   9.0522134  24.8692318
  17.2705173   8.3701348  24.2142316  16.9874310   8.5735923  25.6871386
  12.8089910  15.4273172  13.2423167  12.1038490  15.0863310  12.6921038
  13.1829172  16.1469265  12.7338175  24.0864062   2.1362393  25.1247289
  23.3947968   1.6114482  25.5278423  24.4897723   2.6034766  25.8563163
  16.8385741   7.0682386   3.8305352  17.3863647   6.5034536   4.3756769
  16.2667319   7.5191454   4.4517539  25.5790374  24.0792273   5.5882144
  25.3548381  23.2702873   6.0481972  25.6008384  23.8310633   4.6640009
  20.3432033  13.0974352   9.4032101  21.2942598  13.0066597   9.4622855
  20.1596305  13.0883873   8.4638218   8.2441571  28.2870295   8.1575875
   7.9643085  29.2024042   8.1549982   8.1360700  28.0009653   7.2505526
  16.2648302   7.1111538   1.2307175  16.5909200   7.1564486   2.1295270
  16.8972212   6.5562846   0.7741746   3.5999383   4.2195229   8.8209989
   4.2261876   4.6096663   8.2112267   3.3002843   3.4243206   8.3804371
  20.1081178  24.8562837  19.0177516  19.2200133  25.1662540  18.8404856
  20.0533101  23.9053774  18.9228664   6.5050718  24.1343157   3.1595722
   5.9444472  24.9101077   3.1506637   7.3672983  24.4589017   2.8998801
  19.5725071   8.9476063   0.7536823  20.5209970   8.8215067   0.7801086
  19.2242277   8.0928685   0.5000001   1.9766119   8.3743618  23.0173850
   1.9623878   7.5759314  22.4896193   2.8784874   8.4376095  23.3317924
  10.7099766  14.2741539  12.1034497   9.8444409  14.5616724  12.3939818
  10.5325026  13.5543301  11.4979857  17.0130401  26.1930410  19.2177788
  16.2550598  25.6201766  19.3340675  16.8975311  26.8794561  19.8748360
  12.0892760  23.2031727   6.4023308  11.6012523  22.8780413   7.1588711
  12.6398799  23.9022803   6.7549233   6.4156717  14.9033840  -0.0315025
   6.9252408  14.3379410   0.5488751   6.6329759  15.7924374   0.2488683
  10.9232232  11.4270268   0.3682063  11.8046662  11.7550300   0.1901529
  10.7680795  10.7743500  -0.3145649  19.5118756   9.0946678   3.7610175
  18.9394039   8.4098677   3.4152510  20.3009362   9.0421251   3.2217076
  18.2425845  26.0504818  11.1888728  18.7513399  26.5701294  10.5664871
  17.3319364  26.2817478  11.0059331   2.7564094   1.8808172   7.6397948
   1.8869469   2.2689221   7.7379755   2.7296135   1.0927842   8.1824879
  22.4881491  27.6460419  11.2691555  21.6664114  27.9870517  10.9160397
  23.1651082  28.1944425  10.8726523  19.4739625  21.7833749   4.3367764
  19.6147010  21.3986466   3.4716704  20.2635619  22.2989426   4.5009604
  21.8098826  22.8147656   4.9059300  21.9558234  23.6045700   5.4266505
  22.6701540  22.6053482   4.5421843   8.3571810  27.8394367  25.3020694
   8.0474269  27.1971705  25.9406497   7.8753304  27.6325895  24.5012786
  14.4239291  14.1040289   9.3253837  14.9262150  14.0721226  10.1395831
  14.8454388  13.4581482   8.7584625   5.8244231  22.0073797  24.7806350
   6.4895871  21.4605381  24.3625993   6.0388949  21.9748022  25.7129292
  27.3224585   0.6903938  24.6807786  26.7700061   0.0863747  24.1846033
  27.9362288   0.1242069  25.1486989  20.7919505   1.1307478   9.4211080
  20.3739956   1.7764741   9.9908282  20.2079060   1.0642011   8.6656620
  14.6182201  23.8560281   9.7328752  13.7384555  24.1975580   9.8928815
  14.7003362  23.1150238  10.3332090  16.9590465   3.6857464  14.3362880
  17.8229228   3.3573010  14.5854330  16.3670246   2.9519536  14.5014942
   9.9674752  13.9231610  22.8604674   9.0240529  13.9885938  23.0084729
  10.3593197  14.1834700  23.6940932   2.0699474  27.5966545  23.0471450
   1.2102983  27.5024792  22.6368267   2.0926520  26.9117995  23.7154991
  11.8290040  26.4703250   2.2274524  11.8750617  27.0496988   2.9880077
  12.7356908  26.3919926   1.9307739   3.2462147  11.8454595  20.1531625
   3.8979199  11.6063543  19.4941175   2.5719574  11.1700674  20.0793147
  12.3615828  18.8226320   7.2080851  12.9404750  19.4414999   6.7629826
  11.5581885  19.3180897   7.3671693  14.4247809   4.7034810   0.5182556
  14.3163922   4.3095420   1.3838772  14.5525172   5.6357596   0.6936745
   9.1390300   2.8281406  22.3330134   8.8116455   3.1940226  23.1547040
   8.8694417   3.4591297  21.6656226  27.8101497   6.4106033   6.4894587
  28.7610799   6.3623283   6.3913101  27.6478797   7.2948025   6.8182319
  13.1184638  24.8873778  24.8420449  13.0497134  25.6021281  24.2090865
  13.4436524  24.1458317  24.3315621  25.0472029  16.2358095   0.8957538
  25.8864316  16.2754347   0.4371114  24.5141657  15.6404593   0.3688198
   8.2502815  10.3093743  20.5700848   8.2357833  10.3785586  21.5246711
   8.1794545  11.2133181  20.2633266  12.2550571   1.8181465   9.0738064
  11.8585253   2.5723384   9.5099103  12.7778685   2.1975038   8.3674169
  24.5343857   3.5637287   5.4867814  23.7436825   3.2322649   5.0611613
  25.1249843   3.7749676   4.7637294  19.7452876  25.3331252   5.2319529
  20.6307617  25.0231834   5.0419452  19.8743650  26.0965391   5.7947781
   3.3828208  17.2300065   5.0277549   3.4446880  16.2863326   5.1756889
   3.2385466  17.6000202   5.8986789   4.1872016  23.2396007  17.1163619
   3.2304565  23.2100725  17.1162283   4.4551841  22.3206806  17.1178102
   3.2910818   2.1733277  10.9329703   3.5559172   2.9707584  10.4744961
   2.3650975   2.3089221  11.1339690  29.2674539  26.0166570   0.0814694
  29.9339578  25.8223911  -0.5775196  29.5770881  26.8163153   0.5067938
  20.1376578   6.0039808   2.3149469  19.9345777   5.4059722   3.0342343
  21.0672853   5.8594348   2.1385052  15.7919481  21.7561833   5.0647185
  16.5224269  22.3146425   5.3307221  16.2018135  21.0420279   4.5766375
  12.0331571   8.5578352  10.2721334  12.4559638   9.3426836   9.9235934
  12.7447745   8.0624413  10.6776178  27.6809033   8.9607245  21.9005996
  27.4273497   9.4589055  21.1235744  28.3232057   9.5162696  22.3422367
  23.0207872   9.9139883  22.4428773  23.8205123   9.6436884  22.8941083
  23.0818439  10.8681967  22.3981810  13.6101815   1.8333259  17.2382238
  13.4613559   0.9564323  17.5919749  12.8398606   2.0073062  16.6973283
  15.4865065  24.4917585  13.6182201  15.8705023  25.0783207  14.2699265
  16.2392404  24.0862944  13.1878459  13.8065434  20.5437752   0.6433690
  13.5891569  21.3037439   1.1832091  12.9623222  20.1328131   0.4572667
  17.0691874  24.0086552  23.1840096  16.5126541  24.7870155  23.1583876
  17.0264187  23.6542960  22.2958470  21.1705261  22.3074794  -0.0527881
  21.8261963  21.7783213   0.4014351  21.1765629  23.1453943   0.4099133
  18.6850095   4.3120477   4.0668136  18.5509181   4.5204964   4.9913723
  18.9929950   3.4057501   4.0678531  23.4654331  23.9395738  23.0649497
  23.3813071  24.8561001  22.8020169  24.3310475  23.6786771  22.7505042
  14.8885867   8.3784050   5.3281597  14.6602103   7.8747410   6.1094479
  14.0463636   8.5952896   4.9283509  17.3185727  17.4498139  21.4207009
  16.6287706  17.8787539  20.9143279  17.6089666  18.1167791  22.0428447
  24.2884660  22.6562838   8.0502311  25.0262928  23.0791579   8.4895793
  23.9420915  22.0440386   8.6993972  25.3119662  11.6833931  17.1887086
  25.6058508  11.1472374  16.4522270  24.6582457  12.2717053  16.8108569
  18.4308394  10.2227521  15.2462492  18.0789479   9.5467967  15.8254645
  18.2893570  11.0420275  15.7205925  24.2450521  21.7598820   4.0239100
  24.8332116  21.1364841   4.4501404  24.8004386  22.2226858   3.3965401
   3.2797596  -0.0090173  12.7125267   2.3547456   0.1142218  12.9255776
   3.5768268   0.8548117  12.4265484  23.8830659  29.5966595   5.2011200
  23.9982888  29.2403982   4.3201919  24.6253965  30.1893971   5.3187509
   8.3573553  25.6861709  10.6851866   9.0494797  26.3161359  10.8860328
   7.5451109  26.1824779  10.7860448  10.9405148  10.0199654  13.6028673
  11.8040299  10.2189924  13.2409861  10.9555602  10.3999569  14.4812848
   9.8617360  23.4007321  11.7963538   9.2949292  24.0487872  11.3780413
   9.7188971  23.5274766  12.7343116  13.2685852   5.2082704  18.6888951
  13.1968689   4.4473598  19.2651814  13.9173830   4.9520014  18.0334443
  23.0060101  27.6300812   6.8709944  23.4080958  28.1677985   6.1887775
  23.5840917  27.7309084   7.6272271  15.9957993   4.4250681   2.9879934
  15.8094597   5.1772716   3.5498652  16.9122875   4.2141368   3.1662881
  26.1325431   6.1956431  12.9551913  26.0807776   5.6513264  13.7408569
  25.2305746   6.4743449  12.7970459   5.4089606  22.2807427  10.9927949
   5.8816314  22.1613856  10.1690396   5.3069741  23.2289191  11.0752019
   1.8145627   4.1394999  20.2251677   1.9515358   3.2496788  20.5502610
   2.0277865   4.0895369  19.2933564   9.7169166   5.5699503  26.3731229
   9.0519815   5.2766317  25.7501828  10.4837566   5.7605410  25.8328759
  18.0605972  20.0985169  17.8121348  17.2981739  20.1720977  18.3861800
  17.9728174  19.2358518  17.4067493  14.0499502  17.2312548   8.8867825
  13.5965830  17.5820972   8.1202334  13.8985639  16.2871029   8.8432711
  20.8155942  29.2169048  16.5802006  21.5037894  29.8821642  16.5731148
  20.5807853  29.1053822  15.6589751  19.7880610  21.6961904  21.5097332
  20.5040272  21.8057390  20.8839321  19.9578293  22.3527666  22.1852446
  18.3954239   6.1650518   0.0315541  18.6752331   5.5512098  -0.6475145
  19.0460944   6.0662273   0.7266062   7.4820855  29.5474764   1.1155115
   7.9343846  29.0650912   0.4234396   6.5641287  29.2917009   1.0251318
  21.6875323  14.7365763  19.3244080  21.3939389  14.5120432  20.2073674
  22.6179179  14.5117285  19.3169407   8.2104108  10.9738300  23.4985054
   7.5296781  10.4542301  23.9261154   9.0288946  10.6574104  23.8808588
  15.5714679  19.1989265  11.6235816  16.2829125  18.5899542  11.8216503
  16.0024107  19.9408195  11.1991835   1.4680280  16.1077265   0.2057715
   2.0807202  15.3776316   0.1174434   2.0065010  16.8889288   0.0792771
   4.0744108  27.2514250   4.2353179   3.6600870  27.9918434   4.6784308
   3.3834547  26.5918400   4.1739967  14.0032542  27.7396376  18.5644428
  13.3261633  27.0662812  18.6305610  14.6604645  27.4827589  19.2112247
  27.3358917  13.3601137  18.1945829  27.3143196  14.0015789  17.4844495
  26.8129826  12.6266619  17.8707818  10.8545873   9.9321169  24.0474133
  11.2691972   9.9589217  23.1850867  11.3730476   9.2980969  24.5428423
   4.4463775  28.3764698  21.9770267   4.6047041  28.7749722  22.8328111
   3.5183475  28.1423189  21.9898584  10.8876705  30.4560685   5.7959849
  10.7039177  29.5494866   6.0421079  10.5900991  30.5229449   4.8886749
  18.0339951  23.2122997   5.9237999  18.4219784  22.5156693   5.3942627
  18.4329123  24.0163616   5.5912536  23.3004656  13.8000069   1.6401477
  24.1730031  13.4224461   1.7513128  23.3314320  14.2266713   0.7838579
  13.6418430  13.2058142  14.8511072  13.2966796  12.8649292  15.6762667
  12.9985134  13.8579963  14.5735880  18.1671053  30.7868721   4.1370682
  17.8691011  30.1762917   4.8113207  17.9526191  30.3543236   3.3105473
  26.0206306  19.5454838  11.8818593  25.6029036  20.1256563  12.5183642
  25.5201918  18.7312796  11.9353855   1.5308147   5.9120228   2.0071290
   1.0918050   5.0645306   1.9345758   1.2602287   6.2496068   2.8609751
  17.4170730  11.0015541  23.0594162  18.3521793  10.8018166  23.0156855
  17.0411679  10.2793175  23.5627083   1.5516636  30.2586623  23.9365872
   0.6559083  30.1955958  23.6051186   1.9561574  29.4258495  23.6936005
  13.6703244  22.7334072  14.4987367  14.3911031  23.2361795  14.1193590
  13.3776059  23.2589008  15.2433215  14.8806614   2.9950378  24.5558808
  15.6273455   2.6276682  25.0288842  14.5733876   3.7108229  25.1121804
  16.4105651   1.0203688   1.7772596  16.3393304   1.9142024   1.4422685
  17.1715734   0.6553202   1.3257761  26.1590955  20.1387026   5.2039333
  26.7071006  20.8048727   5.6188293  26.2184045  19.3823053   5.7875200
   5.0888708  24.8263641  19.1105374   5.6164053  24.1414567  19.5214471
   4.8490861  24.4645782  18.2573994  15.6130791  14.9870684  13.1537473
  14.7285008  15.2254869  12.8764224  15.5159187  14.1181566  13.5433364
   4.0378985  28.4044669  16.1236978   3.3937970  27.7207730  16.3078928
   4.8417112  28.0950270  16.5412664  13.9099783  15.7691393  21.3051997
  14.3441529  15.2735267  20.6108705  13.7914843  15.1359914  22.0132361
   2.2521454  23.1306271  21.1665986   2.3329120  22.4116615  21.7933280
   2.9963260  23.7010006  21.3592131  19.5041966  26.8011763   8.8544681
  19.6670735  27.0324947   7.9400327  20.2579045  26.2665798   9.1041948
   7.1867630   0.0369412   8.9624697   8.1186053   0.1416165   8.7702638
   6.7537663   0.6884152   8.4108114  25.7818503  11.0757118   6.8643308
  26.3198847  11.0454422   6.0732329  26.2642283  11.6487652   7.4602795
  18.7367213   3.0359575  20.2322129  18.5737658   3.8768905  19.8050026
  19.5369518   2.7094114  19.8208360   7.4830681   8.7157514   0.9252360
   7.2196060   8.9456369   0.0341847   8.4008795   8.4563424   0.8442309
  13.3058744  17.3991561  11.6848512  14.0729099  17.9552054  11.8216081
  13.1894308  17.3811114  10.7349296  20.5244613   8.8638733  12.6089678
  20.8034587   8.6012338  13.4861300  20.8789921   8.1871841  12.0322237
   7.3421470   7.0630455  18.5427566   7.9577056   6.3312048  18.5843321
   7.8341571   7.7660525  18.1185694  15.9190038   3.4806921  20.6595703
  16.7824736   3.3322026  21.0450597  15.5286482   2.6085188  20.6032558
   1.0344860  12.7892013   9.3395251   1.9133684  12.5219770   9.0704769
   1.1747024  13.5721394   9.8720467  13.4435707  10.3423212   9.0622850
  14.2314392  10.3603385   9.6055790  13.5851579  11.0304473   8.4121557
   9.1998595  25.0169679   2.3754971   9.6333951  24.4178720   2.9832485
   9.9175215  25.4719087   1.9347923  27.4130231  18.0400634  -0.0981520
  27.6900461  18.2072699   0.8026983  26.5472120  18.4433270  -0.1612494
  19.9199939   1.9607407   3.9704273  19.3258548   1.2144619   4.0498278
  20.2303362   1.9246060   3.0656550  17.5056264  17.0197966   1.7925976
  16.6789481  17.4968721   1.7202351  17.4587581  16.5873625   2.6452587
  17.8358102  14.6239464  21.8293255  18.2180345  14.8920433  22.6649493
  17.5473392  15.4419414  21.4244765  15.0670016   1.8687556  14.6021197
  14.7086823   1.1107157  14.1403709  14.5293343   1.9452117  15.3903458
   0.0575826   2.8911140   7.3105743   0.3188727   3.8118746   7.3232462
   0.0948856   2.6189162   8.2274964  27.1689893   8.3444001   8.0285742
  26.2398818   8.5649588   8.0944874  27.6111939   9.1900446   7.9539182
   6.5538353  13.3569141  16.5691688   5.7804007  13.8991686  16.4142682
   7.0427889  13.8248869  17.2460391  16.1541933  13.3357286  24.1693797
  16.4959330  13.9310288  24.8365101  16.9293446  12.8934705  23.8232900
   2.2985049   1.3286446  20.4597139   3.0240417   1.5342782  19.8701859
   2.2432216   0.3731225  20.4472661  12.4642864  12.4550251   3.5820861
  13.3438316  12.7882151   3.7598892  12.2098937  12.8765444   2.7612062
  21.3063905  13.4352779  22.4365594  22.0727012  13.4497023  23.0099656
  20.6351850  13.9152622  22.9216697  10.4127643  17.7598429   2.6543288
  10.8583638  18.3954179   2.0942215   9.5152352  17.7359629   2.3225169
  29.3444252  30.8442970  13.0614116  29.9006200  31.5259858  13.4384777
  29.3137717  30.1620265  13.7320831   5.8151296  22.2740841   1.2424560
   6.2988451  21.7199755   1.8550058   5.8165720  23.1400180   1.6503616
  10.0159681  20.7956884  18.9022472  10.6202376  20.1410399  19.2522838
   9.7826886  20.4664574  18.0342509  21.4818144  27.9618027  23.8992401
  21.6515779  27.5580360  23.0481334  21.8487859  27.3462727  24.5338150
  15.6032207  10.6303108  10.9915590  16.4787391  11.0143411  10.9444380
  15.6338015  10.0576413  11.7579436  17.5820246  21.1978382  11.1971955
  17.4711731  21.8810982  11.8583302  17.6549354  21.6743225  10.3702216
   1.8370522  26.9078084  16.7390524   1.6911305  26.2838789  16.0279642
   0.9599389  27.2062345  16.9795976  11.6975510   3.4361341  20.2995014
  11.1364341   2.7475454  19.9428177  12.0467055   3.0648639  21.1097360
  17.2795382  28.2097050  26.0570173  17.7571872  28.8854881  25.5759781
  16.4664915  28.0949374  25.5650657  17.3243201  22.6211304  20.7284311
  18.1561863  22.4905914  21.1836118  17.1242571  21.7670101  20.3454343
  22.7306994  27.3881082   1.0994174  22.3825081  28.2147769   0.7653310
  23.1251343  27.6170243   1.9409921   6.9133276  18.1756139  12.9614923
   6.8574232  19.1213417  12.8247259   7.4323696  18.0793476  13.7599657
   5.3182740  20.2430910   5.7830232   5.4322619  19.7508377   6.5959954
   6.0042853  20.9101433   5.8087295  19.8138681  14.9126198  24.5892616
  19.4002798  15.7140734  24.9099608  20.7447055  15.0313332  24.7781511
  21.0756395   3.9965655  18.5659671  21.6819904   4.6358683  18.9399421
  21.6369245   3.2828834  18.2629001  12.9163448   1.4501003   6.0259849
  12.4571792   0.6541733   6.2941391  13.7351695   1.1364321   5.6421024
   3.8614067  13.7642578  22.1442656   4.7170171  14.0477757  21.8221144
   3.5597476  13.1285910  21.4952902  24.6518308   9.0543167   8.1881042
  24.8034832   9.8522274   7.6815696  24.1573158   9.3469612   8.9536424
  13.7063416  13.9593516  23.1675841  13.3388384  13.1721864  22.7656581
  14.5873316  13.7010096  23.4384133  17.9037854  27.0311113  14.3506348
  18.0879924  26.6330810  13.4998298  17.9336116  27.9735180  14.1856706
   0.3858577  20.0630951  10.3719451   0.0922880  20.3718400  11.2291076
  -0.4000158  19.6952319   9.9678280  20.7437148  11.2816908  21.0605236
  20.6929645  12.0268013  21.6592379  20.8622887  10.5229523  21.6319175
   4.8465702  14.9186349  18.9984872   5.1648066  15.2648568  19.8322084
   4.2135045  14.2443800  19.2451503  19.9813885   0.5943211  23.2196994
  20.1076454   0.3178509  22.3120328  19.4960303   1.4167412  23.1542631
  25.2142040  21.4376569  23.2752015  25.5767147  20.5928898  23.0083921
  24.2876522  21.2602711  23.4372260  25.8052632  10.5997509  14.2715315
  26.7197051  10.5635589  13.9909653  25.4499414  11.3717026  13.8309960
  29.1527414  30.5238918   4.8049017  28.8019363  31.3713364   5.0787683
  29.1152196  29.9829105   5.5936762  19.2632514  13.1979563   6.8744755
  19.2259842  13.0030872   5.9380627  18.6785513  13.9474823   6.9865954
  17.7661035  -0.0937245  16.6515138  17.4244640   0.2126219  17.4915530
  18.4707496   0.5191924  16.4416577  28.1527215  12.4627682   8.2020342
  28.8303524  12.6049086   8.8629776  28.6286336  12.1407791   7.4364871
  22.8292558   5.0381664   0.3647067  23.0331514   5.7655481  -0.2231453
  23.6837146   4.7043852   0.6380632  28.3856988  16.3052738  17.7450422
  28.2046366  17.0386899  17.1572075  29.0228462  15.7704425  17.2715131
  11.5923640   3.1027791  24.9196048  11.5851686   2.9071963  25.8565827
  11.0976884   2.3864540  24.5216008   7.4975896  16.2479347   2.3391654
   7.7587295  15.3333658   2.2314741   7.2723413  16.3251299   3.2662775
   0.8800557   5.3618433  17.6803676   0.1233938   4.8234226  17.9123107
   1.6340020   4.7896959  17.8233615   7.3711771   3.3407329  15.9977128
   7.5496764   2.4321816  15.7550122   7.2390456   3.3139656  16.9453695
   4.5271224  15.2163984  15.8314979   4.3196180  15.8368065  16.5302575
   3.7734252  14.6270325  15.8028638  13.2400241  18.9410110  17.2729375
  13.4773388  18.7715670  16.3612344  13.2549897  19.8949047  17.3510148
   9.0972718  26.7095865  13.7370225   9.2015418  25.7581327  13.7467738
   8.1687077  26.8506743  13.9216657  26.2248778   4.4473264  15.0533281
  25.4825148   3.8543046  15.1693175  26.2740525   4.9333674  15.8764789
  17.5939984  29.6302066  14.2138207  17.2381586  30.3853786  13.7454998
  17.5668806  29.8856701  15.1359022  25.8593774   0.6665494   8.5155582
  26.7358613   0.8461191   8.8557959  25.4096580   1.5106132   8.5547715
  11.1053085  21.6763973  14.4387631  10.8835375  21.5289259  13.5193638
  12.0357060  21.9010520  14.4276623  22.4210116   9.4352963  17.1047318
  22.6091262   9.4632914  18.0428481  23.2327303   9.1204454  16.7069733
  26.8775564   9.1458660   3.0001795  26.7984149   9.9078906   2.4263442
  27.6554513   9.3238628   3.5287893   6.3250735   8.8305400  24.3839160
   5.6011894   9.3444107  24.0259258   5.9155157   8.0221127  24.6920434
  13.7548139   9.5615866  16.5520400  13.9869955   8.6466624  16.3931626
  14.5275500   9.9345972  16.9762724  13.8142342   4.8797399  13.0551575
  13.5888571   5.0355422  13.9723072  12.9718155   4.7452268  12.6210258
  10.5584436  13.5023596   5.5580709  10.6863600  14.3777992   5.1927374
  10.8401447  12.9088165   4.8619483  21.5238627   4.6221718   9.1410506
  21.5059908   5.5348349   9.4290793  22.1018370   4.6230835   8.3780540
  16.7955449   3.1921917   6.4821565  16.2254300   2.9541641   7.2132808
  16.9545236   4.1290146   6.5975511  28.7118059  27.6651669  23.0827526
  28.0158048  27.0088148  23.0509667  28.3033210  28.4638023  22.7487521
   7.9847389  25.0223871   5.7443341   8.1089073  24.7936865   6.6654786
   8.7078338  24.5894953   5.2904996  14.6054831  14.0880398   0.4721078
  15.2920070  14.7242550   0.2717408  14.5712319  13.5218290  -0.2989093
   0.9665576  10.1408575   9.6335953   0.5371467   9.8601053  10.4416913
   0.7752696  11.0768173   9.5734185   9.7010273   5.4857304  12.2215982
   9.3145603   6.2959744  11.8893667   9.1784663   5.2702786  12.9940887
  12.4136153  29.9891257  24.1123885  12.1518805  29.5924282  24.9432677
  12.0632377  30.8790565  24.1509837   3.4333446  18.0764592   0.1666723
   3.8408139  18.4330463  -0.6226648   4.1699055  17.8356469   0.7285581
   3.5568586  16.7218492   8.0165529   3.2881176  17.4573074   8.5671079
   3.1936058  15.9510110   8.4525448  24.0859601   7.0509628  24.9340125
  24.6101091   7.7388529  24.5237656  24.6877143   6.3118223  25.0223036
  23.5657549  25.1545302  11.6113911  23.1468725  24.3018220  11.7282639
  22.8505683  25.7408838  11.3645444  24.7238546  15.3605034  12.6559424
  24.2864972  15.6185581  11.8445492  25.6568366  15.4632761  12.4682868
  22.7193636   2.8370005  22.7236314  22.5160593   2.0773907  22.1778365
  23.0760950   2.4640879  23.5298033  12.7459776   2.4757585  22.5355079
  13.6787927   2.3671699  22.7207067  12.4419868   3.0997643  23.1946304
  27.1306038   5.9321882  10.1614795  27.2019458   5.7399632   9.2264972
  27.4032497   5.1229074  10.5938683   8.6512401  10.9853603   2.2534994
   9.4582560  11.1168434   1.7558293   8.3125475  10.1456167   1.9430880
   0.9235472  24.7312595   6.5928560   1.6244835  24.6724846   7.2420567
   0.1469893  24.4067099   7.0487726   4.4794229   5.5360125   5.9174303
   5.1533735   5.0238536   6.3643269   4.4400251   5.1632736   5.0366644
  24.0210340  29.2453123   9.5854485  24.5430085  29.4394457   8.8069332
  24.0660140  30.0450387  10.1095152  14.0664401   7.4459316  11.2901016
  14.3175378   6.6143753  11.6922184  14.7503450   7.6147558  10.6420274
  27.9141614  29.5126581  21.1439035  28.3565757  29.8637891  20.3711120
  27.2435186  30.1631165  21.3521785   7.3778065  24.7395042   8.2652422
   6.4243325  24.7585587   8.3474537   7.6969536  25.0907806   9.0964981
  12.7804372  11.4224064  11.8086143  13.4951350  10.9049869  12.1797081
  13.0259416  12.3307204  11.9844671   7.5925386  13.5252955   1.9770505
   7.8938425  12.6344111   2.1552827   6.9109362  13.6828186   2.6303770
   4.4981453  21.5690710  21.8567705   5.2100295  22.1857693  21.6860771
   4.1328627  21.3797619  20.9924984  19.9842445  16.2428558   4.1554451
  20.1530258  17.1635604   4.3555674  19.0311996  16.1609733   4.1903502
   5.9490723   5.3341909  14.9995544   6.4786810   4.6483084  15.4061391
   6.5884060   5.9385820  14.6224715  14.4875330  11.9186594   7.0593140
  15.2906460  11.4038183   6.9807432  14.7120566  12.7711250   6.6863141
  24.1667095  22.9401161  18.1619892  24.1705176  23.8722183  18.3797125
  25.0542754  22.6435282  18.3632169   0.0633332  21.2858723   6.1519621
  -0.0708726  20.3725324   6.4050052   0.9969685  21.4397357   6.2964676
   4.8797184   5.7062437  18.3535199   4.5602709   5.9410121  17.4822764
   5.7145649   6.1673905  18.4348254  11.7598337  14.2456899   8.7320838
  11.6761393  13.3344124   8.4513698  12.6579279  14.3150399   9.0558932
   3.9858392  20.8391428  19.2786191   4.6012399  20.3017592  18.7798879
   3.1220227  20.5378819  18.9970265  16.1897937   7.6804564   9.6159774
  17.0470516   7.3402236   9.8720771  16.1902038   8.5868786   9.9235946
  24.6348706  12.5651371  12.8961273  24.7345459  12.3761749  11.9630714
  24.7074789  13.5176551  12.9566880   2.9109947  21.3018537  24.4616699
   3.7528125  21.5462112  24.0771286   3.0469123  21.3812232  25.4058408
  11.4665601  20.9675217  25.0184274  11.4177415  20.9082317  24.0643144
  11.1567924  21.8505692  25.2196884  17.9116621  12.5673964  10.4740624
  18.1389597  12.3073818  11.3667874  18.7541082  12.6536753  10.0278859
  26.1207371  23.3337116  14.5448704  26.0559231  24.0630555  13.9283558
  27.0460706  23.3074546  14.7883936   3.9912499  25.0132944   1.0771964
   3.8580979  24.5997812   0.2242563   3.4680642  24.4877674   1.6824434
  11.0953707  15.9507547  21.3674092  10.6385607  15.2083824  21.7629385
  12.0238966  15.7554660  21.4936256  11.1247068  20.0987077   1.3328699
  10.8962970  20.8243513   1.9138197  10.8979374  20.4122972   0.4573874
  25.2339422  28.1011108  25.8573510  24.3558147  27.7893452  26.0762608
  25.6779986  27.3332028  25.4976794  27.8818613  20.8016489  16.9224552
  27.6020294  21.2774841  17.7044443  28.7152606  21.2060920  16.6814093
  21.5950852  30.6269695   6.3220680  21.9515448  31.3803722   6.7927647
  22.3575240  30.2173473   5.9132540   2.3179748  25.5149237  12.5924361
   1.9354298  24.6458844  12.4713552   1.6329315  26.0191170  13.0314541
  28.6142630  17.9824547  23.2863041  28.1795782  17.9375938  24.1379328
  29.4865794  18.3253960  23.4804054  28.4536738  10.0169231  12.8579738
  29.1542143   9.4004252  13.0710604  28.1268400   9.7234489  12.0075109
   1.8846056  19.4885345  18.0409403   1.0907218  19.0021845  18.2632919
   1.7633268  19.7392078  17.1251412  12.1602213   1.5575653  12.6137483
  12.2375345   1.6801506  11.6675830  12.8161430   0.8927399  12.8235221
  28.4943205  21.8517590   3.3626917  29.4437986  21.9725895   3.3738169
  28.2634717  21.6842556   4.2764109  27.0766139  15.3033688  11.8374777
  26.9527507  14.9165155  10.9707391  27.5963640  14.6575119  12.3159766
  27.2271975  22.0547628   6.8823960  27.2461661  23.0015254   7.0220949
  28.1332978  21.8248200   6.6766264  24.5487049   3.1639162   9.7524107
  23.8636181   3.5477862  10.2997053  25.0862181   3.9089930   9.4837612
  25.2023933  18.7987616   8.4792131  24.2817304  19.0238382   8.3452386
  25.3103778  18.7879612   9.4302416  16.8386465  15.4740012  25.5993696
  16.2413460  16.1623263  25.3066726  17.3643976  15.8881533  26.2836905
  25.3451151   3.9901326   1.1032421  25.5427927   3.3097218   1.7468196
  26.1770815   4.4450424   0.9724170   5.9270475  19.5943856  17.7577418
   6.2341211  18.6877930  17.7629298   5.6182978  19.7375703  16.8630856
  20.5692029   1.6251705   0.9765955  20.3273869   2.3222564   0.3668209
  21.5256262   1.6521738   1.0041567  -0.0962647  29.9058414   7.4856879
  -0.4901894  29.4631195   8.2373836   0.6611530  30.3653097   7.8482320
  13.8917443  21.8586018  18.2518182  13.3987186  22.0335009  19.0534232
  13.8864181  22.6918461  17.7807418  12.3208833  17.9296408  24.7338728
  12.1529984  18.8719986  24.7366337  11.4514458  17.5315891  24.6906952
   9.1386795  20.8306267  16.1013997   9.6335340  21.2397959  15.3915191
   8.8796973  19.9778273  15.7522714   1.4561942   5.4510091   6.4864860
   2.3677948   5.2614162   6.2645219   1.4280608   5.4060553   7.4422155
   5.4808956   3.8579121  20.8263298   4.8605495   4.2155430  20.1911088
   6.2774854   4.3732521  20.6994506   9.7065964  29.9523565   3.3016638
  10.1690128  29.1571705   3.0369334   9.8393145  30.5600568   2.5741247
  24.5500406   4.3251535  21.2520222  25.4822120   4.1709766  21.4053778
  24.1066077   3.7629715  21.8872790  17.5537300   2.5486110  23.3412429
  17.8930354   3.3431957  23.7532373  16.6022599   2.6403163  23.3915134
  26.8474999  30.1909447  11.5629246  27.7383530  30.5184293  11.6868879
  26.9512614  29.2439842  11.4694860  27.5088048   8.6286217  10.8814027
  26.9016051   8.8978439  10.1921608  27.4858284   7.6719242  10.8605721
  10.9827420  28.5645532  17.0915916  10.0958011  28.2106427  17.0259311
  11.5449998  27.8649915  16.7588594  12.7894080   7.6885992  19.9937497
  13.0807006   6.9168890  19.5081119  12.0054340   7.3969215  20.4590879
  28.0664107   7.3984492  16.0891855  27.2706649   7.4249393  15.5578506
  28.7805793   7.4377328  15.4530609  12.9094216  16.4290665   2.8085188
  12.8942487  15.4733525   2.8596310  11.9888780  16.6793595   2.7298645
  27.5573691  14.3555665  15.1232527  28.4043082  14.6049976  15.4929993
  27.7761515  13.8910151  14.3154428   7.1051643  27.0631887  22.9316712
   7.5857708  27.1803524  22.1122075   6.4776752  27.7858641  22.9467521
   1.1119607  25.8619213   3.9337316   1.5929273  25.1332355   3.5414052
   0.9963134  25.6073308   4.8491776  27.5381896  18.2260046  16.1289245
  27.6916263  19.1220150  16.4286739  26.5906856  18.1091795  16.1982948
  16.9334894  11.7718840   3.2094474  17.5882774  12.0036876   3.8680502
  17.4220043  11.7399073   2.3869129  13.0340001  30.4008971  18.0138709
  13.4677455  29.6375387  18.3951595  12.2294280  30.0523094  17.6299693
  19.8749450  22.3835949  18.1039762  19.2412618  21.6681580  18.0507815
  20.6932452  22.0029644  17.7850127  17.3517081   7.9051501  16.9307925
  17.3971173   8.4259224  17.7326419  17.4038264   6.9978106  17.2312095
  10.4765987   0.7591889  24.0171170  10.1625252   1.4496389  23.4332774
   9.6907479   0.2625667  24.2452326   7.3202605   7.5150035  22.1626763
   6.9364542   7.6725338  23.0252890   6.6432852   7.7917765  21.5451483
  19.5236731  12.4104714   4.2539433  19.6108353  11.5121782   3.9350343
  20.3009772  12.8592110   3.9212853  27.9859206   6.3335232  22.2977521
  27.8718612   7.2839026  22.2963216  28.3615443   6.1360792  21.4397552
  10.2384753   3.3398030  16.5283519  10.8070702   2.6415275  16.2037879
   9.3809265   3.1457088  16.1499721  24.8622319  30.5326819  23.9756398
  24.2079160  31.1744976  24.2516331  24.5132348  29.6921539  24.2721896
   8.6156646  24.9503376  18.9141299   8.9097492  24.3611290  18.2194497
   7.8133193  25.3436281  18.5709216  26.1407757   5.6061679  24.0044137
  26.4533687   6.1063337  24.7583051  26.7998052   5.7572085  23.3268448
  23.5690370  28.5849907  18.4627776  23.3976039  29.3024494  17.8527836
  24.5230177  28.5550215  18.5352663  25.5363077   2.8774496  12.4705319
  25.6583399   3.3590837  13.2886795  24.5921988   2.9046198  12.3151306
  13.4663015  24.1962834  16.7872155  12.9382473  24.9936934  16.7481518
  14.3566471  24.5064708  16.9524407   1.7576308   3.4279493   4.3195512
   1.2026066   3.9436869   4.9045255   1.1664099   2.7780394   3.9396717
  18.9323754   1.1789373   7.4838215  18.2824749   1.8338207   7.2288859
  19.3584723   0.9321693   6.6629803  22.7798062   5.1579140   6.7824596
  23.7334996   5.0862167   6.7429447  22.5195580   5.3857086   5.8899283
  14.6447766   7.3151181  25.0682483  15.1249385   7.3413704  24.2406095
  15.2946770   7.5521515  25.7298192  17.5053697  22.5284624   8.7001064
  16.8437820  23.1792092   8.9347651  17.5685030  22.5841713   7.7466180
   9.9933141  18.0365509   8.5174292  10.9180927  17.9789776   8.7576383
   9.5370483  17.5478977   9.2024636  29.6116167  10.9646942  19.7314553
  28.6548739  10.9366991  19.7218136  29.8796731  10.1036646  19.4105009
  25.8232215   0.4670902   5.4346319  25.2599266   1.0087534   5.9873863
  26.7134446   0.7170578   5.6821247  22.3617789  19.4067383  20.1715446
  21.9189712  19.1638505  20.9846616  22.3920741  20.3632450  20.1918101
  18.0768726   6.9302537  20.7378946  17.9590699   6.5316798  19.8756335
  18.1050441   7.8712775  20.5649475   4.5108467  24.9079376  14.7918467
   4.0803009  24.3849426  15.4681162   3.8896709  24.9160248  14.0636257
   9.8883507   6.6726877   9.4993556  10.2253172   6.8664052  10.3740895
  10.6001756   6.9186832   8.9085752  22.4517626   0.8772140  20.7431817
  22.3007387   1.2168983  19.8611152  22.0831198  -0.0059874  20.7260871
  15.4712627  19.1534905  23.4258201  15.4005382  18.3582501  23.9538600
  15.7958123  19.8171047  24.0345218   0.4392990  30.8163445  10.4025988
   0.3103157  30.8773317  11.3491062   0.7821955  29.9334839  10.2639965
  10.1876113  12.0427297  10.6881241  10.5902526  11.5204726  11.3819222
  10.8416650  12.0577262   9.9893956  21.1862245  24.9705515   0.8173088
  20.2655628  25.0459139   1.0681756  21.5706619  25.8125011   1.0613602
   7.3655370  17.4296234   7.0382077   8.2958916  17.4450479   7.2627795
   6.9164398  17.3738144   7.8816712  21.7950365   7.3507027  10.8208561
  22.2647145   8.1254391  10.5119598  22.4836275   6.7149691  11.0155845
   4.6439118   0.5343354  25.0906014   4.6788449   1.2373053  25.7393265
   4.9193425   0.9490009  24.2730308   8.6872041  24.2722273  23.2361082
   8.1323612  25.0132418  22.9926396   9.1146797  24.0145612  22.4193437
   6.6944551  25.4232210  25.6006068   7.2366560  24.8470158  25.0618714
   5.8182430  25.0407976  25.5533379  11.2698600  27.1484828  24.9867357
  11.8901345  27.0362234  25.7070746  10.7677457  27.9285955  25.2223982
  27.0129972  13.2124664  20.9594752  27.0827370  13.2773974  20.0070312
  27.3746114  14.0376045  21.2829139  19.8267889  30.1856033  12.5718510
  19.1290164  29.9325832  11.9674289  19.3965626  30.2396459  13.4252071
  24.3870112   3.6819652  17.9617282  24.9891796   3.2633165  18.5768386
  24.6922287   4.5875198  17.9065462  22.0461302   8.6718724   0.7506988
  22.6641207   9.3196891   0.4120944  22.5901967   8.0545733   1.2397454
   0.7264235   1.1058237   2.9707819   1.2511256   0.5949499   2.3544011
   0.4169681   0.4647209   3.6106682   7.9367044   4.1592481  24.4123002
   7.9280570   3.5060169  25.1119037   7.0273807   4.4506051  24.3454047
   9.8288432  13.1666134  20.0543378  10.7449630  12.9546211  19.8754076
   9.7997942  13.3263300  20.9976713  20.9780571  29.4659954   9.7301058
  20.9354064  30.3944546   9.9589733  21.6993764  29.4066197   9.1036801
   2.4557691  12.5898562  24.0366435   1.6521650  12.5126503  23.5223556
   3.0423361  13.1103251  23.4877491  -0.1409815   1.0303976  16.5287642
   0.0911047   1.9211032  16.2660603   0.4423511   0.4700543  16.0169319
  24.6232190  28.4449005   2.8116796  24.8745307  29.1378284   2.2010062
  25.4302075  27.9518795   2.9597757  27.6747990  24.6173736   7.8751669
  27.3040009  24.4998260   8.7497661  27.0826626  25.2341958   7.4448929
   8.0976865   7.1574118   3.2371308   8.8748142   7.6755216   3.4465816
   7.9147527   7.3601796   2.3197152  17.4284270   9.6061967  19.0763376
  16.7656186  10.2769993  19.2404721  18.2546070  10.0885318  19.0445695
  14.2433211  21.7279724  22.4043348  15.0688216  21.4166264  22.0330646
  14.1391847  21.2250141  23.2120635  18.5421273  30.9826721   0.8794108
  19.3292138  31.4736150   1.1154243  18.7681625  30.5488378   0.0566545
  28.0669877  15.1354454  22.7446856  28.7369296  15.2329979  23.4213652
  28.1827972  15.9003172  22.1809591   6.1776360  15.4667755  21.3056543
   5.6740101  16.2453600  21.5431382   6.6982850  15.2714535  22.0847633
  16.6146388   6.4996984  23.0766654  17.2140446   6.7422368  22.3708892
  15.8422139   6.1563947  22.6275158   1.9974902  30.4321310  16.0692614
   2.1563127  30.0691729  16.9406193   2.5578740  29.9165725  15.4892605
  12.1296692  26.6605330  15.5001163  12.7807462  27.2307563  15.0912464
  11.6884339  26.2350988  14.7648954  27.3292491  16.4719617  20.1052046
  26.4395425  16.2818432  19.8076940  27.8406093  16.5457678  19.2994153
  24.4162923   9.7422123   4.0837032  25.2235227   9.5766407   3.5966808
  23.7749367   9.9748808   3.4123165  28.2636160  29.2068601  25.5886908
  29.0380186  28.6566257  25.7060571  27.5289339  28.5935879  25.6077810
  12.4091029  10.0408365   2.1934249  13.2503164  10.2381660   1.7815377
  12.0711911  10.8931973   2.4682572   7.0309108  22.2427795  17.4346096
   6.4544624  21.6222231  17.8805381   7.6308250  21.6928528  16.9307167
   0.2285547   3.6753106   1.6121296   0.0682729   3.2269448   0.7817606
   0.2764925   2.9714337   2.2590355  12.2770068  25.0467000  10.3866961
  12.1249816  25.2297811  11.3138439  11.7481038  25.6968502   9.9243142
  29.3553742  26.4681669  13.5045882  29.0741929  26.8806406  12.6878663
  28.8754614  26.9370075  14.1873022  23.8349387  17.0534042   4.5290878
  23.2462785  17.8004316   4.6370699  23.7570521  16.5665392   5.3495338
  10.5663228  21.1332369  22.3201561  10.9646809  20.5668426  21.6592932
  10.1609290  21.8396378  21.8172789   5.4282043   7.8285416  10.9615400
   4.7170350   8.4182270  10.7110526   4.9967620   6.9907482  11.1294152
  10.5650499  24.0313532  25.3745866  11.2304273  24.6775343  25.1380444
   9.9808374  24.0007879  24.6169615   0.7672951   5.9590622   9.0682524
   0.7189891   5.5645748   9.9390429   0.6200406   6.8926569   9.2197388
  24.2658925   0.4021313  11.3923593  24.5056701   1.2131288  10.9440036
  25.0778866  -0.1038025  11.4227958  12.0317226  11.9029415  16.8730233
  11.1392742  11.6310823  16.6588686  12.5448280  11.0960555  16.8295870
  14.7949424  13.7660698   3.3678005  14.8545649  14.0065245   2.4432156
  15.3748920  13.0097393   3.4564612   5.5214092   1.8776228  22.7794285
   5.2580306   2.6066258  22.2178074   6.3586447   1.5869929  22.4177619
   9.8840672  23.2748362  20.7359739   9.5917976  24.0964766  20.3413673
   9.8917627  22.6502200  20.0106974  24.0207863  18.1583406  12.7466635
  24.1402459  17.3625137  13.2649521  23.1249237  18.4362461  12.9375271
  25.5260015   0.4880477  21.5711999  24.8287010   1.0468619  21.2280798
  25.1574802   0.1074484  22.3684263   4.8414093  17.9035236  21.5275458
   3.9039236  17.8284170  21.3494668   4.8935562  18.0762150  22.4675936
  15.8761433  20.4255915  19.6658568  15.2027860  19.9907863  20.1890830
  15.3982118  20.8064961  18.9291571  17.9511926  12.3502829  16.8988405
  18.3033273  12.2127392  17.7782241  18.4504554  13.0905869  16.5540032
   0.5679212  22.6057492   9.1994806   0.2618408  21.7782448   9.5706745
   0.9632847  22.3612289   8.3627458   8.0183021   8.0769783   6.8439384
   8.4394065   8.3404791   6.0257240   8.6676399   8.2695246   7.5203367
  26.2692195  26.6903927   4.6660636  26.1869603  25.7475044   4.8089884
  27.0291668  26.7800762   4.0910266  21.9665334  29.8877241   0.5861571
  22.0990369  30.2831366  -0.2754233  22.4362561  30.4640677   1.1889984
   2.1015363  19.9427722  15.0370761   1.4432913  20.6031678  15.2534624
   1.6587644  19.3547879  14.4251462  24.7731876  12.5750013  10.2393772
  25.5458450  13.0413099   9.9203350  24.0597749  12.8830524   9.6804692
  14.2642543  26.1387706   0.9071277  14.6103999  26.9606733   0.5594371
  13.9786479  25.6528354   0.1334808  11.5305903   5.7774874  22.3040129
  10.9476188   6.4637133  21.9792501  11.0965219   4.9596783  22.0610992
   2.2606036   5.4100231  25.4500993   2.0610377   5.6960062  26.3415127
   1.4472315   5.5510620  24.9655701  23.2694525  30.7403755  16.0534763
  23.9577669  30.1159167  15.8243501  22.9069704  31.0167909  15.2117908
  17.0397261  21.9609455   2.0360233  16.3723162  22.2945885   1.4364602
  17.4449661  22.7460770   2.4042179  27.7423864  28.0036736  15.2052067
  27.5595623  27.4958420  15.9957228  26.8784743  28.2327366  14.8625455
  12.6292720  28.9338497   3.2058666  12.8808143  29.2567638   4.0711329
  13.3153239  29.2560009   2.6212428   9.9460575  17.6774983  23.1338310
  10.5053565  16.9549326  22.8486800   9.1784451  17.6253466  22.5643754
   6.4744208  13.4509089   4.2804042   6.9857833  14.0070154   4.8681846
   6.4556882  12.5976994   4.7138879  15.0978151  18.2351945  14.8649146
  15.6672600  18.8311563  14.3782975  15.1616481  17.4045835  14.3934896
   5.2067516   2.5951430  13.3645537   5.1134131   2.9771826  12.4918773
   5.8693311   3.1366733  13.7934663   6.5251583  27.5205607  10.3188183
   6.2831587  28.2863853  10.8395674   7.0707220  27.8720353   9.6152141
  28.3634782  26.0756946  17.5656514  27.9059434  26.4656782  18.3105044
  28.9077330  25.3893209  17.9515366  19.8846838  18.1350996  19.2266794
  20.5768969  18.5543205  18.7154790  19.1946795  18.7961342  19.2829176
   4.2228407   6.3239696   2.1065148   4.1656727   5.7483723   2.8691777
   3.3324618   6.6551353   1.9891080  27.7037096  20.9342647  24.9848318
  27.6823044  20.0456429  25.3399754  26.8293667  21.0669398  24.6185637
  11.9699025   6.7735916  24.9303269  12.8211999   7.0334619  25.2824521
  12.1783829   6.2979198  24.1262722  25.5020055   9.0882967  23.4702496
  26.2730372   9.1391943  22.9053168  25.8518651   9.1497562  24.3590979
  11.0531211   3.5914161   6.2774086  11.4498293   4.1458704   5.6055200
  11.6526437   2.8498818   6.3606793   4.5041508  25.1852298   8.2163958
   4.3890137  26.1067843   7.9846386   4.2554468  25.1375246   9.1394905
  14.4058331  18.5693848  20.9945393  14.2184886  17.6307738  20.9825301
  14.7124346  18.7410510  21.8849087  19.3656802  14.8825870  17.6009013
  18.7802446  15.3161631  18.2217958  20.2195072  14.8871301  18.0335548
   1.8045992   7.5882365   4.7206831   2.3151917   8.1777217   5.2756917
   1.6462607   6.8199756   5.2692598  14.9889984  24.2582083  20.2045965
  15.6702879  23.6071444  20.3725004  14.2013243  23.7419605  20.0334525
  28.8064909   4.1798958  14.2737666  27.9971552   4.4352150  14.7165099
  29.3505359   4.9671251  14.2964832   9.8373344   1.3104345  19.6623351
  10.4886785   0.8147718  20.1586225   9.7234228   0.8126475  18.8527276
   8.7783042  21.8510487   0.9414127   7.8566925  21.9486000   1.1809017
   9.1117088  22.7474405   0.9019830   1.3575787  18.8600419  24.4855972
   1.4500088  18.4315703  25.3365369   1.7711920  19.7153912  24.6019431
   7.6598740  20.2218628  23.3927826   8.5486174  20.3235722  23.0521635
   7.2451925  19.5974982  22.7974371  22.5206336  21.0893013  23.9096954
  21.7717608  21.6767170  24.0114619  22.2129687  20.2482416  24.2476203
   8.3904916  19.0719390  25.8542039   8.7700772  19.8728442  26.2157228
   8.4215009  19.1990066  24.9059798   4.9198103  19.9235207  15.1829863
   3.9638555  19.9549919  15.1456726   5.1900661  19.7737080  14.2770338
   6.2405067   9.1279161   3.4434436   6.4893299   8.2057959   3.5067890
   6.3199955   9.3340063   2.5120781  24.0902087  26.5911265  21.5750456
  23.8335559  27.5118705  21.5241337  23.7382028  26.1998030  20.7755518
  15.1334655  18.5330290   1.7577952  14.9152458  19.3116945   1.2456482
  14.4446933  18.4814447   2.4204844  28.3547339  21.6684725  13.1731922
  27.6438859  21.6444780  12.5325996  27.9172709  21.5791180  14.0198738
  14.8634050  23.3490183   0.9239487  14.8395917  24.2769815   0.6904034
  14.2570016  23.2717802   1.6605238  26.6050717  14.9011219   6.5068513
  27.3349139  14.8039782   5.8951926  25.9540412  14.2674220   6.2054938
  28.0901646   1.0977013   1.3180169  28.5577614   1.1941309   0.4883867
  28.7694552   0.8618119   1.9498020  18.5070014  25.8091072   0.9582410
  18.3066607  25.7384304   1.8915686  18.0438757  26.5966991   0.6728327
  23.0432769  11.1709742  25.9878260  22.2344306  11.6555742  26.1526286
  23.1760409  11.2409739  25.0424662  18.4084120  30.4224396  20.6127576
  17.9426887  30.9492350  19.9632804  19.0098813  29.8843718  20.0980226
  14.5227125   1.1222746  20.2404122  14.4147029   0.4013469  20.8607535
  13.6360088   1.4562513  20.1045803  26.0305625  18.7416746  22.4346463
  25.7156816  17.8524162  22.2724683  26.9646367  18.6358358  22.6150233
  11.9659135  26.1893327  19.2304862  11.0592792  25.9322689  19.0626645
  11.9351718  26.6379581  20.0754833  26.0154271   0.5923106  14.2318726
  25.9386670   1.2332632  13.5251045  26.8714994   0.1864769  14.0952337
  27.0866442  11.5194037   1.6283469  27.6290107  12.0204546   2.2374586
  27.0127273  12.0804073   0.8563094  22.8647041  10.1241451  10.3754232
  23.4423590  10.5981594  10.9736369  21.9923639  10.4734474  10.5577658
   0.9237566  28.1181719  10.3801761   1.8587020  27.9489615  10.4962681
   0.5060844  27.2707321  10.5338989   6.1362898  17.9925809   1.0384971
   6.8219191  18.6240468   0.8207923   6.5982974  17.2802911   1.4805633
  16.1037535  21.2127010  24.8451211  16.8653387  21.7792366  24.9686601
  15.4707903  21.5171037  25.4954507   6.8167913  10.8732655   5.5003782
   6.3731515  10.2709724   4.9031683   7.7474391  10.6793167   5.3885265
  24.9113989  26.2919851  16.4008510  24.8578238  25.5429049  16.9943488
  24.1696405  26.1800309  15.8062994  10.3573129  30.3075963  11.9640410
   9.6089122  30.6595495  11.4821076  10.9595201  31.0472357  12.0447314
  11.8529475   7.6050800  14.8544194  11.2784457   8.1547052  14.3214156
  12.7115512   8.0233294  14.7903897  27.2484451  26.7739435  20.5869987
  26.3305455  26.8972178  20.3451373  27.5809651  27.6608606  20.7249906
  20.8175802  11.3645720  15.7866210  21.4542985  10.7526660  16.1559361
  20.0798106  10.8136678  15.5250185  22.1869842  21.7458224  16.8137139
  22.8921882  22.2102690  17.2644967  22.6280776  21.0371828  16.3452071
  19.9597592  17.8968668  10.6823373  20.5167288  18.4795785  11.1985362
  19.8938793  18.3232975   9.8279089  23.3642271  25.6463043  19.0286662
  23.2509586  26.3876430  18.4338405  22.4758377  25.3250114  19.1828277
   7.7466437  20.9803774  20.3431940   7.6254556  20.0546171  20.5541730
   8.5003326  20.9949257  19.7533011  22.4024677  24.9668145   6.6126587
  23.2909966  24.6456838   6.7663552  22.4774432  25.9189105   6.6768577
  16.8882203   9.0336994  13.0995391  17.7576315   9.2101530  13.4590111
  16.6038287   8.2340292  13.5421226   2.7719397  24.0014706   3.5988417
   2.2495503  23.2190023   3.4225285   3.3934016  23.7275771   4.2733771
  16.8114382   0.8879752  12.3242885  16.3863092   1.6689305  12.6786930
  16.4725023   0.8147842  11.4320976   3.0056968   3.4240202  17.6643066
   3.0858681   3.4699110  16.7115746   3.7138408   2.8403095  17.9364161
  22.7207947  22.6344826  12.0341505  22.6361108  21.9726660  11.3478102
  23.4611893  22.3375370  12.5631727  12.5973594   1.7638371   2.6059584
  12.6818693   1.9541572   3.5402350  12.4970686   2.6223705   2.1947531
  10.0315592   8.5684057   1.4840416  10.4467151   7.7437778   1.2313275
  10.5553720   8.8845344   2.2201876   1.2521217   8.5665939  13.6009123
   1.0091111   7.8717421  14.2127635   2.2072360   8.6059711  13.6502793
   5.0543740  25.0646778  11.0496259   4.2968705  25.5421182  11.3879645
   5.6994822  25.7449289  10.8564246  20.0582414  22.7739368  13.1952045
  20.8490854  22.9233722  12.6770673  20.3030854  23.0285976  14.0848289
   3.0419788  16.7863943  17.6046026   2.9309872  17.7065422  17.8438604
   3.6517987  16.4412405  18.2566905  14.6288645  28.0113508  25.0121685
  14.0740120  28.7833740  24.9010344  14.3674779  27.4243977  24.3026634
  13.7478492  11.0791790  25.4099105  14.1764352  10.3732860  25.8939158
  13.8814685  10.8538342  24.4892607  18.6347148  19.1383364   5.6915899
  17.8731105  19.2002060   5.1150795  19.1273830  19.9418547   5.5246492
   9.2418152  27.8996464   5.6039903   9.4944673  27.0056888   5.8347199
   8.8103109  27.8147169   4.7538016  27.9341978  13.6043642   3.0747553
  28.6783499  14.1931186   2.9488750  27.1885485  14.1876588   3.2161709
   6.9275612  22.3474308   5.1519763   6.9172663  23.0279036   4.4788617
   7.5166888  22.6862212   5.8260548   2.6319835  29.2068454  18.9246490
   2.6267573  28.2843419  19.1799762   3.5258052  29.4995399  19.1025474
  11.5146205  10.0738571  21.3342310  12.3944089   9.6984408  21.3698966
  11.6373441  10.9339760  20.9325222  29.1073852  10.0584316   7.3805696
  29.8463207  10.2188814   7.9674768  29.5073777   9.7244406   6.5776455
   2.6036793  29.1281110   5.4768592   1.8593605  29.5858834   5.8675796
   3.2208169  29.8239167   5.2505237
  29.6158126  31.0363815  26.1663363  90.0000000  90.0000000  90.0000000
