%VERSION  VERSION_STAMP = V0001.000  DATE = 01/10/26  07:05:05                  
%FLAG TITLE                                                                     
%FORMAT(20a4)                                                                   
ACE                                                                             
%FLAG POINTERS                                                                  
%FORMAT(10I8)                                                                   
      64       7      34      28      72      36     128      90       0       0
     304       8      28      36      90      11      21      14       8       0
       0       0       0       0       0       0       0       0      10       0
       0
%FLAG ATOM_NAME                                                                 
%FORMAT(20a4)                                                                   
H1  CH3 H2  H3  C   O   N   H   CA  HA  CB  HB1 HB2 HB3 C   O   N   H   CA  HA  
CB  HB1 HB2 HB3 C   O   N   H   C   H1  H2  H3  H1  CH3 H2  H3  C   O   N   H   
CA  HA  CB  HB1 HB2 HB3 C   O   N   H   CA  HA  CB  HB1 HB2 HB3 C   O   N   H   
C   H1  H2  H3  
%FLAG CHARGE                                                                    
%FORMAT(5E16.8)                                                                 
  2.04636429E+00 -6.67300626E+00  2.04636429E+00  2.04636429E+00  1.08823576E+01
 -1.03484442E+01 -7.57501011E+00  4.95464337E+00  6.14091510E-01  1.49969529E+00
 -3.32556975E+00  1.09880469E+00  1.09880469E+00  1.09880469E+00  1.08841798E+01
 -1.03484442E+01 -7.57501011E+00  4.95464337E+00  6.14091510E-01  1.49969529E+00
 -3.32556975E+00  1.09880469E+00  1.09880469E+00  1.09880469E+00  1.08841798E+01
 -1.03484442E+01 -7.57501011E+00  4.95464337E+00 -2.71512270E+00  1.77849648E+00
  1.77849648E+00  1.77849648E+00  2.04636429E+00 -6.67300626E+00  2.04636429E+00
  2.04636429E+00  1.08823576E+01 -1.03484442E+01 -7.57501011E+00  4.95464337E+00
  6.14091510E-01  1.49969529E+00 -3.32556975E+00  1.09880469E+00  1.09880469E+00
  1.09880469E+00  1.08841798E+01 -1.03484442E+01 -7.57501011E+00  4.95464337E+00
  6.14091510E-01  1.49969529E+00 -3.32556975E+00  1.09880469E+00  1.09880469E+00
  1.09880469E+00  1.08841798E+01 -1.03484442E+01 -7.57501011E+00  4.95464337E+00
 -2.71512270E+00  1.77849648E+00  1.77849648E+00  1.77849648E+00
%FLAG ATOMIC_NUMBER                                                             
%FORMAT(10I8)                                                                   
       1       6       1       1       6       8       7       1       6       1
       6       1       1       1       6       8       7       1       6       1
       6       1       1       1       6       8       7       1       6       1
       1       1       1       6       1       1       6       8       7       1
       6       1       6       1       1       1       6       8       7       1
       6       1       6       1       1       1       6       8       7       1
       6       1       1       1
%FLAG MASS                                                                      
%FORMAT(5E16.8)                                                                 
  1.00800000E+00  1.20100000E+01  1.00800000E+00  1.00800000E+00  1.20100000E+01
  1.60000000E+01  1.40100000E+01  1.00800000E+00  1.20100000E+01  1.00800000E+00
  1.20100000E+01  1.00800000E+00  1.00800000E+00  1.00800000E+00  1.20100000E+01
  1.60000000E+01  1.40100000E+01  1.00800000E+00  1.20100000E+01  1.00800000E+00
  1.20100000E+01  1.00800000E+00  1.00800000E+00  1.00800000E+00  1.20100000E+01
  1.60000000E+01  1.40100000E+01  1.00800000E+00  1.20100000E+01  1.00800000E+00
  1.00800000E+00  1.00800000E+00  1.00800000E+00  1.20100000E+01  1.00800000E+00
  1.00800000E+00  1.20100000E+01  1.60000000E+01  1.40100000E+01  1.00800000E+00
  1.20100000E+01  1.00800000E+00  1.20100000E+01  1.00800000E+00  1.00800000E+00
  1.00800000E+00  1.20100000E+01  1.60000000E+01  1.40100000E+01  1.00800000E+00
  1.20100000E+01  1.00800000E+00  1.20100000E+01  1.00800000E+00  1.00800000E+00
  1.00800000E+00  1.20100000E+01  1.60000000E+01  1.40100000E+01  1.00800000E+00
  1.20100000E+01  1.00800000E+00  1.00800000E+00  1.00800000E+00
%FLAG ATOM_TYPE_INDEX                                                           
%FORMAT(10I8)                                                                   
       1       2       1       1       3       4       5       6       2       7
       2       1       1       1       3       4       5       6       2       7
       2       1       1       1       3       4       5       6       2       7
       7       7       1       2       1       1       3       4       5       6
       2       7       2       1       1       1       3       4       5       6
       2       7       2       1       1       1       3       4       5       6
       2       7       7       7
%FLAG NUMBER_EXCLUDED_ATOMS                                                     
%FORMAT(10I8)                                                                   
       6       7       4       3       7       3      10       4      10       7
       6       3       2       1       7       3      10       4      10       7
       6       3       2       1       7       3       5       4       3       2
       1       1       6       7       4       3       7       3      10       4
      10       7       6       3       2       1       7       3      10       4
      10       7       6       3       2       1       7       3       5       4
       3       2       1       1
%FLAG NONBONDED_PARM_INDEX                                                      
%FORMAT(10I8)                                                                   
       1       2       4       7      11      16      22       2       3       5
       8      12      17      23       4       5       6       9      13      18
      24       7       8       9      10      14      19      25      11      12
      13      14      15      20      26      16      17      18      19      20
      21      27      22      23      24      25      26      27      28
%FLAG RESIDUE_LABEL                                                             
%FORMAT(20a4)                                                                   
ACE ALA ALA NME ACE ALA ALA NME 
%FLAG RESIDUE_POINTER                                                           
%FORMAT(10I8)                                                                   
       1       7      17      27      33      39      49      59
%FLAG BOND_FORCE_CONSTANT                                                       
%FORMAT(5E16.8)                                                                 
  4.34000000E+02  3.37000000E+02  3.40000000E+02  3.37000000E+02  3.40000000E+02
  3.10000000E+02  3.40000000E+02  3.17000000E+02  4.90000000E+02  5.70000000E+02
  3.17000000E+02
%FLAG BOND_EQUIL_VALUE                                                          
%FORMAT(5E16.8)                                                                 
  1.01000000E+00  1.44900000E+00  1.09000000E+00  1.44900000E+00  1.09000000E+00
  1.52600000E+00  1.09000000E+00  1.52200000E+00  1.33500000E+00  1.22900000E+00
  1.52200000E+00
%FLAG ANGLE_FORCE_CONSTANT                                                      
%FORMAT(5E16.8)                                                                 
  5.00000000E+01  5.00000000E+01  3.50000000E+01  5.00000000E+01  7.00000000E+01
  5.00000000E+01  8.00000000E+01  5.00000000E+01  5.00000000E+01  3.50000000E+01
  6.30000000E+01  5.00000000E+01  6.30000000E+01  5.00000000E+01  5.00000000E+01
  8.00000000E+01  8.00000000E+01  5.00000000E+01  7.00000000E+01  5.00000000E+01
  8.00000000E+01
%FLAG ANGLE_EQUIL_VALUE                                                         
%FORMAT(5E16.8)                                                                 
  2.06018753E+00  1.91113635E+00  1.91113635E+00  2.06018753E+00  2.03505478E+00
  1.91113635E+00  1.91462701E+00  1.91113635E+00  1.91113635E+00  1.91113635E+00
  1.92160833E+00  1.91113635E+00  1.93906163E+00  2.09439600E+00  2.12755727E+00
  2.10137732E+00  2.14501057E+00  2.12755727E+00  2.03505478E+00  1.91113635E+00
  2.10137732E+00
%FLAG DIHEDRAL_FORCE_CONSTANT                                                   
%FORMAT(5E16.8)                                                                 
  0.00000000E+00  0.00000000E+00  0.00000000E+00  0.00000000E+00  0.00000000E+00
  2.50000000E+00  0.00000000E+00  0.00000000E+00  1.55555556E-01  2.00000000E+00
  8.00000000E-01  8.00000000E-02  1.10000000E+00  1.05000000E+01
%FLAG DIHEDRAL_PERIODICITY                                                      
%FORMAT(5E16.8)                                                                 
  2.00000000E+00  1.00000000E+00  2.00000000E+00  3.00000000E+00  4.00000000E+00
  2.00000000E+00  1.00000000E+00  3.00000000E+00  3.00000000E+00  1.00000000E+00
  1.00000000E+00  3.00000000E+00  2.00000000E+00  2.00000000E+00
%FLAG DIHEDRAL_PHASE                                                            
%FORMAT(5E16.8)                                                                 
  0.00000000E+00  3.14159400E+00  3.14159400E+00  3.14159400E+00  0.00000000E+00
  3.14159400E+00  0.00000000E+00  0.00000000E+00  0.00000000E+00  0.00000000E+00
  0.00000000E+00  3.14159400E+00  3.14159400E+00  3.14159400E+00
%FLAG SCEE_SCALE_FACTOR                                                         
%FORMAT(5E16.8)                                                                 
  1.20000000E+00  1.20000000E+00  1.20000000E+00  1.20000000E+00  1.20000000E+00
  1.20000000E+00  1.20000000E+00  1.20000000E+00  1.20000000E+00  1.20000000E+00
  1.20000000E+00  1.20000000E+00  0.00000000E+00  0.00000000E+00
%FLAG SCNB_SCALE_FACTOR                                                         
%FORMAT(5E16.8)                                                                 
  2.00000000E+00  2.00000000E+00  2.00000000E+00  2.00000000E+00  2.00000000E+00
  2.00000000E+00  2.00000000E+00  2.00000000E+00  2.00000000E+00  2.00000000E+00
  2.00000000E+00  2.00000000E+00  0.00000000E+00  0.00000000E+00
%FLAG SOLTY                                                                     
%FORMAT(5E16.8)                                                                 
  0.00000000E+00  0.00000000E+00  0.00000000E+00  0.00000000E+00  0.00000000E+00
  0.00000000E+00  0.00000000E+00  0.00000000E+00
%FLAG LENNARD_JONES_ACOEF                                                       
%FORMAT(5E16.8)                                                                 
  7.51607703E+03  9.71708117E+04  1.04308023E+06  8.61541883E+04  9.24822270E+05
  8.19971662E+05  5.44261042E+04  6.47841731E+05  5.74393458E+05  3.79876399E+05
  8.96776989E+04  9.95480466E+05  8.82619071E+05  6.06829342E+05  9.44293233E+05
  1.07193646E+02  2.56678134E+03  2.27577561E+03  1.02595236E+03  2.12601181E+03
  1.39982777E-01  4.98586848E+03  6.78771368E+04  6.01816484E+04  3.69471530E+04
  6.20665997E+04  5.94667300E+01  3.25969625E+03
%FLAG LENNARD_JONES_BCOEF                                                       
%FORMAT(5E16.8)                                                                 
  2.17257828E+01  1.26919150E+02  6.75612247E+02  1.12529845E+02  5.99015525E+02
  5.31102864E+02  1.11805549E+02  6.26720080E+02  5.55666448E+02  5.64885984E+02
  1.36131731E+02  7.36907417E+02  6.53361429E+02  6.77220874E+02  8.01323529E+02
  2.59456373E+00  2.06278363E+01  1.82891803E+01  1.53505284E+01  2.09604198E+01
  9.37598976E-02  1.76949863E+01  1.06076943E+02  9.40505980E+01  9.21192136E+01
  1.13252061E+02  1.93248820E+00  1.43076527E+01
%FLAG BONDS_INC_HYDROGEN                                                        
%FORMAT(10I8)                                                                   
      81      78       1      87      84       3      90      84       3      93
      84       3      51      48       1      57      54       5      63      60
       7      66      60       7      69      60       7      21      18       1
      27      24       5      33      30       7      36      30       7      39
      30       7       3       0       7       6       3       7       9       3
       7      99      96       7     102      99       7     105      99       7
     117     114       1     123     120       5     129     126       7     132
     126       7     135     126       7     147     144       1     153     150
       5     159     156       7     162     156       7     165     156       7
     177     174       1     183     180       3     186     180       3     189
     180       3
%FLAG BONDS_WITHOUT_HYDROGEN                                                    
%FORMAT(10I8)                                                                   
      84      78       2      54      48       4      60      54       6      72
      54       8      72      78       9      75      72      10      24      18
       4      30      24       6      42      24       8      42      48       9
      45      42      10      12       3      11      12      18       9      15
      12      10     108      99      11     108     114       9     111     108
      10     120     114       4     126     120       6     138     120       8
     138     144       9     141     138      10     150     144       4     156
     150       6     168     150       8     168     174       9     171     168
      10     180     174       2
%FLAG ANGLES_INC_HYDROGEN                                                       
%FORMAT(10I8)                                                                   
      84      78      81       1      87      84      78       2      90      84
      78       2      90      84      87       3      93      84      78       2
      93      84      87       3      93      84      90       3      54      48
      51       4      57      54      48       6      60      54      57       8
      63      60      54       9      66      60      54       9      66      60
      63      10      69      60      54       9      69      60      63      10
      69      60      66      10      72      54      57      12      72      78
      81      14      24      18      21       4      27      24      18       6
      30      24      27       8      33      30      24       9      36      30
      24       9      36      30      33      10      39      30      24       9
      39      30      33      10      39      30      36      10      42      24
      27      12      42      48      51      14       6       3       0      10
       9       3       0      10       9       3       6      10      12       3
       0      20      12       3       6      20      12       3       9      20
      12      18      21      14     102      99      96      10     105      99
      96      10     105      99     102      10     108      99      96      20
     108      99     102      20     108      99     105      20     108     114
     117      14     120     114     117       4     123     120     114       6
     126     120     123       8     129     126     120       9     132     126
     120       9     132     126     129      10     135     126     120       9
     135     126     129      10     135     126     132      10     138     120
     123      12     138     144     147      14     150     144     147       4
     153     150     144       6     156     150     153       8     159     156
     150       9     162     156     150       9     162     156     159      10
     165     156     150       9     165     156     159      10     165     156
     162      10     168     150     153      12     168     174     177      14
     180     174     177       1     183     180     174       2     186     180
     174       2     186     180     183       3     189     180     174       2
     189     180     183       3     189     180     186       3
%FLAG ANGLES_WITHOUT_HYDROGEN                                                   
%FORMAT(10I8)                                                                   
      54      72      78       5      60      54      48       7      72      54
      48      11      72      54      60      13      72      78      84      15
      75      72      54      16      75      72      78      17      24      42
      48       5      30      24      18       7      42      24      18      11
      42      24      30      13      42      48      54      18      45      42
      24      16      45      42      48      17       3      12      18      19
      12      18      24      18      15      12       3      21      15      12
      18      17      99     108     114      19     108     114     120      18
     111     108      99      21     111     108     114      17     120     138
     144       5     126     120     114       7     138     120     114      11
     138     120     126      13     138     144     150      18     141     138
     120      16     141     138     144      17     150     168     174       5
     156     150     144       7     168     150     144      11     168     150
     156      13     168     174     180      15     171     168     150      16
     171     168     174      17
%FLAG DIHEDRALS_INC_HYDROGEN                                                    
%FORMAT(10I8)                                                                   
      87      84      78      81       1      90      84      78      81       1
      93      84      78      81       1      54      72      78      81       6
      57      54      48      51       1      57      54      72      78       1
      60      54      48      51       1      63      60      54      48       9
      63      60      54      57       9      66      60      54      48       9
      66      60      54      57       9      69      60      54      48       9
      69      60      54      57       9      72      54      48      51       1
      72      54      60      63       9      72      54      60      66       9
      72      54      60      69       9      72      78      84      87       1
      72      78      84      90       1      72      78      84      93       1
      75      72      54      57       7      75      72     -54      57       1
      75      72     -54      57       4      75      72      78      81      10
      75      72     -78      81       6      24      42      48      51       6
      27      24      18      21       1      27      24      42      48       1
      30      24      18      21       1      33      30      24      18       9
      33      30      24      27       9      36      30      24      18       9
      36      30      24      27       9      39      30      24      18       9
      39      30      24      27       9      42      24      18      21       1
      42      24      30      33       9      42      24      30      36       9
      42      24      30      39       9      42      48      54      57       1
      45      42      24      27       7      45      42     -24      27       1
      45      42     -24      27       4      45      42      48      51      10
      45      42     -48      51       6       0       3      12      18       1
       3      12      18      21       6       6       3      12      18       1
       9       3      12      18       1      12      18      24      27       1
       0       3      12      15      11       0       3     -12      15       1
       0       3     -12      15      12      15      12       3       6      11
      15      12      -3       6       1      15      12      -3       6      12
      15      12       3       9      11      15      12      -3       9       1
      15      12      -3       9      12      15      12      18      21      10
      15      12     -18      21       6      96      99     108     114       1
      99     108     114     117       6     102      99     108     114       1
     105      99     108     114       1     108     114     120     123       1
     111     108      99      96      11     111     108     -99      96       1
     111     108     -99      96      12     111     108      99     102      11
     111     108     -99     102       1     111     108     -99     102      12
     111     108      99     105      11     111     108     -99     105       1
     111     108     -99     105      12     111     108     114     117      10
     111     108    -114     117       6     120     138     144     147       6
     123     120     114     117       1     123     120     138     144       1
     126     120     114     117       1     129     126     120     114       9
     129     126     120     123       9     132     126     120     114       9
     132     126     120     123       9     135     126     120     114       9
     135     126     120     123       9     138     120     114     117       1
     138     120     126     129       9     138     120     126     132       9
     138     120     126     135       9     138     144     150     153       1
     141     138     120     123       7     141     138    -120     123       1
     141     138    -120     123       4     141     138     144     147      10
     141     138    -144     147       6     150     168     174     177       6
     153     150     144     147       1     153     150     168     174       1
     156     150     144     147       1     159     156     150     144       9
     159     156     150     153       9     162     156     150     144       9
     162     156     150     153       9     165     156     150     144       9
     165     156     150     153       9     168     150     144     147       1
     168     150     156     159       9     168     150     156     162       9
     168     150     156     165       9     168     174     180     183       1
     168     174     180     186       1     168     174     180     189       1
     171     168     150     153       7     171     168    -150     153       1
     171     168    -150     153       4     171     168     174     177      10
     171     168    -174     177       6     183     180     174     177       1
     186     180     174     177       1     189     180     174     177       1
      72      84     -78     -81      13      42      54     -48     -51      13
      12      21     -18     -24      13     108     117    -114    -120      13
     138     147    -144    -150      13     168     180    -174    -177      13
%FLAG DIHEDRALS_WITHOUT_HYDROGEN                                                
%FORMAT(10I8)                                                                   
      48      54      72      78       2      48      54     -72      78       3
      48      54     -72      78       4      48      54     -72      78       5
      54      72      78      84       6      60      54      72      78       7
      60      54     -72      78       1      60      54     -72      78       8
      60      54     -72      78       5      75      72      54      48       1
      75      72      54      60       1      75      72      78      84       6
      18      24      42      48       2      18      24     -42      48       3
      18      24     -42      48       4      18      24     -42      48       5
      24      42      48      54       6      30      24      42      48       7
      30      24     -42      48       1      30      24     -42      48       8
      30      24     -42      48       5      42      48      54      60       7
      42      48     -54      60       1      42      48     -54      60       8
      42      48     -54      60       5      42      48      54      72       7
      42      48     -54      72       1      42      48     -54      72       8
      42      48     -54      72       5      45      42      24      18       1
      45      42      24      30       1      45      42      48      54       6
       3      12      18      24       6      12      18      24      30       7
      12      18     -24      30       1      12      18     -24      30       8
      12      18     -24      30       5      12      18      24      42       7
      12      18     -24      42       1      12      18     -24      42       8
      12      18     -24      42       5      15      12      18      24       6
      99     108     114     120       6     108     114     120     126       7
     108     114    -120     126       1     108     114    -120     126       8
     108     114    -120     126       5     108     114     120     138       7
     108     114    -120     138       1     108     114    -120     138       8
     108     114    -120     138       5     111     108     114     120       6
     114     120     138     144       2     114     120    -138     144       3
     114     120    -138     144       4     114     120    -138     144       5
     120     138     144     150       6     126     120     138     144       7
     126     120    -138     144       1     126     120    -138     144       8
     126     120    -138     144       5     138     144     150     156       7
     138     144    -150     156       1     138     144    -150     156       8
     138     144    -150     156       5     138     144     150     168       7
     138     144    -150     168       1     138     144    -150     168       8
     138     144    -150     168       5     141     138     120     114       1
     141     138     120     126       1     141     138     144     150       6
     144     150     168     174       2     144     150    -168     174       3
     144     150    -168     174       4     144     150    -168     174       5
     150     168     174     180       6     156     150     168     174       7
     156     150    -168     174       1     156     150    -168     174       8
     156     150    -168     174       5     171     168     150     144       1
     171     168     150     156       1     171     168     174     180       6
      54      78     -72     -75      14      24      48     -42     -45      14
       3      18     -12     -15      14      99     114    -108    -111      14
     120     144    -138    -141      14     150     174    -168    -171      14
%FLAG EXCLUDED_ATOMS_LIST                                                       
%FORMAT(10I8)                                                                   
       2       3       4       5       6       7       3       4       5       6
       7       8       9       4       5       6       7       5       6       7
       6       7       8       9      10      11      15       7       8       9
       8       9      10      11      12      13      14      15      16      17
       9      10      11      15      10      11      12      13      14      15
      16      17      18      19      11      12      13      14      15      16
      17      12      13      14      15      16      17      13      14      15
      14      15      15      16      17      18      19      20      21      25
      17      18      19      18      19      20      21      22      23      24
      25      26      27      19      20      21      25      20      21      22
      23      24      25      26      27      28      29      21      22      23
      24      25      26      27      22      23      24      25      26      27
      23      24      25      24      25      25      26      27      28      29
      30      31      32      27      28      29      28      29      30      31
      32      29      30      31      32      30      31      32      31      32
      32       0      34      35      36      37      38      39      35      36
      37      38      39      40      41      36      37      38      39      37
      38      39      38      39      40      41      42      43      47      39
      40      41      40      41      42      43      44      45      46      47
      48      49      41      42      43      47      42      43      44      45
      46      47      48      49      50      51      43      44      45      46
      47      48      49      44      45      46      47      48      49      45
      46      47      46      47      47      48      49      50      51      52
      53      57      49      50      51      50      51      52      53      54
      55      56      57      58      59      51      52      53      57      52
      53      54      55      56      57      58      59      60      61      53
      54      55      56      57      58      59      54      55      56      57
      58      59      55      56      57      56      57      57      58      59
      60      61      62      63      64      59      60      61      60      61
      62      63      64      61      62      63      64      62      63      64
      63      64      64       0
%FLAG HBOND_ACOEF                                                               
%FORMAT(5E16.8)                                                                 

%FLAG HBOND_BCOEF                                                               
%FORMAT(5E16.8)                                                                 

%FLAG HBCUT                                                                     
%FORMAT(5E16.8)                                                                 

%FLAG AMBER_ATOM_TYPE                                                           
%FORMAT(20a4)                                                                   
HC  CT  HC  HC  C   O   N   H   XC  H1  CT  HC  HC  HC  C   O   N   H   XC  H1  
CT  HC  HC  HC  C   O   N   H   CT  H1  H1  H1  HC  CT  HC  HC  C   O   N   H   
XC  H1  CT  HC  HC  HC  C   O   N   H   XC  H1  CT  HC  HC  HC  C   O   N   H   
CT  H1  H1  H1  
%FLAG TREE_CHAIN_CLASSIFICATION                                                 
%FORMAT(20a4)                                                                   
M   M   E   E   M   E   M   E   M   E   3   E   E   E   M   E   M   E   M   E   
3   E   E   E   M   E   M   E   M   E   E   E   M   M   E   E   M   E   M   E   
M   E   3   E   E   E   M   E   M   E   M   E   3   E   E   E   M   E   M   E   
M   E   E   E   
%FLAG JOIN_ARRAY                                                                
%FORMAT(10I8)                                                                   
       0       0       0       0       0       0       0       0       0       0
       0       0       0       0       0       0       0       0       0       0
       0       0       0       0       0       0       0       0       0       0
       0       0       0       0       0       0       0       0       0       0
       0       0       0       0       0       0       0       0       0       0
       0       0       0       0       0       0       0       0       0       0
       0       0       0       0
%FLAG IROTAT                                                                    
%FORMAT(10I8)                                                                   
       0       0       0       0       0       0       0       0       0       0
       0       0       0       0       0       0       0       0       0       0
       0       0       0       0       0       0       0       0       0       0
       0       0       0       0       0       0       0       0       0       0
       0       0       0       0       0       0       0       0       0       0
       0       0       0       0       0       0       0       0       0       0
       0       0       0       0
%FLAG RADIUS_SET                                                                
%FORMAT(1a80)                                                                   
modified Bondi radii (mbondi)                                                   
%FLAG RADII                                                                     
%FORMAT(5E16.8)                                                                 
  1.30000000E+00  1.70000000E+00  1.30000000E+00  1.30000000E+00  1.70000000E+00
  1.50000000E+00  1.55000000E+00  1.30000000E+00  1.70000000E+00  1.30000000E+00
  1.70000000E+00  1.30000000E+00  1.30000000E+00  1.30000000E+00  1.70000000E+00
  1.50000000E+00  1.55000000E+00  1.30000000E+00  1.70000000E+00  1.30000000E+00
  1.70000000E+00  1.30000000E+00  1.30000000E+00  1.30000000E+00  1.70000000E+00
  1.50000000E+00  1.55000000E+00  1.30000000E+00  1.70000000E+00  1.30000000E+00
  1.30000000E+00  1.30000000E+00  1.30000000E+00  1.70000000E+00  1.30000000E+00
  1.30000000E+00  1.70000000E+00  1.50000000E+00  1.55000000E+00  1.30000000E+00
  1.70000000E+00  1.30000000E+00  1.70000000E+00  1.30000000E+00  1.30000000E+00
  1.30000000E+00  1.70000000E+00  1.50000000E+00  1.55000000E+00  1.30000000E+00
  1.70000000E+00  1.30000000E+00  1.70000000E+00  1.30000000E+00  1.30000000E+00
  1.30000000E+00  1.70000000E+00  1.50000000E+00  1.55000000E+00  1.30000000E+00
  1.70000000E+00  1.30000000E+00  1.30000000E+00  1.30000000E+00
%FLAG SCREEN                                                                    
%FORMAT(5E16.8)                                                                 
  8.50000000E-01  7.20000000E-01  8.50000000E-01  8.50000000E-01  7.20000000E-01
  8.50000000E-01  7.90000000E-01  8.50000000E-01  7.20000000E-01  8.50000000E-01
  7.20000000E-01  8.50000000E-01  8.50000000E-01  8.50000000E-01  7.20000000E-01
  8.50000000E-01  7.90000000E-01  8.50000000E-01  7.20000000E-01  8.50000000E-01
  7.20000000E-01  8.50000000E-01  8.50000000E-01  8.50000000E-01  7.20000000E-01
  8.50000000E-01  7.90000000E-01  8.50000000E-01  7.20000000E-01  8.50000000E-01
  8.50000000E-01  8.50000000E-01  8.50000000E-01  7.20000000E-01  8.50000000E-01
  8.50000000E-01  7.20000000E-01  8.50000000E-01  7.90000000E-01  8.50000000E-01
  7.20000000E-01  8.50000000E-01  7.20000000E-01  8.50000000E-01  8.50000000E-01
  8.50000000E-01  7.20000000E-01  8.50000000E-01  7.90000000E-01  8.50000000E-01
  7.20000000E-01  8.50000000E-01  7.20000000E-01  8.50000000E-01  8.50000000E-01
  8.50000000E-01  7.20000000E-01  8.50000000E-01  7.90000000E-01  8.50000000E-01
  7.20000000E-01  8.50000000E-01  8.50000000E-01  8.50000000E-01
%FLAG IPOL                                                                      
%FORMAT(1I8)                                                                    
       0
%FLAG CMAP_COUNT                                                                
%FORMAT(2I8)                                                                    
       4       1                                                                
%FLAG CMAP_RESOLUTION                                                           
%FORMAT(20I4)                                                                   
  24
%FLAG CMAP_PARAMETER_01                                                         
%COMMENT  Ala CMAP                                                              
%FORMAT(8F9.5)                                                                  
 -0.40490 -0.91563 -0.66011 -0.12395  0.67400  1.66712  2.29819  2.59327
  2.26341  1.68604  1.08454  0.71831 -0.48870 -1.12865 -0.92439 -0.34344
  0.32979  0.59769  0.44008 -0.02411 -0.36985 -0.85317 -0.95648 -1.10907
 -0.57095 -0.51404 -0.20974  0.13143  0.76924  1.59233  2.29037  2.67125
  3.36182  2.18892  2.73567  0.45223 -0.65830 -0.99890 -0.71628  0.42576
  0.53333  0.77654  0.66928  0.32986  0.00178 -0.28339 -0.35321 -0.52818
 -0.04441  1.18495  0.28672  0.49834  1.04770  1.74318  2.42981  2.78424
  2.83854  2.61585  1.87191  0.41363 -0.42895 -0.65692  0.55228  0.27728
  0.92789  1.20682  1.03564  0.82326  0.50898  0.23806  0.20869  0.03162
  0.75270  0.92426  0.87815  1.07435  1.34904  1.95311  2.55584  3.01644
  2.98774  2.58246  1.60744  0.42752 -0.30354 -0.31446 -0.03375  0.52111
  1.16914  1.46572  1.98214  1.17058  0.95531  0.70808  0.78722  1.35766
  1.34685  2.28011  1.28633  1.21465  1.51939  2.05226  2.68560  3.11202
  2.91890  2.50948  1.45835  0.41028 -0.10582 -0.34705 -0.04464  0.55547
  1.11301  1.35870  1.48001  1.35541  1.12115  0.95721  1.12820  1.22585
  2.04850  1.37875  1.14784  1.59064  1.72039  1.78908  3.30313  3.04054
  2.98842  2.41992  1.44654  0.52504 -0.06270 -0.27801  0.87234  0.67598
  0.94307  1.15416  1.20141  1.24110  1.26105  1.20805  1.33113  1.49416
  1.04113  0.90852  0.69483  0.85361  1.26559  1.89687  2.63196  4.14974
  2.85712  2.19037  1.16979  0.05713 -0.34982 -0.13111  1.14408  0.72916
  0.83976  0.87834  2.10017  1.17948  1.17775  1.17175  1.28140  1.31313
  0.56020  0.54579  0.70265  1.11648  1.74498  2.34101  3.30438  2.91742
  2.51820  1.80071  0.63368 -0.12153  0.06806  0.72937  1.10420  1.35758
  1.49864  1.53737  1.46180  1.46294  1.03983  0.71730  0.57013  0.61315
  0.24962  0.58339  1.16380  1.97603  2.89121  3.52557  3.68570  3.11960
  2.13455  1.15056  0.41716  0.25190  0.90813  1.46041  1.72423  2.08326
  2.41176  2.51527  2.40584  2.10326  1.06657  0.24926  0.00000  0.09150
  0.69001  1.45869  2.56017  3.51462  4.36327  4.88489  4.44136  3.31773
  1.94048  1.18640  1.14388  1.38827  1.99448  1.97586  2.10793  2.62567
  3.22808  3.67878  3.65514  2.76833  1.09340 -0.02756 -0.20820  0.11394
  2.04863  3.24028  4.45604  5.33890  5.83417  5.62064  4.51400  3.15546
  2.11289  2.12474  2.51205  2.64497  2.21088  1.89502  2.06746  3.01892
  4.17428  5.04288  4.34485  2.58422  0.91721  0.02839  0.38724  1.08963
  3.86396  5.17448  4.99907  4.71176  4.69475  4.40584  3.94871  3.17716
  3.06333  3.67246  4.29338  2.44448  1.35877  2.75298  2.01318  3.50593
  5.09938  4.27559  3.31646  1.97909  0.94467  0.88095  1.62501  2.60184
  5.48793  4.77064  3.78644  3.36104  3.22046  3.45658  3.76845  4.19099
  4.55308  4.85880  2.97166  1.40450  1.55754  1.01694  2.55251  4.15890
  3.59316  2.89015  2.39954  2.03475  2.02513  2.33480  3.18431  4.21056
  4.70559  3.27912  2.28983  1.85924  2.16582  3.20992  4.49444  5.42412
  5.98035  4.20595  2.46249  1.80286  1.41486  2.22339  3.40125  3.01974
  2.06463  1.98502  2.41985  3.03336  3.42492  3.76647  4.58344  5.51267
  2.34028  1.47026  0.70060  0.67110  1.72673  3.69931  5.49162  6.13923
  5.15665  3.78295  2.61455  3.27648  2.23785  2.65327  2.09930  0.98357
  0.83115  1.73620  2.87719  3.88918  4.40086  4.76522  4.34641  3.40891
  0.89883  0.26728  0.50152  0.12164  1.64744  3.66760  4.84258  4.73428
  4.15359  3.27829  2.48102  2.07496  1.77587  1.23018  0.22862 -0.17811
  0.36837  1.62610  2.66752  3.41452  3.43224  3.08090  2.54957  1.61094
  0.32705 -0.14752 -0.38279 -0.00752  1.31062  2.89019  3.39946  3.48428
  3.29026  2.66680  1.96417  1.33230  0.70261 -0.31922 -0.88675 -0.59803
  0.32944  1.32712  1.88494  2.20282  2.13265  1.82079  1.35338  0.71220
 -0.03270 -0.18304 -0.26783  0.12774  0.88323  1.96743  2.18027  2.30248
  2.25909  1.78219  1.00274  0.24927 -0.80554 -1.41955 -1.17733 -0.22422
  1.19834  1.07092  1.05260  0.95885  0.87757  0.60790  0.30853  0.05046
  0.08873  0.15910  0.22294  0.37757  0.76603  1.36872  1.54866  1.47050
  1.32077  0.90501  0.18754 -0.81180 -1.70050 -1.70896 -0.87307 -0.00331
  0.74981  0.73853  0.55032  0.27050 -0.03313 -0.23059 -0.27425 -0.15004
  1.38786  0.31030  0.31376  0.30435  0.69516  1.26684  1.67665  1.73040
  1.48205  0.83164  0.78021 -1.27092 -1.69247 -1.59919 -0.87185  0.23049
  0.75546  0.68419  0.50548  0.18474 -0.18354 -0.22863 -0.03965  0.15614
  1.13038  0.28339  0.13603  0.26411  0.64582  1.31757  2.01140  2.13005
  1.85723  0.94711 -0.10199 -0.99228 -1.35141 -1.23057 -0.39240  0.63569
  1.03002  0.93699  1.12925  0.94167  0.14233  0.14305  0.34318  0.43742
 -0.18145 -0.18129 -0.36426 -0.02774  0.57160  1.29873  2.16831  2.37053
  1.81288  0.84225 -0.13994 -0.87562 -1.03375 -0.75156  0.33665  1.25211
  1.11963  1.00266  0.72525  0.87651  0.22308  0.12905  0.05647 -0.10214
 -1.05110 -0.75879 -0.79562 -0.36879  0.45648  1.36193  2.25739  2.41888
  1.79507  0.83030 -0.09049 -0.76021 -0.87672 -0.19067  0.64936  0.61856
  0.80179  0.82609  0.68948  0.43884 -0.07529 -0.55654 -0.80787 -1.00697
 -1.21902 -1.03039 -0.88255 -0.32105  0.49201  1.53828  2.43182  2.53201
  1.97701  1.22953  0.40353 -0.11048 -0.00493 -0.40512 -0.63562 -0.14764
  0.47545  0.72229  0.59153  0.14907 -0.47001 -0.96318 -1.22829 -1.35376
%FLAG CMAP_INDEX                                                                
%FORMAT(6I8)                                                                    
      15      17      19      25      27       1
       5       7       9      15      17       1
      37      39      41      47      49       1
      47      49      51      57      59       1
