ACE
    64
   2.0000010   1.0000000  -0.0000013   2.0000010   2.0900000   0.0000001
   1.4862640   2.4538490   0.8898240   1.4862590   2.4538520  -0.8898200
   3.4274200   2.6407950  -0.0000030   4.3905800   1.8774060  -0.0000066
   3.5553754   3.9696488  -0.0000031   2.7331200   4.5561601  -0.0000013
   4.8532621   4.6139253  -0.0000043   5.4075960   4.3155388   0.8898152
   5.6613044   4.2208425  -1.2321480   5.1232615   4.5213630  -2.1312016
   6.6304840   4.7189354  -1.2057907   5.8085401   3.1408724  -1.2413850
   4.7126759   6.1294185   0.0000014   3.6006445   6.6527027   0.0000062
   5.8460533   6.8348833   0.0000025   6.7370014   6.3591620  -0.0000004
   5.8460551   8.2838837   0.0000062   5.3323107   8.6477361  -0.8898125
   5.1346832   8.8328770   1.2321510   5.6430955   8.4845655   2.1312039
   5.1499009   9.9224522   1.2057956   4.1018746   8.4845664   1.2413877
   7.2660104   8.8317987   0.0000011   8.2291696   8.0684085  -0.0000053
   7.3939658  10.1606525   0.0000022   6.5717105  10.7471638   0.0000063
   8.6918525  10.8049290  -0.0000006   9.4746106  10.0463841  -0.0000064
   8.7893274  11.4268758  -0.8898216   8.7893351  11.4268670   0.8898254
  17.0000010   1.0000000  -0.0000013  17.0000010   2.0900000   0.0000001
  16.4862640   2.4538490   0.8898240  16.4862590   2.4538520  -0.8898200
  18.4274200   2.6407950  -0.0000030  19.3905800   1.8774060  -0.0000066
  18.5553754   3.9696488  -0.0000031  17.7331200   4.5561601  -0.0000013
  19.8532621   4.6139253  -0.0000043  20.4075960   4.3155388   0.8898152
  20.6613044   4.2208425  -1.2321480  20.1232615   4.5213630  -2.1312016
  21.6304840   4.7189354  -1.2057907  20.8085401   3.1408724  -1.2413850
  19.7126759   6.1294185   0.0000014  18.6006445   6.6527027   0.0000062
  20.8460533   6.8348833   0.0000025  21.7370014   6.3591620  -0.0000004
  20.8460551   8.2838837   0.0000062  20.3323107   8.6477361  -0.8898125
  20.1346832   8.8328770   1.2321510  20.6430955   8.4845655   2.1312039
  20.1499009   9.9224522   1.2057956  19.1018746   8.4845664   1.2413877
  22.2660104   8.8317987   0.0000011  23.2291696   8.0684085  -0.0000053
  22.3939658  10.1606525   0.0000022  21.5717105  10.7471638   0.0000063
  23.6918525  10.8049290  -0.0000006  24.4746106  10.0463841  -0.0000064
  23.7893274  11.4268758  -0.8898216  23.7893351  11.4268670   0.8898254
