%VERSION  VERSION_STAMP = V0001.000  DATE = 07/02/26  14:30:40                  
%FLAG TITLE                                                                     
%FORMAT(20a4)                                                                   
MOL                                                                             
%FLAG POINTERS                                                                  
%FORMAT(10I8)                                                                   
      15       5      10       4      21       4      28       2       0       0
      72       1       4       4       2       5       7       8       5       0
       0       0       0       0       0       0       0       0      15       0
       0
%FLAG ATOM_NAME                                                                 
%FORMAT(20a4)                                                                   
O1  C1  C2  C3  C4  H1  H2  H3  H4  H5  H6  H7  H8  H9  H10 
%FLAG CHARGE                                                                    
%FORMAT(5E16.8)                                                                 
 -1.09479578E+01  2.51649963E+00 -1.35573912E+00 -2.38894353E+00 -1.67827383E+00
  5.59424610E-01  8.78314860E-01  8.78314860E-01  7.65937936E-01  7.65937936E-01
  7.65937936E-01  6.68758410E-01  6.68758410E-01  6.68758410E-01  7.23425310E+00
%FLAG ATOMIC_NUMBER                                                             
%FORMAT(10I8)                                                                   
       8       6       6       6       6       1       1       1       1       1
       1       1       1       1       1
%FLAG MASS                                                                      
%FORMAT(5E16.8)                                                                 
  1.60000000E+01  1.20100000E+01  1.20100000E+01  1.20100000E+01  1.20100000E+01
  1.00800000E+00  1.00800000E+00  1.00800000E+00  1.00800000E+00  1.00800000E+00
  1.00800000E+00  1.00800000E+00  1.00800000E+00  1.00800000E+00  1.00800000E+00
%FLAG ATOM_TYPE_INDEX                                                           
%FORMAT(10I8)                                                                   
       1       2       2       2       2       3       4       4       4       4
       4       4       4       4       5
%FLAG NUMBER_EXCLUDED_ATOMS                                                     
%FORMAT(10I8)                                                                   
      11      13      12       8       6       6       4       3       2       1
       1       2       1       1       1
%FLAG NONBONDED_PARM_INDEX                                                      
%FORMAT(10I8)                                                                   
       1       2       4       7      11       2       3       5       8      12
       4       5       6       9      13       7       8       9      10      14
      11      12      13      14      15
%FLAG RESIDUE_LABEL                                                             
%FORMAT(20a4)                                                                   
MOL 
%FLAG RESIDUE_POINTER                                                           
%FORMAT(10I8)                                                                   
       1
%FLAG BOND_FORCE_CONSTANT                                                       
%FORMAT(5E16.8)                                                                 
  2.85150000E+02  5.35510000E+02  2.28890000E+02  3.44220000E+02  3.45250000E+02
%FLAG BOND_EQUIL_VALUE                                                          
%FORMAT(5E16.8)                                                                 
  1.42420000E+00  9.72500000E-01  1.53540000E+00  1.09690000E+00  1.09620000E+00
%FLAG ANGLE_FORCE_CONSTANT                                                      
%FORMAT(5E16.8)                                                                 
  7.67900000E+01  5.62900000E+01  6.51300000E+01  5.98700000E+01  4.32700000E+01
  4.32800000E+01  3.58000000E+01
%FLAG ANGLE_EQUIL_VALUE                                                         
%FORMAT(5E16.8)                                                                 
  1.91392888E+00  1.92649525E+00  1.87430989E+00  1.96576518E+00  1.91427794E+00
  1.91270715E+00  1.88024401E+00
%FLAG DIHEDRAL_FORCE_CONSTANT                                                   
%FORMAT(5E16.8)                                                                 
  1.80000000E-01  9.00000000E-02  1.30000000E-01  6.00000000E-02  5.20000000E-01
  1.55555556E-01  1.23000000E-01  1.20000000E-01
%FLAG DIHEDRAL_PERIODICITY                                                      
%FORMAT(5E16.8)                                                                 
  3.00000000E+00  3.00000000E+00  3.00000000E+00  3.00000000E+00  3.00000000E+00
  3.00000000E+00  3.00000000E+00  3.00000000E+00
%FLAG DIHEDRAL_PHASE                                                            
%FORMAT(5E16.8)                                                                 
  0.00000000E+00  0.00000000E+00  0.00000000E+00  0.00000000E+00  0.00000000E+00
  0.00000000E+00  0.00000000E+00  0.00000000E+00
%FLAG SCEE_SCALE_FACTOR                                                         
%FORMAT(5E16.8)                                                                 
  1.20000000E+00  1.20000000E+00  1.20000000E+00  1.20000000E+00  1.20000000E+00
  1.20000000E+00  1.20000000E+00  1.20000000E+00
%FLAG SCNB_SCALE_FACTOR                                                         
%FORMAT(5E16.8)                                                                 
  2.00000000E+00  2.00000000E+00  2.00000000E+00  2.00000000E+00  2.00000000E+00
  2.00000000E+00  2.00000000E+00  2.00000000E+00
%FLAG SOLTY                                                                     
%FORMAT(5E16.8)                                                                 
  0.00000000E+00  0.00000000E+00  0.00000000E+00  0.00000000E+00  0.00000000E+00
%FLAG LENNARD_JONES_ACOEF                                                       
%FORMAT(5E16.8)                                                                 
  5.03152404E+05  7.18991463E+05  1.02073671E+06  4.69084694E+04  6.97998263E+04
  3.39005767E+03  6.80216136E+04  1.00235148E+05  5.22955465E+03  7.94617769E+03
  1.74176419E+02  3.03553352E+02  4.36660257E+00  8.80612241E+00  1.10360882E-05
%FLAG LENNARD_JONES_BCOEF                                                       
%FORMAT(5E16.8)                                                                 
  4.32634597E+02  5.36620538E+02  6.63431737E+02  9.08431526E+01  1.14981426E+02
  1.67944276E+01  1.09393126E+02  1.37787728E+02  2.08590256E+01  2.57122925E+01
  3.81654050E+00  5.22789272E+00  4.15568027E-01  5.90150328E-01  4.55498033E-04
%FLAG BONDS_INC_HYDROGEN                                                        
%FORMAT(10I8)                                                                   
       0      42       2       3      15       4       6      18       5       6
      21       5       9      24       5       9      27       5       9      30
       5      12      33       5      12      36       5      12      39       5
%FLAG BONDS_WITHOUT_HYDROGEN                                                    
%FORMAT(10I8)                                                                   
       0       3       1       3       6       3       3       9       3       6
      12       3
%FLAG ANGLES_INC_HYDROGEN                                                       
%FORMAT(10I8)                                                                   
       0       3      15       2       3       0      42       3       3       6
      18       5       3       6      21       5       3       9      24       5
       3       9      27       5       3       9      30       5       6       3
      15       6       6      12      33       5       6      12      36       5
       6      12      39       5       9       3      15       6      12       6
      18       5      12       6      21       5      18       6      21       7
      24       9      27       7      24       9      30       7      27       9
      30       7      33      12      36       7      33      12      39       7
      36      12      39       7
%FLAG ANGLES_WITHOUT_HYDROGEN                                                   
%FORMAT(10I8)                                                                   
       0       3       6       1       0       3       9       1       3       6
      12       4       6       3       9       4
%FLAG DIHEDRALS_INC_HYDROGEN                                                    
%FORMAT(10I8)                                                                   
       0       3       6      18       2       0       3       6      21       2
       0       3       9      24       2       0       3       9      27       2
       0       3       9      30       2       3       6      12      33       3
       3       6      12      36       3       3       6      12      39       3
      42       0       3       6       4       6       3       9      24       3
       6       3       9      27       3       6       3       9      30       3
      42       0       3       9       4       9       3       6      18       3
       9       3       6      21       3      12       6       3      15       6
      42       0       3      15       7      15       3       6      18       6
      15       3       6      21       6      15       3       9      24       6
      15       3       9      27       6      15       3       9      30       6
      18       6      12      33       8      18       6      12      36       8
      18       6      12      39       8      21       6      12      33       8
      21       6      12      36       8      21       6      12      39       8
%FLAG DIHEDRALS_WITHOUT_HYDROGEN                                                
%FORMAT(10I8)                                                                   
       0       3       6      12       1       9       3       6      12       5
%FLAG EXCLUDED_ATOMS_LIST                                                       
%FORMAT(10I8)                                                                   
       2       3       4       5       6       7       8       9      10      11
      15       3       4       5       6       7       8       9      10      11
      12      13      14      15       4       5       6       7       8       9
      10      11      12      13      14      15       5       6       7       8
       9      10      11      15       6       7       8      12      13      14
       7       8       9      10      11      15       8      12      13      14
      12      13      14      10      11      11       0      13      14      14
       0       0
%FLAG HBOND_ACOEF                                                               
%FORMAT(5E16.8)                                                                 

%FLAG HBOND_BCOEF                                                               
%FORMAT(5E16.8)                                                                 

%FLAG HBCUT                                                                     
%FORMAT(5E16.8)                                                                 

%FLAG AMBER_ATOM_TYPE                                                           
%FORMAT(20a4)                                                                   
oh  c3  c3  c3  c3  h1  hc  hc  hc  hc  hc  hc  hc  hc  ho  
%FLAG TREE_CHAIN_CLASSIFICATION                                                 
%FORMAT(20a4)                                                                   
BLA BLA BLA BLA BLA BLA BLA BLA BLA BLA BLA BLA BLA BLA BLA 
%FLAG JOIN_ARRAY                                                                
%FORMAT(10I8)                                                                   
       0       0       0       0       0       0       0       0       0       0
       0       0       0       0       0
%FLAG IROTAT                                                                    
%FORMAT(10I8)                                                                   
       0       0       0       0       0       0       0       0       0       0
       0       0       0       0       0
%FLAG RADIUS_SET                                                                
%FORMAT(1a80)                                                                   
modified Bondi radii (mbondi)                                                   
%FLAG RADII                                                                     
%FORMAT(5E16.8)                                                                 
  1.50000000E+00  1.70000000E+00  1.70000000E+00  1.70000000E+00  1.70000000E+00
  1.30000000E+00  1.30000000E+00  1.30000000E+00  1.30000000E+00  1.30000000E+00
  1.30000000E+00  1.30000000E+00  1.30000000E+00  1.30000000E+00  8.00000000E-01
%FLAG SCREEN                                                                    
%FORMAT(5E16.8)                                                                 
  8.50000000E-01  7.20000000E-01  7.20000000E-01  7.20000000E-01  7.20000000E-01
  8.50000000E-01  8.50000000E-01  8.50000000E-01  8.50000000E-01  8.50000000E-01
  8.50000000E-01  8.50000000E-01  8.50000000E-01  8.50000000E-01  8.50000000E-01
%FLAG IPOL                                                                      
%FORMAT(1I8)                                                                    
       0
