default_name
   470
   1.3290000   0.0000000   0.0000000   0.3666021   0.2088941  -0.2241752
   1.7076406   0.7607616   0.5458694   1.3832115  -0.9467814   0.3475136
   2.0930000  -0.0010000  -1.2410000   2.8818668   0.7479149  -1.1708942
   2.7340000  -1.3630000  -1.4660000   1.9561556  -2.1222327  -1.5473873
   3.3186485  -1.3425098  -2.3857101   3.3869019  -1.6010456  -0.6262663
   1.2120000   0.3730000  -2.4280000   0.0140000   0.6130000  -2.2740000
   1.8120000   0.4220000  -3.6130000   2.8046251   0.2496603  -3.6843711
   1.0810000   0.7660000  -4.8270000   0.3590778   1.5545512  -4.6145984
   2.0460000   1.2640000  -5.9040000   2.8323546   1.8369990  -5.4126571
   2.4829528   0.3930503  -6.3924863   1.3600000   2.1330000  -6.9400000
   0.1740000   2.4700000  -6.7400000   2.0080000   2.4760000  -7.9490000
   0.2940000  -0.4330000  -5.3460000   0.6210000  -1.5800000  -5.0440000
  -0.7450000  -0.1580000  -6.1270000  -0.9938625   0.8018750  -6.3188510
  -1.5790000  -1.2140000  -6.6890000  -1.7400793  -1.9945142  -5.9453938
  -2.9380000  -0.6510000  -7.1090000  -3.4536094  -1.4116439  -7.6952313
  -3.5080973  -0.4423560  -6.2037063  -2.8100000   0.6180000  -7.9290000
  -1.7290000   0.8390000  -8.5150000  -3.7910000   1.3880000  -7.9870000
  -0.8950000  -1.8700000  -7.8840000  -1.4210000  -1.8580000  -8.9970000
   0.2820000  -2.4410000  -7.6460000   0.6868840  -2.3997332  -6.7216270
   1.0390000  -3.0990000  -8.7030000   1.0969517  -2.4497912  -9.5766525
   2.4600000  -3.4060000  -8.2270000   2.9105576  -2.4628103  -7.9179850
   2.3785218  -4.0686501  -7.3653990   3.3300000  -4.0590000  -9.2870000
   4.2101440  -4.4795242  -8.8005775   2.7587878  -4.8589649  -9.7580360
   3.7660000  -3.0570000 -10.3450000   2.8974274  -2.7623079 -10.9339288
   4.1845179  -2.1797028  -9.8517538   4.7740000  -3.6140000 -11.2440000
   4.4962389  -3.8312341 -12.1904447   6.0310000  -3.8470000 -10.8830000
   6.4320000  -3.5750000  -9.6490000   5.7785115  -3.1894233  -8.9823790
   7.3891410  -3.7546058  -9.3811893   6.8900000  -4.3550000 -11.7580000
   6.5848202  -4.5634441 -12.6979555   7.8449026  -4.5307948 -11.4798705
   0.3500000  -4.3870000  -9.1440000  -0.0740000  -4.5150000 -10.2930000
   0.2420000  -5.3390000  -8.2230000   0.6319024  -5.1979705  -7.3020298
  -0.3940000  -6.6180000  -8.5160000   0.1117705  -7.1007089  -9.3522341
  -0.3160000  -7.5410000  -7.2990000  -0.3250097  -6.9430684  -6.3876846
  -1.1720053  -8.2157998  -7.2986663   1.1740000  -8.5890000  -7.2550000
  -1.8510000  -6.4200000  -8.9250000  -2.3550000  -7.1050000  -9.8140000
  -2.5210000  -5.4780000  -8.2680000  -2.0726141  -4.9626980  -7.5240153
  -3.9200000  -5.1900000  -8.5630000  -4.5245905  -6.0817124  -8.3974144
  -4.4370000  -4.0730000  -7.6540000  -3.6133355  -3.3779010  -7.4911705
  -5.2406125  -3.5648345  -8.1869867  -4.9530000  -4.5690000  -6.3140000
  -5.4315873  -5.5347884  -6.4761968  -4.0970660  -4.6950226  -5.6509808
  -5.9460000  -3.6130000  -5.6810000  -6.3580000  -2.6510000  -6.3620000
  -6.3100000  -3.8270000  -4.5060000  -4.0970000  -4.7930000 -10.0260000
  -4.9740000  -5.3090000 -10.7190000  -3.2580000  -3.8720000 -10.4890000
  -2.5730645  -3.4563035  -9.8740535  -3.3230000  -3.4040000 -11.8680000
  -4.2766613  -2.9072495 -12.0465169  -2.1940000  -2.4090000 -12.1450000
  -1.6092487  -2.3167951 -11.2297605  -1.5712017  -2.8339091 -12.9321941
  -2.6840000  -1.0360000 -12.5730000  -3.6460170  -0.8480807 -12.0962290
  -1.9617004  -0.2913383 -12.2385389  -2.8410000  -0.9470000 -14.0830000
  -3.3726534  -1.8302245 -14.4370596  -3.4168395  -0.0544868 -14.3278031
  -1.5510000  -0.8730000 -14.7640000  -0.7302170  -1.1696264 -14.2556424
  -1.4020000  -0.4390000 -16.0110000  -2.4570000  -0.0420000 -16.7090000
  -3.3755916  -0.0702512 -16.2900832  -2.3372280   0.2868475 -17.6564247
  -0.1950000  -0.4010000 -16.5610000   0.6087498  -0.7027487 -16.0289905
  -0.0856062  -0.0705014 -17.5091046  -3.2350000  -4.5740000 -12.8440000
  -4.0650000  -4.7090000 -13.7420000  -2.2220000  -5.4150000 -12.6610000
  -1.5472901  -5.2439554 -11.9291465  -2.0260000  -6.5730000 -13.5250000
  -2.0598258  -6.2656274 -14.5702163  -0.6670000  -7.2180000 -13.2490000
  -0.5926750  -7.3748639 -12.1729104  -0.6537627  -8.1818101 -13.7579154
   0.5100000  -6.3800000 -13.7210000   0.1741386  -5.7617778 -14.5535259
   0.8227246  -5.7393851 -12.8964286   1.9090000  -7.3840000 -14.2550000
   3.2730000  -6.2770000 -13.9080000   3.2877971  -6.0401601 -12.8441453
   4.2111758  -6.7573413 -14.1858472   3.1515077  -5.3586797 -14.4824813
  -3.1380000  -7.5980000 -13.3220000  -3.4350000  -8.3920000 -14.2140000
  -3.7500000  -7.5740000 -12.1420000  -3.4495581  -6.9235674 -11.4301212
  -4.8290000  -8.5000000 -11.8210000  -4.7208298  -9.4132173 -12.4061773
  -4.7910000  -8.8640000 -10.3350000  -4.5072777  -7.9872899  -9.7527799
  -5.7764599  -9.2061025 -10.0188756  -3.6220000 -10.1990000  -9.9250000
  -6.1860000  -7.8990000 -12.1750000  -7.2280000  -8.4120000 -11.7690000
  -6.1640000  -6.8080000 -12.9340000  -5.2816316  -6.4049276 -13.2151725
  -7.3920000  -6.1370000 -13.3430000  -7.9452123  -5.8076478 -12.4634646
  -7.0680000  -4.9140000 -14.2030000  -6.4359368  -4.2547519 -13.6080316
  -6.5106002  -5.2642448 -15.0717543  -8.3000000  -4.1530000 -14.6650000
  -8.8102229  -4.7413805 -15.4276151  -8.9634642  -4.0113116 -13.8118636
  -7.9620000  -2.7940000 -15.2470000  -7.7750000  -1.8220000 -14.5150000
  -7.8810000  -2.7200000 -16.5700000  -7.6587705  -1.8388462 -17.0107759
  -8.0419750  -3.5451948 -17.1296802  -8.3020000  -7.0880000 -14.1120000
  -9.5200000  -6.9080000 -14.1440000  -7.7040000  -8.1010000 -14.7320000
  -6.6983946  -8.1898576 -14.7009944  -8.4610000  -9.0800000 -15.5030000
  -8.9254677  -8.5964524 -16.3623898  -7.5360000 -10.1890000 -16.0070000
  -8.1543077 -10.9120297 -16.5389989  -6.8305884  -9.7337787 -16.7021749
  -6.7710000 -10.8950000 -14.8990000  -6.2227749 -10.1467625 -14.3265572
  -7.4882464 -11.3956173 -14.2485833  -5.7960000 -11.9180000 -15.4600000
  -5.3390733 -12.4625706 -14.6337072  -6.3408332 -12.6150382 -16.0967055
  -4.7390000 -11.2920000 -16.2490000  -4.7469027 -10.2857905 -16.3360592
  -3.7730000 -11.9730000 -16.8550000  -3.7310000 -13.2950000 -16.7630000
  -4.4362841 -13.7837436 -16.2302674  -2.9939146 -13.8072197 -17.2260720
  -2.8460000 -11.3310000 -17.5550000  -2.8777521 -10.3239377 -17.6251241
  -2.1130768 -11.8524599 -18.0143494  -9.5840000  -9.6820000 -14.6640000
 -10.6700000  -9.9620000 -15.1710000  -9.3150000  -9.8780000 -13.3780000
  -8.3984392  -9.6594728 -13.0143223 -10.3010000 -10.4490000 -12.4690000
 -10.8045226 -11.2886155 -12.9481764  -9.6210000 -10.9500000 -11.1940000
  -9.2377836 -10.0773431 -10.6651197 -10.3849545 -11.4356545 -10.5868647
  -8.4900000 -11.9200000 -11.4510000  -8.7440000 -13.2060000 -11.9110000
  -9.7764904 -13.5085810 -12.0856650  -7.7140000 -14.0960000 -12.1470000
  -7.9274062 -15.1024088 -12.5071401  -6.4100000 -13.7050000 -11.9250000
  -5.3810000 -14.5880000 -12.1590000  -5.6844566 -15.4429352 -12.4730057
  -6.1330000 -12.4330000 -11.4690000  -5.1028296 -12.1227255 -11.2941310
  -7.1690000 -11.5510000 -11.2340000  -6.9568086 -10.5451071 -10.8717096
 -11.3760000  -9.4250000 -12.1170000 -12.5660000  -9.6550000 -12.3370000
 -10.9470000  -8.2920000 -11.5700000  -9.9636789  -8.1619662 -11.3795527
 -11.8720000  -7.2300000 -11.1880000 -11.3161643  -6.3264972 -10.9373438
 -12.8230000  -6.9140000 -12.3420000 -12.2931288  -6.9786394 -13.2923460
 -13.6597118  -7.6125737 -12.3448688 -13.4130000  -5.5390000 -12.2730000
 -14.0430000  -5.0460000 -11.1500000 -14.4570000  -3.8140000 -11.3860000
 -14.9827240  -3.2487843 -10.6164258 -14.1180000  -3.4890000 -12.6200000
 -14.3044252  -2.6069915 -13.0754192 -13.4640000  -4.5500000 -13.1960000
 -13.1020714  -4.4754852 -14.2214543 -12.6690000  -7.6240000  -9.9480000
 -12.4890000  -7.0500000  -8.8740000 -13.5510000  -8.6050000 -10.1050000
 -13.6869865  -9.0215014 -11.0150185 -14.3760000  -9.0760000  -8.9990000
 -15.0831741  -8.2995338  -8.7072736 -15.1610000 -10.3210000  -9.4140000
 -14.4673378 -11.0103188  -9.8954265 -15.5625162 -10.7817031  -8.5114273
 -16.2960000 -10.0010000 -10.3650000 -17.0490000  -9.0440000 -10.0890000
 -16.4330000 -10.7070000 -11.3860000 -13.5200000  -9.3820000  -7.7740000
 -12.5040000 -10.0710000  -7.8720000 -13.9360000  -8.8660000  -6.6230000
 -14.7599111  -8.2823191  -6.5987816 -13.2060000  -9.0830000  -5.3800000
 -12.2134064  -8.6381303  -5.4503425 -13.9490000  -8.4380000  -4.2080000
 -13.2375093  -8.3335432  -3.3888730 -14.2755681  -7.4501937  -4.5331029
 -15.1520000  -9.2390000  -3.7350000 -15.8515498  -9.3353421  -4.5653307
 -14.8108482 -10.2286918  -3.4313100 -15.8460000  -8.5610000  -2.5640000
 -16.6904648  -9.1740580  -2.2491382 -15.1392053  -8.4661341  -1.7396572
 -16.3380000  -7.2310000  -2.9140000 -16.1132086  -6.8692308  -3.8298009
 -17.0630000  -6.4770000  -2.0950000 -17.3780000  -6.9190000  -0.8860000
 -17.0651524  -7.8319344  -0.5880450 -17.9294654  -6.3408874  -0.2681235
 -17.4730000  -5.2770000  -2.4860000 -17.2321369  -4.9397404  -3.4070543
 -18.0240257  -4.7064603  -1.8607370 -13.0130000 -10.5730000  -5.1160000
 -12.0670000 -10.9760000  -4.4380000 -13.9150000 -11.3860000  -5.6550000
 -14.6896100 -11.0054741  -6.1796701 -13.8450000 -12.8310000  -5.4760000
 -13.7977939 -13.0711559  -4.4138343 -15.0830000 -13.5010000  -6.0740000
 -14.9687867 -13.4878528  -7.1579196 -15.0963110 -14.5328770  -5.7230689
 -16.3880000 -12.8200000  -5.6940000 -16.4363886 -12.7478675  -4.6074659
 -16.3933115 -11.8187070  -6.1246811 -17.5910000 -13.5970000  -6.2040000
 -18.5017837 -13.0968753  -5.8746866 -17.5629229 -13.6192703  -7.2934105
 -17.6060000 -14.9710000  -5.7080000 -16.8513522 -15.2637490  -5.1039271
 -18.5550000 -15.8510000  -6.0090000 -19.5610000 -15.5020000  -6.8000000
 -19.6039979 -14.5645594  -7.1734384 -20.2793566 -16.1753118  -7.0251990
 -18.4990000 -17.0820000  -5.5180000 -17.7333343 -17.3476406  -4.9152636
 -19.2222831 -17.7479810  -5.7491484 -12.5850000 -13.3990000  -6.1230000
 -11.7070000 -13.9230000  -5.4380000 -12.5030000 -13.2890000  -7.4450000
 -13.2633370 -12.8774574  -7.9671299 -11.3500000 -13.7920000  -8.1830000
 -11.2265755 -14.8586615  -7.9956533 -11.5460000 -13.5790000  -9.6850000
 -11.8482286 -12.5417953  -9.8297874 -10.5822523 -13.7465804 -10.1658402
 -12.5860000 -14.5000000 -10.3010000 -12.3866436 -15.5127898  -9.9508363
 -13.5663264 -14.1803210  -9.9476382 -12.5630000 -14.4760000 -11.8170000
 -13.0730000 -13.4980000 -12.4020000 -12.0340000 -15.4350000 -12.4170000
 -10.0680000 -13.1050000  -7.7230000  -8.9720000 -13.6460000  -7.8720000
 -10.2120000 -11.9080000  -7.1640000 -11.1292328 -11.4913324  -7.0920876
  -9.0670000 -11.1460000  -6.6810000  -8.3241065 -11.0498725  -7.4728131
  -9.5070000  -9.7440000  -6.2500000 -10.2670481  -9.4092278  -6.9559417
  -9.9475894  -9.8313024  -5.2568438  -8.3720000  -8.7360000  -6.2130000
  -7.9589156  -8.7179953  -5.2044674  -7.6021384  -9.0569457  -6.9147186
  -8.8510000  -7.3430000  -6.5890000  -9.7300383  -7.1062053  -5.9895678
  -8.0562119  -6.6317557  -6.3641826  -9.2060000  -7.2560000  -8.0650000
  -9.5116770  -8.2464145  -8.4022556 -10.0389502  -6.5617804  -8.1761408
  -8.0560000  -6.7860000  -8.8850000  -7.2842083  -7.4293736  -8.7824928
  -8.3306778  -6.7416515  -9.8559198  -7.7728714  -5.8680939  -8.5729333
  -8.3910000 -11.8590000  -5.5140000  -7.2080000 -11.6480000  -5.2460000
  -9.1490000 -12.7040000  -4.8240000 -10.1232517 -12.8194730  -5.0639977
  -8.6240000 -13.4510000  -3.6880000  -8.3269558 -12.7624544  -2.8969444
  -9.6910000 -14.3990000  -3.1360000 -10.0441748 -15.0114246  -3.9656402
  -9.2093498 -15.0359959  -2.3941447 -10.8690000 -13.6820000  -2.4990000
 -11.2228455 -12.9174840  -3.1906716 -11.6623626 -14.4088618  -2.3247885
 -10.4800000 -13.0320000  -1.1820000  -9.5538628 -12.4768889  -1.3310653
 -11.2726237 -12.3434070  -0.8892769 -10.2790000 -14.0680000  -0.0870000
  -9.9950188 -15.0103350  -0.5554656  -9.4720497 -13.7277813   0.5619851
 -11.5150000 -14.2680000   0.7210000 -12.2627474 -14.5836688   0.1198953
 -11.3418712 -14.9608533   1.4351993 -11.7780731 -13.3950266   1.1555216
  -7.3820000 -14.2440000  -4.0850000  -6.3190000 -14.0890000  -3.4860000
  -7.5260000 -15.0910000  -5.0990000  -8.4278640 -15.2057804  -5.5389615
  -6.4150000 -15.9070000  -5.5760000  -6.0936483 -16.5913529  -4.7908291
  -6.8430000 -16.7270000  -6.7940000  -7.3948330 -16.0612190  -7.4575625
  -5.9356358 -17.0666707  -7.2934137  -7.7090000 -17.9270000  -6.4460000
  -8.6448905 -17.5693853  -6.0166732  -7.9183040 -18.4847729  -7.3587888
  -7.0440000 -18.8580000  -5.4510000  -7.1950000 -18.7000000  -4.2390000
  -6.3020000 -19.8350000  -5.9580000  -5.8362697 -20.4840137  -5.3399564
  -6.2065936 -19.9248446  -6.9594624  -5.2140000 -15.0370000  -5.9300000
  -4.0660000 -15.4280000  -5.7160000  -5.4850000 -13.8550000  -6.4740000
  -6.4425706 -13.5920854  -6.6584825  -4.4280000 -12.9290000  -6.8590000
  -3.7076949 -13.4349639  -7.5018532  -5.0150000 -11.7410000  -7.6230000
  -5.3989048 -12.0808165  -8.5848945  -5.8264899 -11.3008192  -7.0434959
  -3.8220000 -10.4020000  -7.9470000  -3.6650000 -12.4330000  -5.6340000
  -2.4350000 -12.4590000  -5.6030000  -4.4050000 -11.9830000  -4.6260000
  -5.4109853 -11.9525563  -4.7106529  -3.7990000 -11.4830000  -3.3970000
  -3.1476356 -10.6384215  -3.6217461  -4.8820000 -11.0190000  -2.4210000
  -5.5926665 -11.8377754  -2.3084866  -4.3976599 -10.8248835  -1.4640081
  -5.6170000  -9.7700000  -2.8790000  -5.6895753  -9.7983145  -3.9662129
  -6.6179960  -9.7879324  -2.4479693  -4.7840000  -8.2510000  -2.3800000
  -5.0420000  -8.2900000  -0.6080000  -4.5895822  -9.1912088  -0.1941888
  -4.5824862  -7.4120305  -0.1539986  -6.1111668  -8.2905284  -0.3959072
  -2.9340000 -12.5560000  -2.7420000  -1.9110000 -12.2530000  -2.1280000
  -3.3510000 -13.8100000  -2.8770000  -4.2138408 -14.0052618  -3.3643170
  -2.6150000 -14.9280000  -2.3000000  -2.3405996 -14.6992366  -1.2702083
  -3.4770000 -16.1920000  -2.3070000  -3.9686555 -16.2461032  -3.2783120
  -2.8072506 -17.0441571  -2.1913975  -4.5250000 -16.2190000  -1.2070000
  -5.1662883 -15.3448692  -1.3198961  -5.1217633 -17.1239568  -1.3211436
  -3.8870000 -16.2040000   0.1720000  -4.4207935 -16.9108542   0.8072327
  -2.8473636 -16.5168023   0.0749931  -3.9430000 -14.8190000   0.7970000
  -3.1572548 -14.7513595   1.5494159  -3.7600411 -14.0829305   0.0141674
  -5.2620000 -14.5500000   1.4320000  -5.4315341 -15.2316896   2.1577115
  -5.2592778 -13.6235765   1.8342836  -5.9901833 -14.6122072   0.7348785
  -1.3200000 -15.1800000  -3.0650000  -0.3000000 -15.5400000  -2.4790000
  -1.3670000 -14.9860000  -4.3800000  -2.2206976 -14.6891233  -4.8307370
  -0.1910000 -15.1960000  -5.2040000   0.2886879 -16.1234513  -4.8912177
  -0.5085956 -15.2842514  -6.2429630   0.8070000 -14.0610000  -5.0880000
   2.0080000 -14.2590000  -5.2760000   0.3110000 -12.8680000  -4.7800000
  -0.6853831 -12.7494452  -4.6648272   1.1670000 -11.6960000  -4.6420000
   1.9787578 -11.7421038  -5.3679635   0.3620000 -10.4180000  -4.8890000
  -0.2914811 -10.5602448  -5.7497137  -0.2406512 -10.1918666  -4.0093550
   1.3840000  -8.9460000  -5.2120000   1.8050000 -11.6480000  -3.2560000
   2.5580000 -10.7270000  -2.9390000   1.4980000 -12.6470000  -2.4350000
   0.8524022 -13.3650458  -2.7311638   2.0390000 -12.7190000  -1.0840000
   2.1350868 -11.7155942  -0.6692189   1.1100000 -13.5340000  -0.1820000
   0.2771209 -13.8761014  -0.7963112   1.6752476 -14.3949587   0.1748549
   0.5750000 -12.7520000   1.0060000   1.1496642 -11.8305558   1.0998212
  -0.4708145 -12.5097214   0.8171211   0.6850000 -13.5510000   2.2950000
   1.4918583 -14.2769267   2.1944554   0.9096642 -12.8702376   3.1160895
  -0.5510000 -14.2650000   2.6040000  -1.2682679 -14.2958790   1.8935968
  -0.7800000 -14.8730000   3.7630000   0.1400000 -14.8530000   4.7180000
   1.0154213 -14.3741447   4.5616823  -0.0390152 -15.3167174   5.5972152
  -1.9300000 -15.5010000   3.9680000  -2.6306058 -15.5155038   3.2406478
  -2.0998812 -15.9618555   4.8505255   3.4330000 -13.3400000  -1.0890000
   4.0520000 -13.5100000  -0.0380000   3.9210000 -13.6760000  -2.2780000
   3.3632581 -13.5429425  -3.1094559   5.2400000 -14.2800000  -2.4200000
   5.4624805 -14.8944171  -1.5475934   5.2870000 -15.1660000  -3.6670000
   4.8280020 -14.6070096  -4.4824446   6.3365762 -15.3482946  -3.8977779
   4.5720000 -16.4870000  -3.4970000   3.1960000 -16.5350000  -3.3090000
   2.6350474 -15.6007150  -3.2856948   2.5380000 -17.7400000  -3.1530000
   1.4581576 -17.7638413  -3.0064602   3.2560000 -18.9180000  -3.1860000
   2.6050000 -20.1210000  -3.0310000   1.6581616 -20.0219262  -2.9073833
   4.6220000 -18.8960000  -3.3710000   5.1889131 -19.8266355  -3.3960517
   5.2720000 -17.6870000  -3.5250000   6.3518591 -17.6635706  -3.6714769
   6.3240000 -13.2090000  -2.5030000   7.4480000 -13.4100000  -2.0450000
   5.9760000 -12.0680000  -3.0910000   5.0437102 -11.9353700  -3.4561633
   6.9280000 -10.9810000  -3.2240000   6.9738931 -10.4454269  -2.2757624
   7.9064384 -11.4056522  -3.4485623   6.5490000 -10.0080000  -4.3220000
   5.7670000  -9.0840000  -4.0990000   7.0180355 -10.1285902  -5.4515600
