%VERSION  VERSION_STAMP = V0001.000  DATE = 06/11/26  08:10:30                  
%FLAG TITLE                                                                     
%FORMAT(20a4)                                                                   
default_name                                                                    
%FLAG POINTERS                                                                  
%FORMAT(10I8)                                                                   
     470      14     229     245     522     321    1080     945       0       0
    2549      28     245     321     945      51     108     105      28       0
       0       0       0       0       0       0       0       0      24       0
       0
%FLAG ATOM_NAME                                                                 
%FORMAT(20a4)                                                                   
N   H1  H2  H3  CA  HA  CB  HB1 HB2 HB3 C   O   N   H   CA  HA  CB  HB2 HB3 CG  
OD1 OD2 C   O   N   H   CA  HA  CB  HB2 HB3 CG  OD1 OD2 C   O   N   H   CA  HA  
CB  HB2 HB3 CG  HG2 HG3 CD  HD2 HD3 NE  HE  CZ  NH1 HH11HH12NH2 HH21HH22C   O   
N   H   CA  HA  CB  HB2 HB3 SG  C   O   N   H   CA  HA  CB  HB2 HB3 CG  HG2 HG3 
CD  OE1 OE2 C   O   N   H   CA  HA  CB  HB2 HB3 CG  HG2 HG3 CD  HD2 HD3 NE  HE  
CZ  NH1 HH11HH12NH2 HH21HH22C   O   N   H   CA  HA  CB  HB2 HB3 CG  HG2 HG3 SD  
CE  HE1 HE2 HE3 C   O   N   H   CA  HA  CB  HB2 HB3 SG  C   O   N   H   CA  HA  
CB  HB2 HB3 CG  HG2 HG3 CD  OE1 NE2 HE21HE22C   O   N   H   CA  HA  CB  HB2 HB3 
CG  HG2 HG3 CD  HD2 HD3 NE  HE  CZ  NH1 HH11HH12NH2 HH21HH22C   O   N   H   CA  
HA  CB  HB2 HB3 CG  CD1 HD1 CE1 HE1 CZ  OH  HH  CE2 HE2 CD2 HD2 C   O   N   H   
CA  HA  CB  HB2 HB3 CG  ND1 CE1 HE1 NE2 HE2 CD2 HD2 C   O   N   H   CA  HA  CB  
HB2 HB3 CG  OD1 OD2 C   O   N   H   CA  HA  CB  HB2 HB3 CG  HG2 HG3 CD  HD2 HD3 
NE  HE  CZ  NH1 HH11HH12NH2 HH21HH22C   O   N   H   CA  HA  CB  HB2 HB3 CG  HG2 
HG3 CD  HD2 HD3 NE  HE  CZ  NH1 HH11HH12NH2 HH21HH22C   O   N   H   CA  HA  CB  
HB2 HB3 CG  HG2 HG3 CD  OE1 OE2 C   O   N   H   CA  HA  CB  HB2 HB3 CG  HG2 HG3 
CD  HD2 HD3 CE  HE2 HE3 NZ  HZ1 HZ2 HZ3 C   O   N   H   CA  HA  CB  HB2 HB3 CG  
HG2 HG3 CD  HD2 HD3 CE  HE2 HE3 NZ  HZ1 HZ2 HZ3 C   O   N   H   CA  HA  CB  HB2 
HB3 CG  HG2 HG3 CD  OE1 NE2 HE21HE22C   O   N   H   CA  HA  CB  HB2 HB3 SG  C   
O   N   H   CA  HA  CB  HB2 HB3 CG  HG2 HG3 SD  CE  HE1 HE2 HE3 C   O   N   H   
CA  HA  CB  HB2 HB3 CG  HG2 HG3 CD  HD2 HD3 CE  HE2 HE3 NZ  HZ1 HZ2 HZ3 C   O   
N   H   CA  HA2 HA3 C   O   N   H   CA  HA  CB  HB2 HB3 SG  C   O   N   H   CA  
HA  CB  HB2 HB3 CG  HG2 HG3 CD  HD2 HD3 NE  HE  CZ  NH1 HH11HH12NH2 HH21HH22C   
O   N   H   CA  HA  CB  HB2 HB3 CG  CD1 HD1 CE1 HE1 CZ  OH  HH  CE2 HE2 CD2 HD2 
C   O   N   H   CA  HA2 HA3 C   O   OXT 
%FLAG CHARGE                                                                    
%FORMAT(5E16.8)                                                                 
  2.57663322E+00  3.63899331E+00  3.63899331E+00  3.63899331E+00  1.75298526E+00
  1.61996247E+00 -1.08787131E+00  5.46669000E-01  5.46669000E-01  5.46669000E-01
  1.12304035E+01 -1.04268001E+01 -9.40817349E+00  5.35006728E+00  6.94269630E-01
  1.60356240E+00 -5.52135690E-01 -2.22312060E-01 -2.22312060E-01  1.45669066E+01
 -1.46033512E+01 -1.46033512E+01  9.77808618E+00 -1.06035564E+01 -9.40817349E+00
  5.35006728E+00  6.94269630E-01  1.60356240E+00 -5.52135690E-01 -2.22312060E-01
 -2.22312060E-01  1.45669066E+01 -1.46033512E+01 -1.46033512E+01  9.77808618E+00
 -1.06035564E+01 -6.33953817E+00  5.00566581E+00 -4.80522051E+00  2.84267880E+00
 -1.27556100E-02  5.95869210E-01  5.95869210E-01  7.10669700E-01  5.19335550E-01
  5.19335550E-01  8.85603780E-01  1.25187201E+00  1.25187201E+00 -9.64870785E+00
  6.29762688E+00  1.47163295E+01 -1.57203782E+01  8.15994594E+00  8.15994594E+00
 -1.57203782E+01  8.15994594E+00  8.15994594E+00  1.33769904E+01 -1.07402236E+01
 -7.57501011E+00  4.95464337E+00  7.81736670E-01  1.39582818E+00 -1.43956170E+00
  1.65822930E+00  1.65822930E+00 -1.96983063E+00  1.08841798E+01 -1.03484442E+01
 -9.40817349E+00  5.35006728E+00  7.23425310E-01  2.01356415E+00  1.02044880E+00
 -3.15245790E-01 -3.15245790E-01  2.47823280E-01 -7.74447750E-01 -7.74447750E-01
  1.46762404E+01 -1.49204192E+01 -1.49204192E+01  9.77808618E+00 -1.06035564E+01
 -6.33953817E+00  5.00566581E+00 -4.80522051E+00  2.84267880E+00 -1.27556100E-02
  5.95869210E-01  5.95869210E-01  7.10669700E-01  5.19335550E-01  5.19335550E-01
  8.85603780E-01  1.25187201E+00  1.25187201E+00 -9.64870785E+00  6.29762688E+00
  1.47163295E+01 -1.57203782E+01  8.15994594E+00  8.15994594E+00 -1.57203782E+01
  8.15994594E+00  8.15994594E+00  1.33769904E+01 -1.07402236E+01 -7.57501011E+00
  4.95464337E+00 -4.31868510E-01  1.60356240E+00  6.23202660E-01  4.39157430E-01
  4.39157430E-01  3.28001400E-02  8.01781200E-01  8.01781200E-01 -4.98744351E+00
 -9.76715280E-01  1.24640532E+00  1.24640532E+00  1.24640532E+00  1.08841798E+01
 -1.03484442E+01 -7.57501011E+00  4.95464337E+00  7.81736670E-01  1.39582818E+00
 -1.43956170E+00  1.65822930E+00  1.65822930E+00 -1.96983063E+00  1.08841798E+01
 -1.03484442E+01 -7.57501011E+00  4.95464337E+00 -5.64891300E-02  1.54889550E+00
 -6.56002800E-02  3.11601330E-01  3.11601330E-01 -1.17533835E+00  6.41424960E-01
  6.41424960E-01  1.26663207E+01 -1.10900918E+01 -1.71417176E+01  7.74629973E+00
  7.74629973E+00  1.08841798E+01 -1.03484442E+01 -6.33953817E+00  5.00566581E+00
 -4.80522051E+00  2.84267880E+00 -1.27556100E-02  5.95869210E-01  5.95869210E-01
  7.10669700E-01  5.19335550E-01  5.19335550E-01  8.85603780E-01  1.25187201E+00
  1.25187201E+00 -9.64870785E+00  6.29762688E+00  1.47163295E+01 -1.57203782E+01
  8.15994594E+00  8.15994594E+00 -1.57203782E+01  8.15994594E+00  8.15994594E+00
  1.33769904E+01 -1.07402236E+01 -7.57501011E+00  4.95464337E+00 -2.55112200E-02
  1.59627348E+00 -2.76978960E-01  5.37557850E-01  5.37557850E-01 -2.00445300E-02
 -3.47317038E+00  3.09596877E+00 -4.26584043E+00  3.01761288E+00  5.87851398E+00
 -1.01662212E+01  7.27434216E+00 -4.26584043E+00  3.01761288E+00 -3.47317038E+00
  3.09596877E+00  1.08841798E+01 -1.03484442E+01 -7.57501011E+00  4.95464337E+00
 -1.05871563E+00  2.47823280E+00 -1.34845020E-01  6.68758410E-01  6.68758410E-01
  3.40392564E+00 -9.89835336E+00  2.97934605E+00  2.61490005E+00 -5.09313285E+00
  6.08442597E+00 -4.02166161E+00  3.39299226E+00  1.08841798E+01 -1.03484442E+01
 -9.40817349E+00  5.35006728E+00  6.94269630E-01  1.60356240E+00 -5.52135690E-01
 -2.22312060E-01 -2.22312060E-01  1.45669066E+01 -1.46033512E+01 -1.46033512E+01
  9.77808618E+00 -1.06035564E+01 -6.33953817E+00  5.00566581E+00 -4.80522051E+00
  2.84267880E+00 -1.27556100E-02  5.95869210E-01  5.95869210E-01  7.10669700E-01
  5.19335550E-01  5.19335550E-01  8.85603780E-01  1.25187201E+00  1.25187201E+00
 -9.64870785E+00  6.29762688E+00  1.47163295E+01 -1.57203782E+01  8.15994594E+00
  8.15994594E+00 -1.57203782E+01  8.15994594E+00  8.15994594E+00  1.33769904E+01
 -1.07402236E+01 -6.33953817E+00  5.00566581E+00 -4.80522051E+00  2.84267880E+00
 -1.27556100E-02  5.95869210E-01  5.95869210E-01  7.10669700E-01  5.19335550E-01
  5.19335550E-01  8.85603780E-01  1.25187201E+00  1.25187201E+00 -9.64870785E+00
  6.29762688E+00  1.47163295E+01 -1.57203782E+01  8.15994594E+00  8.15994594E+00
 -1.57203782E+01  8.15994594E+00  8.15994594E+00  1.33769904E+01 -1.07402236E+01
 -9.40817349E+00  5.35006728E+00  7.23425310E-01  2.01356415E+00  1.02044880E+00
 -3.15245790E-01 -3.15245790E-01  2.47823280E-01 -7.74447750E-01 -7.74447750E-01
  1.46762404E+01 -1.49204192E+01 -1.49204192E+01  9.77808618E+00 -1.06035564E+01
 -6.33953817E+00  5.00566581E+00 -4.37335200E+00  2.59849998E+00 -1.71289620E-01
  6.59647260E-01  6.59647260E-01  3.40757010E-01  1.87689690E-01  1.87689690E-01
 -8.72848170E-01  1.13160483E+00  1.13160483E+00 -2.60578890E-01  2.06823105E+00
  2.06823105E+00 -7.02287442E+00  6.19558200E+00  6.19558200E+00  6.19558200E+00
  1.33769904E+01 -1.07402236E+01 -6.33953817E+00  5.00566581E+00 -4.37335200E+00
  2.59849998E+00 -1.71289620E-01  6.59647260E-01  6.59647260E-01  3.40757010E-01
  1.87689690E-01  1.87689690E-01 -8.72848170E-01  1.13160483E+00  1.13160483E+00
 -2.60578890E-01  2.06823105E+00  2.06823105E+00 -7.02287442E+00  6.19558200E+00
  6.19558200E+00  6.19558200E+00  1.33769904E+01 -1.07402236E+01 -7.57501011E+00
  4.95464337E+00 -5.64891300E-02  1.54889550E+00 -6.56002800E-02  3.11601330E-01
  3.11601330E-01 -1.17533835E+00  6.41424960E-01  6.41424960E-01  1.26663207E+01
 -1.10900918E+01 -1.71417176E+01  7.74629973E+00  7.74629973E+00  1.08841798E+01
 -1.03484442E+01 -7.57501011E+00  4.95464337E+00  7.81736670E-01  1.39582818E+00
 -1.43956170E+00  1.65822930E+00  1.65822930E+00 -1.96983063E+00  1.08841798E+01
 -1.03484442E+01 -7.57501011E+00  4.95464337E+00 -4.31868510E-01  1.60356240E+00
  6.23202660E-01  4.39157430E-01  4.39157430E-01  3.28001400E-02  8.01781200E-01
  8.01781200E-01 -4.98744351E+00 -9.76715280E-01  1.24640532E+00  1.24640532E+00
  1.24640532E+00  1.08841798E+01 -1.03484442E+01 -6.33953817E+00  5.00566581E+00
 -4.37335200E+00  2.59849998E+00 -1.71289620E-01  6.59647260E-01  6.59647260E-01
  3.40757010E-01  1.87689690E-01  1.87689690E-01 -8.72848170E-01  1.13160483E+00
  1.13160483E+00 -2.60578890E-01  2.06823105E+00  2.06823105E+00 -7.02287442E+00
  6.19558200E+00  6.19558200E+00  6.19558200E+00  1.33769904E+01 -1.07402236E+01
 -7.57501011E+00  4.95464337E+00 -4.59201960E-01  1.27191654E+00  1.27191654E+00
  1.08841798E+01 -1.03484442E+01 -7.57501011E+00  4.95464337E+00  7.81736670E-01
  1.39582818E+00 -1.43956170E+00  1.65822930E+00  1.65822930E+00 -1.96983063E+00
  1.08841798E+01 -1.03484442E+01 -6.33953817E+00  5.00566581E+00 -4.80522051E+00
  2.84267880E+00 -1.27556100E-02  5.95869210E-01  5.95869210E-01  7.10669700E-01
  5.19335550E-01  5.19335550E-01  8.85603780E-01  1.25187201E+00  1.25187201E+00
 -9.64870785E+00  6.29762688E+00  1.47163295E+01 -1.57203782E+01  8.15994594E+00
  8.15994594E+00 -1.57203782E+01  8.15994594E+00  8.15994594E+00  1.33769904E+01
 -1.07402236E+01 -7.57501011E+00  4.95464337E+00 -2.55112200E-02  1.59627348E+00
 -2.76978960E-01  5.37557850E-01  5.37557850E-01 -2.00445300E-02 -3.47317038E+00
  3.09596877E+00 -4.26584043E+00  3.01761288E+00  5.87851398E+00 -1.01662212E+01
  7.27434216E+00 -4.26584043E+00  3.01761288E+00 -3.47317038E+00  3.09596877E+00
  1.08841798E+01 -1.03484442E+01 -6.96274083E+00  4.88539863E+00 -4.54281939E+00
  1.92427488E+00  1.92427488E+00  1.31765451E+01 -1.43136167E+01 -1.43136167E+01
%FLAG ATOMIC_NUMBER                                                             
%FORMAT(10I8)                                                                   
       7       1       1       1       6       1       6       1       1       1
       6       8       7       1       6       1       6       1       1       6
       8       8       6       8       7       1       6       1       6       1
       1       6       8       8       6       8       7       1       6       1
       6       1       1       6       1       1       6       1       1       7
       1       6       7       1       1       7       1       1       6       8
       7       1       6       1       6       1       1      16       6       8
       7       1       6       1       6       1       1       6       1       1
       6       8       8       6       8       7       1       6       1       6
       1       1       6       1       1       6       1       1       7       1
       6       7       1       1       7       1       1       6       8       7
       1       6       1       6       1       1       6       1       1      16
       6       1       1       1       6       8       7       1       6       1
       6       1       1      16       6       8       7       1       6       1
       6       1       1       6       1       1       6       8       7       1
       1       6       8       7       1       6       1       6       1       1
       6       1       1       6       1       1       7       1       6       7
       1       1       7       1       1       6       8       7       1       6
       1       6       1       1       6       6       1       6       1       6
       8       1       6       1       6       1       6       8       7       1
       6       1       6       1       1       6       7       6       1       7
       1       6       1       6       8       7       1       6       1       6
       1       1       6       8       8       6       8       7       1       6
       1       6       1       1       6       1       1       6       1       1
       7       1       6       7       1       1       7       1       1       6
       8       7       1       6       1       6       1       1       6       1
       1       6       1       1       7       1       6       7       1       1
       7       1       1       6       8       7       1       6       1       6
       1       1       6       1       1       6       8       8       6       8
       7       1       6       1       6       1       1       6       1       1
       6       1       1       6       1       1       7       1       1       1
       6       8       7       1       6       1       6       1       1       6
       1       1       6       1       1       6       1       1       7       1
       1       1       6       8       7       1       6       1       6       1
       1       6       1       1       6       8       7       1       1       6
       8       7       1       6       1       6       1       1      16       6
       8       7       1       6       1       6       1       1       6       1
       1      16       6       1       1       1       6       8       7       1
       6       1       6       1       1       6       1       1       6       1
       1       6       1       1       7       1       1       1       6       8
       7       1       6       1       1       6       8       7       1       6
       1       6       1       1      16       6       8       7       1       6
       1       6       1       1       6       1       1       6       1       1
       7       1       6       7       1       1       7       1       1       6
       8       7       1       6       1       6       1       1       6       6
       1       6       1       6       8       1       6       1       6       1
       6       8       7       1       6       1       1       6       8       8
%FLAG MASS                                                                      
%FORMAT(5E16.8)                                                                 
  1.40100000E+01  1.00800000E+00  1.00800000E+00  1.00800000E+00  1.20100000E+01
  1.00800000E+00  1.20100000E+01  1.00800000E+00  1.00800000E+00  1.00800000E+00
  1.20100000E+01  1.60000000E+01  1.40100000E+01  1.00800000E+00  1.20100000E+01
  1.00800000E+00  1.20100000E+01  1.00800000E+00  1.00800000E+00  1.20100000E+01
  1.60000000E+01  1.60000000E+01  1.20100000E+01  1.60000000E+01  1.40100000E+01
  1.00800000E+00  1.20100000E+01  1.00800000E+00  1.20100000E+01  1.00800000E+00
  1.00800000E+00  1.20100000E+01  1.60000000E+01  1.60000000E+01  1.20100000E+01
  1.60000000E+01  1.40100000E+01  1.00800000E+00  1.20100000E+01  1.00800000E+00
  1.20100000E+01  1.00800000E+00  1.00800000E+00  1.20100000E+01  1.00800000E+00
  1.00800000E+00  1.20100000E+01  1.00800000E+00  1.00800000E+00  1.40100000E+01
  1.00800000E+00  1.20100000E+01  1.40100000E+01  1.00800000E+00  1.00800000E+00
  1.40100000E+01  1.00800000E+00  1.00800000E+00  1.20100000E+01  1.60000000E+01
  1.40100000E+01  1.00800000E+00  1.20100000E+01  1.00800000E+00  1.20100000E+01
  1.00800000E+00  1.00800000E+00  3.20600000E+01  1.20100000E+01  1.60000000E+01
  1.40100000E+01  1.00800000E+00  1.20100000E+01  1.00800000E+00  1.20100000E+01
  1.00800000E+00  1.00800000E+00  1.20100000E+01  1.00800000E+00  1.00800000E+00
  1.20100000E+01  1.60000000E+01  1.60000000E+01  1.20100000E+01  1.60000000E+01
  1.40100000E+01  1.00800000E+00  1.20100000E+01  1.00800000E+00  1.20100000E+01
  1.00800000E+00  1.00800000E+00  1.20100000E+01  1.00800000E+00  1.00800000E+00
  1.20100000E+01  1.00800000E+00  1.00800000E+00  1.40100000E+01  1.00800000E+00
  1.20100000E+01  1.40100000E+01  1.00800000E+00  1.00800000E+00  1.40100000E+01
  1.00800000E+00  1.00800000E+00  1.20100000E+01  1.60000000E+01  1.40100000E+01
  1.00800000E+00  1.20100000E+01  1.00800000E+00  1.20100000E+01  1.00800000E+00
  1.00800000E+00  1.20100000E+01  1.00800000E+00  1.00800000E+00  3.20600000E+01
  1.20100000E+01  1.00800000E+00  1.00800000E+00  1.00800000E+00  1.20100000E+01
  1.60000000E+01  1.40100000E+01  1.00800000E+00  1.20100000E+01  1.00800000E+00
  1.20100000E+01  1.00800000E+00  1.00800000E+00  3.20600000E+01  1.20100000E+01
  1.60000000E+01  1.40100000E+01  1.00800000E+00  1.20100000E+01  1.00800000E+00
  1.20100000E+01  1.00800000E+00  1.00800000E+00  1.20100000E+01  1.00800000E+00
  1.00800000E+00  1.20100000E+01  1.60000000E+01  1.40100000E+01  1.00800000E+00
  1.00800000E+00  1.20100000E+01  1.60000000E+01  1.40100000E+01  1.00800000E+00
  1.20100000E+01  1.00800000E+00  1.20100000E+01  1.00800000E+00  1.00800000E+00
  1.20100000E+01  1.00800000E+00  1.00800000E+00  1.20100000E+01  1.00800000E+00
  1.00800000E+00  1.40100000E+01  1.00800000E+00  1.20100000E+01  1.40100000E+01
  1.00800000E+00  1.00800000E+00  1.40100000E+01  1.00800000E+00  1.00800000E+00
  1.20100000E+01  1.60000000E+01  1.40100000E+01  1.00800000E+00  1.20100000E+01
  1.00800000E+00  1.20100000E+01  1.00800000E+00  1.00800000E+00  1.20100000E+01
  1.20100000E+01  1.00800000E+00  1.20100000E+01  1.00800000E+00  1.20100000E+01
  1.60000000E+01  1.00800000E+00  1.20100000E+01  1.00800000E+00  1.20100000E+01
  1.00800000E+00  1.20100000E+01  1.60000000E+01  1.40100000E+01  1.00800000E+00
  1.20100000E+01  1.00800000E+00  1.20100000E+01  1.00800000E+00  1.00800000E+00
  1.20100000E+01  1.40100000E+01  1.20100000E+01  1.00800000E+00  1.40100000E+01
  1.00800000E+00  1.20100000E+01  1.00800000E+00  1.20100000E+01  1.60000000E+01
  1.40100000E+01  1.00800000E+00  1.20100000E+01  1.00800000E+00  1.20100000E+01
  1.00800000E+00  1.00800000E+00  1.20100000E+01  1.60000000E+01  1.60000000E+01
  1.20100000E+01  1.60000000E+01  1.40100000E+01  1.00800000E+00  1.20100000E+01
  1.00800000E+00  1.20100000E+01  1.00800000E+00  1.00800000E+00  1.20100000E+01
  1.00800000E+00  1.00800000E+00  1.20100000E+01  1.00800000E+00  1.00800000E+00
  1.40100000E+01  1.00800000E+00  1.20100000E+01  1.40100000E+01  1.00800000E+00
  1.00800000E+00  1.40100000E+01  1.00800000E+00  1.00800000E+00  1.20100000E+01
  1.60000000E+01  1.40100000E+01  1.00800000E+00  1.20100000E+01  1.00800000E+00
  1.20100000E+01  1.00800000E+00  1.00800000E+00  1.20100000E+01  1.00800000E+00
  1.00800000E+00  1.20100000E+01  1.00800000E+00  1.00800000E+00  1.40100000E+01
  1.00800000E+00  1.20100000E+01  1.40100000E+01  1.00800000E+00  1.00800000E+00
  1.40100000E+01  1.00800000E+00  1.00800000E+00  1.20100000E+01  1.60000000E+01
  1.40100000E+01  1.00800000E+00  1.20100000E+01  1.00800000E+00  1.20100000E+01
  1.00800000E+00  1.00800000E+00  1.20100000E+01  1.00800000E+00  1.00800000E+00
  1.20100000E+01  1.60000000E+01  1.60000000E+01  1.20100000E+01  1.60000000E+01
  1.40100000E+01  1.00800000E+00  1.20100000E+01  1.00800000E+00  1.20100000E+01
  1.00800000E+00  1.00800000E+00  1.20100000E+01  1.00800000E+00  1.00800000E+00
  1.20100000E+01  1.00800000E+00  1.00800000E+00  1.20100000E+01  1.00800000E+00
  1.00800000E+00  1.40100000E+01  1.00800000E+00  1.00800000E+00  1.00800000E+00
  1.20100000E+01  1.60000000E+01  1.40100000E+01  1.00800000E+00  1.20100000E+01
  1.00800000E+00  1.20100000E+01  1.00800000E+00  1.00800000E+00  1.20100000E+01
  1.00800000E+00  1.00800000E+00  1.20100000E+01  1.00800000E+00  1.00800000E+00
  1.20100000E+01  1.00800000E+00  1.00800000E+00  1.40100000E+01  1.00800000E+00
  1.00800000E+00  1.00800000E+00  1.20100000E+01  1.60000000E+01  1.40100000E+01
  1.00800000E+00  1.20100000E+01  1.00800000E+00  1.20100000E+01  1.00800000E+00
  1.00800000E+00  1.20100000E+01  1.00800000E+00  1.00800000E+00  1.20100000E+01
  1.60000000E+01  1.40100000E+01  1.00800000E+00  1.00800000E+00  1.20100000E+01
  1.60000000E+01  1.40100000E+01  1.00800000E+00  1.20100000E+01  1.00800000E+00
  1.20100000E+01  1.00800000E+00  1.00800000E+00  3.20600000E+01  1.20100000E+01
  1.60000000E+01  1.40100000E+01  1.00800000E+00  1.20100000E+01  1.00800000E+00
  1.20100000E+01  1.00800000E+00  1.00800000E+00  1.20100000E+01  1.00800000E+00
  1.00800000E+00  3.20600000E+01  1.20100000E+01  1.00800000E+00  1.00800000E+00
  1.00800000E+00  1.20100000E+01  1.60000000E+01  1.40100000E+01  1.00800000E+00
  1.20100000E+01  1.00800000E+00  1.20100000E+01  1.00800000E+00  1.00800000E+00
  1.20100000E+01  1.00800000E+00  1.00800000E+00  1.20100000E+01  1.00800000E+00
  1.00800000E+00  1.20100000E+01  1.00800000E+00  1.00800000E+00  1.40100000E+01
  1.00800000E+00  1.00800000E+00  1.00800000E+00  1.20100000E+01  1.60000000E+01
  1.40100000E+01  1.00800000E+00  1.20100000E+01  1.00800000E+00  1.00800000E+00
  1.20100000E+01  1.60000000E+01  1.40100000E+01  1.00800000E+00  1.20100000E+01
  1.00800000E+00  1.20100000E+01  1.00800000E+00  1.00800000E+00  3.20600000E+01
  1.20100000E+01  1.60000000E+01  1.40100000E+01  1.00800000E+00  1.20100000E+01
  1.00800000E+00  1.20100000E+01  1.00800000E+00  1.00800000E+00  1.20100000E+01
  1.00800000E+00  1.00800000E+00  1.20100000E+01  1.00800000E+00  1.00800000E+00
  1.40100000E+01  1.00800000E+00  1.20100000E+01  1.40100000E+01  1.00800000E+00
  1.00800000E+00  1.40100000E+01  1.00800000E+00  1.00800000E+00  1.20100000E+01
  1.60000000E+01  1.40100000E+01  1.00800000E+00  1.20100000E+01  1.00800000E+00
  1.20100000E+01  1.00800000E+00  1.00800000E+00  1.20100000E+01  1.20100000E+01
  1.00800000E+00  1.20100000E+01  1.00800000E+00  1.20100000E+01  1.60000000E+01
  1.00800000E+00  1.20100000E+01  1.00800000E+00  1.20100000E+01  1.00800000E+00
  1.20100000E+01  1.60000000E+01  1.40100000E+01  1.00800000E+00  1.20100000E+01
  1.00800000E+00  1.00800000E+00  1.20100000E+01  1.60000000E+01  1.60000000E+01
%FLAG ATOM_TYPE_INDEX                                                           
%FORMAT(10I8)                                                                   
       1       2       2       2       3       4       3       5       5       5
       6       7       1       2       3       8       3       5       5       6
       7       7       6       7       1       2       3       8       3       5
       5       6       7       7       6       7       1       2       3       8
       3       5       5       3       5       5       3       8       8       1
       2       6       1       2       2       1       2       2       6       7
       1       2       3       8       3       8       8       9       6       7
       1       2       3       8       3       5       5       3       5       5
       6       7       7       6       7       1       2       3       8       3
       5       5       3       5       5       3       8       8       1       2
       6       1       2       2       1       2       2       6       7       1
       2       3       8       3       5       5       3       8       8       9
       3       8       8       8       6       7       1       2       3       8
       3       8       8       9       6       7       1       2       3       8
       3       5       5       3       5       5       6       7       1       2
       2       6       7       1       2       3       8       3       5       5
       3       5       5       3       8       8       1       2       6       1
       2       2       1       2       2       6       7       1       2       3
       8       3       5       5       6       6      10       6      10       6
      11      12       6      10       6      10       6       7       1       2
       3       8       3       5       5       6       1       6      13       1
       2       6      14       6       7       1       2       3       8       3
       5       5       6       7       7       6       7       1       2       3
       8       3       5       5       3       5       5       3       8       8
       1       2       6       1       2       2       1       2       2       6
       7       1       2       3       8       3       5       5       3       5
       5       3       8       8       1       2       6       1       2       2
       1       2       2       6       7       1       2       3       8       3
       5       5       3       5       5       6       7       7       6       7
       1       2       3       8       3       5       5       3       5       5
       3       5       5       3       4       4       1       2       2       2
       6       7       1       2       3       8       3       5       5       3
       5       5       3       5       5       3       4       4       1       2
       2       2       6       7       1       2       3       8       3       5
       5       3       5       5       6       7       1       2       2       6
       7       1       2       3       8       3       8       8       9       6
       7       1       2       3       8       3       5       5       3       8
       8       9       3       8       8       8       6       7       1       2
       3       8       3       5       5       3       5       5       3       5
       5       3       4       4       1       2       2       2       6       7
       1       2       3       8       8       6       7       1       2       3
       8       3       8       8       9       6       7       1       2       3
       8       3       5       5       3       5       5       3       8       8
       1       2       6       1       2       2       1       2       2       6
       7       1       2       3       8       3       5       5       6       6
      10       6      10       6      11      12       6      10       6      10
       6       7       1       2       3       8       8       6       7       7
%FLAG NUMBER_EXCLUDED_ATOMS                                                     
%FORMAT(10I8)                                                                   
      12       6       5       4      10       7       6       3       2       1
       7       3      10       4      12       7       8       5       4       3
       1       1       7       3      10       4      12       7       8       5
       4       3       1       1       7       3      10       4      13       7
      12       6       5       9       5       4       7       4       3       8
       3       6       5       2       1       2       1       1       7       3
      10       4      11       7       8       4       3       6       7       3
      10       4      13       7      11       6       5       6       4       3
       2       1       1       7       3      10       4      13       7      12
       6       5       9       5       4       7       4       3       8       3
       6       5       2       1       2       1       1       7       3      10
       4      13       7      10       6       5       8       3       2       4
       3       2       1       1       7       3      10       4      11       7
       8       4       3       6       7       3      10       4      13       7
      11       6       5       8       4       3       4       3       2       1
       1       7       3      10       4      13       7      12       6       5
       9       5       4       7       4       3       8       3       6       5
       2       1       2       1       1       7       3      10       4      12
       7      12       5       4      10       8       4       7       3       6
       4       1       3       2       1       1       7       3      10       4
      12       7      11       5       4       8       6       5       3       3
       2       1       1       7       3      10       4      12       7       8
       5       4       3       1       1       7       3      10       4      13
       7      12       6       5       9       5       4       7       4       3
       8       3       6       5       2       1       2       1       1       7
       3      10       4      13       7      12       6       5       9       5
       4       7       4       3       8       3       6       5       2       1
       2       1       1       7       3      10       4      13       7      11
       6       5       6       4       3       2       1       1       7       3
      10       4      13       7      12       6       5      10       5       4
       9       5       4       6       5       4       3       2       1       1
       7       3      10       4      13       7      12       6       5      10
       5       4       9       5       4       6       5       4       3       2
       1       1       7       3      10       4      13       7      11       6
       5       8       4       3       4       3       2       1       1       7
       3      10       4      10       7       6       3       2       1       7
       3      10       4      13       7      10       6       5       8       3
       2       4       3       2       1       1       7       3      10       4
      13       7      12       6       5      10       5       4       9       5
       4       6       5       4       3       2       1       1       7       3
       7       4       7       4       3       7       3      10       4      10
       7       6       3       2       1       7       3      10       4      13
       7      12       6       5       9       5       4       7       4       3
       8       3       6       5       2       1       2       1       1       7
       3      10       4      12       7      12       5       4      10       8
       4       7       3       6       4       1       3       2       1       1
       7       3       7       4       5       4       3       2       1       1
%FLAG NONBONDED_PARM_INDEX                                                      
%FORMAT(10I8)                                                                   
       1       2       4       7      11      16      22      29      37      46
      56      67      79      92       2       3       5       8      12      17
      23      30      38      47      57      68      80      93       4       5
       6       9      13      18      24      31      39      48      58      69
      81      94       7       8       9      10      14      19      25      32
      40      49      59      70      82      95      11      12      13      14
      15      20      26      33      41      50      60      71      83      96
      16      17      18      19      20      21      27      34      42      51
      61      72      84      97      22      23      24      25      26      27
      28      35      43      52      62      73      85      98      29      30
      31      32      33      34      35      36      44      53      63      74
      86      99      37      38      39      40      41      42      43      44
      45      54      64      75      87     100      46      47      48      49
      50      51      52      53      54      55      65      76      88     101
      56      57      58      59      60      61      62      63      64      65
      66      77      89     102      67      68      69      70      71      72
      73      74      75      76      77      78      90     103      79      80
      81      82      83      84      85      86      87      88      89      90
      91     104      92      93      94      95      96      97      98      99
     100     101     102     103     104     105
%FLAG RESIDUE_LABEL                                                             
%FORMAT(20a4)                                                                   
ALA ASP ASP ARG CYX GLU ARG MET CYX GLN ARG TYR HIE ASP ARG ARG GLU LYS LYS GLN 
CYX MET LYS GLY CYX ARG TYR GLY 
%FLAG RESIDUE_POINTER                                                           
%FORMAT(10I8)                                                                   
       1      13      25      37      61      71      86     110     127     137
     154     178     199     216     228     252     276     291     313     335
     352     362     379     401     408     418     442     463
%FLAG BOND_FORCE_CONSTANT                                                       
%FORMAT(5E16.8)                                                                 
  5.70000000E+02  4.90000000E+02  3.40000000E+02  3.40000000E+02  3.10000000E+02
  3.17000000E+02  4.34000000E+02  3.67000000E+02  6.56000000E+02  3.40000000E+02
  3.17000000E+02  3.40000000E+02  3.10000000E+02  3.17000000E+02  4.34000000E+02
  3.37000000E+02  4.34000000E+02  4.81000000E+02  3.40000000E+02  3.37000000E+02
  3.40000000E+02  3.10000000E+02  3.10000000E+02  1.66000000E+02  3.40000000E+02
  2.27000000E+02  3.10000000E+02  3.40000000E+02  2.27000000E+02  3.17000000E+02
  3.67000000E+02  4.69000000E+02  5.53000000E+02  4.50000000E+02  4.69000000E+02
  3.17000000E+02  3.10000000E+02  3.67000000E+02  4.34000000E+02  4.27000000E+02
  3.67000000E+02  4.77000000E+02  4.88000000E+02  4.10000000E+02  5.18000000E+02
  3.17000000E+02  3.40000000E+02  3.67000000E+02  6.56000000E+02  3.40000000E+02
  3.37000000E+02
%FLAG BOND_EQUIL_VALUE                                                          
%FORMAT(5E16.8)                                                                 
  1.22900000E+00  1.33500000E+00  1.09000000E+00  1.09000000E+00  1.52600000E+00
  1.52200000E+00  1.01000000E+00  1.47100000E+00  1.25000000E+00  1.09000000E+00
  1.52200000E+00  1.09000000E+00  1.52600000E+00  1.52200000E+00  1.01000000E+00
  1.44900000E+00  1.01000000E+00  1.34000000E+00  1.09000000E+00  1.46300000E+00
  1.09000000E+00  1.52600000E+00  1.52600000E+00  2.03800000E+00  1.09000000E+00
  1.81000000E+00  1.52600000E+00  1.09000000E+00  1.81000000E+00  1.52200000E+00
  1.08000000E+00  1.40000000E+00  9.60000000E-01  1.36400000E+00  1.40900000E+00
  1.51000000E+00  1.52600000E+00  1.08000000E+00  1.01000000E+00  1.38100000E+00
  1.08000000E+00  1.34300000E+00  1.33500000E+00  1.39400000E+00  1.37100000E+00
  1.50400000E+00  1.09000000E+00  1.47100000E+00  1.25000000E+00  1.09000000E+00
  1.44900000E+00
%FLAG ANGLE_FORCE_CONSTANT                                                      
%FORMAT(5E16.8)                                                                 
  8.00000000E+01  5.00000000E+01  5.00000000E+01  3.50000000E+01  6.30000000E+01
  5.00000000E+01  5.00000000E+01  5.00000000E+01  8.00000000E+01  7.00000000E+01
  5.00000000E+01  3.50000000E+01  5.00000000E+01  8.00000000E+01  8.00000000E+01
  8.00000000E+01  5.00000000E+01  3.50000000E+01  6.30000000E+01  7.00000000E+01
  5.00000000E+01  5.00000000E+01  5.00000000E+01  6.30000000E+01  8.00000000E+01
  7.00000000E+01  5.00000000E+01  5.00000000E+01  8.00000000E+01  6.30000000E+01
  3.50000000E+01  7.00000000E+01  5.00000000E+01  5.00000000E+01  3.50000000E+01
  5.00000000E+01  5.00000000E+01  5.00000000E+01  3.50000000E+01  5.00000000E+01
  8.00000000E+01  6.30000000E+01  4.00000000E+01  5.00000000E+01  5.00000000E+01
  4.00000000E+01  8.00000000E+01  6.80000000E+01  5.00000000E+01  3.50000000E+01
  5.00000000E+01  5.00000000E+01  5.00000000E+01  6.30000000E+01  4.00000000E+01
  3.50000000E+01  5.00000000E+01  6.20000000E+01  5.00000000E+01  5.00000000E+01
  3.50000000E+01  5.00000000E+01  8.00000000E+01  7.00000000E+01  6.30000000E+01
  5.00000000E+01  7.00000000E+01  5.00000000E+01  5.00000000E+01  6.30000000E+01
  6.30000000E+01  6.30000000E+01  5.00000000E+01  6.30000000E+01  7.00000000E+01
  5.00000000E+01  5.00000000E+01  6.30000000E+01  8.00000000E+01  5.00000000E+01
  5.00000000E+01  5.00000000E+01  5.00000000E+01  7.00000000E+01  7.00000000E+01
  5.00000000E+01  7.00000000E+01  7.00000000E+01  7.00000000E+01  5.00000000E+01
  5.00000000E+01  7.00000000E+01  7.00000000E+01  6.30000000E+01  5.00000000E+01
  3.50000000E+01  5.00000000E+01  5.00000000E+01  8.00000000E+01  3.50000000E+01
  5.00000000E+01  8.00000000E+01  5.00000000E+01  3.50000000E+01  7.00000000E+01
  5.00000000E+01  5.00000000E+01  6.30000000E+01
%FLAG ANGLE_EQUIL_VALUE                                                         
%FORMAT(5E16.8)                                                                 
  2.14501057E+00  2.09439600E+00  2.12755727E+00  1.91113635E+00  1.93906163E+00
  1.91113635E+00  1.91113635E+00  1.91113635E+00  2.10137732E+00  2.03505478E+00
  1.91113635E+00  1.91113635E+00  1.91113635E+00  1.94080696E+00  1.94080696E+00
  2.19911580E+00  1.91113635E+00  1.91113635E+00  1.93906163E+00  2.04203610E+00
  1.91113635E+00  1.91113635E+00  1.91113635E+00  1.93906163E+00  2.10137732E+00
  2.03505478E+00  2.06018753E+00  1.91113635E+00  1.91462701E+00  1.92160833E+00
  2.09439600E+00  2.09439600E+00  2.09439600E+00  1.91113635E+00  1.91113635E+00
  2.06647072E+00  2.15024656E+00  1.91113635E+00  1.91113635E+00  1.91113635E+00
  1.94080696E+00  1.93906163E+00  1.91113635E+00  1.91113635E+00  1.91113635E+00
  1.91113635E+00  1.91462701E+00  1.80990721E+00  1.91113635E+00  1.91113635E+00
  1.91113635E+00  2.00189351E+00  1.91113635E+00  1.93906163E+00  1.91113635E+00
  1.91113635E+00  1.91113635E+00  1.72613137E+00  1.91113635E+00  2.00189351E+00
  2.09439600E+00  1.91113635E+00  2.10137732E+00  2.03505478E+00  1.93906163E+00
  2.09439600E+00  2.09439600E+00  1.97222290E+00  2.09439600E+00  2.09439600E+00
  2.09439600E+00  2.09439600E+00  1.91113635E+00  1.93906163E+00  2.09439600E+00
  1.91113635E+00  1.91113635E+00  1.98967620E+00  1.91462701E+00  2.09439600E+00
  2.09439600E+00  2.09439600E+00  2.09439600E+00  2.09439600E+00  2.09439600E+00
  2.09439600E+00  2.09439600E+00  2.04203610E+00  2.09439600E+00  2.09439600E+00
  1.91113635E+00  2.09439600E+00  2.09439600E+00  1.97396823E+00  1.91113635E+00
  1.91113635E+00  1.91113635E+00  1.91113635E+00  1.94080696E+00  1.91113635E+00
  2.12755727E+00  2.19911580E+00  1.91113635E+00  1.91113635E+00  2.04203610E+00
  2.06018753E+00  1.91113635E+00  1.92160833E+00
%FLAG DIHEDRAL_FORCE_CONSTANT                                                   
%FORMAT(5E16.8)                                                                 
  2.00000000E+00  2.50000000E+00  0.00000000E+00  0.00000000E+00  0.00000000E+00
  0.00000000E+00  1.55555556E-01  2.00000000E-01  2.00000000E-01  4.00000000E-01
  4.24000000E-01  4.59000000E-01  5.80000000E-02  1.54000000E-01  0.00000000E+00
  7.69000000E-01  3.10000000E-02  2.15400000E+00  6.47000000E-01  8.90000000E-02
  0.00000000E+00  0.00000000E+00  2.40000000E+00  1.50000000E-01  1.60000000E-01
  2.00000000E-01  2.50000000E-01  1.80000000E-01  6.02000000E-01  3.94000000E-01
  3.23000000E-01  2.78000000E-01  5.60000000E-02  6.66000000E-01  3.02000000E-01
  1.35000000E-01  3.33333333E-01  4.20000000E-01  4.48000000E+00  6.82000000E-01
  3.79000000E-01  4.69000000E-01  2.10000000E-02  6.40000000E-02  4.21000000E-01
  3.93000000E-01  1.44000000E-01  1.45000000E-01  3.90000000E-01  1.36700000E+00
  2.22000000E-01  6.08000000E-01  5.60000000E-02  1.00000000E-01  1.84000000E-01
  7.80000000E-02  2.47000000E-01  4.42000000E-01  4.14000000E-01  5.70000000E-02
  4.17000000E-01  2.45000000E-01  1.60000000E-02  2.80000000E-02  8.00000000E-01
  8.00000000E-02  6.09000000E-01  8.45000000E-01  8.50000000E-02  4.20000000E-02
  1.96000000E-01  8.30000000E-02  4.12000000E-01  1.38000000E-01  3.62500000E+00
  8.83000000E-01  6.50000000E-02  5.50000000E-02  4.69000000E-01  1.92000000E-01
  1.20000000E-02  6.90000000E-02  4.80000000E-02  1.20000000E-02  2.90000000E-01
  7.00000000E-03  1.50000000E+00  2.32500000E+00  5.37500000E+00  1.43000000E-01
  2.44000000E-01  2.19000000E-01  2.50000000E-02  5.00000000E+00  6.90000000E-01
  2.04000000E-01  7.40000000E-01  4.70000000E-02  3.06000000E-01  2.21000000E-01
  2.70000000E-01  4.20000000E-01  1.05000000E+01  1.10000000E+00  1.00000000E+00
%FLAG DIHEDRAL_PERIODICITY                                                      
%FORMAT(5E16.8)                                                                 
  1.00000000E+00  2.00000000E+00  2.00000000E+00  1.00000000E+00  3.00000000E+00
  4.00000000E+00  3.00000000E+00  1.00000000E+00  2.00000000E+00  3.00000000E+00
  1.00000000E+00  2.00000000E+00  3.00000000E+00  4.00000000E+00  3.00000000E+00
  2.00000000E+00  4.00000000E+00  1.00000000E+00  2.00000000E+00  4.00000000E+00
  1.00000000E+00  2.00000000E+00  2.00000000E+00  3.00000000E+00  3.00000000E+00
  1.00000000E+00  2.00000000E+00  3.00000000E+00  1.00000000E+00  2.00000000E+00
  3.00000000E+00  4.00000000E+00  1.00000000E+00  2.00000000E+00  3.00000000E+00
  4.00000000E+00  3.00000000E+00  1.00000000E+00  2.00000000E+00  3.00000000E+00
  4.00000000E+00  1.00000000E+00  2.00000000E+00  4.00000000E+00  1.00000000E+00
  2.00000000E+00  3.00000000E+00  4.00000000E+00  2.00000000E+00  1.00000000E+00
  2.00000000E+00  3.00000000E+00  4.00000000E+00  1.00000000E+00  2.00000000E+00
  4.00000000E+00  1.00000000E+00  2.00000000E+00  3.00000000E+00  4.00000000E+00
  1.00000000E+00  2.00000000E+00  3.00000000E+00  4.00000000E+00  1.00000000E+00
  3.00000000E+00  1.00000000E+00  2.00000000E+00  3.00000000E+00  4.00000000E+00
  1.00000000E+00  2.00000000E+00  3.00000000E+00  4.00000000E+00  2.00000000E+00
  2.00000000E+00  4.00000000E+00  1.00000000E+00  2.00000000E+00  3.00000000E+00
  4.00000000E+00  2.00000000E+00  4.00000000E+00  1.00000000E+00  2.00000000E+00
  4.00000000E+00  2.00000000E+00  2.00000000E+00  2.00000000E+00  1.00000000E+00
  2.00000000E+00  3.00000000E+00  4.00000000E+00  2.00000000E+00  1.00000000E+00
  2.00000000E+00  3.00000000E+00  4.00000000E+00  1.00000000E+00  2.00000000E+00
  2.00000000E+00  3.00000000E+00  2.00000000E+00  2.00000000E+00  2.00000000E+00
%FLAG DIHEDRAL_PHASE                                                            
%FORMAT(5E16.8)                                                                 
  0.00000000E+00  3.14159400E+00  0.00000000E+00  0.00000000E+00  0.00000000E+00
  0.00000000E+00  0.00000000E+00  0.00000000E+00  0.00000000E+00  0.00000000E+00
  0.00000000E+00  3.14159400E+00  0.00000000E+00  0.00000000E+00  3.14159400E+00
  3.14159400E+00  3.14159400E+00  3.14159400E+00  3.14159400E+00  0.00000000E+00
  3.14159400E+00  3.14159400E+00  3.14159400E+00  0.00000000E+00  0.00000000E+00
  3.14159400E+00  3.14159400E+00  0.00000000E+00  0.00000000E+00  3.14159400E+00
  0.00000000E+00  0.00000000E+00  0.00000000E+00  0.00000000E+00  0.00000000E+00
  3.14159400E+00  0.00000000E+00  0.00000000E+00  0.00000000E+00  0.00000000E+00
  0.00000000E+00  0.00000000E+00  3.14159400E+00  0.00000000E+00  3.14159400E+00
  3.14159400E+00  0.00000000E+00  0.00000000E+00  3.14159400E+00  3.14159400E+00
  3.14159400E+00  3.14159400E+00  3.14159400E+00  3.14159400E+00  3.14159400E+00
  0.00000000E+00  3.14159400E+00  0.00000000E+00  0.00000000E+00  0.00000000E+00
  0.00000000E+00  0.00000000E+00  0.00000000E+00  0.00000000E+00  0.00000000E+00
  3.14159400E+00  3.14159400E+00  3.14159400E+00  3.14159400E+00  0.00000000E+00
  3.14159400E+00  0.00000000E+00  3.14159400E+00  0.00000000E+00  3.14159400E+00
  3.14159400E+00  0.00000000E+00  0.00000000E+00  3.14159400E+00  0.00000000E+00
  3.14159400E+00  3.14159400E+00  3.14159400E+00  3.14159400E+00  3.14159400E+00
  3.14159400E+00  3.14159400E+00  3.14159400E+00  3.14159400E+00  3.14159400E+00
  3.14159400E+00  0.00000000E+00  0.00000000E+00  3.14159400E+00  0.00000000E+00
  0.00000000E+00  0.00000000E+00  3.14159400E+00  3.14159400E+00  3.14159400E+00
  0.00000000E+00  0.00000000E+00  3.14159400E+00  3.14159400E+00  3.14159400E+00
%FLAG SCEE_SCALE_FACTOR                                                         
%FORMAT(5E16.8)                                                                 
  1.20000000E+00  1.20000000E+00  1.20000000E+00  1.20000000E+00  1.20000000E+00
  1.20000000E+00  1.20000000E+00  1.20000000E+00  1.20000000E+00  1.20000000E+00
  1.20000000E+00  1.20000000E+00  1.20000000E+00  1.20000000E+00  1.20000000E+00
  1.20000000E+00  1.20000000E+00  1.20000000E+00  1.20000000E+00  1.20000000E+00
  1.20000000E+00  1.20000000E+00  1.20000000E+00  1.20000000E+00  1.20000000E+00
  1.20000000E+00  1.20000000E+00  1.20000000E+00  1.20000000E+00  1.20000000E+00
  1.20000000E+00  1.20000000E+00  1.20000000E+00  1.20000000E+00  1.20000000E+00
  1.20000000E+00  1.20000000E+00  1.20000000E+00  1.20000000E+00  1.20000000E+00
  1.20000000E+00  1.20000000E+00  1.20000000E+00  1.20000000E+00  1.20000000E+00
  1.20000000E+00  1.20000000E+00  1.20000000E+00  1.20000000E+00  1.20000000E+00
  1.20000000E+00  1.20000000E+00  1.20000000E+00  1.20000000E+00  1.20000000E+00
  1.20000000E+00  1.20000000E+00  1.20000000E+00  1.20000000E+00  1.20000000E+00
  1.20000000E+00  1.20000000E+00  1.20000000E+00  1.20000000E+00  1.20000000E+00
  1.20000000E+00  1.20000000E+00  1.20000000E+00  1.20000000E+00  1.20000000E+00
  1.20000000E+00  1.20000000E+00  1.20000000E+00  1.20000000E+00  1.20000000E+00
  1.20000000E+00  1.20000000E+00  1.20000000E+00  1.20000000E+00  1.20000000E+00
  1.20000000E+00  1.20000000E+00  1.20000000E+00  1.20000000E+00  1.20000000E+00
  1.20000000E+00  1.20000000E+00  1.20000000E+00  1.20000000E+00  1.20000000E+00
  1.20000000E+00  1.20000000E+00  1.20000000E+00  1.20000000E+00  1.20000000E+00
  1.20000000E+00  1.20000000E+00  1.20000000E+00  1.20000000E+00  1.20000000E+00
  1.20000000E+00  1.20000000E+00  0.00000000E+00  0.00000000E+00  0.00000000E+00
%FLAG SCNB_SCALE_FACTOR                                                         
%FORMAT(5E16.8)                                                                 
  2.00000000E+00  2.00000000E+00  2.00000000E+00  2.00000000E+00  2.00000000E+00
  2.00000000E+00  2.00000000E+00  2.00000000E+00  2.00000000E+00  2.00000000E+00
  2.00000000E+00  2.00000000E+00  2.00000000E+00  2.00000000E+00  2.00000000E+00
  2.00000000E+00  2.00000000E+00  2.00000000E+00  2.00000000E+00  2.00000000E+00
  2.00000000E+00  2.00000000E+00  2.00000000E+00  2.00000000E+00  2.00000000E+00
  2.00000000E+00  2.00000000E+00  2.00000000E+00  2.00000000E+00  2.00000000E+00
  2.00000000E+00  2.00000000E+00  2.00000000E+00  2.00000000E+00  2.00000000E+00
  2.00000000E+00  2.00000000E+00  2.00000000E+00  2.00000000E+00  2.00000000E+00
  2.00000000E+00  2.00000000E+00  2.00000000E+00  2.00000000E+00  2.00000000E+00
  2.00000000E+00  2.00000000E+00  2.00000000E+00  2.00000000E+00  2.00000000E+00
  2.00000000E+00  2.00000000E+00  2.00000000E+00  2.00000000E+00  2.00000000E+00
  2.00000000E+00  2.00000000E+00  2.00000000E+00  2.00000000E+00  2.00000000E+00
  2.00000000E+00  2.00000000E+00  2.00000000E+00  2.00000000E+00  2.00000000E+00
  2.00000000E+00  2.00000000E+00  2.00000000E+00  2.00000000E+00  2.00000000E+00
  2.00000000E+00  2.00000000E+00  2.00000000E+00  2.00000000E+00  2.00000000E+00
  2.00000000E+00  2.00000000E+00  2.00000000E+00  2.00000000E+00  2.00000000E+00
  2.00000000E+00  2.00000000E+00  2.00000000E+00  2.00000000E+00  2.00000000E+00
  2.00000000E+00  2.00000000E+00  2.00000000E+00  2.00000000E+00  2.00000000E+00
  2.00000000E+00  2.00000000E+00  2.00000000E+00  2.00000000E+00  2.00000000E+00
  2.00000000E+00  2.00000000E+00  2.00000000E+00  2.00000000E+00  2.00000000E+00
  2.00000000E+00  2.00000000E+00  0.00000000E+00  0.00000000E+00  0.00000000E+00
%FLAG SOLTY                                                                     
%FORMAT(5E16.8)                                                                 
  0.00000000E+00  0.00000000E+00  0.00000000E+00  0.00000000E+00  0.00000000E+00
  0.00000000E+00  0.00000000E+00  0.00000000E+00  0.00000000E+00  0.00000000E+00
  0.00000000E+00  0.00000000E+00  0.00000000E+00  0.00000000E+00  0.00000000E+00
  0.00000000E+00  0.00000000E+00  0.00000000E+00  0.00000000E+00  0.00000000E+00
  0.00000000E+00  0.00000000E+00  0.00000000E+00  0.00000000E+00  0.00000000E+00
  0.00000000E+00  0.00000000E+00  0.00000000E+00
%FLAG LENNARD_JONES_ACOEF                                                       
%FORMAT(5E16.8)                                                                 
  9.44293233E+05  2.12601181E+03  1.39982777E-01  9.95480466E+05  2.56678134E+03
  1.04308023E+06  2.01791425E+04  9.14716912E+00  2.27401052E+04  2.01823541E+02
  8.96776989E+04  1.07193646E+02  9.71708117E+04  1.41077189E+03  7.51607703E+03
  8.82619071E+05  2.27577561E+03  9.24822270E+05  2.01619733E+04  8.61541883E+04
  8.19971662E+05  6.06829342E+05  1.02595236E+03  6.47841731E+05  1.12780457E+04
  5.44261042E+04  5.74393458E+05  3.79876399E+05  6.20665997E+04  5.94667300E+01
  6.78771368E+04  8.79040886E+02  4.98586848E+03  6.01816484E+04  3.69471530E+04
  3.25969625E+03  2.02752779E+06  5.85957523E+03  2.11351845E+06  4.90026081E+04
  2.02574546E+05  1.87390085E+06  1.33368524E+06  1.42615819E+05  4.26366419E+06
  7.91627154E+04  8.90987508E+01  8.59947003E+04  1.21014911E+03  6.55825601E+03
  7.62451550E+04  4.77908183E+04  4.33325458E+03  1.79659945E+05  5.71629601E+03
  7.44975864E+05  1.40467023E+03  7.91544157E+05  1.45985502E+04  6.82786631E+04
  7.01803794E+05  4.71003287E+05  4.66922514E+04  1.62294350E+06  6.00750218E+04
  5.81803229E+05  0.00000000E+00  0.00000000E+00  0.00000000E+00  0.00000000E+00
  0.00000000E+00  0.00000000E+00  0.00000000E+00  0.00000000E+00  0.00000000E+00
  0.00000000E+00  0.00000000E+00  0.00000000E+00  5.46147253E+04  4.90239937E+01
  5.98885646E+04  7.50063100E+02  4.33325458E+03  5.30987710E+04  3.23283631E+04
  2.82099197E+03  1.26117560E+05  3.76169105E+03  4.09427581E+04  0.00000000E+00
  2.43828624E+03  6.58473870E+04  6.63368273E+01  7.18621074E+04  9.55000044E+02
  5.34045360E+03  6.37148278E+04  3.93690817E+04  3.50301067E+03  1.50723105E+05
  4.64559155E+03  4.96707306E+04  0.00000000E+00  3.03448006E+03  3.76169105E+03
%FLAG LENNARD_JONES_BCOEF                                                       
%FORMAT(5E16.8)                                                                 
  8.01323529E+02  2.09604198E+01  9.37598976E-02  7.36907417E+02  2.06278363E+01
  6.75612247E+02  6.45756063E+01  7.57919667E-01  6.13981767E+01  3.56012899E+00
  1.36131731E+02  2.59456373E+00  1.26919150E+02  9.41257003E+00  2.17257828E+01
  6.53361429E+02  1.82891803E+01  5.99015525E+02  5.44372326E+01  1.12529845E+02
  5.31102864E+02  6.77220874E+02  1.53505284E+01  6.26720080E+02  5.08951803E+01
  1.11805549E+02  5.55666448E+02  5.64885984E+02  1.13252061E+02  1.93248820E+00
  1.06076943E+02  7.42992380E+00  1.76949863E+01  9.40505980E+01  9.21192136E+01
  1.43076527E+01  1.33303578E+03  3.95051895E+01  1.21899948E+03  1.14243284E+02
  2.32280910E+02  1.08079689E+03  1.13979741E+03  1.94896900E+02  2.19459223E+03
  1.26451907E+02  2.33864085E+00  1.18043746E+02  8.61880722E+00  2.00642027E+01
  1.04660679E+02  1.03580945E+02  1.63092814E+01  2.16269171E+02  1.85196588E+01
  7.50714425E+02  1.79702257E+01  6.93079947E+02  5.79323581E+01  1.25287818E+02
  6.14502845E+02  6.29300710E+02  1.03606917E+02  1.25793819E+03  1.16187983E+02
  6.99746810E+02  0.00000000E+00  0.00000000E+00  0.00000000E+00  0.00000000E+00
  0.00000000E+00  0.00000000E+00  0.00000000E+00  0.00000000E+00  0.00000000E+00
  0.00000000E+00  0.00000000E+00  0.00000000E+00  1.05031585E+02  1.73473071E+00
  9.85097219E+01  6.78541827E+00  1.63092814E+01  8.73413012E+01  8.51921330E+01
  1.31591746E+01  1.81199404E+02  1.50233639E+01  9.59185913E+01  0.00000000E+00
  1.20953369E+01  1.15327881E+02  2.01792524E+00  1.07908863E+02  7.65648470E+00
  1.81057616E+01  9.56748258E+01  9.40124296E+01  1.46638650E+01  1.98088334E+02
  1.66953734E+01  1.05648788E+02  0.00000000E+00  1.34932874E+01  1.50233639E+01
%FLAG BONDS_INC_HYDROGEN                                                        
%FORMAT(10I8)                                                                   
      18      21       3      18      24       3      18      27       3      12
      15       4       0       3       7       0       6       7       0       9
       7      48      51      10      48      54      10      42      45      12
      36      39      15      84      87      10      84      90      10      78
      81      12      72      75      15     165     168      17     165     171
      17     156     159      17     156     162      17     147     150      17
     138     141      19     138     144      19     129     132      21     129
     135      21     120     123      21     120     126      21     114     117
      12     108     111      15     192     195      25     192     198      25
     186     189      12     180     183      15     231     234      10     231
     237      10     222     225      10     222     228      10     216     219
      12     210     213      15     312     315      17     312     318      17
     303     306      17     303     309      17     294     297      17     285
     288      19     285     291      19     276     279      21     276     282
      21     267     270      21     267     273      21     261     264      12
     255     258      15     360     363      28     360     366      28     360
     369      28     348     351      25     348     354      25     339     342
      10     339     345      10     333     336      12     327     330      15
     390     393      25     390     396      25     384     387      12     378
     381      15     444     447      15     444     450      15     429     432
      10     429     435      10     420     423      10     420     426      10
     414     417      12     408     411      15     516     519      17     516
     522      17     507     510      17     507     513      17     498     501
      17     489     492      19     489     495      19     480     483      21
     480     486      21     471     474      21     471     477      21     465
     468      12     459     462      15     582     585      31     576     579
      31     570     573      33     561     564      31     555     558      31
     543     546       3     543     549       3     537     540      12     531
     534      15     633     636      38     627     630      39     621     624
      41     606     609       3     606     612       3     600     603      12
     594     597      15     657     660      10     657     663      10     651
     654      12     645     648      15     738     741      17     738     744
      17     729     732      17     729     735      17     720     723      17
     711     714      19     711     717      19     702     705      21     702
     708      21     693     696      21     693     699      21     687     690
      12     681     684      15     810     813      17     810     816      17
     801     804      17     801     807      17     792     795      17     783
     786      19     783     789      19     774     777      21     774     780
      21     765     768      21     765     771      21     759     762      12
     753     756      15     846     849      10     846     852      10     837
     840      10     837     843      10     831     834      12     825     828
      15     918     921       7     918     924       7     918     927       7
     909     912      47     909     915      47     900     903      21     900
     906      21     891     894      21     891     897      21     882     885
      21     882     888      21     876     879      12     870     873      15
     984     987       7     984     990       7     984     993       7     975
     978      47     975     981      47     966     969      21     966     972
      21     957     960      21     957     963      21     948     951      21
     948     954      21     942     945      12     936     939      15    1038
    1041      15    1038    1044      15    1023    1026      10    1023    1029
      10    1014    1017      10    1014    1020      10    1008    1011      12
    1002    1005      15    1065    1068      25    1065    1071      25    1059
    1062      12    1053    1056      15    1116    1119      28    1116    1122
      28    1116    1125      28    1104    1107      25    1104    1110      25
    1095    1098      10    1095    1101      10    1089    1092      12    1083
    1086      15    1182    1185       7    1182    1188       7    1182    1191
       7    1173    1176      47    1173    1179      47    1164    1167      21
    1164    1170      21    1155    1158      21    1155    1161      21    1146
    1149      21    1146    1152      21    1140    1143      12    1134    1137
      15    1206    1209      12    1206    1212      12    1200    1203      15
    1233    1236      25    1233    1239      25    1227    1230      12    1221
    1224      15    1308    1311      17    1308    1314      17    1299    1302
      17    1299    1305      17    1290    1293      17    1281    1284      19
    1281    1287      19    1272    1275      21    1272    1278      21    1263
    1266      21    1263    1269      21    1257    1260      12    1251    1254
      15    1374    1377      31    1368    1371      31    1362    1365      33
    1353    1356      31    1347    1350      31    1335    1338       3    1335
    1341       3    1329    1332      12    1323    1326      15    1392    1395
      50    1392    1398      50    1386    1389      15
%FLAG BONDS_WITHOUT_HYDROGEN                                                    
%FORMAT(10I8)                                                                   
      30      33       1      30      36       2      12      18       5      12
      30       6       0      12       8      66      69       1      66      72
       2      57      60       9      57      63       9      48      57      11
      42      48      13      42      66      14      36      42      16     102
     105       1     102     108       2      93      96       9      93      99
       9      84      93      11      78      84      13      78     102      14
      72      78      16     174     177       1     174     180       2     153
     156      18     153     165      18     147     153      18     138     147
      20     129     138      22     120     129      22     114     120      23
     114     174      14     108     114      16     204     207       1     204
     210       2     201    1242      24     192     201      26     186     192
      13     186     204      14     180     186      16     249     252       1
     249     255       2     240     243       9     240     246       9     231
     240      11     222     231      27     216     222      13     216     249
      14     210     216      16     321     324       1     321     327       2
     300     303      18     300     312      18     294     300      18     285
     294      20     276     285      22     267     276      22     261     267
      23     261     321      14     255     261      16     372     375       1
     372     378       2     357     360      29     348     357      26     339
     348      27     333     339      13     333     372      14     327     333
      16     402     405       1     402     408       2     399    1074      24
     390     399      26     384     390      13     384     402      14     378
     384      16     453     456       1     453     459       2     438     441
       1     438     444       2     429     438      30     420     429      27
     414     420      13     414     453      14     408     414      16     525
     528       1     525     531       2     504     507      18     504     516
      18     498     504      18     489     498      20     480     489      22
     471     480      22     465     471      23     465     525      14     459
     465      16     588     591       1     588     594       2     576     582
      32     567     570      34     567     576      35     561     567      35
     555     561      32     552     555      32     552     582      32     543
     552      36     537     543      37     537     588      14     531     537
      16     639     642       1     639     645       2     627     633      40
     621     627      42     618     621      43     615     618      44     615
     633      45     606     615      46     600     606      37     600     639
      14     594     600      16     675     678       1     675     681       2
     666     669       9     666     672       9     657     666      11     651
     657      13     651     675      14     645     651      16     747     750
       1     747     753       2     726     729      18     726     738      18
     720     726      18     711     720      20     702     711      22     693
     702      22     687     693      23     687     747      14     681     687
      16     819     822       1     819     825       2     798     801      18
     798     810      18     792     798      18     783     792      20     774
     783      22     765     774      22     759     765      23     759     819
      14     753     759      16     864     867       1     864     870       2
     855     858       9     855     861       9     846     855      11     837
     846      27     831     837      13     831     864      14     825     831
      16     930     933       1     930     936       2     909     918      48
     900     909      22     891     900      22     882     891      22     876
     882      23     876     930      14     870     876      16     996     999
       1     996    1002       2     975     984      48     966     975      22
     957     966      22     948     957      22     942     948      23     942
     996      14     936     942      16    1047    1050       1    1047    1053
       2    1032    1035       1    1032    1038       2    1023    1032      30
    1014    1023      27    1008    1014      13    1008    1047      14    1002
    1008      16    1077    1080       1    1077    1083       2    1065    1074
      26    1059    1065      13    1059    1077      14    1053    1059      16
    1128    1131       1    1128    1134       2    1113    1116      29    1104
    1113      26    1095    1104      27    1089    1095      13    1089    1128
      14    1083    1089      16    1194    1197       1    1194    1200       2
    1173    1182      48    1164    1173      22    1155    1164      22    1146
    1155      22    1140    1146      23    1140    1194      14    1134    1140
      16    1215    1218       1    1215    1221       2    1206    1215      14
    1200    1206      16    1245    1248       1    1245    1251       2    1233
    1242      26    1227    1233      13    1227    1245      14    1221    1227
      16    1317    1320       1    1317    1323       2    1296    1299      18
    1296    1308      18    1290    1296      18    1281    1290      20    1272
    1281      22    1263    1272      22    1257    1263      23    1257    1317
      14    1251    1257      16    1380    1383       1    1380    1386       2
    1368    1374      32    1359    1362      34    1359    1368      35    1353
    1359      35    1347    1353      32    1344    1347      32    1344    1374
      32    1335    1344      36    1329    1335      37    1329    1380      14
    1323    1329      16    1401    1404      49    1401    1407      49    1392
    1401       6    1386    1392      51
%FLAG ANGLES_INC_HYDROGEN                                                       
%FORMAT(10I8)                                                                   
      30      36      39       2      24      18      27       4      21      18
      24       4      21      18      27       4      15      12      18       6
      15      12      30       7      12      18      21       8      12      18
      24       8      12      18      27       8       9       0      12      11
       6       0       9      12       6       0      12      11       3       0
       6      12       3       0       9      12       3       0      12      11
       0      12      15      13      66      72      75       2      54      48
      57      17      51      48      54      18      51      48      57      17
      45      42      48      21      45      42      66      22      42      48
      51      23      42      48      54      23      39      36      42      27
      36      42      45      28     102     108     111       2      90      84
      93      17      87      84      90      18      87      84      93      17
      81      78      84      21      81      78     102      22      78      84
      87      23      78      84      90      23      75      72      78      27
      72      78      81      28     174     180     183       2     168     165
     171      31     159     156     162      31     153     156     159      33
     153     156     162      33     153     165     168      33     153     165
     171      33     150     147     153      33     144     138     147      34
     141     138     144      35     141     138     147      34     138     147
     150      36     135     129     138      38     132     129     135      39
     132     129     138      38     129     138     141      40     129     138
     144      40     126     120     129      38     123     120     126      39
     123     120     129      38     120     129     132      38     120     129
     135      38     117     114     120      44     117     114     174      22
     114     120     123      45     114     120     126      45     111     108
     114      27     108     114     117      28     204     210     213       2
     198     192     201      49     195     192     198      50     195     192
     201      49     189     186     192      21     189     186     204      22
     186     192     195      51     186     192     198      51     183     180
     186      27     180     186     189      28     249     255     258       2
     237     231     240      17     234     231     237      18     234     231
     240      17     228     222     231      53     225     222     228      18
     225     222     231      53     222     231     234      53     222     231
     237      53     219     216     222      21     219     216     249      22
     216     222     225      23     216     222     228      23     213     210
     216      27     210     216     219      28     321     327     330       2
     315     312     318      31     306     303     309      31     300     303
     306      33     300     303     309      33     300     312     315      33
     300     312     318      33     297     294     300      33     291     285
     294      34     288     285     291      35     288     285     294      34
     285     294     297      36     282     276     285      38     279     276
     282      39     279     276     285      38     276     285     288      40
     276     285     291      40     273     267     276      38     270     267
     273      39     270     267     276      38     267     276     279      38
     267     276     282      38     264     261     267      44     264     261
     321      22     261     267     270      45     261     267     273      45
     258     255     261      27     255     261     264      28     372     378
     381       2     366     360     369      56     363     360     366      56
     363     360     369      56     357     360     363      57     357     360
     366      57     357     360     369      57     354     348     357      49
     351     348     354      50     351     348     357      49     345     339
     348      53     342     339     345      18     342     339     348      53
     339     348     351      59     339     348     354      59     336     333
     339      21     336     333     372      22     333     339     342      23
     333     339     345      23     330     327     333      27     327     333
     336      28     402     408     411       2     396     390     399      49
     393     390     396      50     393     390     399      49     387     384
     390      21     387     384     402      22     384     390     393      51
     384     390     396      51     381     378     384      27     378     384
     387      28     453     459     462       2     447     444     450      61
     438     444     447       2     438     444     450       2     435     429
     438      62     432     429     435      18     432     429     438      62
     426     420     429      53     423     420     426      18     423     420
     429      53     420     429     432      53     420     429     435      53
     417     414     420      21     417     414     453      22     414     420
     423      23     414     420     426      23     411     408     414      27
     408     414     417      28     525     531     534       2     519     516
     522      31     510     507     513      31     504     507     510      33
     504     507     513      33     504     516     519      33     504     516
     522      33     501     498     504      33     495     489     498      34
     492     489     495      35     492     489     498      34     489     498
     501      36     486     480     489      38     483     480     486      39
     483     480     489      38     480     489     492      40     480     489
     495      40     477     471     480      38     474     471     477      39
     474     471     480      38     471     480     483      38     471     480
     486      38     468     465     471      44     468     465     525      22
     465     471     474      45     465     471     477      45     462     459
     465      27     459     465     468      28     588     594     597       2
     579     576     582      66     576     582     585      66     567     570
     573      68     567     576     579      69     564     561     567      69
     558     555     561      66     555     561     564      66     552     555
     558      66     552     582     585      66     549     543     552      73
     546     543     549       4     546     543     552      73     540     537
     543      76     540     537     588      22     537     543     546      77
     537     543     549      77     534     531     537      27     531     537
     540      28     639     645     648       2     630     627     633      80
     627     633     636      81     624     621     627      82     621     627
     630      83     618     621     624      86     615     633     636      90
     612     606     615      91     609     606     612       4     609     606
     615      91     603     600     606      76     603     600     639      22
     600     606     609      77     600     606     612      77     597     594
     600      27     594     600     603      28     675     681     684       2
     663     657     666      17     660     657     663      18     660     657
     666      17     654     651     657      21     654     651     675      22
     651     657     660      23     651     657     663      23     648     645
     651      27     645     651     654      28     747     753     756       2
     741     738     744      31     732     729     735      31     726     729
     732      33     726     729     735      33     726     738     741      33
     726     738     744      33     723     720     726      33     717     711
     720      34     714     711     717      35     714     711     720      34
     711     720     723      36     708     702     711      38     705     702
     708      39     705     702     711      38     702     711     714      40
     702     711     717      40     699     693     702      38     696     693
     699      39     696     693     702      38     693     702     705      38
     693     702     708      38     690     687     693      44     690     687
     747      22     687     693     696      45     687     693     699      45
     684     681     687      27     681     687     690      28     819     825
     828       2     813     810     816      31     804     801     807      31
     798     801     804      33     798     801     807      33     798     810
     813      33     798     810     816      33     795     792     798      33
     789     783     792      34     786     783     789      35     786     783
     792      34     783     792     795      36     780     774     783      38
     777     774     780      39     777     774     783      38     774     783
     786      40     774     783     789      40     771     765     774      38
     768     765     771      39     768     765     774      38     765     774
     777      38     765     774     780      38     762     759     765      44
     762     759     819      22     759     765     768      45     759     765
     771      45     756     753     759      27     753     759     762      28
     864     870     873       2     852     846     855      17     849     846
     852      18     849     846     855      17     843     837     846      53
     840     837     843      18     840     837     846      53     837     846
     849      53     837     846     852      53     834     831     837      21
     834     831     864      22     831     837     840      23     831     837
     843      23     828     825     831      27     825     831     834      28
     930     936     939       2     924     918     927      12     921     918
     924      12     921     918     927      12     915     909     918      95
     912     909     915      96     912     909     918      95     909     918
     921      97     909     918     924      97     909     918     927      97
     906     900     909      38     903     900     906      39     903     900
     909      38     900     909     912      98     900     909     915      98
     897     891     900      38     894     891     897      39     894     891
     900      38     891     900     903      38     891     900     906      38
     888     882     891      38     885     882     888      39     885     882
     891      38     882     891     894      38     882     891     897      38
     879     876     882      44     879     876     930      22     876     882
     885      45     876     882     888      45     873     870     876      27
     870     876     879      28     996    1002    1005       2     990     984
     993      12     987     984     990      12     987     984     993      12
     981     975     984      95     978     975     981      96     978     975
     984      95     975     984     987      97     975     984     990      97
     975     984     993      97     972     966     975      38     969     966
     972      39     969     966     975      38     966     975     978      98
     966     975     981      98     963     957     966      38     960     957
     963      39     960     957     966      38     957     966     969      38
     957     966     972      38     954     948     957      38     951     948
     954      39     951     948     957      38     948     957     960      38
     948     957     963      38     945     942     948      44     945     942
     996      22     942     948     951      45     942     948     954      45
     939     936     942      27     936     942     945      28    1047    1053
    1056       2    1041    1038    1044      61    1032    1038    1041       2
    1032    1038    1044       2    1029    1023    1032      62    1026    1023
    1029      18    1026    1023    1032      62    1020    1014    1023      53
    1017    1014    1020      18    1017    1014    1023      53    1014    1023
    1026      53    1014    1023    1029      53    1011    1008    1014      21
    1011    1008    1047      22    1008    1014    1017      23    1008    1014
    1020      23    1005    1002    1008      27    1002    1008    1011      28
    1077    1083    1086       2    1071    1065    1074      49    1068    1065
    1071      50    1068    1065    1074      49    1062    1059    1065      21
    1062    1059    1077      22    1059    1065    1068      51    1059    1065
    1071      51    1056    1053    1059      27    1053    1059    1062      28
    1128    1134    1137       2    1122    1116    1125      56    1119    1116
    1122      56    1119    1116    1125      56    1113    1116    1119      57
    1113    1116    1122      57    1113    1116    1125      57    1110    1104
    1113      49    1107    1104    1110      50    1107    1104    1113      49
    1101    1095    1104      53    1098    1095    1101      18    1098    1095
    1104      53    1095    1104    1107      59    1095    1104    1110      59
    1092    1089    1095      21    1092    1089    1128      22    1089    1095
    1098      23    1089    1095    1101      23    1086    1083    1089      27
    1083    1089    1092      28    1194    1200    1203       2    1188    1182
    1191      12    1185    1182    1188      12    1185    1182    1191      12
    1179    1173    1182      95    1176    1173    1179      96    1176    1173
    1182      95    1173    1182    1185      97    1173    1182    1188      97
    1173    1182    1191      97    1170    1164    1173      38    1167    1164
    1170      39    1167    1164    1173      38    1164    1173    1176      98
    1164    1173    1179      98    1161    1155    1164      38    1158    1155
    1161      39    1158    1155    1164      38    1155    1164    1167      38
    1155    1164    1170      38    1152    1146    1155      38    1149    1146
    1152      39    1149    1146    1155      38    1146    1155    1158      38
    1146    1155    1161      38    1143    1140    1146      44    1143    1140
    1194      22    1140    1146    1149      45    1140    1146    1152      45
    1137    1134    1140      27    1134    1140    1143      28    1215    1221
    1224       2    1212    1206    1215      22    1209    1206    1212     100
    1209    1206    1215      22    1203    1200    1206      27    1200    1206
    1209      28    1200    1206    1212      28    1245    1251    1254       2
    1239    1233    1242      49    1236    1233    1239      50    1236    1233
    1242      49    1230    1227    1233      21    1230    1227    1245      22
    1227    1233    1236      51    1227    1233    1239      51    1224    1221
    1227      27    1221    1227    1230      28    1317    1323    1326       2
    1311    1308    1314      31    1302    1299    1305      31    1296    1299
    1302      33    1296    1299    1305      33    1296    1308    1311      33
    1296    1308    1314      33    1293    1290    1296      33    1287    1281
    1290      34    1284    1281    1287      35    1284    1281    1290      34
    1281    1290    1293      36    1278    1272    1281      38    1275    1272
    1278      39    1275    1272    1281      38    1272    1281    1284      40
    1272    1281    1287      40    1269    1263    1272      38    1266    1263
    1269      39    1266    1263    1272      38    1263    1272    1275      38
    1263    1272    1278      38    1260    1257    1263      44    1260    1257
    1317      22    1257    1263    1266      45    1257    1263    1269      45
    1254    1251    1257      27    1251    1257    1260      28    1380    1386
    1389       2    1371    1368    1374      66    1368    1374    1377      66
    1359    1362    1365      68    1359    1368    1371      69    1356    1353
    1359      69    1350    1347    1353      66    1347    1353    1356      66
    1344    1347    1350      66    1344    1374    1377      66    1341    1335
    1344      73    1338    1335    1341       4    1338    1335    1344      73
    1332    1329    1335      76    1332    1329    1380      22    1329    1335
    1338      77    1329    1335    1341      77    1326    1323    1329      27
    1323    1329    1332      28    1398    1392    1401     103    1395    1392
    1398     104    1395    1392    1401     103    1389    1386    1392     106
    1386    1392    1395     107    1386    1392    1398     107
%FLAG ANGLES_WITHOUT_HYDROGEN                                                   
%FORMAT(10I8)                                                                   
      33      30      36       1      30      36      42       3      18      12
      30       5      12      30      33       9      12      30      36      10
       0      12      18      14       0      12      30      15      69      66
      72       1      66      72      78       3      60      57      63      16
      48      42      66      19      48      57      60      20      48      57
      63      20      42      48      57      24      42      66      69      25
      42      66      72      26      36      42      48      29      36      42
      66      30     105     102     108       1     102     108     114       3
      96      93      99      16      84      78     102      19      84      93
      96      20      84      93      99      20      78      84      93      24
      78     102     105      25      78     102     108      26      72      78
      84      29      72      78     102      30     177     174     180       1
     174     180     186       3     156     153     165      32     147     153
     156      32     147     153     165      32     138     147     153      37
     129     138     147      41     120     114     174      42     120     129
     138      43     114     120     129      46     114     174     177      25
     114     174     180      26     108     114     120      47     108     114
     174      30     207     204     210       1     204     210     216       3
     201    1242    1233      48     192     186     204      19     192     201
    1242      48     186     192     201      52     186     204     207      25
     186     204     210      26     180     186     192      29     180     186
     204      30     252     249     255       1     249     255     261       3
     243     240     246      16     231     240     243      20     231     240
     246      20     222     216     249      19     222     231     240      54
     216     222     231      55     216     249     252      25     216     249
     255      26     210     216     222      29     210     216     249      30
     324     321     327       1     321     327     333       3     303     300
     312      32     294     300     303      32     294     300     312      32
     285     294     300      37     276     285     294      41     267     261
     321      42     267     276     285      43     261     267     276      46
     261     321     324      25     261     321     327      26     255     261
     267      47     255     261     321      30     375     372     378       1
     372     378     384       3     348     357     360      58     339     333
     372      19     339     348     357      60     333     339     348      55
     333     372     375      25     333     372     378      26     327     333
     339      29     327     333     372      30     405     402     408       1
     402     408     414       3     399    1074    1065      48     390     384
     402      19     390     399    1074      48     384     390     399      52
     384     402     405      25     384     402     408      26     378     384
     390      29     378     384     402      30     456     453     459       1
     453     459     465       3     441     438     444       1     429     438
     441      63     429     438     444      64     420     414     453      19
     420     429     438      65     414     420     429      55     414     453
     456      25     414     453     459      26     408     414     420      29
     408     414     453      30     528     525     531       1     525     531
     537       3     507     504     516      32     498     504     507      32
     498     504     516      32     489     498     504      37     480     489
     498      41     471     465     525      42     471     480     489      43
     465     471     480      46     465     525     528      25     465     525
     531      26     459     465     471      47     459     465     525      30
     591     588     594       1     588     594     600       3     570     567
     576      67     567     576     582      70     561     567     570      67
     561     567     576      71     555     552     582      72     555     561
     567      70     552     555     561      72     552     582     576      72
     543     537     588      74     543     552     555      75     543     552
     582      75     537     543     552      78     537     588     591      25
     537     588     594      26     531     537     543      79     531     537
     588      30     642     639     645       1     639     645     651       3
     621     627     633      84     618     615     633      85     618     621
     627      87     615     618     621      88     615     633     627      89
     606     600     639      74     606     615     618      92     606     615
     633      93     600     606     615      94     600     639     642      25
     600     639     645      26     594     600     606      79     594     600
     639      30     678     675     681       1     675     681     687       3
     669     666     672      16     657     651     675      19     657     666
     669      20     657     666     672      20     651     657     666      24
     651     675     678      25     651     675     681      26     645     651
     657      29     645     651     675      30     750     747     753       1
     747     753     759       3     729     726     738      32     720     726
     729      32     720     726     738      32     711     720     726      37
     702     711     720      41     693     687     747      42     693     702
     711      43     687     693     702      46     687     747     750      25
     687     747     753      26     681     687     693      47     681     687
     747      30     822     819     825       1     819     825     831       3
     801     798     810      32     792     798     801      32     792     798
     810      32     783     792     798      37     774     783     792      41
     765     759     819      42     765     774     783      43     759     765
     774      46     759     819     822      25     759     819     825      26
     753     759     765      47     753     759     819      30     867     864
     870       1     864     870     876       3     858     855     861      16
     846     855     858      20     846     855     861      20     837     831
     864      19     837     846     855      54     831     837     846      55
     831     864     867      25     831     864     870      26     825     831
     837      29     825     831     864      30     933     930     936       1
     930     936     942       3     900     909     918      99     891     900
     909      43     882     876     930      42     882     891     900      43
     876     882     891      46     876     930     933      25     876     930
     936      26     870     876     882      47     870     876     930      30
     999     996    1002       1     996    1002    1008       3     966     975
     984      99     957     966     975      43     948     942     996      42
     948     957     966      43     942     948     957      46     942     996
     999      25     942     996    1002      26     936     942     948      47
     936     942     996      30    1050    1047    1053       1    1047    1053
    1059       3    1035    1032    1038       1    1023    1032    1035      63
    1023    1032    1038      64    1014    1008    1047      19    1014    1023
    1032      65    1008    1014    1023      55    1008    1047    1050      25
    1008    1047    1053      26    1002    1008    1014      29    1002    1008
    1047      30    1080    1077    1083       1    1077    1083    1089       3
    1065    1059    1077      19    1059    1065    1074      52    1059    1077
    1080      25    1059    1077    1083      26    1053    1059    1065      29
    1053    1059    1077      30    1131    1128    1134       1    1128    1134
    1140       3    1104    1113    1116      58    1095    1089    1128      19
    1095    1104    1113      60    1089    1095    1104      55    1089    1128
    1131      25    1089    1128    1134      26    1083    1089    1095      29
    1083    1089    1128      30    1197    1194    1200       1    1194    1200
    1206       3    1164    1173    1182      99    1155    1164    1173      43
    1146    1140    1194      42    1146    1155    1164      43    1140    1146
    1155      46    1140    1194    1197      25    1140    1194    1200      26
    1134    1140    1146      47    1134    1140    1194      30    1218    1215
    1221       1    1215    1221    1227       3    1206    1215    1218      25
    1206    1215    1221      26    1200    1206    1215      30    1248    1245
    1251       1    1245    1251    1257       3    1233    1227    1245      19
    1227    1233    1242      52    1227    1245    1248      25    1227    1245
    1251      26    1221    1227    1233      29    1221    1227    1245      30
    1320    1317    1323       1    1317    1323    1329       3    1299    1296
    1308      32    1290    1296    1299      32    1290    1296    1308      32
    1281    1290    1296      37    1272    1281    1290      41    1263    1257
    1317      42    1263    1272    1281      43    1257    1263    1272      46
    1257    1317    1320      25    1257    1317    1323      26    1251    1257
    1263      47    1251    1257    1317      30    1383    1380    1386       1
    1380    1386    1392     101    1362    1359    1368      67    1359    1368
    1374      70    1353    1359    1362      67    1353    1359    1368      71
    1347    1344    1374      72    1347    1353    1359      70    1344    1347
    1353      72    1344    1374    1368      72    1335    1329    1380      74
    1335    1344    1347      75    1335    1344    1374      75    1329    1335
    1344      78    1329    1380    1383      25    1329    1380    1386      26
    1323    1329    1335      79    1323    1329    1380      30    1404    1401
    1407     102    1392    1401    1404     105    1392    1401    1407     105
    1386    1392    1401     108
%FLAG DIHEDRALS_INC_HYDROGEN                                                    
%FORMAT(10I8)                                                                   
      33      30      36      39       1      33      30     -36      39       2
      30      36      42      45       3      27      18      12      30       7
      24      18      12      30       7      21      18      12      30       7
      15      12      18      21       7      15      12      18      24       7
      15      12      18      27       7      15      12      30      33       3
      15      12      30      36       3      12      30      36      39       2
       9       0      12      15       7       9       0      12      18       7
       9       0      12      30       7       6       0      12      15       7
       6       0      12      18       7       6       0      12      30       7
       3       0      12      15       7       3       0      12      18       7
       3       0      12      30       7       0      12      18      21       7
       0      12      18      24       7       0      12      18      27       7
      69      66      72      75       1      69      66     -72      75       2
      66      72      78      81       3      54      48      42      66       7
      54      48      57      60       3      54      48      57      63       3
      51      48      42      66       7      51      48      57      60       3
      51      48      57      63       3      45      42      48      51       7
      45      42      48      54       7      45      42      48      57       7
      45      42      66      69       4      45      42     -66      69       3
      45      42     -66      69      15      45      42      66      72       3
      42      66      72      75       2      39      36      42      45       3
      39      36      42      48       3      39      36      42      66       3
      36      42      48      51       7      36      42      48      54       7
     105     102     108     111       1     105     102    -108     111       2
     102     108     114     117       3      90      84      78     102       7
      90      84      93      96       3      90      84      93      99       3
      87      84      78     102       7      87      84      93      96       3
      87      84      93      99       3      81      78      84      87       7
      81      78      84      90       7      81      78      84      93       7
      81      78     102     105       4      81      78    -102     105       3
      81      78    -102     105      15      81      78     102     108       3
      78     102     108     111       2      75      72      78      81       3
      75      72      78      84       3      75      72      78     102       3
      72      78      84      87       7      72      78      84      90       7
     177     174     180     183       1     177     174    -180     183       2
     174     180     186     189       3     162     156     153     165      23
     162     156    -153     165       6     159     156     153     165      23
     159     156    -153     165       6     156     153     165     168      23
     156     153    -165     168       6     156     153     165     171      23
     156     153    -165     171       6     150     147     153     156      23
     150     147    -153     156       6     150     147     153     165      23
     150     147    -153     165       6     147     153     156     159      23
     147     153    -156     159       6     147     153     156     162      23
     147     153    -156     162       6     147     153     165     168      23
     147     153    -165     168       6     147     153     165     171      23
     147     153    -165     171       6     144     138     147     150       5
     144     138     147     153       5     141     138     147     150       5
     141     138     147     153       5     135     129     138     141       7
     135     129     138     144       7     135     129     138     147       7
     132     129     138     141       7     132     129     138     144       7
     132     129     138     147       7     129     138     147     150       5
     126     120     114     174       7     126     120     129     132      24
     126     120     129     135      24     126     120     129     138      25
     123     120     114     174       7     123     120     129     132      24
     123     120     129     135      24     123     120     129     138      25
     120     129     138     141       7     120     129     138     144       7
     117     114     120     123       7     117     114     120     126       7
     117     114     120     129       7     117     114     174     177       4
     117     114    -174     177       3     117     114    -174     177      15
     117     114     174     180       3     114     120     129     132      25
     114     120     129     135      25     114     174     180     183       2
     111     108     114     117       3     111     108     114     120       3
     111     108     114     174       3     108     114     120     123       7
     108     114     120     126       7     207     204     210     213       1
     207     204    -210     213       2     204     210     216     219       3
     201    1242    1233    1236      37     201    1242    1233    1239      37
     198     192     186     204       7     198     192     201    1242      37
     195     192     186     204       7     195     192     201    1242      37
     189     186     192     195       7     189     186     192     198       7
     189     186     192     201       7     189     186     204     207       4
     189     186    -204     207       3     189     186    -204     207      15
     189     186     204     210       3     186     204     210     213       2
     183     180     186     189       3     183     180     186     192       3
     183     180     186     204       3     180     186     192     195       7
     180     186     192     198       7     252     249     255     258       1
     252     249    -255     258       2     249     255     261     264       3
     237     231     240     243       3     237     231     240     246       3
     234     231     240     243       3     234     231     240     246       3
     228     222     216     249       7     228     222     231     234      24
     228     222     231     237      24     228     222     231     240       7
     225     222     216     249       7     225     222     231     234      24
     225     222     231     237      24     225     222     231     240       7
     219     216     222     225       7     219     216     222     228       7
     219     216     222     231       7     219     216     249     252       4
     219     216    -249     252       3     219     216    -249     252      15
     219     216     249     255       3     216     222     231     234      25
     216     222     231     237      25     216     249     255     258       2
     213     210     216     219       3     213     210     216     222       3
     213     210     216     249       3     210     216     222     225       7
     210     216     222     228       7     324     321     327     330       1
     324     321    -327     330       2     321     327     333     336       3
     309     303     300     312      23     309     303    -300     312       6
     306     303     300     312      23     306     303    -300     312       6
     303     300     312     315      23     303     300    -312     315       6
     303     300     312     318      23     303     300    -312     318       6
     297     294     300     303      23     297     294    -300     303       6
     297     294     300     312      23     297     294    -300     312       6
     294     300     303     306      23     294     300    -303     306       6
     294     300     303     309      23     294     300    -303     309       6
     294     300     312     315      23     294     300    -312     315       6
     294     300     312     318      23     294     300    -312     318       6
     291     285     294     297       5     291     285     294     300       5
     288     285     294     297       5     288     285     294     300       5
     282     276     285     288       7     282     276     285     291       7
     282     276     285     294       7     279     276     285     288       7
     279     276     285     291       7     279     276     285     294       7
     276     285     294     297       5     273     267     261     321       7
     273     267     276     279      24     273     267     276     282      24
     273     267     276     285      25     270     267     261     321       7
     270     267     276     279      24     270     267     276     282      24
     270     267     276     285      25     267     276     285     288       7
     267     276     285     291       7     264     261     267     270       7
     264     261     267     273       7     264     261     267     276       7
     264     261     321     324       4     264     261    -321     324       3
     264     261    -321     324      15     264     261     321     327       3
     261     267     276     279      25     261     267     276     282      25
     261     321     327     330       2     258     255     261     264       3
     258     255     261     267       3     258     255     261     321       3
     255     261     267     270       7     255     261     267     273       7
     375     372     378     381       1     375     372    -378     381       2
     372     378     384     387       3     354     348     357     360      37
     351     348     357     360      37     348     357     360     363      37
     348     357     360     366      37     348     357     360     369      37
     345     339     333     372       7     345     339     348     351       7
     345     339     348     354       7     345     339     348     357       7
     342     339     333     372       7     342     339     348     351       7
     342     339     348     354       7     342     339     348     357       7
     336     333     339     342       7     336     333     339     345       7
     336     333     339     348       7     336     333     372     375       4
     336     333    -372     375       3     336     333    -372     375      15
     336     333     372     378       3     333     339     348     351       7
     333     339     348     354       7     333     372     378     381       2
     330     327     333     336       3     330     327     333     339       3
     330     327     333     372       3     327     333     339     342       7
     327     333     339     345       7     405     402     408     411       1
     405     402    -408     411       2     402     408     414     417       3
     399    1074    1065    1068      37     399    1074    1065    1071      37
     396     390     384     402       7     396     390     399    1074      37
     393     390     384     402       7     393     390     399    1074      37
     387     384     390     393       7     387     384     390     396       7
     387     384     390     399       7     387     384     402     405       4
     387     384    -402     405       3     387     384    -402     405      15
     387     384     402     408       3     384     402     408     411       2
     381     378     384     387       3     381     378     384     390       3
     381     378     384     402       3     378     384     390     393       7
     378     384     390     396       7     456     453     459     462       1
     456     453    -459     462       2     453     459     465     468       3
     441     438     444     447       1     441     438    -444     447       2
     441     438     444     450       1     441     438    -444     450       2
     435     429     438     441      65     435     429    -438     441       3
     435     429    -438     441      66     435     429     438     444       3
     432     429     438     441      65     432     429    -438     441       3
     432     429    -438     441      66     432     429     438     444       3
     429     438     444     447       2     429     438     444     450       2
     426     420     414     453       7     426     420     429     432      24
     426     420     429     435      24     426     420     429     438       7
     423     420     414     453       7     423     420     429     432      24
     423     420     429     435      24     423     420     429     438       7
     417     414     420     423       7     417     414     420     426       7
     417     414     420     429       7     417     414     453     456       4
     417     414    -453     456       3     417     414    -453     456      15
     417     414     453     459       3     414     420     429     432      25
     414     420     429     435      25     414     453     459     462       2
     411     408     414     417       3     411     408     414     420       3
     411     408     414     453       3     408     414     420     423       7
     408     414     420     426       7     528     525     531     534       1
     528     525    -531     534       2     525     531     537     540       3
     513     507     504     516      23     513     507    -504     516       6
     510     507     504     516      23     510     507    -504     516       6
     507     504     516     519      23     507     504    -516     519       6
     507     504     516     522      23     507     504    -516     522       6
     501     498     504     507      23     501     498    -504     507       6
     501     498     504     516      23     501     498    -504     516       6
     498     504     507     510      23     498     504    -507     510       6
     498     504     507     513      23     498     504    -507     513       6
     498     504     516     519      23     498     504    -516     519       6
     498     504     516     522      23     498     504    -516     522       6
     495     489     498     501       5     495     489     498     504       5
     492     489     498     501       5     492     489     498     504       5
     486     480     489     492       7     486     480     489     495       7
     486     480     489     498       7     483     480     489     492       7
     483     480     489     495       7     483     480     489     498       7
     480     489     498     501       5     477     471     465     525       7
     477     471     480     483      24     477     471     480     486      24
     477     471     480     489      25     474     471     465     525       7
     474     471     480     483      24     474     471     480     486      24
     474     471     480     489      25     471     480     489     492       7
     471     480     489     495       7     468     465     471     474       7
     468     465     471     477       7     468     465     471     480       7
     468     465     525     528       4     468     465    -525     528       3
     468     465    -525     528      15     468     465     525     531       3
     465     471     480     483      25     465     471     480     486      25
     465     525     531     534       2     462     459     465     468       3
     462     459     465     471       3     462     459     465     525       3
     459     465     471     474       7     459     465     471     477       7
     591     588     594     597       1     591     588    -594     597       2
     588     594     600     603       3     579     576     582     585      75
     573     570     567     576       4     573     570    -567     576      76
     573     570    -567     576       5     573     570    -567     576      77
     570     567     576     579      75     567     576     582     585      75
     564     561     567     570      75     564     561     567     576      75
     561     567     570     573       4     561     567    -570     573      76
     561     567    -570     573       5     561     567    -570     573      77
     561     567     576     579      75     558     555     552     582      75
     558     555     561     564      75     558     555     561     567      75
     555     552     582     585      75     552     555     561     564      75
     552     582     576     579      75     549     543     537     588       7
     549     543     552     555       3     549     543     552     582       3
     546     543     537     588       7     546     543     552     555       3
     546     543     552     582       3     543     552     555     558      75
     543     552     582     585      75     540     537     543     546       7
     540     537     543     549       7     540     537     543     552       7
     540     537     588     591       4     540     537    -588     591       3
     540     537    -588     591      15     540     537     588     594       3
     537     588     594     597       2     534     531     537     540       3
     534     531     537     543       3     534     531     537     588       3
     531     537     543     546       7     531     537     543     549       7
     642     639     645     648       1     642     639    -645     648       2
     639     645     651     654       3     630     627     633     636      87
     624     621     627     630      88     624     621     627     633      88
     621     627     633     636      87     618     615     633     636      89
     618     621     627     630      88     615     618     621     624      94
     615     633     627     630      87     612     606     600     639       7
     612     606     615     618       3     612     606     615     633       3
     609     606     600     639       7     609     606     615     618       3
     609     606     615     633       3     606     615     633     636      89
     603     600     606     609       7     603     600     606     612       7
     603     600     606     615       7     603     600     639     642       4
     603     600    -639     642       3     603     600    -639     642      15
     603     600     639     645       3     600     639     645     648       2
     597     594     600     603       3     597     594     600     606       3
     597     594     600     639       3     594     600     606     609       7
     594     600     606     612       7     678     675     681     684       1
     678     675    -681     684       2     675     681     687     690       3
     663     657     651     675       7     663     657     666     669       3
     663     657     666     672       3     660     657     651     675       7
     660     657     666     669       3     660     657     666     672       3
     654     651     657     660       7     654     651     657     663       7
     654     651     657     666       7     654     651     675     678       4
     654     651    -675     678       3     654     651    -675     678      15
     654     651     675     681       3     651     675     681     684       2
     648     645     651     654       3     648     645     651     657       3
     648     645     651     675       3     645     651     657     660       7
     645     651     657     663       7     750     747     753     756       1
     750     747    -753     756       2     747     753     759     762       3
     735     729     726     738      23     735     729    -726     738       6
     732     729     726     738      23     732     729    -726     738       6
     729     726     738     741      23     729     726    -738     741       6
     729     726     738     744      23     729     726    -738     744       6
     723     720     726     729      23     723     720    -726     729       6
     723     720     726     738      23     723     720    -726     738       6
     720     726     729     732      23     720     726    -729     732       6
     720     726     729     735      23     720     726    -729     735       6
     720     726     738     741      23     720     726    -738     741       6
     720     726     738     744      23     720     726    -738     744       6
     717     711     720     723       5     717     711     720     726       5
     714     711     720     723       5     714     711     720     726       5
     708     702     711     714       7     708     702     711     717       7
     708     702     711     720       7     705     702     711     714       7
     705     702     711     717       7     705     702     711     720       7
     702     711     720     723       5     699     693     687     747       7
     699     693     702     705      24     699     693     702     708      24
     699     693     702     711      25     696     693     687     747       7
     696     693     702     705      24     696     693     702     708      24
     696     693     702     711      25     693     702     711     714       7
     693     702     711     717       7     690     687     693     696       7
     690     687     693     699       7     690     687     693     702       7
     690     687     747     750       4     690     687    -747     750       3
     690     687    -747     750      15     690     687     747     753       3
     687     693     702     705      25     687     693     702     708      25
     687     747     753     756       2     684     681     687     690       3
     684     681     687     693       3     684     681     687     747       3
     681     687     693     696       7     681     687     693     699       7
     822     819     825     828       1     822     819    -825     828       2
     819     825     831     834       3     807     801     798     810      23
     807     801    -798     810       6     804     801     798     810      23
     804     801    -798     810       6     801     798     810     813      23
     801     798    -810     813       6     801     798     810     816      23
     801     798    -810     816       6     795     792     798     801      23
     795     792    -798     801       6     795     792     798     810      23
     795     792    -798     810       6     792     798     801     804      23
     792     798    -801     804       6     792     798     801     807      23
     792     798    -801     807       6     792     798     810     813      23
     792     798    -810     813       6     792     798     810     816      23
     792     798    -810     816       6     789     783     792     795       5
     789     783     792     798       5     786     783     792     795       5
     786     783     792     798       5     780     774     783     786       7
     780     774     783     789       7     780     774     783     792       7
     777     774     783     786       7     777     774     783     789       7
     777     774     783     792       7     774     783     792     795       5
     771     765     759     819       7     771     765     774     777      24
     771     765     774     780      24     771     765     774     783      25
     768     765     759     819       7     768     765     774     777      24
     768     765     774     780      24     768     765     774     783      25
     765     774     783     786       7     765     774     783     789       7
     762     759     765     768       7     762     759     765     771       7
     762     759     765     774       7     762     759     819     822       4
     762     759    -819     822       3     762     759    -819     822      15
     762     759     819     825       3     759     765     774     777      25
     759     765     774     780      25     759     819     825     828       2
     756     753     759     762       3     756     753     759     765       3
     756     753     759     819       3     753     759     765     768       7
     753     759     765     771       7     867     864     870     873       1
     867     864    -870     873       2     864     870     876     879       3
     852     846     855     858       3     852     846     855     861       3
     849     846     855     858       3     849     846     855     861       3
     843     837     831     864       7     843     837     846     849      24
     843     837     846     852      24     843     837     846     855       7
     840     837     831     864       7     840     837     846     849      24
     840     837     846     852      24     840     837     846     855       7
     834     831     837     840       7     834     831     837     843       7
     834     831     837     846       7     834     831     864     867       4
     834     831    -864     867       3     834     831    -864     867      15
     834     831     864     870       3     831     837     846     849      25
     831     837     846     852      25     831     864     870     873       2
     828     825     831     834       3     828     825     831     837       3
     828     825     831     864       3     825     831     837     840       7
     825     831     837     843       7     933     930     936     939       1
     933     930    -936     939       2     930     936     942     945       3
     915     909     918     921       7     915     909     918     924       7
     915     909     918     927       7     912     909     918     921       7
     912     909     918     924       7     912     909     918     927       7
     906     900     909     912       7     906     900     909     915       7
     906     900     909     918       7     903     900     909     912       7
     903     900     909     915       7     903     900     909     918       7
     900     909     918     921       7     900     909     918     924       7
     900     909     918     927       7     897     891     900     903      24
     897     891     900     906      24     897     891     900     909      25
     894     891     900     903      24     894     891     900     906      24
     894     891     900     909      25     891     900     909     912       7
     891     900     909     915       7     888     882     876     930       7
     888     882     891     894      24     888     882     891     897      24
     888     882     891     900      25     885     882     876     930       7
     885     882     891     894      24     885     882     891     897      24
     885     882     891     900      25     882     891     900     903      25
     882     891     900     906      25     879     876     882     885       7
     879     876     882     888       7     879     876     882     891       7
     879     876     930     933       4     879     876    -930     933       3
     879     876    -930     933      15     879     876     930     936       3
     876     882     891     894      25     876     882     891     897      25
     876     930     936     939       2     873     870     876     879       3
     873     870     876     882       3     873     870     876     930       3
     870     876     882     885       7     870     876     882     888       7
     999     996    1002    1005       1     999     996   -1002    1005       2
     996    1002    1008    1011       3     981     975     984     987       7
     981     975     984     990       7     981     975     984     993       7
     978     975     984     987       7     978     975     984     990       7
     978     975     984     993       7     972     966     975     978       7
     972     966     975     981       7     972     966     975     984       7
     969     966     975     978       7     969     966     975     981       7
     969     966     975     984       7     966     975     984     987       7
     966     975     984     990       7     966     975     984     993       7
     963     957     966     969      24     963     957     966     972      24
     963     957     966     975      25     960     957     966     969      24
     960     957     966     972      24     960     957     966     975      25
     957     966     975     978       7     957     966     975     981       7
     954     948     942     996       7     954     948     957     960      24
     954     948     957     963      24     954     948     957     966      25
     951     948     942     996       7     951     948     957     960      24
     951     948     957     963      24     951     948     957     966      25
     948     957     966     969      25     948     957     966     972      25
     945     942     948     951       7     945     942     948     954       7
     945     942     948     957       7     945     942     996     999       4
     945     942    -996     999       3     945     942    -996     999      15
     945     942     996    1002       3     942     948     957     960      25
     942     948     957     963      25     942     996    1002    1005       2
     939     936     942     945       3     939     936     942     948       3
     939     936     942     996       3     936     942     948     951       7
     936     942     948     954       7    1050    1047    1053    1056       1
    1050    1047   -1053    1056       2    1047    1053    1059    1062       3
    1035    1032    1038    1041       1    1035    1032   -1038    1041       2
    1035    1032    1038    1044       1    1035    1032   -1038    1044       2
    1029    1023    1032    1035      65    1029    1023   -1032    1035       3
    1029    1023   -1032    1035      66    1029    1023    1032    1038       3
    1026    1023    1032    1035      65    1026    1023   -1032    1035       3
    1026    1023   -1032    1035      66    1026    1023    1032    1038       3
    1023    1032    1038    1041       2    1023    1032    1038    1044       2
    1020    1014    1008    1047       7    1020    1014    1023    1026      24
    1020    1014    1023    1029      24    1020    1014    1023    1032       7
    1017    1014    1008    1047       7    1017    1014    1023    1026      24
    1017    1014    1023    1029      24    1017    1014    1023    1032       7
    1011    1008    1014    1017       7    1011    1008    1014    1020       7
    1011    1008    1014    1023       7    1011    1008    1047    1050       4
    1011    1008   -1047    1050       3    1011    1008   -1047    1050      15
    1011    1008    1047    1053       3    1008    1014    1023    1026      25
    1008    1014    1023    1029      25    1008    1047    1053    1056       2
    1005    1002    1008    1011       3    1005    1002    1008    1014       3
    1005    1002    1008    1047       3    1002    1008    1014    1017       7
    1002    1008    1014    1020       7    1080    1077    1083    1086       1
    1080    1077   -1083    1086       2    1077    1083    1089    1092       3
    1071    1065    1059    1077       7    1068    1065    1059    1077       7
    1062    1059    1065    1068       7    1062    1059    1065    1071       7
    1062    1059    1065    1074       7    1062    1059    1077    1080       4
    1062    1059   -1077    1080       3    1062    1059   -1077    1080      15
    1062    1059    1077    1083       3    1059    1077    1083    1086       2
    1056    1053    1059    1062       3    1056    1053    1059    1065       3
    1056    1053    1059    1077       3    1053    1059    1065    1068       7
    1053    1059    1065    1071       7    1131    1128    1134    1137       1
    1131    1128   -1134    1137       2    1128    1134    1140    1143       3
    1110    1104    1113    1116      37    1107    1104    1113    1116      37
    1104    1113    1116    1119      37    1104    1113    1116    1122      37
    1104    1113    1116    1125      37    1101    1095    1089    1128       7
    1101    1095    1104    1107       7    1101    1095    1104    1110       7
    1101    1095    1104    1113       7    1098    1095    1089    1128       7
    1098    1095    1104    1107       7    1098    1095    1104    1110       7
    1098    1095    1104    1113       7    1092    1089    1095    1098       7
    1092    1089    1095    1101       7    1092    1089    1095    1104       7
    1092    1089    1128    1131       4    1092    1089   -1128    1131       3
    1092    1089   -1128    1131      15    1092    1089    1128    1134       3
    1089    1095    1104    1107       7    1089    1095    1104    1110       7
    1089    1128    1134    1137       2    1086    1083    1089    1092       3
    1086    1083    1089    1095       3    1086    1083    1089    1128       3
    1083    1089    1095    1098       7    1083    1089    1095    1101       7
    1197    1194    1200    1203       1    1197    1194   -1200    1203       2
    1194    1200    1206    1209       3    1194    1200    1206    1212       3
    1179    1173    1182    1185       7    1179    1173    1182    1188       7
    1179    1173    1182    1191       7    1176    1173    1182    1185       7
    1176    1173    1182    1188       7    1176    1173    1182    1191       7
    1170    1164    1173    1176       7    1170    1164    1173    1179       7
    1170    1164    1173    1182       7    1167    1164    1173    1176       7
    1167    1164    1173    1179       7    1167    1164    1173    1182       7
    1164    1173    1182    1185       7    1164    1173    1182    1188       7
    1164    1173    1182    1191       7    1161    1155    1164    1167      24
    1161    1155    1164    1170      24    1161    1155    1164    1173      25
    1158    1155    1164    1167      24    1158    1155    1164    1170      24
    1158    1155    1164    1173      25    1155    1164    1173    1176       7
    1155    1164    1173    1179       7    1152    1146    1140    1194       7
    1152    1146    1155    1158      24    1152    1146    1155    1161      24
    1152    1146    1155    1164      25    1149    1146    1140    1194       7
    1149    1146    1155    1158      24    1149    1146    1155    1161      24
    1149    1146    1155    1164      25    1146    1155    1164    1167      25
    1146    1155    1164    1170      25    1143    1140    1146    1149       7
    1143    1140    1146    1152       7    1143    1140    1146    1155       7
    1143    1140    1194    1197       4    1143    1140   -1194    1197       3
    1143    1140   -1194    1197      15    1143    1140    1194    1200       3
    1140    1146    1155    1158      25    1140    1146    1155    1161      25
    1140    1194    1200    1203       2    1137    1134    1140    1143       3
    1137    1134    1140    1146       3    1137    1134    1140    1194       3
    1134    1140    1146    1149       7    1134    1140    1146    1152       7
    1218    1215    1221    1224       1    1218    1215   -1221    1224       2
    1215    1221    1227    1230       3    1212    1206    1215    1218       4
    1212    1206   -1215    1218       3    1212    1206   -1215    1218      15
    1212    1206    1215    1221       3    1209    1206    1215    1218       4
    1209    1206   -1215    1218       3    1209    1206   -1215    1218      15
    1209    1206    1215    1221       3    1206    1215    1221    1224       2
    1203    1200    1206    1209       3    1203    1200    1206    1212       3
    1203    1200    1206    1215       3    1248    1245    1251    1254       1
    1248    1245   -1251    1254       2    1245    1251    1257    1260       3
    1239    1233    1227    1245       7    1236    1233    1227    1245       7
    1230    1227    1233    1236       7    1230    1227    1233    1239       7
    1230    1227    1233    1242       7    1230    1227    1245    1248       4
    1230    1227   -1245    1248       3    1230    1227   -1245    1248      15
    1230    1227    1245    1251       3    1227    1245    1251    1254       2
    1224    1221    1227    1230       3    1224    1221    1227    1233       3
    1224    1221    1227    1245       3    1221    1227    1233    1236       7
    1221    1227    1233    1239       7    1320    1317    1323    1326       1
    1320    1317   -1323    1326       2    1317    1323    1329    1332       3
    1305    1299    1296    1308      23    1305    1299   -1296    1308       6
    1302    1299    1296    1308      23    1302    1299   -1296    1308       6
    1299    1296    1308    1311      23    1299    1296   -1308    1311       6
    1299    1296    1308    1314      23    1299    1296   -1308    1314       6
    1293    1290    1296    1299      23    1293    1290   -1296    1299       6
    1293    1290    1296    1308      23    1293    1290   -1296    1308       6
    1290    1296    1299    1302      23    1290    1296   -1299    1302       6
    1290    1296    1299    1305      23    1290    1296   -1299    1305       6
    1290    1296    1308    1311      23    1290    1296   -1308    1311       6
    1290    1296    1308    1314      23    1290    1296   -1308    1314       6
    1287    1281    1290    1293       5    1287    1281    1290    1296       5
    1284    1281    1290    1293       5    1284    1281    1290    1296       5
    1278    1272    1281    1284       7    1278    1272    1281    1287       7
    1278    1272    1281    1290       7    1275    1272    1281    1284       7
    1275    1272    1281    1287       7    1275    1272    1281    1290       7
    1272    1281    1290    1293       5    1269    1263    1257    1317       7
    1269    1263    1272    1275      24    1269    1263    1272    1278      24
    1269    1263    1272    1281      25    1266    1263    1257    1317       7
    1266    1263    1272    1275      24    1266    1263    1272    1278      24
    1266    1263    1272    1281      25    1263    1272    1281    1284       7
    1263    1272    1281    1287       7    1260    1257    1263    1266       7
    1260    1257    1263    1269       7    1260    1257    1263    1272       7
    1260    1257    1317    1320       4    1260    1257   -1317    1320       3
    1260    1257   -1317    1320      15    1260    1257    1317    1323       3
    1257    1263    1272    1275      25    1257    1263    1272    1278      25
    1257    1317    1323    1326       2    1254    1251    1257    1260       3
    1254    1251    1257    1263       3    1254    1251    1257    1317       3
    1251    1257    1263    1266       7    1251    1257    1263    1269       7
    1383    1380    1386    1389       1    1383    1380   -1386    1389       2
    1380    1386    1392    1395       3    1380    1386    1392    1398       3
    1371    1368    1374    1377      75    1365    1362    1359    1368       4
    1365    1362   -1359    1368      76    1365    1362   -1359    1368       5
    1365    1362   -1359    1368      77    1362    1359    1368    1371      75
    1359    1368    1374    1377      75    1356    1353    1359    1362      75
    1356    1353    1359    1368      75    1353    1359    1362    1365       4
    1353    1359   -1362    1365      76    1353    1359   -1362    1365       5
    1353    1359   -1362    1365      77    1353    1359    1368    1371      75
    1350    1347    1344    1374      75    1350    1347    1353    1356      75
    1350    1347    1353    1359      75    1347    1344    1374    1377      75
    1344    1347    1353    1356      75    1344    1374    1368    1371      75
    1341    1335    1329    1380       7    1341    1335    1344    1347       3
    1341    1335    1344    1374       3    1338    1335    1329    1380       7
    1338    1335    1344    1347       3    1338    1335    1344    1374       3
    1335    1344    1347    1350      75    1335    1344    1374    1377      75
    1332    1329    1335    1338       7    1332    1329    1335    1341       7
    1332    1329    1335    1344       7    1332    1329    1380    1383       4
    1332    1329   -1380    1383       3    1332    1329   -1380    1383      15
    1332    1329    1380    1386       3    1329    1380    1386    1389       2
    1326    1323    1329    1332       3    1326    1323    1329    1335       3
    1326    1323    1329    1380       3    1323    1329    1335    1338       7
    1323    1329    1335    1341       7    1398    1392    1401    1404       3
    1398    1392    1401    1407       3    1395    1392    1401    1404       3
    1395    1392    1401    1407       3    1389    1386    1392    1395       3
    1389    1386    1392    1398       3    1389    1386    1392    1401       3
      30      42     -36     -39     104      66      75     -72     -78     104
     153     168    -165    -171     105     153     159    -156    -162     105
     138     153    -147    -150     105     102     111    -108    -114     104
     174     183    -180    -186     104     204     213    -210    -216     104
     300     315    -312    -318     105     300     306    -303    -309     105
     285     300    -294    -297     105     249     258    -255    -261     104
     321     330    -327    -333     104     372     381    -378    -384     104
     438     447    -444    -450     105     402     411    -408    -414     104
     504     519    -516    -522     105     504     510    -507    -513     105
     489     504    -498    -501     105     453     462    -459    -465     104
     552     576    -582    -585     104     567     582    -576    -579     104
     555     567    -561    -564     104     552     561    -555    -558     104
     525     534    -531    -537     104     615     627    -633    -636     104
     621     633    -627    -630     105     618     627    -621    -624     104
     588     597    -594    -600     104     639     648    -645    -651     104
     726     741    -738    -744     105     726     732    -729    -735     105
     711     726    -720    -723     105     675     684    -681    -687     104
     798     813    -810    -816     105     798     804    -801    -807     105
     783     798    -792    -795     105     747     756    -753    -759     104
     819     828    -825    -831     104     864     873    -870    -876     104
     930     939    -936    -942     104    1032    1041   -1038   -1044     105
     996    1005   -1002   -1008     104    1047    1056   -1053   -1059     104
    1077    1086   -1083   -1089     104    1128    1137   -1134   -1140     104
    1194    1203   -1200   -1206     104    1215    1224   -1221   -1227     104
    1296    1311   -1308   -1314     105    1296    1302   -1299   -1305     105
    1281    1296   -1290   -1293     105    1245    1254   -1251   -1257     104
    1344    1368   -1374   -1377     104    1359    1374   -1368   -1371     104
    1347    1359   -1353   -1356     104    1344    1353   -1347   -1350     104
    1317    1326   -1323   -1329     104    1380    1392   -1386   -1389     104
%FLAG DIHEDRALS_WITHOUT_HYDROGEN                                                
%FORMAT(10I8)                                                                   
      33      30      36      42       2      30      36      42      48       4
      30      36     -42      48       3      30      36     -42      48       5
      30      36     -42      48       6      30      36      42      66       4
      30      36     -42      66       3      30      36     -42      66       5
      30      36     -42      66       6      18      12      30      33       3
      18      12      30      36       8      18      12     -30      36       9
      18      12     -30      36      10      18      12     -30      36       6
      12      30      36      42       2       0      12      30      33       3
       0      12      30      36       3      69      66      72      78       2
      66      72      78      84       4      66      72     -78      84       3
      66      72     -78      84       5      66      72     -78      84       6
      66      72      78     102       4      66      72     -78     102       3
      66      72     -78     102       5      66      72     -78     102       6
      57      48      42      66      11      57      48     -42      66      12
      57      48     -42      66      13      57      48     -42      66      14
      48      42      66      69       3      48      42      66      72       4
      48      42     -66      72       3      48      42     -66      72       5
      48      42     -66      72       6      42      48      57      60       4
      42      48     -57      60      16      42      48     -57      60       5
      42      48     -57      60      17      42      48      57      63       4
      42      48     -57      63      16      42      48     -57      63       5
      42      48     -57      63      17      42      66      72      78       2
      36      42      48      57      18      36      42     -48      57      19
      36      42     -48      57      13      36      42     -48      57      20
      36      42      66      69       3      36      42      66      72      21
      36      42     -66      72      22      36      42     -66      72      15
      36      42     -66      72       6     105     102     108     114       2
     102     108     114     120       4     102     108    -114     120       3
     102     108    -114     120       5     102     108    -114     120       6
     102     108     114     174       4     102     108    -114     174       3
     102     108    -114     174       5     102     108    -114     174       6
      93      84      78     102      11      93      84     -78     102      12
      93      84     -78     102      13      93      84     -78     102      14
      84      78     102     105       3      84      78     102     108       4
      84      78    -102     108       3      84      78    -102     108       5
      84      78    -102     108       6      78      84      93      96       4
      78      84     -93      96      16      78      84     -93      96       5
      78      84     -93      96      17      78      84      93      99       4
      78      84     -93      99      16      78      84     -93      99       5
      78      84     -93      99      17      78     102     108     114       2
      72      78      84      93      18      72      78     -84      93      19
      72      78     -84      93      13      72      78     -84      93      20
      72      78     102     105       3      72      78     102     108      21
      72      78    -102     108      22      72      78    -102     108      15
      72      78    -102     108       6     177     174     180     186       2
     174     180     186     192       4     174     180    -186     192       3
     174     180    -186     192       5     174     180    -186     192       6
     174     180     186     204       4     174     180    -186     204       3
     174     180    -186     204       5     174     180    -186     204       6
     138     147     153     156      23     138     147    -153     156       6
     138     147     153     165      23     138     147    -153     165       6
     129     120     114     174       7     129     138     147     153       4
     129     138    -147     153       5     120     114     174     177       3
     120     114     174     180       4     120     114    -174     180       3
     120     114    -174     180       5     120     114    -174     180       6
     120     129     138     147       7     114     120     129     138      26
     114     120    -129     138      27     114     120    -129     138      28
     114     174     180     186       2     108     114     120     129       7
     108     114     174     177       3     108     114     174     180      21
     108     114    -174     180      22     108     114    -174     180      15
     108     114    -174     180       6     207     204     210     216       2
     204     210     216     222       4     204     210    -216     222       3
     204     210    -216     222       5     204     210    -216     222       6
     204     210     216     249       4     204     210    -216     249       3
     204     210    -216     249       5     204     210    -216     249       6
     201     192     186     204      29     201     192    -186     204      30
     201     192    -186     204      31     201     192    -186     204      32
     201    1242    1233    1227      33     201    1242   -1233    1227      34
     201    1242   -1233    1227      35     201    1242   -1233    1227      36
     192     186     204     207       3     192     186     204     210       4
     192     186    -204     210       3     192     186    -204     210       5
     192     186    -204     210       6     192     201    1242    1233      38
     192     201   -1242    1233      39     192     201   -1242    1233      40
     192     201   -1242    1233      41     186     192     201    1242      33
     186     192    -201    1242      34     186     192    -201    1242      35
     186     192    -201    1242      36     186     204     210     216       2
     180     186     192     201      42     180     186    -192     201      43
     180     186    -192     201      31     180     186    -192     201      44
     180     186     204     207       3     180     186     204     210      21
     180     186    -204     210      22     180     186    -204     210      15
     180     186    -204     210       6     252     249     255     261       2
     249     255     261     267       4     249     255    -261     267       3
     249     255    -261     267       5     249     255    -261     267       6
     249     255     261     321       4     249     255    -261     321       3
     249     255    -261     321       5     249     255    -261     321       6
     231     222     216     249      45     231     222    -216     249      46
     231     222    -216     249      47     231     222    -216     249      48
     222     216     249     252       3     222     216     249     255       4
     222     216    -249     255       3     222     216    -249     255       5
     222     216    -249     255       6     222     231     240     243      49
     222     231    -240     243      44     222     231     240     246      49
     222     231    -240     246      44     216     222     231     240      50
     216     222    -231     240      51     216     222    -231     240      52
     216     222    -231     240      53     216     249     255     261       2
     210     216     222     231      54     210     216    -222     231      55
     210     216    -222     231      47     210     216    -222     231      56
     210     216     249     252       3     210     216     249     255      21
     210     216    -249     255      22     210     216    -249     255      15
     210     216    -249     255       6     324     321     327     333       2
     321     327     333     339       4     321     327    -333     339       3
     321     327    -333     339       5     321     327    -333     339       6
     321     327     333     372       4     321     327    -333     372       3
     321     327    -333     372       5     321     327    -333     372       6
     285     294     300     303      23     285     294    -300     303       6
     285     294     300     312      23     285     294    -300     312       6
     276     267     261     321       7     276     285     294     300       4
     276     285    -294     300       5     267     261     321     324       3
     267     261     321     327       4     267     261    -321     327       3
     267     261    -321     327       5     267     261    -321     327       6
     267     276     285     294       7     261     267     276     285      26
     261     267    -276     285      27     261     267    -276     285      28
     261     321     327     333       2     255     261     267     276       7
     255     261     321     324       3     255     261     321     327      21
     255     261    -321     327      22     255     261    -321     327      15
     255     261    -321     327       6     375     372     378     384       2
     372     378     384     390       4     372     378    -384     390       3
     372     378    -384     390       5     372     378    -384     390       6
     372     378     384     402       4     372     378    -384     402       3
     372     378    -384     402       5     372     378    -384     402       6
     348     339     333     372      45     348     339    -333     372      46
     348     339    -333     372      47     348     339    -333     372      48
     339     333     372     375       3     339     333     372     378       4
     339     333    -372     378       3     339     333    -372     378       5
     339     333    -372     378       6     339     348     357     360      57
     339     348    -357     360      58     339     348    -357     360      59
     339     348    -357     360      60     333     339     348     357      61
     333     339    -348     357      62     333     339    -348     357      63
     333     339    -348     357      64     333     372     378     384       2
     327     333     339     348      54     327     333    -339     348      55
     327     333    -339     348      47     327     333    -339     348      56
     327     333     372     375       3     327     333     372     378      21
     327     333    -372     378      22     327     333    -372     378      15
     327     333    -372     378       6     405     402     408     414       2
     402     408     414     420       4     402     408    -414     420       3
     402     408    -414     420       5     402     408    -414     420       6
     402     408     414     453       4     402     408    -414     453       3
     402     408    -414     453       5     402     408    -414     453       6
     399     390     384     402      29     399     390    -384     402      30
     399     390    -384     402      31     399     390    -384     402      32
     399    1074    1065    1059      33     399    1074   -1065    1059      34
     399    1074   -1065    1059      35     399    1074   -1065    1059      36
     390     384     402     405       3     390     384     402     408       4
     390     384    -402     408       3     390     384    -402     408       5
     390     384    -402     408       6     390     399    1074    1065      38
     390     399   -1074    1065      39     390     399   -1074    1065      40
     390     399   -1074    1065      41     384     390     399    1074      33
     384     390    -399    1074      34     384     390    -399    1074      35
     384     390    -399    1074      36     384     402     408     414       2
     378     384     390     399      42     378     384    -390     399      43
     378     384    -390     399      31     378     384    -390     399      44
     378     384     402     405       3     378     384     402     408      21
     378     384    -402     408      22     378     384    -402     408      15
     378     384    -402     408       6     456     453     459     465       2
     453     459     465     471       4     453     459    -465     471       3
     453     459    -465     471       5     453     459    -465     471       6
     453     459     465     525       4     453     459    -465     525       3
     453     459    -465     525       5     453     459    -465     525       6
     429     420     414     453      45     429     420    -414     453      46
     429     420    -414     453      47     429     420    -414     453      48
     420     414     453     456       3     420     414     453     459       4
     420     414    -453     459       3     420     414    -453     459       5
     420     414    -453     459       6     420     429     438     441       4
     420     429     438     444      67     420     429    -438     444      68
     420     429    -438     444      69     420     429    -438     444      70
     414     420     429     438      71     414     420    -429     438      72
     414     420    -429     438      73     414     420    -429     438      74
     414     453     459     465       2     408     414     420     429      54
     408     414    -420     429      55     408     414    -420     429      47
     408     414    -420     429      56     408     414     453     456       3
     408     414     453     459      21     408     414    -453     459      22
     408     414    -453     459      15     408     414    -453     459       6
     528     525     531     537       2     525     531     537     543       4
     525     531    -537     543       3     525     531    -537     543       5
     525     531    -537     543       6     525     531     537     588       4
     525     531    -537     588       3     525     531    -537     588       5
     525     531    -537     588       6     489     498     504     507      23
     489     498    -504     507       6     489     498     504     516      23
     489     498    -504     516       6     480     471     465     525       7
     480     489     498     504       4     480     489    -498     504       5
     471     465     525     528       3     471     465     525     531       4
     471     465    -525     531       3     471     465    -525     531       5
     471     465    -525     531       6     471     480     489     498       7
     465     471     480     489      26     465     471    -480     489      27
     465     471    -480     489      28     465     525     531     537       2
     459     465     471     480       7     459     465     525     528       3
     459     465     525     531      21     459     465    -525     531      22
     459     465    -525     531      15     459     465    -525     531       6
     591     588     594     600       2     588     594     600     606       4
     588     594    -600     606       3     588     594    -600     606       5
     588     594    -600     606       6     588     594     600     639       4
     588     594    -600     639       3     588     594    -600     639       5
     588     594    -600     639       6     570     567     576     582      75
     561     555     552     582      75     561     567    -576     582      75
     555     552     582     576      75     555     561     567     570      75
     555     561    -567     576      75     552     543     537     588      78
     552     543    -537     588      79     552     543    -537     588      80
     552     543    -537     588      81     552     555     561     567      75
     552     582    -576     567      75     543     537     588     591       3
     543     537     588     594       4     543     537    -588     594       3
     543     537    -588     594       5     543     537    -588     594       6
     543     552     555     561      75     543     552     582     576      75
     537     543     552     555       4     537     543    -552     555      82
     537     543    -552     555       5     537     543    -552     555      83
     537     543     552     582       4     537     543    -552     582      82
     537     543    -552     582       5     537     543    -552     582      83
     537     588     594     600       2     531     537     543     552      84
     531     537    -543     552      85     531     537    -543     552      80
     531     537    -543     552      86     531     537     588     591       3
     531     537     588     594      21     531     537    -588     594      22
     531     537    -588     594      15     531     537    -588     594       6
     642     639     645     651       2     639     645     651     657       4
     639     645    -651     657       3     639     645    -651     657       5
     639     645    -651     657       6     639     645     651     675       4
     639     645    -651     675       3     639     645    -651     675       5
     639     645    -651     675       6     621     618    -615     633      23
     618     615    -633     627      89     618     621    -627     633      88
     615     606     600     639      90     615     606    -600     639      91
     615     606    -600     639      92     615     606    -600     639      93
     615     618    -621     627      94     615     633    -627     621      87
     606     600     639     642       3     606     600     639     645       4
     606     600    -639     645       3     606     600    -639     645       5
     606     600    -639     645       6     606     615     618     621      23
     606     615     633     627      89     600     606     615     618      95
     600     606    -615     618      96     600     606    -615     618      97
     600     606    -615     618      98     600     606     615     633       3
     600     639     645     651       2     594     600     606     615      99
     594     600    -606     615     100     594     600    -606     615      92
     594     600    -606     615      20     594     600     639     642       3
     594     600     639     645      21     594     600    -639     645      22
     594     600    -639     645      15     594     600    -639     645       6
     678     675     681     687       2     675     681     687     693       4
     675     681    -687     693       3     675     681    -687     693       5
     675     681    -687     693       6     675     681     687     747       4
     675     681    -687     747       3     675     681    -687     747       5
     675     681    -687     747       6     666     657     651     675      11
     666     657    -651     675      12     666     657    -651     675      13
     666     657    -651     675      14     657     651     675     678       3
     657     651     675     681       4     657     651    -675     681       3
     657     651    -675     681       5     657     651    -675     681       6
     651     657     666     669       4     651     657    -666     669      16
     651     657    -666     669       5     651     657    -666     669      17
     651     657     666     672       4     651     657    -666     672      16
     651     657    -666     672       5     651     657    -666     672      17
     651     675     681     687       2     645     651     657     666      18
     645     651    -657     666      19     645     651    -657     666      13
     645     651    -657     666      20     645     651     675     678       3
     645     651     675     681      21     645     651    -675     681      22
     645     651    -675     681      15     645     651    -675     681       6
     750     747     753     759       2     747     753     759     765       4
     747     753    -759     765       3     747     753    -759     765       5
     747     753    -759     765       6     747     753     759     819       4
     747     753    -759     819       3     747     753    -759     819       5
     747     753    -759     819       6     711     720     726     729      23
     711     720    -726     729       6     711     720     726     738      23
     711     720    -726     738       6     702     693     687     747       7
     702     711     720     726       4     702     711    -720     726       5
     693     687     747     750       3     693     687     747     753       4
     693     687    -747     753       3     693     687    -747     753       5
     693     687    -747     753       6     693     702     711     720       7
     687     693     702     711      26     687     693    -702     711      27
     687     693    -702     711      28     687     747     753     759       2
     681     687     693     702       7     681     687     747     750       3
     681     687     747     753      21     681     687    -747     753      22
     681     687    -747     753      15     681     687    -747     753       6
     822     819     825     831       2     819     825     831     837       4
     819     825    -831     837       3     819     825    -831     837       5
     819     825    -831     837       6     819     825     831     864       4
     819     825    -831     864       3     819     825    -831     864       5
     819     825    -831     864       6     783     792     798     801      23
     783     792    -798     801       6     783     792     798     810      23
     783     792    -798     810       6     774     765     759     819       7
     774     783     792     798       4     774     783    -792     798       5
     765     759     819     822       3     765     759     819     825       4
     765     759    -819     825       3     765     759    -819     825       5
     765     759    -819     825       6     765     774     783     792       7
     759     765     774     783      26     759     765    -774     783      27
     759     765    -774     783      28     759     819     825     831       2
     753     759     765     774       7     753     759     819     822       3
     753     759     819     825      21     753     759    -819     825      22
     753     759    -819     825      15     753     759    -819     825       6
     867     864     870     876       2     864     870     876     882       4
     864     870    -876     882       3     864     870    -876     882       5
     864     870    -876     882       6     864     870     876     930       4
     864     870    -876     930       3     864     870    -876     930       5
     864     870    -876     930       6     846     837     831     864      45
     846     837    -831     864      46     846     837    -831     864      47
     846     837    -831     864      48     837     831     864     867       3
     837     831     864     870       4     837     831    -864     870       3
     837     831    -864     870       5     837     831    -864     870       6
     837     846     855     858      49     837     846    -855     858      44
     837     846     855     861      49     837     846    -855     861      44
     831     837     846     855      50     831     837    -846     855      51
     831     837    -846     855      52     831     837    -846     855      53
     831     864     870     876       2     825     831     837     846      54
     825     831    -837     846      55     825     831    -837     846      47
     825     831    -837     846      56     825     831     864     867       3
     825     831     864     870      21     825     831    -864     870      22
     825     831    -864     870      15     825     831    -864     870       6
     933     930     936     942       2     930     936     942     948       4
     930     936    -942     948       3     930     936    -942     948       5
     930     936    -942     948       6     930     936     942     996       4
     930     936    -942     996       3     930     936    -942     996       5
     930     936    -942     996       6     891     882     876     930       7
     891     900     909     918       7     882     876     930     933       3
     882     876     930     936       4     882     876    -930     936       3
     882     876    -930     936       5     882     876    -930     936       6
     882     891     900     909      26     882     891    -900     909      27
     882     891    -900     909      28     876     882     891     900      26
     876     882    -891     900      27     876     882    -891     900      28
     876     930     936     942       2     870     876     882     891       7
     870     876     930     933       3     870     876     930     936      21
     870     876    -930     936      22     870     876    -930     936      15
     870     876    -930     936       6     999     996    1002    1008       2
     996    1002    1008    1014       4     996    1002   -1008    1014       3
     996    1002   -1008    1014       5     996    1002   -1008    1014       6
     996    1002    1008    1047       4     996    1002   -1008    1047       3
     996    1002   -1008    1047       5     996    1002   -1008    1047       6
     957     948     942     996       7     957     966     975     984       7
     948     942     996     999       3     948     942     996    1002       4
     948     942    -996    1002       3     948     942    -996    1002       5
     948     942    -996    1002       6     948     957     966     975      26
     948     957    -966     975      27     948     957    -966     975      28
     942     948     957     966      26     942     948    -957     966      27
     942     948    -957     966      28     942     996    1002    1008       2
     936     942     948     957       7     936     942     996     999       3
     936     942     996    1002      21     936     942    -996    1002      22
     936     942    -996    1002      15     936     942    -996    1002       6
    1050    1047    1053    1059       2    1047    1053    1059    1065       4
    1047    1053   -1059    1065       3    1047    1053   -1059    1065       5
    1047    1053   -1059    1065       6    1047    1053    1059    1077       4
    1047    1053   -1059    1077       3    1047    1053   -1059    1077       5
    1047    1053   -1059    1077       6    1023    1014    1008    1047      45
    1023    1014   -1008    1047      46    1023    1014   -1008    1047      47
    1023    1014   -1008    1047      48    1014    1008    1047    1050       3
    1014    1008    1047    1053       4    1014    1008   -1047    1053       3
    1014    1008   -1047    1053       5    1014    1008   -1047    1053       6
    1014    1023    1032    1035       4    1014    1023    1032    1038      67
    1014    1023   -1032    1038      68    1014    1023   -1032    1038      69
    1014    1023   -1032    1038      70    1008    1014    1023    1032      71
    1008    1014   -1023    1032      72    1008    1014   -1023    1032      73
    1008    1014   -1023    1032      74    1008    1047    1053    1059       2
    1002    1008    1014    1023      54    1002    1008   -1014    1023      55
    1002    1008   -1014    1023      47    1002    1008   -1014    1023      56
    1002    1008    1047    1050       3    1002    1008    1047    1053      21
    1002    1008   -1047    1053      22    1002    1008   -1047    1053      15
    1002    1008   -1047    1053       6    1080    1077    1083    1089       2
    1077    1083    1089    1095       4    1077    1083   -1089    1095       3
    1077    1083   -1089    1095       5    1077    1083   -1089    1095       6
    1077    1083    1089    1128       4    1077    1083   -1089    1128       3
    1077    1083   -1089    1128       5    1077    1083   -1089    1128       6
    1074    1065    1059    1077      29    1074    1065   -1059    1077      30
    1074    1065   -1059    1077      31    1074    1065   -1059    1077      32
    1065    1059    1077    1080       3    1065    1059    1077    1083       4
    1065    1059   -1077    1083       3    1065    1059   -1077    1083       5
    1065    1059   -1077    1083       6    1059    1077    1083    1089       2
    1053    1059    1065    1074      42    1053    1059   -1065    1074      43
    1053    1059   -1065    1074      31    1053    1059   -1065    1074      44
    1053    1059    1077    1080       3    1053    1059    1077    1083      21
    1053    1059   -1077    1083      22    1053    1059   -1077    1083      15
    1053    1059   -1077    1083       6    1131    1128    1134    1140       2
    1128    1134    1140    1146       4    1128    1134   -1140    1146       3
    1128    1134   -1140    1146       5    1128    1134   -1140    1146       6
    1128    1134    1140    1194       4    1128    1134   -1140    1194       3
    1128    1134   -1140    1194       5    1128    1134   -1140    1194       6
    1104    1095    1089    1128      45    1104    1095   -1089    1128      46
    1104    1095   -1089    1128      47    1104    1095   -1089    1128      48
    1095    1089    1128    1131       3    1095    1089    1128    1134       4
    1095    1089   -1128    1134       3    1095    1089   -1128    1134       5
    1095    1089   -1128    1134       6    1095    1104    1113    1116      57
    1095    1104   -1113    1116      58    1095    1104   -1113    1116      59
    1095    1104   -1113    1116      60    1089    1095    1104    1113      61
    1089    1095   -1104    1113      62    1089    1095   -1104    1113      63
    1089    1095   -1104    1113      64    1089    1128    1134    1140       2
    1083    1089    1095    1104      54    1083    1089   -1095    1104      55
    1083    1089   -1095    1104      47    1083    1089   -1095    1104      56
    1083    1089    1128    1131       3    1083    1089    1128    1134      21
    1083    1089   -1128    1134      22    1083    1089   -1128    1134      15
    1083    1089   -1128    1134       6    1197    1194    1200    1206       2
    1194    1200    1206    1215       4    1194    1200   -1206    1215       3
    1194    1200   -1206    1215       5    1194    1200   -1206    1215       6
    1155    1146    1140    1194       7    1155    1164    1173    1182       7
    1146    1140    1194    1197       3    1146    1140    1194    1200       4
    1146    1140   -1194    1200       3    1146    1140   -1194    1200       5
    1146    1140   -1194    1200       6    1146    1155    1164    1173      26
    1146    1155   -1164    1173      27    1146    1155   -1164    1173      28
    1140    1146    1155    1164      26    1140    1146   -1155    1164      27
    1140    1146   -1155    1164      28    1140    1194    1200    1206       2
    1134    1140    1146    1155       7    1134    1140    1194    1197       3
    1134    1140    1194    1200      21    1134    1140   -1194    1200      22
    1134    1140   -1194    1200      15    1134    1140   -1194    1200       6
    1218    1215    1221    1227       2    1215    1221    1227    1233       4
    1215    1221   -1227    1233       3    1215    1221   -1227    1233       5
    1215    1221   -1227    1233       6    1215    1221    1227    1245       4
    1215    1221   -1227    1245       3    1215    1221   -1227    1245       5
    1215    1221   -1227    1245       6    1206    1215    1221    1227       2
    1200    1206    1215    1218       3    1200    1206    1215    1221      21
    1200    1206   -1215    1221      22    1200    1206   -1215    1221      15
    1200    1206   -1215    1221       6    1248    1245    1251    1257       2
    1245    1251    1257    1263       4    1245    1251   -1257    1263       3
    1245    1251   -1257    1263       5    1245    1251   -1257    1263       6
    1245    1251    1257    1317       4    1245    1251   -1257    1317       3
    1245    1251   -1257    1317       5    1245    1251   -1257    1317       6
    1242    1233    1227    1245      29    1242    1233   -1227    1245      30
    1242    1233   -1227    1245      31    1242    1233   -1227    1245      32
    1233    1227    1245    1248       3    1233    1227    1245    1251       4
    1233    1227   -1245    1251       3    1233    1227   -1245    1251       5
    1233    1227   -1245    1251       6    1227    1245    1251    1257       2
    1221    1227    1233    1242      42    1221    1227   -1233    1242      43
    1221    1227   -1233    1242      31    1221    1227   -1233    1242      44
    1221    1227    1245    1248       3    1221    1227    1245    1251      21
    1221    1227   -1245    1251      22    1221    1227   -1245    1251      15
    1221    1227   -1245    1251       6    1320    1317    1323    1329       2
    1317    1323    1329    1335       4    1317    1323   -1329    1335       3
    1317    1323   -1329    1335       5    1317    1323   -1329    1335       6
    1317    1323    1329    1380       4    1317    1323   -1329    1380       3
    1317    1323   -1329    1380       5    1317    1323   -1329    1380       6
    1281    1290    1296    1299      23    1281    1290   -1296    1299       6
    1281    1290    1296    1308      23    1281    1290   -1296    1308       6
    1272    1263    1257    1317       7    1272    1281    1290    1296       4
    1272    1281   -1290    1296       5    1263    1257    1317    1320       3
    1263    1257    1317    1323       4    1263    1257   -1317    1323       3
    1263    1257   -1317    1323       5    1263    1257   -1317    1323       6
    1263    1272    1281    1290       7    1257    1263    1272    1281      26
    1257    1263   -1272    1281      27    1257    1263   -1272    1281      28
    1257    1317    1323    1329       2    1251    1257    1263    1272       7
    1251    1257    1317    1320       3    1251    1257    1317    1323      21
    1251    1257   -1317    1323      22    1251    1257   -1317    1323      15
    1251    1257   -1317    1323       6    1383    1380    1386    1392       2
    1380    1386    1392    1401       4    1380    1386   -1392    1401     101
    1380    1386   -1392    1401     102    1380    1386   -1392    1401       6
    1362    1359    1368    1374      75    1353    1347    1344    1374      75
    1353    1359   -1368    1374      75    1347    1344    1374    1368      75
    1347    1353    1359    1362      75    1347    1353   -1359    1368      75
    1344    1335    1329    1380      78    1344    1335   -1329    1380      79
    1344    1335   -1329    1380      80    1344    1335   -1329    1380      81
    1344    1347    1353    1359      75    1344    1374   -1368    1359      75
    1335    1329    1380    1383       3    1335    1329    1380    1386       4
    1335    1329   -1380    1386       3    1335    1329   -1380    1386       5
    1335    1329   -1380    1386       6    1335    1344    1347    1353      75
    1335    1344    1374    1368      75    1329    1335    1344    1347       4
    1329    1335   -1344    1347      82    1329    1335   -1344    1347       5
    1329    1335   -1344    1347      83    1329    1335    1344    1374       4
    1329    1335   -1344    1374      82    1329    1335   -1344    1374       5
    1329    1335   -1344    1374      83    1329    1380    1386    1392       2
    1323    1329    1335    1344      84    1323    1329   -1335    1344      85
    1323    1329   -1335    1344      80    1323    1329   -1335    1344      86
    1323    1329    1380    1383       3    1323    1329    1380    1386      21
    1323    1329   -1380    1386      22    1323    1329   -1380    1386      15
    1323    1329   -1380    1386       6    1386    1392    1401    1404       3
    1386    1392    1401    1407       3      12      36     -30     -33     103
      42      72     -66     -69     103      48      60     -57     -63     103
      78     108    -102    -105     103      84      96     -93     -99     103
     114     180    -174    -177     103     147     156    -153    -165     103
     186     210    -204    -207     103     216     255    -249    -252     103
     231     243    -240    -246     103     261     327    -321    -324     103
     294     303    -300    -312     103     333     378    -372    -375     103
     384     408    -402    -405     103     414     459    -453    -456     103
     429     444    -438    -441     103     465     531    -525    -528     103
     498     507    -504    -516     103     537     594    -588    -591     103
     561     576    -567    -570     104     555     582    -552    -543     104
     600     645    -639    -642     103     606     633    -615    -618     104
     651     681    -675    -678     103     657     669    -666    -672     103
     687     753    -747    -750     103     720     729    -726    -738     103
     759     825    -819    -822     103     792     801    -798    -810     103
     831     870    -864    -867     103     846     858    -855    -861     103
     876     936    -930    -933     103     942    1002    -996    -999     103
    1008    1053   -1047   -1050     103    1023    1038   -1032   -1035     103
    1059    1083   -1077   -1080     103    1089    1134   -1128   -1131     103
    1140    1200   -1194   -1197     103    1206    1221   -1215   -1218     103
    1227    1251   -1245   -1248     103    1257    1323   -1317   -1320     103
    1290    1299   -1296   -1308     103    1329    1386   -1380   -1383     103
    1353    1368   -1359   -1362     104    1347    1374   -1344   -1335     104
    1392    1404   -1401   -1407     103
%FLAG EXCLUDED_ATOMS_LIST                                                       
%FORMAT(10I8)                                                                   
       2       3       4       5       6       7       8       9      10      11
      12      13       3       4       5       6       7      11       4       5
       6       7      11       5       6       7      11       6       7       8
       9      10      11      12      13      14      15       7       8       9
      10      11      12      13       8       9      10      11      12      13
       9      10      11      10      11      11      12      13      14      15
      16      17      23      13      14      15      14      15      16      17
      18      19      20      23      24      25      15      16      17      23
      16      17      18      19      20      21      22      23      24      25
      26      27      17      18      19      20      23      24      25      18
      19      20      21      22      23      24      25      19      20      21
      22      23      20      21      22      23      21      22      23      22
       0      24      25      26      27      28      29      35      25      26
      27      26      27      28      29      30      31      32      35      36
      37      27      28      29      35      28      29      30      31      32
      33      34      35      36      37      38      39      29      30      31
      32      35      36      37      30      31      32      33      34      35
      36      37      31      32      33      34      35      32      33      34
      35      33      34      35      34       0      36      37      38      39
      40      41      59      37      38      39      38      39      40      41
      42      43      44      59      60      61      39      40      41      59
      40      41      42      43      44      45      46      47      59      60
      61      62      63      41      42      43      44      59      60      61
      42      43      44      45      46      47      48      49      50      59
      60      61      43      44      45      46      47      59      44      45
      46      47      59      45      46      47      48      49      50      51
      52      59      46      47      48      49      50      47      48      49
      50      48      49      50      51      52      53      56      49      50
      51      52      50      51      52      51      52      53      54      55
      56      57      58      52      53      56      53      54      55      56
      57      58      54      55      56      57      58      55      56      56
      57      58      58       0      60      61      62      63      64      65
      69      61      62      63      62      63      64      65      66      67
      68      69      70      71      63      64      65      69      64      65
      66      67      68      69      70      71      72      73     415      65
      66      67      68      69      70      71      66      67      68      69
      70      71     412     415      67      68      69     415      68      69
     415      69     410     412     413     414     415      70      71      72
      73      74      75      84      71      72      73      72      73      74
      75      76      77      78      84      85      86      73      74      75
      84      74      75      76      77      78      79      80      81      84
      85      86      87      88      75      76      77      78      84      85
      86      76      77      78      79      80      81      82      83      84
      85      86      77      78      79      80      81      84      78      79
      80      81      84      79      80      81      82      83      84      80
      81      82      83      81      82      83      82      83      83       0
      85      86      87      88      89      90     108      86      87      88
      87      88      89      90      91      92      93     108     109     110
      88      89      90     108      89      90      91      92      93      94
      95      96     108     109     110     111     112      90      91      92
      93     108     109     110      91      92      93      94      95      96
      97      98      99     108     109     110      92      93      94      95
      96     108      93      94      95      96     108      94      95      96
      97      98      99     100     101     108      95      96      97      98
      99      96      97      98      99      97      98      99     100     101
     102     105      98      99     100     101      99     100     101     100
     101     102     103     104     105     106     107     101     102     105
     102     103     104     105     106     107     103     104     105     106
     107     104     105     105     106     107     107       0     109     110
     111     112     113     114     125     110     111     112     111     112
     113     114     115     116     117     125     126     127     112     113
     114     125     113     114     115     116     117     118     119     120
     125     126     127     128     129     114     115     116     117     125
     126     127     115     116     117     118     119     120     121     125
     126     127     116     117     118     119     120     125     117     118
     119     120     125     118     119     120     121     122     123     124
     125     119     120     121     120     121     121     122     123     124
     122     123     124     123     124     124       0     126     127     128
     129     130     131     135     127     128     129     128     129     130
     131     132     133     134     135     136     137     129     130     131
     135     130     131     132     133     134     135     136     137     138
     139     359     131     132     133     134     135     136     137     132
     133     134     135     136     137     356     359     133     134     135
     359     134     135     359     135     354     356     357     358     359
     136     137     138     139     140     141     152     137     138     139
     138     139     140     141     142     143     144     152     153     154
     139     140     141     152     140     141     142     143     144     145
     146     147     152     153     154     155     156     141     142     143
     144     152     153     154     142     143     144     145     146     147
     148     149     152     153     154     143     144     145     146     147
     152     144     145     146     147     152     145     146     147     148
     149     150     151     152     146     147     148     149     147     148
     149     148     149     150     151     149     150     151     150     151
     151       0     153     154     155     156     157     158     176     154
     155     156     155     156     157     158     159     160     161     176
     177     178     156     157     158     176     157     158     159     160
     161     162     163     164     176     177     178     179     180     158
     159     160     161     176     177     178     159     160     161     162
     163     164     165     166     167     176     177     178     160     161
     162     163     164     176     161     162     163     164     176     162
     163     164     165     166     167     168     169     176     163     164
     165     166     167     164     165     166     167     165     166     167
     168     169     170     173     166     167     168     169     167     168
     169     168     169     170     171     172     173     174     175     169
     170     173     170     171     172     173     174     175     171     172
     173     174     175     172     173     173     174     175     175       0
     177     178     179     180     181     182     197     178     179     180
     179     180     181     182     183     184     185     197     198     199
     180     181     182     197     181     182     183     184     185     186
     195     197     198     199     200     201     182     183     184     185
     197     198     199     183     184     185     186     187     188     193
     195     196     197     198     199     184     185     186     195     197
     185     186     195     197     186     187     188     189     190     193
     194     195     196     197     187     188     189     190     191     193
     195     196     188     189     190     195     189     190     191     192
     193     194     195     190     191     193     191     192     193     194
     195     196     192     193     194     195     193     194     195     196
     195     196     196       0     198     199     200     201     202     203
     214     199     200     201     200     201     202     203     204     205
     206     214     215     216     201     202     203     214     202     203
     204     205     206     207     212     214     215     216     217     218
     203     204     205     206     214     215     216     204     205     206
     207     208     210     212     213     214     215     216     205     206
     207     212     214     206     207     212     214     207     208     209
     210     211     212     213     214     208     209     210     211     212
     213     209     210     211     212     213     210     211     212     211
     212     213     212     213     213       0     215     216     217     218
     219     220     226     216     217     218     217     218     219     220
     221     222     223     226     227     228     218     219     220     226
     219     220     221     222     223     224     225     226     227     228
     229     230     220     221     222     223     226     227     228     221
     222     223     224     225     226     227     228     222     223     224
     225     226     223     224     225     226     224     225     226     225
       0     227     228     229     230     231     232     250     228     229
     230     229     230     231     232     233     234     235     250     251
     252     230     231     232     250     231     232     233     234     235
     236     237     238     250     251     252     253     254     232     233
     234     235     250     251     252     233     234     235     236     237
     238     239     240     241     250     251     252     234     235     236
     237     238     250     235     236     237     238     250     236     237
     238     239     240     241     242     243     250     237     238     239
     240     241     238     239     240     241     239     240     241     242
     243     244     247     240     241     242     243     241     242     243
     242     243     244     245     246     247     248     249     243     244
     247     244     245     246     247     248     249     245     246     247
     248     249     246     247     247     248     249     249       0     251
     252     253     254     255     256     274     252     253     254     253
     254     255     256     257     258     259     274     275     276     254
     255     256     274     255     256     257     258     259     260     261
     262     274     275     276     277     278     256     257     258     259
     274     275     276     257     258     259     260     261     262     263
     264     265     274     275     276     258     259     260     261     262
     274     259     260     261     262     274     260     261     262     263
     264     265     266     267     274     261     262     263     264     265
     262     263     264     265     263     264     265     266     267     268
     271     264     265     266     267     265     266     267     266     267
     268     269     270     271     272     273     267     268     271     268
     269     270     271     272     273     269     270     271     272     273
     270     271     271     272     273     273       0     275     276     277
     278     279     280     289     276     277     278     277     278     279
     280     281     282     283     289     290     291     278     279     280
     289     279     280     281     282     283     284     285     286     289
     290     291     292     293     280     281     282     283     289     290
     291     281     282     283     284     285     286     287     288     289
     290     291     282     283     284     285     286     289     283     284
     285     286     289     284     285     286     287     288     289     285
     286     287     288     286     287     288     287     288     288       0
     290     291     292     293     294     295     311     291     292     293
     292     293     294     295     296     297     298     311     312     313
     293     294     295     311     294     295     296     297     298     299
     300     301     311     312     313     314     315     295     296     297
     298     311     312     313     296     297     298     299     300     301
     302     303     304     311     312     313     297     298     299     300
     301     311     298     299     300     301     311     299     300     301
     302     303     304     305     306     307     311     300     301     302
     303     304     301     302     303     304     302     303     304     305
     306     307     308     309     310     303     304     305     306     307
     304     305     306     307     305     306     307     308     309     310
     306     307     308     309     310     307     308     309     310     308
     309     310     309     310     310       0     312     313     314     315
     316     317     333     313     314     315     314     315     316     317
     318     319     320     333     334     335     315     316     317     333
     316     317     318     319     320     321     322     323     333     334
     335     336     337     317     318     319     320     333     334     335
     318     319     320     321     322     323     324     325     326     333
     334     335     319     320     321     322     323     333     320     321
     322     323     333     321     322     323     324     325     326     327
     328     329     333     322     323     324     325     326     323     324
     325     326     324     325     326     327     328     329     330     331
     332     325     326     327     328     329     326     327     328     329
     327     328     329     330     331     332     328     329     330     331
     332     329     330     331     332     330     331     332     331     332
     332       0     334     335     336     337     338     339     350     335
     336     337     336     337     338     339     340     341     342     350
     351     352     337     338     339     350     338     339     340     341
     342     343     344     345     350     351     352     353     354     339
     340     341     342     350     351     352     340     341     342     343
     344     345     346     347     350     351     352     341     342     343
     344     345     350     342     343     344     345     350     343     344
     345     346     347     348     349     350     344     345     346     347
     345     346     347     346     347     348     349     347     348     349
     348     349     349       0     351     352     353     354     355     356
     360     352     353     354     353     354     355     356     357     358
     359     360     361     362     354     355     356     360     355     356
     357     358     359     360     361     362     363     364     356     357
     358     359     360     361     362     357     358     359     360     361
     362     358     359     360     359     360     360     361     362     363
     364     365     366     377     362     363     364     363     364     365
     366     367     368     369     377     378     379     364     365     366
     377     365     366     367     368     369     370     371     372     377
     378     379     380     381     366     367     368     369     377     378
     379     367     368     369     370     371     372     373     377     378
     379     368     369     370     371     372     377     369     370     371
     372     377     370     371     372     373     374     375     376     377
     371     372     373     372     373     373     374     375     376     374
     375     376     375     376     376       0     378     379     380     381
     382     383     399     379     380     381     380     381     382     383
     384     385     386     399     400     401     381     382     383     399
     382     383     384     385     386     387     388     389     399     400
     401     402     403     383     384     385     386     399     400     401
     384     385     386     387     388     389     390     391     392     399
     400     401     385     386     387     388     389     399     386     387
     388     389     399     387     388     389     390     391     392     393
     394     395     399     388     389     390     391     392     389     390
     391     392     390     391     392     393     394     395     396     397
     398     391     392     393     394     395     392     393     394     395
     393     394     395     396     397     398     394     395     396     397
     398     395     396     397     398     396     397     398     397     398
     398       0     400     401     402     403     404     405     406     401
     402     403     402     403     404     405     406     407     408     403
     404     405     406     404     405     406     407     408     409     410
     405     406     407     408     406     407     408     407     408     409
     410     411     412     416     408     409     410     409     410     411
     412     413     414     415     416     417     418     410     411     412
     416     411     412     413     414     415     416     417     418     419
     420     412     413     414     415     416     417     418     413     414
     415     416     417     418     414     415     416     415     416     416
     417     418     419     420     421     422     440     418     419     420
     419     420     421     422     423     424     425     440     441     442
     420     421     422     440     421     422     423     424     425     426
     427     428     440     441     442     443     444     422     423     424
     425     440     441     442     423     424     425     426     427     428
     429     430     431     440     441     442     424     425     426     427
     428     440     425     426     427     428     440     426     427     428
     429     430     431     432     433     440     427     428     429     430
     431     428     429     430     431     429     430     431     432     433
     434     437     430     431     432     433     431     432     433     432
     433     434     435     436     437     438     439     433     434     437
     434     435     436     437     438     439     435     436     437     438
     439     436     437     437     438     439     439       0     441     442
     443     444     445     446     461     442     443     444     443     444
     445     446     447     448     449     461     462     463     444     445
     446     461     445     446     447     448     449     450     459     461
     462     463     464     465     446     447     448     449     461     462
     463     447     448     449     450     451     452     457     459     460
     461     462     463     448     449     450     459     461     449     450
     459     461     450     451     452     453     454     457     458     459
     460     461     451     452     453     454     455     457     459     460
     452     453     454     459     453     454     455     456     457     458
     459     454     455     457     455     456     457     458     459     460
     456     457     458     459     457     458     459     460     459     460
     460       0     462     463     464     465     466     467     468     463
     464     465     464     465     466     467     468     469     470     465
     466     467     468     466     467     468     469     470     467     468
     469     470     468     469     470     469     470     470       0
%FLAG HBOND_ACOEF                                                               
%FORMAT(5E16.8)                                                                 

%FLAG HBOND_BCOEF                                                               
%FORMAT(5E16.8)                                                                 

%FLAG HBCUT                                                                     
%FORMAT(5E16.8)                                                                 

%FLAG AMBER_ATOM_TYPE                                                           
%FORMAT(20a4)                                                                   
N3  H   H   H   CX  HP  CT  HC  HC  HC  C   O   N   H   XC  H1  2C  HC  HC  CO  
O2  O2  C   O   N   H   XC  H1  2C  HC  HC  CO  O2  O2  C   O   N   H   XC  H1  
C8  HC  HC  C8  HC  HC  C8  H1  H1  N2  H   CA  N2  H   H   N2  H   H   C   O   
N   H   XC  H1  2C  H1  H1  S   C   O   N   H   XC  H1  2C  HC  HC  2C  HC  HC  
CO  O2  O2  C   O   N   H   XC  H1  C8  HC  HC  C8  HC  HC  C8  H1  H1  N2  H   
CA  N2  H   H   N2  H   H   C   O   N   H   XC  H1  2C  HC  HC  2C  H1  H1  S   
CT  H1  H1  H1  C   O   N   H   XC  H1  2C  H1  H1  S   C   O   N   H   XC  H1  
2C  HC  HC  2C  HC  HC  C   O   N   H   H   C   O   N   H   XC  H1  C8  HC  HC  
C8  HC  HC  C8  H1  H1  N2  H   CA  N2  H   H   N2  H   H   C   O   N   H   XC  
H1  CT  HC  HC  CA  CA  HA  CA  HA  C   OH  HO  CA  HA  CA  HA  C   O   N   H   
XC  H1  CT  HC  HC  CC  NB  CR  H5  NA  H   CW  H4  C   O   N   H   XC  H1  2C  
HC  HC  CO  O2  O2  C   O   N   H   XC  H1  C8  HC  HC  C8  HC  HC  C8  H1  H1  
N2  H   CA  N2  H   H   N2  H   H   C   O   N   H   XC  H1  C8  HC  HC  C8  HC  
HC  C8  H1  H1  N2  H   CA  N2  H   H   N2  H   H   C   O   N   H   XC  H1  2C  
HC  HC  2C  HC  HC  CO  O2  O2  C   O   N   H   XC  H1  C8  HC  HC  C8  HC  HC  
C8  HC  HC  C8  HP  HP  N3  H   H   H   C   O   N   H   XC  H1  C8  HC  HC  C8  
HC  HC  C8  HC  HC  C8  HP  HP  N3  H   H   H   C   O   N   H   XC  H1  2C  HC  
HC  2C  HC  HC  C   O   N   H   H   C   O   N   H   XC  H1  2C  H1  H1  S   C   
O   N   H   XC  H1  2C  HC  HC  2C  H1  H1  S   CT  H1  H1  H1  C   O   N   H   
XC  H1  C8  HC  HC  C8  HC  HC  C8  HC  HC  C8  HP  HP  N3  H   H   H   C   O   
N   H   XC  H1  H1  C   O   N   H   XC  H1  2C  H1  H1  S   C   O   N   H   XC  
H1  C8  HC  HC  C8  HC  HC  C8  H1  H1  N2  H   CA  N2  H   H   N2  H   H   C   
O   N   H   XC  H1  CT  HC  HC  CA  CA  HA  CA  HA  C   OH  HO  CA  HA  CA  HA  
C   O   N   H   CX  H1  H1  C   O2  O2  
%FLAG TREE_CHAIN_CLASSIFICATION                                                 
%FORMAT(20a4)                                                                   
BLA BLA BLA BLA BLA BLA BLA BLA BLA BLA BLA BLA M   E   M   E   3   E   E   B   
E   E   M   E   M   E   M   E   3   E   E   B   E   E   M   E   M   E   M   E   
3   E   E   3   E   E   3   E   E   B   E   B   B   E   E   B   E   E   M   E   
M   E   M   E   3   E   E   E   M   E   M   E   M   E   3   E   E   3   E   E   
B   E   E   M   E   M   E   M   E   3   E   E   3   E   E   3   E   E   B   E   
B   B   E   E   B   E   E   M   E   M   E   M   E   3   E   E   3   E   E   S   
3   E   E   E   M   E   M   E   M   E   3   E   E   E   M   E   M   E   M   E   
3   E   E   3   E   E   B   E   B   E   E   M   E   M   E   M   E   3   E   E   
3   E   E   3   E   E   B   E   B   B   E   E   B   E   E   M   E   M   E   M   
E   3   E   E   B   B   E   B   E   B   S   E   S   E   S   E   M   E   M   E   
M   E   3   E   E   B   E   S   E   B   E   B   E   M   E   M   E   M   E   3   
E   E   B   E   E   M   E   M   E   M   E   3   E   E   3   E   E   3   E   E   
B   E   B   B   E   E   B   E   E   M   E   M   E   M   E   3   E   E   3   E   
E   3   E   E   B   E   B   B   E   E   B   E   E   M   E   M   E   M   E   3   
E   E   3   E   E   B   E   E   M   E   M   E   M   E   3   E   E   3   E   E   
3   E   E   3   E   E   3   E   E   E   M   E   M   E   M   E   3   E   E   3   
E   E   3   E   E   3   E   E   3   E   E   E   M   E   M   E   M   E   3   E   
E   3   E   E   B   E   B   E   E   M   E   M   E   M   E   3   E   E   E   M   
E   M   E   M   E   3   E   E   3   E   E   S   3   E   E   E   M   E   M   E   
M   E   3   E   E   3   E   E   3   E   E   3   E   E   3   E   E   E   M   E   
M   E   M   E   E   M   E   M   E   M   E   3   E   E   E   M   E   M   E   M   
E   3   E   E   3   E   E   3   E   E   B   E   B   B   E   E   B   E   E   M   
E   M   E   M   E   3   E   E   B   B   E   B   E   B   S   E   S   E   S   E   
M   E   BLA BLA BLA BLA BLA BLA BLA BLA 
%FLAG JOIN_ARRAY                                                                
%FORMAT(10I8)                                                                   
       0       0       0       0       0       0       0       0       0       0
       0       0       0       0       0       0       0       0       0       0
       0       0       0       0       0       0       0       0       0       0
       0       0       0       0       0       0       0       0       0       0
       0       0       0       0       0       0       0       0       0       0
       0       0       0       0       0       0       0       0       0       0
       0       0       0       0       0       0       0       0       0       0
       0       0       0       0       0       0       0       0       0       0
       0       0       0       0       0       0       0       0       0       0
       0       0       0       0       0       0       0       0       0       0
       0       0       0       0       0       0       0       0       0       0
       0       0       0       0       0       0       0       0       0       0
       0       0       0       0       0       0       0       0       0       0
       0       0       0       0       0       0       0       0       0       0
       0       0       0       0       0       0       0       0       0       0
       0       0       0       0       0       0       0       0       0       0
       0       0       0       0       0       0       0       0       0       0
       0       0       0       0       0       0       0       0       0       0
       0       0       0       0       0       0       0       0       0       0
       0       0       0       0       0       0       0       0       0       0
       0       0       0       0       0       0       0       0       0       0
       0       0       0       0       0       0       0       0       0       0
       0       0       0       0       0       0       0       0       0       0
       0       0       0       0       0       0       0       0       0       0
       0       0       0       0       0       0       0       0       0       0
       0       0       0       0       0       0       0       0       0       0
       0       0       0       0       0       0       0       0       0       0
       0       0       0       0       0       0       0       0       0       0
       0       0       0       0       0       0       0       0       0       0
       0       0       0       0       0       0       0       0       0       0
       0       0       0       0       0       0       0       0       0       0
       0       0       0       0       0       0       0       0       0       0
       0       0       0       0       0       0       0       0       0       0
       0       0       0       0       0       0       0       0       0       0
       0       0       0       0       0       0       0       0       0       0
       0       0       0       0       0       0       0       0       0       0
       0       0       0       0       0       0       0       0       0       0
       0       0       0       0       0       0       0       0       0       0
       0       0       0       0       0       0       0       0       0       0
       0       0       0       0       0       0       0       0       0       0
       0       0       0       0       0       0       0       0       0       0
       0       0       0       0       0       0       0       0       0       0
       0       0       0       0       0       0       0       0       0       0
       0       0       0       0       0       0       0       0       0       0
       0       0       0       0       0       0       0       0       0       0
       0       0       0       0       0       0       0       0       0       0
       0       0       0       0       0       0       0       0       0       0
%FLAG IROTAT                                                                    
%FORMAT(10I8)                                                                   
       0       0       0       0       0       0       0       0       0       0
       0       0       0       0       0       0       0       0       0       0
       0       0       0       0       0       0       0       0       0       0
       0       0       0       0       0       0       0       0       0       0
       0       0       0       0       0       0       0       0       0       0
       0       0       0       0       0       0       0       0       0       0
       0       0       0       0       0       0       0       0       0       0
       0       0       0       0       0       0       0       0       0       0
       0       0       0       0       0       0       0       0       0       0
       0       0       0       0       0       0       0       0       0       0
       0       0       0       0       0       0       0       0       0       0
       0       0       0       0       0       0       0       0       0       0
       0       0       0       0       0       0       0       0       0       0
       0       0       0       0       0       0       0       0       0       0
       0       0       0       0       0       0       0       0       0       0
       0       0       0       0       0       0       0       0       0       0
       0       0       0       0       0       0       0       0       0       0
       0       0       0       0       0       0       0       0       0       0
       0       0       0       0       0       0       0       0       0       0
       0       0       0       0       0       0       0       0       0       0
       0       0       0       0       0       0       0       0       0       0
       0       0       0       0       0       0       0       0       0       0
       0       0       0       0       0       0       0       0       0       0
       0       0       0       0       0       0       0       0       0       0
       0       0       0       0       0       0       0       0       0       0
       0       0       0       0       0       0       0       0       0       0
       0       0       0       0       0       0       0       0       0       0
       0       0       0       0       0       0       0       0       0       0
       0       0       0       0       0       0       0       0       0       0
       0       0       0       0       0       0       0       0       0       0
       0       0       0       0       0       0       0       0       0       0
       0       0       0       0       0       0       0       0       0       0
       0       0       0       0       0       0       0       0       0       0
       0       0       0       0       0       0       0       0       0       0
       0       0       0       0       0       0       0       0       0       0
       0       0       0       0       0       0       0       0       0       0
       0       0       0       0       0       0       0       0       0       0
       0       0       0       0       0       0       0       0       0       0
       0       0       0       0       0       0       0       0       0       0
       0       0       0       0       0       0       0       0       0       0
       0       0       0       0       0       0       0       0       0       0
       0       0       0       0       0       0       0       0       0       0
       0       0       0       0       0       0       0       0       0       0
       0       0       0       0       0       0       0       0       0       0
       0       0       0       0       0       0       0       0       0       0
       0       0       0       0       0       0       0       0       0       0
       0       0       0       0       0       0       0       0       0       0
%FLAG RADIUS_SET                                                                
%FORMAT(1a80)                                                                   
modified Bondi radii (mbondi)                                                   
%FLAG RADII                                                                     
%FORMAT(5E16.8)                                                                 
  1.55000000E+00  1.30000000E+00  1.30000000E+00  1.30000000E+00  1.70000000E+00
  1.30000000E+00  1.70000000E+00  1.30000000E+00  1.30000000E+00  1.30000000E+00
  1.70000000E+00  1.50000000E+00  1.55000000E+00  1.30000000E+00  1.70000000E+00
  1.30000000E+00  1.70000000E+00  1.30000000E+00  1.30000000E+00  1.70000000E+00
  1.50000000E+00  1.50000000E+00  1.70000000E+00  1.50000000E+00  1.55000000E+00
  1.30000000E+00  1.70000000E+00  1.30000000E+00  1.70000000E+00  1.30000000E+00
  1.30000000E+00  1.70000000E+00  1.50000000E+00  1.50000000E+00  1.70000000E+00
  1.50000000E+00  1.55000000E+00  1.30000000E+00  1.70000000E+00  1.30000000E+00
  1.70000000E+00  1.30000000E+00  1.30000000E+00  1.70000000E+00  1.30000000E+00
  1.30000000E+00  1.70000000E+00  1.30000000E+00  1.30000000E+00  1.55000000E+00
  1.30000000E+00  1.70000000E+00  1.55000000E+00  1.30000000E+00  1.30000000E+00
  1.55000000E+00  1.30000000E+00  1.30000000E+00  1.70000000E+00  1.50000000E+00
  1.55000000E+00  1.30000000E+00  1.70000000E+00  1.30000000E+00  1.70000000E+00
  1.30000000E+00  1.30000000E+00  1.80000000E+00  1.70000000E+00  1.50000000E+00
  1.55000000E+00  1.30000000E+00  1.70000000E+00  1.30000000E+00  1.70000000E+00
  1.30000000E+00  1.30000000E+00  1.70000000E+00  1.30000000E+00  1.30000000E+00
  1.70000000E+00  1.50000000E+00  1.50000000E+00  1.70000000E+00  1.50000000E+00
  1.55000000E+00  1.30000000E+00  1.70000000E+00  1.30000000E+00  1.70000000E+00
  1.30000000E+00  1.30000000E+00  1.70000000E+00  1.30000000E+00  1.30000000E+00
  1.70000000E+00  1.30000000E+00  1.30000000E+00  1.55000000E+00  1.30000000E+00
  1.70000000E+00  1.55000000E+00  1.30000000E+00  1.30000000E+00  1.55000000E+00
  1.30000000E+00  1.30000000E+00  1.70000000E+00  1.50000000E+00  1.55000000E+00
  1.30000000E+00  1.70000000E+00  1.30000000E+00  1.70000000E+00  1.30000000E+00
  1.30000000E+00  1.70000000E+00  1.30000000E+00  1.30000000E+00  1.80000000E+00
  1.70000000E+00  1.30000000E+00  1.30000000E+00  1.30000000E+00  1.70000000E+00
  1.50000000E+00  1.55000000E+00  1.30000000E+00  1.70000000E+00  1.30000000E+00
  1.70000000E+00  1.30000000E+00  1.30000000E+00  1.80000000E+00  1.70000000E+00
  1.50000000E+00  1.55000000E+00  1.30000000E+00  1.70000000E+00  1.30000000E+00
  1.70000000E+00  1.30000000E+00  1.30000000E+00  1.70000000E+00  1.30000000E+00
  1.30000000E+00  1.70000000E+00  1.50000000E+00  1.55000000E+00  1.30000000E+00
  1.30000000E+00  1.70000000E+00  1.50000000E+00  1.55000000E+00  1.30000000E+00
  1.70000000E+00  1.30000000E+00  1.70000000E+00  1.30000000E+00  1.30000000E+00
  1.70000000E+00  1.30000000E+00  1.30000000E+00  1.70000000E+00  1.30000000E+00
  1.30000000E+00  1.55000000E+00  1.30000000E+00  1.70000000E+00  1.55000000E+00
  1.30000000E+00  1.30000000E+00  1.55000000E+00  1.30000000E+00  1.30000000E+00
  1.70000000E+00  1.50000000E+00  1.55000000E+00  1.30000000E+00  1.70000000E+00
  1.30000000E+00  1.70000000E+00  1.30000000E+00  1.30000000E+00  1.70000000E+00
  1.70000000E+00  1.30000000E+00  1.70000000E+00  1.30000000E+00  1.70000000E+00
  1.50000000E+00  8.00000000E-01  1.70000000E+00  1.30000000E+00  1.70000000E+00
  1.30000000E+00  1.70000000E+00  1.50000000E+00  1.55000000E+00  1.30000000E+00
  1.70000000E+00  1.30000000E+00  1.70000000E+00  1.30000000E+00  1.30000000E+00
  1.70000000E+00  1.55000000E+00  1.70000000E+00  1.30000000E+00  1.55000000E+00
  1.30000000E+00  1.70000000E+00  1.30000000E+00  1.70000000E+00  1.50000000E+00
  1.55000000E+00  1.30000000E+00  1.70000000E+00  1.30000000E+00  1.70000000E+00
  1.30000000E+00  1.30000000E+00  1.70000000E+00  1.50000000E+00  1.50000000E+00
  1.70000000E+00  1.50000000E+00  1.55000000E+00  1.30000000E+00  1.70000000E+00
  1.30000000E+00  1.70000000E+00  1.30000000E+00  1.30000000E+00  1.70000000E+00
  1.30000000E+00  1.30000000E+00  1.70000000E+00  1.30000000E+00  1.30000000E+00
  1.55000000E+00  1.30000000E+00  1.70000000E+00  1.55000000E+00  1.30000000E+00
  1.30000000E+00  1.55000000E+00  1.30000000E+00  1.30000000E+00  1.70000000E+00
  1.50000000E+00  1.55000000E+00  1.30000000E+00  1.70000000E+00  1.30000000E+00
  1.70000000E+00  1.30000000E+00  1.30000000E+00  1.70000000E+00  1.30000000E+00
  1.30000000E+00  1.70000000E+00  1.30000000E+00  1.30000000E+00  1.55000000E+00
  1.30000000E+00  1.70000000E+00  1.55000000E+00  1.30000000E+00  1.30000000E+00
  1.55000000E+00  1.30000000E+00  1.30000000E+00  1.70000000E+00  1.50000000E+00
  1.55000000E+00  1.30000000E+00  1.70000000E+00  1.30000000E+00  1.70000000E+00
  1.30000000E+00  1.30000000E+00  1.70000000E+00  1.30000000E+00  1.30000000E+00
  1.70000000E+00  1.50000000E+00  1.50000000E+00  1.70000000E+00  1.50000000E+00
  1.55000000E+00  1.30000000E+00  1.70000000E+00  1.30000000E+00  1.70000000E+00
  1.30000000E+00  1.30000000E+00  1.70000000E+00  1.30000000E+00  1.30000000E+00
  1.70000000E+00  1.30000000E+00  1.30000000E+00  1.70000000E+00  1.30000000E+00
  1.30000000E+00  1.55000000E+00  1.30000000E+00  1.30000000E+00  1.30000000E+00
  1.70000000E+00  1.50000000E+00  1.55000000E+00  1.30000000E+00  1.70000000E+00
  1.30000000E+00  1.70000000E+00  1.30000000E+00  1.30000000E+00  1.70000000E+00
  1.30000000E+00  1.30000000E+00  1.70000000E+00  1.30000000E+00  1.30000000E+00
  1.70000000E+00  1.30000000E+00  1.30000000E+00  1.55000000E+00  1.30000000E+00
  1.30000000E+00  1.30000000E+00  1.70000000E+00  1.50000000E+00  1.55000000E+00
  1.30000000E+00  1.70000000E+00  1.30000000E+00  1.70000000E+00  1.30000000E+00
  1.30000000E+00  1.70000000E+00  1.30000000E+00  1.30000000E+00  1.70000000E+00
  1.50000000E+00  1.55000000E+00  1.30000000E+00  1.30000000E+00  1.70000000E+00
  1.50000000E+00  1.55000000E+00  1.30000000E+00  1.70000000E+00  1.30000000E+00
  1.70000000E+00  1.30000000E+00  1.30000000E+00  1.80000000E+00  1.70000000E+00
  1.50000000E+00  1.55000000E+00  1.30000000E+00  1.70000000E+00  1.30000000E+00
  1.70000000E+00  1.30000000E+00  1.30000000E+00  1.70000000E+00  1.30000000E+00
  1.30000000E+00  1.80000000E+00  1.70000000E+00  1.30000000E+00  1.30000000E+00
  1.30000000E+00  1.70000000E+00  1.50000000E+00  1.55000000E+00  1.30000000E+00
  1.70000000E+00  1.30000000E+00  1.70000000E+00  1.30000000E+00  1.30000000E+00
  1.70000000E+00  1.30000000E+00  1.30000000E+00  1.70000000E+00  1.30000000E+00
  1.30000000E+00  1.70000000E+00  1.30000000E+00  1.30000000E+00  1.55000000E+00
  1.30000000E+00  1.30000000E+00  1.30000000E+00  1.70000000E+00  1.50000000E+00
  1.55000000E+00  1.30000000E+00  1.70000000E+00  1.30000000E+00  1.30000000E+00
  1.70000000E+00  1.50000000E+00  1.55000000E+00  1.30000000E+00  1.70000000E+00
  1.30000000E+00  1.70000000E+00  1.30000000E+00  1.30000000E+00  1.80000000E+00
  1.70000000E+00  1.50000000E+00  1.55000000E+00  1.30000000E+00  1.70000000E+00
  1.30000000E+00  1.70000000E+00  1.30000000E+00  1.30000000E+00  1.70000000E+00
  1.30000000E+00  1.30000000E+00  1.70000000E+00  1.30000000E+00  1.30000000E+00
  1.55000000E+00  1.30000000E+00  1.70000000E+00  1.55000000E+00  1.30000000E+00
  1.30000000E+00  1.55000000E+00  1.30000000E+00  1.30000000E+00  1.70000000E+00
  1.50000000E+00  1.55000000E+00  1.30000000E+00  1.70000000E+00  1.30000000E+00
  1.70000000E+00  1.30000000E+00  1.30000000E+00  1.70000000E+00  1.70000000E+00
  1.30000000E+00  1.70000000E+00  1.30000000E+00  1.70000000E+00  1.50000000E+00
  8.00000000E-01  1.70000000E+00  1.30000000E+00  1.70000000E+00  1.30000000E+00
  1.70000000E+00  1.50000000E+00  1.55000000E+00  1.30000000E+00  1.70000000E+00
  1.30000000E+00  1.30000000E+00  1.70000000E+00  1.50000000E+00  1.50000000E+00
%FLAG SCREEN                                                                    
%FORMAT(5E16.8)                                                                 
  7.90000000E-01  8.50000000E-01  8.50000000E-01  8.50000000E-01  7.20000000E-01
  8.50000000E-01  7.20000000E-01  8.50000000E-01  8.50000000E-01  8.50000000E-01
  7.20000000E-01  8.50000000E-01  7.90000000E-01  8.50000000E-01  7.20000000E-01
  8.50000000E-01  7.20000000E-01  8.50000000E-01  8.50000000E-01  7.20000000E-01
  8.50000000E-01  8.50000000E-01  7.20000000E-01  8.50000000E-01  7.90000000E-01
  8.50000000E-01  7.20000000E-01  8.50000000E-01  7.20000000E-01  8.50000000E-01
  8.50000000E-01  7.20000000E-01  8.50000000E-01  8.50000000E-01  7.20000000E-01
  8.50000000E-01  7.90000000E-01  8.50000000E-01  7.20000000E-01  8.50000000E-01
  7.20000000E-01  8.50000000E-01  8.50000000E-01  7.20000000E-01  8.50000000E-01
  8.50000000E-01  7.20000000E-01  8.50000000E-01  8.50000000E-01  7.90000000E-01
  8.50000000E-01  7.20000000E-01  7.90000000E-01  8.50000000E-01  8.50000000E-01
  7.90000000E-01  8.50000000E-01  8.50000000E-01  7.20000000E-01  8.50000000E-01
  7.90000000E-01  8.50000000E-01  7.20000000E-01  8.50000000E-01  7.20000000E-01
  8.50000000E-01  8.50000000E-01  9.60000000E-01  7.20000000E-01  8.50000000E-01
  7.90000000E-01  8.50000000E-01  7.20000000E-01  8.50000000E-01  7.20000000E-01
  8.50000000E-01  8.50000000E-01  7.20000000E-01  8.50000000E-01  8.50000000E-01
  7.20000000E-01  8.50000000E-01  8.50000000E-01  7.20000000E-01  8.50000000E-01
  7.90000000E-01  8.50000000E-01  7.20000000E-01  8.50000000E-01  7.20000000E-01
  8.50000000E-01  8.50000000E-01  7.20000000E-01  8.50000000E-01  8.50000000E-01
  7.20000000E-01  8.50000000E-01  8.50000000E-01  7.90000000E-01  8.50000000E-01
  7.20000000E-01  7.90000000E-01  8.50000000E-01  8.50000000E-01  7.90000000E-01
  8.50000000E-01  8.50000000E-01  7.20000000E-01  8.50000000E-01  7.90000000E-01
  8.50000000E-01  7.20000000E-01  8.50000000E-01  7.20000000E-01  8.50000000E-01
  8.50000000E-01  7.20000000E-01  8.50000000E-01  8.50000000E-01  9.60000000E-01
  7.20000000E-01  8.50000000E-01  8.50000000E-01  8.50000000E-01  7.20000000E-01
  8.50000000E-01  7.90000000E-01  8.50000000E-01  7.20000000E-01  8.50000000E-01
  7.20000000E-01  8.50000000E-01  8.50000000E-01  9.60000000E-01  7.20000000E-01
  8.50000000E-01  7.90000000E-01  8.50000000E-01  7.20000000E-01  8.50000000E-01
  7.20000000E-01  8.50000000E-01  8.50000000E-01  7.20000000E-01  8.50000000E-01
  8.50000000E-01  7.20000000E-01  8.50000000E-01  7.90000000E-01  8.50000000E-01
  8.50000000E-01  7.20000000E-01  8.50000000E-01  7.90000000E-01  8.50000000E-01
  7.20000000E-01  8.50000000E-01  7.20000000E-01  8.50000000E-01  8.50000000E-01
  7.20000000E-01  8.50000000E-01  8.50000000E-01  7.20000000E-01  8.50000000E-01
  8.50000000E-01  7.90000000E-01  8.50000000E-01  7.20000000E-01  7.90000000E-01
  8.50000000E-01  8.50000000E-01  7.90000000E-01  8.50000000E-01  8.50000000E-01
  7.20000000E-01  8.50000000E-01  7.90000000E-01  8.50000000E-01  7.20000000E-01
  8.50000000E-01  7.20000000E-01  8.50000000E-01  8.50000000E-01  7.20000000E-01
  7.20000000E-01  8.50000000E-01  7.20000000E-01  8.50000000E-01  7.20000000E-01
  8.50000000E-01  8.50000000E-01  7.20000000E-01  8.50000000E-01  7.20000000E-01
  8.50000000E-01  7.20000000E-01  8.50000000E-01  7.90000000E-01  8.50000000E-01
  7.20000000E-01  8.50000000E-01  7.20000000E-01  8.50000000E-01  8.50000000E-01
  7.20000000E-01  7.90000000E-01  7.20000000E-01  8.50000000E-01  7.90000000E-01
  8.50000000E-01  7.20000000E-01  8.50000000E-01  7.20000000E-01  8.50000000E-01
  7.90000000E-01  8.50000000E-01  7.20000000E-01  8.50000000E-01  7.20000000E-01
  8.50000000E-01  8.50000000E-01  7.20000000E-01  8.50000000E-01  8.50000000E-01
  7.20000000E-01  8.50000000E-01  7.90000000E-01  8.50000000E-01  7.20000000E-01
  8.50000000E-01  7.20000000E-01  8.50000000E-01  8.50000000E-01  7.20000000E-01
  8.50000000E-01  8.50000000E-01  7.20000000E-01  8.50000000E-01  8.50000000E-01
  7.90000000E-01  8.50000000E-01  7.20000000E-01  7.90000000E-01  8.50000000E-01
  8.50000000E-01  7.90000000E-01  8.50000000E-01  8.50000000E-01  7.20000000E-01
  8.50000000E-01  7.90000000E-01  8.50000000E-01  7.20000000E-01  8.50000000E-01
  7.20000000E-01  8.50000000E-01  8.50000000E-01  7.20000000E-01  8.50000000E-01
  8.50000000E-01  7.20000000E-01  8.50000000E-01  8.50000000E-01  7.90000000E-01
  8.50000000E-01  7.20000000E-01  7.90000000E-01  8.50000000E-01  8.50000000E-01
  7.90000000E-01  8.50000000E-01  8.50000000E-01  7.20000000E-01  8.50000000E-01
  7.90000000E-01  8.50000000E-01  7.20000000E-01  8.50000000E-01  7.20000000E-01
  8.50000000E-01  8.50000000E-01  7.20000000E-01  8.50000000E-01  8.50000000E-01
  7.20000000E-01  8.50000000E-01  8.50000000E-01  7.20000000E-01  8.50000000E-01
  7.90000000E-01  8.50000000E-01  7.20000000E-01  8.50000000E-01  7.20000000E-01
  8.50000000E-01  8.50000000E-01  7.20000000E-01  8.50000000E-01  8.50000000E-01
  7.20000000E-01  8.50000000E-01  8.50000000E-01  7.20000000E-01  8.50000000E-01
  8.50000000E-01  7.90000000E-01  8.50000000E-01  8.50000000E-01  8.50000000E-01
  7.20000000E-01  8.50000000E-01  7.90000000E-01  8.50000000E-01  7.20000000E-01
  8.50000000E-01  7.20000000E-01  8.50000000E-01  8.50000000E-01  7.20000000E-01
  8.50000000E-01  8.50000000E-01  7.20000000E-01  8.50000000E-01  8.50000000E-01
  7.20000000E-01  8.50000000E-01  8.50000000E-01  7.90000000E-01  8.50000000E-01
  8.50000000E-01  8.50000000E-01  7.20000000E-01  8.50000000E-01  7.90000000E-01
  8.50000000E-01  7.20000000E-01  8.50000000E-01  7.20000000E-01  8.50000000E-01
  8.50000000E-01  7.20000000E-01  8.50000000E-01  8.50000000E-01  7.20000000E-01
  8.50000000E-01  7.90000000E-01  8.50000000E-01  8.50000000E-01  7.20000000E-01
  8.50000000E-01  7.90000000E-01  8.50000000E-01  7.20000000E-01  8.50000000E-01
  7.20000000E-01  8.50000000E-01  8.50000000E-01  9.60000000E-01  7.20000000E-01
  8.50000000E-01  7.90000000E-01  8.50000000E-01  7.20000000E-01  8.50000000E-01
  7.20000000E-01  8.50000000E-01  8.50000000E-01  7.20000000E-01  8.50000000E-01
  8.50000000E-01  9.60000000E-01  7.20000000E-01  8.50000000E-01  8.50000000E-01
  8.50000000E-01  7.20000000E-01  8.50000000E-01  7.90000000E-01  8.50000000E-01
  7.20000000E-01  8.50000000E-01  7.20000000E-01  8.50000000E-01  8.50000000E-01
  7.20000000E-01  8.50000000E-01  8.50000000E-01  7.20000000E-01  8.50000000E-01
  8.50000000E-01  7.20000000E-01  8.50000000E-01  8.50000000E-01  7.90000000E-01
  8.50000000E-01  8.50000000E-01  8.50000000E-01  7.20000000E-01  8.50000000E-01
  7.90000000E-01  8.50000000E-01  7.20000000E-01  8.50000000E-01  8.50000000E-01
  7.20000000E-01  8.50000000E-01  7.90000000E-01  8.50000000E-01  7.20000000E-01
  8.50000000E-01  7.20000000E-01  8.50000000E-01  8.50000000E-01  9.60000000E-01
  7.20000000E-01  8.50000000E-01  7.90000000E-01  8.50000000E-01  7.20000000E-01
  8.50000000E-01  7.20000000E-01  8.50000000E-01  8.50000000E-01  7.20000000E-01
  8.50000000E-01  8.50000000E-01  7.20000000E-01  8.50000000E-01  8.50000000E-01
  7.90000000E-01  8.50000000E-01  7.20000000E-01  7.90000000E-01  8.50000000E-01
  8.50000000E-01  7.90000000E-01  8.50000000E-01  8.50000000E-01  7.20000000E-01
  8.50000000E-01  7.90000000E-01  8.50000000E-01  7.20000000E-01  8.50000000E-01
  7.20000000E-01  8.50000000E-01  8.50000000E-01  7.20000000E-01  7.20000000E-01
  8.50000000E-01  7.20000000E-01  8.50000000E-01  7.20000000E-01  8.50000000E-01
  8.50000000E-01  7.20000000E-01  8.50000000E-01  7.20000000E-01  8.50000000E-01
  7.20000000E-01  8.50000000E-01  7.90000000E-01  8.50000000E-01  7.20000000E-01
  8.50000000E-01  8.50000000E-01  7.20000000E-01  8.50000000E-01  8.50000000E-01
%FLAG IPOL                                                                      
%FORMAT(1I8)                                                                    
       0
%FLAG CMAP_COUNT                                                                
%FORMAT(2I8)                                                                    
      26       7                                                                
%FLAG CMAP_RESOLUTION                                                           
%FORMAT(20I4)                                                                   
  24  24  24  24  24  24  24
%FLAG CMAP_PARAMETER_01                                                         
%COMMENT  Gly CMAP                                                              
%FORMAT(8F9.5)                                                                  
  0.82366  1.09817  1.13106  1.38658  2.11377  3.63194  5.20835  4.52792
  4.24857  3.42100  2.57125  2.21561  4.26659  2.21561  2.57125  3.42110
  4.24858  4.52792  4.29107  3.63184  2.03731  1.32036  1.12797  1.09814
  1.01976  0.89767  0.89484  1.21525  1.97095  3.70570  4.38855  4.65256
  4.43948  3.89754  4.21954  2.92219  1.83300  1.61528  2.13407  3.13273
  4.03304  4.37836  4.21500  3.54162  2.14871  1.44646  1.20387  1.08264
  0.94294  0.79652  0.83328  1.24136  2.06053  3.43883  4.17385  4.53101
  4.43115  4.03641  3.71837  2.02965  1.28863  1.21833  1.89263  2.85593
  4.80291  4.23497  4.08718  3.49858  2.17811  1.53114  1.22608  1.06909
  1.06124  0.90425  0.95129  1.35925  1.80900  3.18916  3.85055  4.27470
  4.17515  3.68355  2.71193  1.96823  0.88051  1.02084  1.59189  2.52883
  3.47767  4.03244  3.86779  3.39508  2.23969  1.66969  1.33019  1.16679
  1.08157  1.02005  1.10493  1.29605  1.79270  2.88632  3.63402  4.05349
  3.97657  3.35415  2.24207  1.18576  0.74267  0.67495  1.31122  2.24278
  3.21905  3.69186  4.76949  4.00571  2.34764  1.77622  1.34849  1.12849
  1.09360  0.76295  0.64220  1.00733  1.73708  2.50787  3.41571  4.45847
  3.84910  3.11193  1.97839  1.18177  0.33803  0.43176  1.23577  2.17947
  2.92428  3.38497  3.39138  3.10177  3.35228  2.15282  1.45287  1.28536
  0.61764  0.23640  0.15650  0.65857  1.56522  2.44967  3.17669  3.78043
  4.22216  2.79953  1.66579  0.59084  0.15579  0.43594  1.52040  2.27449
  2.76979  3.16911  3.12455  2.92674  2.45824  1.88927  1.36443  0.95121
 -0.00243 -0.14438  0.06931  0.84132  1.89921  2.91978  3.46170  3.60722
  3.77366  2.18724  1.52870  0.20777  0.22187  1.10049  2.08960  2.88893
  3.46272  3.66327  3.40280  3.02172  2.23074  1.32476  0.62376  0.25154
 -0.24862  0.05886  0.73935  1.98217  3.25167  4.06285  4.21447  3.90130
  2.90300  1.70374  0.74057  0.52755  1.12943  2.10802  2.78056  3.65981
  4.30377  4.58476  4.35318  3.65296  2.33204  0.81283  0.00000 -0.29835
  0.44379  1.32981  2.39709  3.82578  5.02459  5.42450  4.99639  4.00610
  2.64886  1.63847  1.37610  1.71448  2.28503  2.64949  3.24747  4.17266
  5.17265  5.75041  5.58476  4.21912  2.20540  0.64843  0.02065 -0.08593
  2.15530  3.40478  4.51993  5.80241  6.12627  6.00746  5.12631  4.58197
  2.80154  2.55737  2.87599  2.95502  2.71629  2.60279  3.64721  4.53964
  5.90407  6.82108  6.15044  4.18011  2.15201  0.96807  0.81255  1.19704
  4.21011  5.19583  5.45356  5.26216  5.22957  4.91772  4.44698  3.93537
  3.74038  4.11322  3.92595  2.94210  2.11295  2.42266  3.12536  4.83315
  6.43292  6.19670  5.13463  3.65052  2.40663  2.07125  2.29840  3.03351
  5.33877  4.55338  3.87255  3.87071  3.62149  3.87069  4.31250  4.77933
  5.37137  5.20874  3.65026  2.18763  2.20027  2.18700  3.65026  5.21405
  5.24065  4.77943  4.31250  3.87553  3.63325  5.19982  3.88530  4.53465
  4.20747  3.02450  2.29840  2.07135  2.40664  3.65062  5.13204  6.19680
  6.43292  4.83351  3.12587  2.96667  2.11029  2.93241  3.92594  4.11322
  3.74082  3.93551  4.44698  4.92068  5.53058  5.24416  5.35209  5.19605
  2.15668  1.19704  0.81255  0.96806  2.15211  4.17062  6.15034  6.82108
  5.90407  4.54177  3.63728  2.60267  2.71853  2.95502  2.87589  2.55737
  2.80717  3.89294  5.12631  6.00746  6.12372  5.80230  5.01898  3.40679
  0.45450 -0.08700  0.02065  0.64843  2.20540  4.21912  5.58476  5.75041
  5.17265  4.16788  3.24747  2.64460  2.28503  1.72593  1.37610  1.63847
  2.64538  4.01006  5.00425  5.42091  5.02459  3.80593  2.39681  1.32981
 -0.24862 -0.29835  0.00000  0.81283  2.33214  3.64847  4.35318  4.59008
  4.30377  3.65991  2.78056  2.10802  1.84494  0.52754  0.74067  1.61716
  2.90300  3.89516  4.21447  4.06285  3.25166  1.98217  0.73946  0.07427
 -0.00243  0.25154  0.64043  1.82987  2.23143  3.02038  3.40280  3.66327
  3.46272  2.88893  2.08960  1.10049  0.22171  0.20862  1.52897  2.18595
  3.24376  3.60722  3.46170  2.91968  1.89590  0.84888  0.07066 -0.14460
  0.61764  0.94007  1.36444  1.88927  2.45691  2.92674  3.12469  3.16911
  2.76979  2.27377  1.52040  0.44049  0.15579  0.59084  1.66579  2.79477
  4.25589  3.78043  3.17669  2.45043  1.56512  0.65855  0.15650  0.23719
  1.09360  1.28549  1.45287  2.15281  2.67683  3.10177  3.39138  3.38497
  2.91731  2.17947  1.23582  0.43170  0.33793  1.00844  1.97383  3.11193
  3.84910  4.46392  3.41571  2.50787  1.73708  1.00733  0.64220  0.76295
  0.97094  1.11640  1.33640  1.77623  2.30465  3.21763  3.71128  3.69186
  3.21905  2.24277  1.31122  0.67238  0.74272  1.18578  2.24207  3.35415
  3.97657  4.05349  3.63266  2.88632  1.79270  1.23680  1.00391  1.05657
  0.98044  1.16708  1.33038  1.66969  2.23969  3.39508  3.86779  4.03243
  3.47590  2.52883  1.59193  1.02084  0.88051  1.46518  2.71203  3.68355
  4.17470  4.27471  3.85203  3.18916  1.80900  1.35925  0.95109  0.90998
  0.92229  1.06909  1.22608  1.53114  2.17810  3.49858  4.08708  4.23358
  3.81032  2.85593  1.89254  1.21833  1.28863  2.03059  3.37664  4.03661
  4.43079  4.53101  4.17385  3.43883  2.06053  1.24136  0.83440  0.79652
  1.01976  1.08264  1.20394  1.44647  2.14870  3.54162  4.22527  4.37836
  4.03304  3.13273  2.13407  1.61528  1.83300  2.92219  4.10899  3.89754
  4.43948  4.65256  4.38856  3.70570  1.97095  1.21515  0.89442  0.89767
%FLAG CMAP_PARAMETER_02                                                         
%COMMENT  Asp CMAP                                                              
%FORMAT(8F9.5)                                                                  
 -1.49562 -1.46758 -1.05587 -0.62963  0.14992  1.22315  2.17140  2.70849
  2.38497  1.72937  0.78456  0.22189 -0.28120 -1.32669 -1.27041 -0.49139
  0.39957  0.88395  0.92343  0.52253 -0.03711 -0.53684 -0.78664 -1.14950
 -0.64489 -0.35503 -0.07025  0.13980  0.63990  1.34390  2.14694  2.65182
  2.63980  2.46358  2.06128  0.12666 -1.27358 -1.82069 -1.58355 -0.69542
  0.26285  0.84428  0.79877  0.40272  0.10166 -0.42888 -0.43529  0.00693
 -0.42804 -0.36910 -0.48433 -0.51308 -0.04683  0.82016  1.70274  2.29461
  2.23181  1.81286  0.54788 -0.88838 -1.78552 -2.06234 -1.63086 -0.84211
  0.15543  0.63475  0.67849  0.33758 -0.22145 -0.35208 -0.33967 -0.47257
  0.28872  0.44823  0.30222  0.17422  0.47890  1.16691  1.95585  2.33566
  2.32125  1.86687  0.72697 -0.39833 -0.96491 -1.00888 -0.68405  0.07457
  0.78111  1.10692  1.04508  0.70100  0.49678  0.21560  0.20943  0.23489
  0.71999  0.82815  0.54467  0.35417  0.72074  1.42855  2.18470  2.45775
  2.35292  1.86194  0.84660 -0.12572 -0.56530 -0.77193 -0.32602  0.31405
  0.83398  1.03708  1.07286  1.05466  0.87630  0.60296  1.14736  0.70843
  1.03998  0.87380  0.46989  0.31562  0.79617  1.57471  2.38948  2.86883
  2.76330  2.17437  1.28784  0.30631 -0.32026 -0.37585  0.11091  0.71397
  0.96823  1.18270  1.32644  1.37983  1.28316  1.17555  1.49550  1.22262
  0.97974  1.16744  0.90297  0.54507  1.16492  2.76751  2.73801  3.15414
  3.04712  2.42995  1.33037  0.40212  0.00720  0.28519  0.83612  1.03536
  1.32229  1.41220  1.64613  1.65576  1.50229  1.29755  1.36353  1.21807
  0.56947  0.66830  0.85946  1.17456  1.86629  2.71927  3.23518  3.33637
  2.81689  1.96261  1.01532  0.28151  0.39885  2.03528  1.66211  1.97715
  2.21266  2.25496  2.71296  2.09240  1.84455  1.89262  0.61624  0.50926
  0.32488  0.73152  1.43091  2.23893  3.20457  3.90721  3.99750  3.37929
  2.29378  1.30243  0.67642  0.75738  1.39616  1.94462  2.37756  2.63964
  3.12320  3.21242  3.10066  2.62911  1.42662  0.23498  0.00000  0.00010
  0.73600  1.59064  2.81308  3.69030  4.64683  5.15404  4.64262  3.19191
  1.81778  1.23102  1.39704  1.88323  2.29514  2.33708  2.53949  3.21211
  3.99577  4.37219  4.28607  4.17382  0.98275 -0.15319 -0.20281  0.18782
  2.31021  3.71717  5.60886  4.34945  4.31542  4.11915  3.38784  2.36621
  1.87800  2.37554  3.00163  2.23706  1.46509  1.02946  1.41558  2.77697
  4.16499  4.44222  3.05201  1.61863  0.26170 -0.23192  0.33982  1.20697
  3.97952  4.63690  3.67634  3.33977  3.39728  3.09758  2.73880  2.52708
  2.89144  4.05099  2.73684  2.43041  0.10319  0.55891  0.97879  2.75597
  4.07597  3.20952  2.02049  1.06720  0.41182  0.67953  1.52192  2.59554
  4.17204  3.88190  2.91020  2.47439  2.24044  2.29340  2.82300  3.31180
  4.10962  4.45591  1.88641  0.35814  0.09355  0.04944  1.59611  3.34374
  3.12305  2.17548  1.61711  1.21835  1.28852  1.86143  2.58726  3.40886
  4.52471  3.16398  2.06366  1.37578  1.36089  2.25188  3.55804  4.50011
  5.07453  3.40006  1.53037  0.88466  0.31377  1.25650  2.71111  3.02874
  1.97372  2.15472  1.59327  2.69414  2.40171  2.73245  3.27608  5.10893
  3.14945  1.90832  0.95730  0.45874  1.22866  2.92255  4.67866  5.93875
  5.15008  3.66383  2.29774  1.72070  1.79854  2.42317  2.77678  1.62694
  1.16044  1.59965  2.44139  3.50199  3.60428  3.88961  4.89752  4.22000
  1.91926  1.05173  0.21400  0.12545  1.45754  3.59387  5.39166  5.58573
  5.04916  4.05587  4.20274  2.64408  2.34109  2.61386  2.07953  0.49445
  0.84121  1.90927  3.06728  3.85257  4.22501  4.37514  3.79127  2.84961
  1.46119  0.48800 -0.09553  0.07014  1.63877  3.47982  4.57471  4.74649
  4.44286  3.81479  2.98666  2.30656  1.73429  1.06748  0.23379 -0.03219
  0.94327  1.97829  2.84941  3.36983  4.08523  3.32868  2.75870  2.00730
  0.75221  0.37623  0.02947  0.33761  1.52499  2.72714  4.19077  3.63118
  3.52459  2.92951  2.14991  1.38545  0.38442 -0.47785 -0.55507  0.29007
  1.29482  1.92247  2.15714  2.33333  2.30165  2.12531  1.71418  1.22141
  0.88641  0.92848  0.87156  1.02232  1.60200  2.35960  2.73873  2.52997
  2.31464  1.83933  1.20802  0.38755 -0.48391 -0.66327 -0.09884  1.02970
  1.82779  2.10988  1.85429  1.45392  1.11870  0.94338  0.81067  0.83826
  1.03200  1.18195  1.13906  1.22457  1.74650  2.32383  2.57689  2.44037
  2.14035  1.63689  0.64869 -0.39809 -0.85334 -0.62553  0.21513  1.19266
  1.87478  1.82009  1.32977  0.86426  0.49278  0.29173  0.37297  0.62169
  0.52072  0.42764  1.03985  0.38917  1.00495  1.79427  2.38328  2.46870
  2.01211  1.24009  0.13122 -0.74933 -1.26874 -1.14283 -0.29027  0.79514
  1.43503  1.40711  1.02307  0.60674  0.27365  0.21750  0.33391  0.40527
 -0.61008 -0.80145 -0.73895 -0.59840  0.12484  0.99044  2.20612  2.15075
  1.57796  0.69818 -0.35451 -1.10407 -1.70906 -1.58366 -0.60563  0.61874
  1.00973  1.01639  0.82233  0.24046 -0.04711 -0.20865 -0.15878 -0.37664
 -1.55972 -1.60220 -1.32780 -0.16944 -0.34409  0.64340  1.65164  2.17103
  1.67259  1.53155 -0.28784 -1.03589 -1.53627 -1.39906 -0.05579  0.43801
  0.55558  0.71337  0.78982  0.45863  0.04903 -0.49554 -0.74942 -1.18854
 -1.84464 -1.86838 -1.48444 -0.60621 -0.44386  0.66811  1.82650  2.39558
  2.02004  1.10338  0.04996 -0.57627 -0.82171 -0.50060 -0.94257 -0.36603
  0.27577  0.82555  0.88844  0.61807 -0.02107 -0.65910 -0.98900 -1.48129
%FLAG CMAP_PARAMETER_03                                                         
%COMMENT  Glu CMAP                                                              
%FORMAT(8F9.5)                                                                  
  0.52228  1.03267  1.49446  1.71567  2.32213  3.14762  3.92563  4.20801
  3.98330  3.71530  3.57288  2.58309  0.80238  0.23594  0.58492  1.30557
  2.02633  2.29570  2.01109  1.51363  0.93886  0.42676  0.35104  0.37207
  0.46712  0.95659  1.27142  1.47987  1.87211  2.60216  3.48241  3.94659
  3.85343  3.66682  3.05663  1.29652  0.23104 -0.06391  0.28443  1.02181
  1.77300  2.04294  1.74637  1.33608  0.85021  0.51827  0.34853  0.38689
  0.71551  1.09158  1.24108  1.20382  1.48762  2.16505  2.99503  3.48416
  3.41748  3.19096  2.31352  0.83653  0.13782  0.01262  0.40937  1.09138
  1.81835  2.13665  1.89587  1.45341  0.93605  0.72196  0.63005  0.61667
  1.23633  1.05303  1.11366  0.99996  1.29649  1.93418  3.18467  3.25814
  3.22031  2.97228  2.05337  0.89582  0.32965  0.71724  0.60788  1.19799
  1.80689  2.12562  1.97969  1.63143  1.25425  1.01734  0.88363  0.83522
  1.30761  1.22768  1.13538  0.95957  1.32807  2.57102  2.89497  3.36108
  3.35684  3.05473  2.14630  1.19745  0.70441  0.58511  1.95205  1.52371
  2.01472  2.22245  2.23903  1.99722  1.68137  1.46224  1.34708  2.06156
  1.63671  1.46009  1.09844  1.02737  1.37694  2.19199  3.07254  3.58620
  3.60893  3.12444  2.30776  1.42648  0.85100  0.78797  1.22689  1.78722
  1.94542  2.08451  2.19484  2.14483  2.04645  1.82787  1.84204  1.79757
  1.12117  1.00459  0.90669  1.08242  1.47107  2.29074  3.15229  3.57314
  3.49268  3.01074  2.09739  1.12356  0.70488  0.98375  1.57771  1.72826
  2.12940  1.85888  2.57109  1.91976  1.72276  1.49132  1.51334  1.32669
  0.40904  0.49960  0.68994  1.12284  1.80289  2.48352  3.11479  3.31150
  3.03017  2.36837  1.42426  0.77455  0.87384  1.61817  2.00898  2.22704
  2.42461  2.30922  2.15056  1.99226  1.92450  0.97224  0.73574  0.48898
  0.08410  0.42215  1.02926  1.87467  2.69476  3.45376  3.67954  3.36972
  2.60475  1.82014  1.20426  1.10888  1.68685  2.34030  2.58542  2.84203
  3.12752  3.12065  2.96167  2.54976  1.40533  0.40382  0.00000 -0.04572
  0.36011  1.15921  2.15592  3.34657  4.26643  4.67710  4.47054  3.44682
  2.32569  1.70699  2.35063  2.04511  2.85433  2.90676  3.10746  3.48225
  3.97016  4.27312  4.16723  3.09772  1.42370  0.02179 -0.30678 -0.03255
  1.65294  2.88664  4.10567  5.16785  5.96730  5.95391  4.93741  3.51176
  2.68707  2.68290  3.24086  3.62179  3.37052  3.15678  3.36134  4.16275
  5.07925  5.82716  5.85962  3.19368  1.29808  0.25271  0.39594  1.05331
  3.81412  5.35486  5.13605  4.60260  4.59158  4.46463  4.15203  3.69566
  3.71043  4.45180  4.65562  5.07199  2.67441  2.96658  3.25503  4.85581
  5.99244  4.94014  3.81956  2.68765  1.60044  1.35847  1.88601  2.75772
  5.65413  4.51620  3.43021  3.07386  2.92666  3.32677  4.07558  4.54241
  5.30174  5.61506  3.86867  2.36536  2.13112  2.02534  3.47267  5.02105
  4.11316  3.37138  2.94913  2.70538  2.53778  2.86068  3.56974  4.58051
  4.77518  3.27951  2.16376  1.58266  1.88553  3.19050  4.62223  5.93455
  6.45147  4.76056  3.14418  2.16040  2.28057  3.08457  4.21043  3.66258
  2.75304  2.55511  2.93208  3.39129  3.79930  4.20397  5.39326  5.43581
  2.56508  1.67090  0.93736  0.58444  1.61800  3.62689  5.59409  6.59827
  5.74431  4.49610  3.35132  2.97981  3.21941  3.67374  3.27120  2.07994
  1.77993  2.39478  3.38696  4.25779  4.52985  4.93882  4.69111  3.61049
  1.26462  0.67708  0.26532  0.30132  2.25604  3.95083  5.47476  5.55371
  5.10155  4.30674  3.56997  3.25845  3.10422  2.55670  1.57151  0.96413
  1.40398  2.42204  3.52777  4.13497  4.07309  3.55975  2.87817  1.99484
  0.55176  0.19150 -0.16597  0.66095  1.62856  3.89802  4.16340  4.26209
  4.12179  3.65628  3.05515  2.49485  1.99083  0.97560  0.41587  0.60386
  1.44967  2.34875  2.94070  3.39727  3.25886  2.19662  1.58376  0.96441
  0.07145 -0.02229 -0.19366  0.09658  1.21303  2.23576  2.78266  2.90510
  2.93369  2.54580  1.95236  1.33023  0.40661 -0.27184 -0.14720  0.69359
  1.64189  1.97936  1.87903  1.97864  1.23292  1.13701  0.51871  0.18909
 -0.01947  0.16303  0.09064  0.20405  0.73128  1.39094  1.86213  1.76276
  1.72469  1.40183  0.86152  0.00437 -0.70891 -0.84671 -0.21411  0.78516
  1.48423  1.42008  0.97414  0.63572  0.21567 -0.09045 -0.23085 -0.26431
  0.23170  0.08163  0.01486  0.12279  0.73992  1.49053  1.97444  2.06779
  1.82022  1.33979  0.43753 -0.54445 -1.08230 -0.91410 -0.20721  0.88163
  1.56893  1.48896  1.00506  0.51282  0.15495  0.02267  0.02666  0.09482
  0.47215  0.31619  0.08314  0.12316  1.11375  1.54478  2.34630  3.47237
  2.30729  1.59681  0.67989 -0.18398 -0.68707 -0.72359  0.03778  1.10405
  1.73728  1.74294  1.46729  1.10511  0.73306  0.61181  0.71670  0.63161
  0.30966  0.18354  0.18180  0.27335  0.79409  1.71529  2.92627  3.19017
  2.77280  1.84258  1.67508  0.27817 -0.33374 -0.33856  0.53257  1.78583
  2.05954  2.09806  1.90196  1.58767  1.24982  1.00802  0.95508  1.73928
 -0.29951 -0.37951  0.07609  0.41404  0.99608  1.96236  3.00787  4.11080
  3.25032  2.20114  1.30186  1.64636  0.41136  0.73319  2.05546  2.04893
  2.01577  2.10384  2.12746  1.90819  1.43544  0.70519  0.34476  0.06379
 -0.95612 -1.18291  1.08842  1.13915  1.84130  2.84517  3.27537  3.80849
  3.39876  2.39368  1.50634  1.02603  1.00555  0.15970  1.20267  1.90054
  2.46726  2.63671  1.85362  1.43775  0.79424 -0.01112 -0.44922 -0.70653
%FLAG CMAP_PARAMETER_04                                                         
%COMMENT  Arg CMAP                                                              
%FORMAT(8F9.5)                                                                  
 -0.82019 -0.32734  0.03808  0.23228  0.76963  1.60165  2.36816  2.61664
  2.38271  2.02874  1.62850  0.62939 -1.20602 -1.83289 -1.46232 -0.53771
  0.32243  0.59859  0.35225 -0.12119 -0.69002 -1.04545 -1.05428 -0.93403
 -0.41932 -0.15004  0.12826  0.27661  0.72913  1.42432  2.81129  2.67254
  2.49050  2.27083  1.72637 -0.18382 -1.46783 -1.77855 -1.39836 -0.44895
  0.41819  0.77443  0.57485  0.18351 -0.24581 -0.49794 -0.49109 -0.43134
 -0.03181  0.09212  0.26463  0.30730  0.67123  1.37932  2.23082  2.63856
  2.62596  2.24643  1.07404 -0.34650 -1.22123 -1.37293 -0.94649 -0.06868
  0.66814  1.02349  0.90096  0.51091  0.83242 -0.12064 -0.13937 -0.06630
  0.30911  0.38230  0.41571  0.35150  0.71886  1.40113  2.24835  2.61976
  2.60263  2.19910  1.02051 -0.13725 -0.80984 -0.51727 -0.60832  0.14925
  0.95520  2.31597  1.28238  0.95905  0.58435  1.06596  0.36760  0.32559
  0.97700  0.87938  0.70298  0.56028  0.90637  1.63130  2.48708  2.91633
  2.84540  2.37176  1.28724  0.25600 -0.35258 -0.57629 -0.17251  1.24378
  1.33817  1.69485  1.73420  2.41743  1.23425  1.05948  1.01644  1.03179
  1.47846  1.26136  0.92101  0.72122  1.88398  1.95481  3.43952  3.26274
  3.17158  2.54918  1.49397  0.45059 -0.22429 -0.29407  0.28140  0.97521
  1.35309  1.59629  1.79401  1.76556  1.67262  2.50523  2.84585  1.85480
  1.12701  0.88950  0.68010  0.70824  1.23056  2.08392  2.94066  3.33371
  3.08117  2.31234  1.22116  0.15414  0.31991 -0.02302  0.71736  0.99887
  1.27471  1.45474  1.70706  1.63244  1.46896  1.34033  1.41944  1.38113
  0.40271  0.40149  0.56144  1.00706  1.81004  2.53536  3.12806  3.21290
  2.72394  1.84719  0.67139 -0.10650 -0.16555  1.22354  1.25868  1.63725
  1.94073  2.02029  1.96543  1.75902  1.20561  0.79429  1.12809  0.54953
 -0.02017  0.24010  0.82234  1.78670  2.71108  3.57624  3.89674  3.41370
  2.50308  1.42332  0.49400  0.27081  0.71342  1.50828  1.84817  2.30340
  2.73753  2.88432  2.72089  2.33911  1.26274  0.32927  0.00000 -0.02509
  0.22019  0.81524  1.99565  3.20174  4.27697  4.99287  4.68537  3.60993
  2.33489  1.49104  1.20599  1.49948  2.05487  2.09847  2.37240  2.91429
  3.57365  4.03015  4.09469  3.12549  1.52656  0.13471 -0.13981  0.05364
  1.56488  2.47517  3.89322  5.01126  6.12448  6.24176  5.27335  3.81489
  2.73700  2.63495  2.81724  3.07612  2.69272  2.36363  2.58824  3.57488
  4.75866  5.70992  5.22088  3.35499  1.49211  0.43632  0.68075  0.99862
  3.71466  4.97633  5.03644  4.63092  4.88438  4.95132  4.74947  4.22219
  3.96003  4.36300  4.49487  3.50231  2.33286  2.82232  2.84070  4.64427
  5.80231  4.93210  4.03654  3.69286  1.82345  1.53744  2.11349  3.00377
  5.69846  4.31879  3.48555  3.08843  3.12750  3.84986  4.74837  5.15704
  5.69924  5.70772  3.79753  2.20228  2.02020  1.66881  3.16529  4.71910
  3.98793  3.46162  3.23644  3.01487  2.85594  3.17651  3.88235  5.08322
  4.33361  3.05845  2.15191  1.76674  2.26019  4.62310  5.27599  6.41105
  6.57469  4.72069  2.90873  2.58442  1.84659  2.59955  3.75670  3.29872
  2.50633  2.64921  3.13213  3.69368  4.11672  4.56694  5.22661  5.41481
  2.47932  1.47708  0.92934  0.82583  1.97560  4.09763  6.02009  6.63700
  5.63097  4.28706  3.44779  2.55291  2.63996  2.96895  2.52734  1.57697
  1.52061  2.36918  3.49937  4.35064  4.63186  4.93333  4.58764  3.87984
  1.14030  0.54805  0.15255  0.42318  1.94772  4.16250  5.55489  5.40328
  4.90248  3.93201  3.16772  2.77740  2.39321  1.78501  0.79513  0.47158
  1.16020  2.17993  3.37552  4.72366  3.82546  3.46230  2.81778  1.93161
  0.52749  0.13567 -0.16778  0.12719  1.66181  3.37787  4.18059  4.18535
  3.93313  3.28620  3.40583  1.93871  1.19386  0.14108 -0.35986  0.36760
  1.06184  1.94671  2.60114  2.72622  2.44593  2.05922  1.56750  1.02523
  0.01900 -0.06224 -0.20394  0.11955  1.23281  2.36006  2.79433  2.78651
  2.70084  2.19348  1.35765  0.56943 -0.54495 -1.21964 -0.99636  0.01972
  1.13276  1.52104  1.46857  1.29408  0.96868  0.64095  0.41292  0.19068
 -0.07976  0.08211 -0.00959  0.19096  0.86141  1.55762  1.91521  1.67178
  1.42661  0.97985  0.22429 -0.82647 -1.22594 -1.79632 -0.99661  0.16885
  1.06280  1.09088  0.71015  0.35652 -0.05923 -0.25897 -0.27967  0.15156
  0.31643  0.34879  0.03351  0.07730  0.59951  1.35053  1.84798  2.38209
  1.48242  0.87376 -0.33412 -1.31902 -1.88732 -1.66595 -0.85111  0.29401
  1.01849  1.07281  0.71179  0.25448 -0.16867 -0.19324 -0.07485  0.14014
  0.30578  0.18396  0.41854  0.12605  1.31596  1.40698  2.13744  2.31775
  1.90841  1.01589 -0.13190 -1.04639 -1.40035 -1.53108 -0.70658  0.55931
  1.00526  0.97097  1.46250  0.60875  0.25602  0.27253  1.23801  0.50623
 -0.21577 -0.32939 -0.28555 -0.12925  0.37096  1.31081  2.17516  2.51541
  2.07043  1.07046  0.00522 -0.78938 -1.37985 -1.38712 -0.37447  0.94060
  1.21850  1.07708  0.94808  0.67328  0.65820  0.28861  0.37647  0.19858
 -0.94918 -1.09353 -0.88094 -0.51772  0.10892  1.12433  2.25381  3.33302
  2.38527  1.24435  0.47731 -0.27468 -0.92392 -0.73854  0.62725  0.76038
  0.86756  0.93678  0.99157  1.26267  0.40698 -0.06675 -0.28978 -0.57344
 -1.55826 -1.71934 -0.87065 -0.80793  0.11462  1.20435  2.36674  2.85621
  2.50426  1.35577  0.89560 -0.29658 -0.31092 -0.83895 -1.29321 -0.66979
  0.16650  0.68020  1.64189  0.50936 -0.05755 -0.64713 -0.91307 -1.12834
%FLAG CMAP_PARAMETER_05                                                         
%COMMENT  Lys CMAP                                                              
%FORMAT(8F9.5)                                                                  
 -1.13164 -0.62346 -0.24209 -0.02973  0.48480  1.23694  2.04575  2.29166
  2.02876  1.62703  1.27127  0.35950 -1.42623 -2.05405 -1.64702 -0.75066
  0.09360  0.45285  0.21807 -0.18586 -0.73583 -1.13344 -1.19694 -1.19062
 -0.64060 -0.32893  0.02012  0.02118  0.47137  1.14861  1.91913  2.36069
  2.22229  1.95149  1.20614 -0.57017 -1.75076 -2.03501 -1.58763 -0.64877
  0.30096  0.62023  0.45342  0.04313 -0.46090 -0.79564 -0.82334 -0.74223
 -0.24137 -0.11209  0.08544  0.05425  0.40854  1.14888  2.02651  2.38762
  2.30421  2.65775  0.84980 -0.58949 -1.42718 -1.56969 -1.12474 -0.27600
  0.57048  0.92694  0.75506  0.36313  0.41248 -0.25267 -0.29508 -0.30702
  0.15784  0.16124  0.21528  0.19125  0.52652  1.17640  2.01822  2.39523
  2.25697  1.97743  0.85670 -0.29822 -0.64315 -0.71138 -0.30686  0.45873
  0.81134  1.29671  1.19500  0.84969  0.46708  0.29043  0.21746  0.16500
  0.89392  0.71753  0.57115  0.43890  0.76485  1.44400  2.31824  2.67943
  2.58376  2.16804  1.23014  0.82763 -0.51969 -0.73656 -0.32147  0.44935
  1.20995  1.60156  1.65872  1.41868  1.06413  0.88918  1.40765  0.89807
  1.39127  1.14527  0.83908  0.62088  1.03137  2.44461  3.61122  3.03639
  2.93037  2.34216  1.25412  0.23792 -0.42524 -0.47841  0.12423  0.77695
  1.18318  1.45904  1.64051  1.57482  1.43824  1.35338  1.42422  1.50599
  1.03940  0.78129  0.55141  0.59044  1.11541  1.93195  3.28135  3.10600
  2.87709  2.08673  0.97761 -0.07189 -0.55989 -0.15343  0.59138  0.86483
  1.13795  1.36979  1.55187  1.49198  1.31001  1.19377  1.27168  1.26717
  0.31570  0.32645  0.43538  0.89961  1.65773  2.35060  2.92667  3.00795
  2.52682  1.60328  0.45969  0.23113 -0.28882  1.23655  1.15894  1.54835
  1.88547  1.93525  1.86074  1.72151  1.65432  0.72519  0.57772  0.96376
  0.01270  0.24227  0.76959  1.64854  2.60813  3.46061  3.69061  3.18918
  2.22863  1.15788  0.39483  0.21073  0.68040  2.18832  1.80572  2.24818
  2.70988  2.86880  2.79105  2.41410  2.01156  0.35940  0.00000  0.00646
  0.35073  0.90201  2.00003  3.08122  4.18056  4.93815  4.63514  3.60238
  2.75114  1.43898  1.23584  1.46770  2.07827  2.18651  2.36403  2.96159
  3.67909  4.13912  4.10653  3.18582  1.51669  0.18861 -0.06191  0.04962
  1.53826  2.58483  4.03310  5.05092  6.11295  6.14815  5.20647  3.81976
  2.76531  2.50097  2.69420  2.97134  2.67683  2.45579  2.69794  3.72189
  4.88760  5.73443  5.25225  3.32794  1.50262  0.37839  0.90315  0.93349
  3.53826  4.97003  5.16584  4.77571  4.97699  4.94501  4.73810  4.10406
  3.72549  4.11352  4.26970  3.27545  2.15952  2.71722  2.87070  4.71124
  5.93638  5.07391  4.12244  2.88828  2.59390  1.43687  1.95877  2.78313
  5.77443  4.46997  3.56825  3.21013  3.29175  3.88737  4.64985  4.86020
  5.40449  5.58649  3.52430  1.95498  2.12058  1.64132  3.18061  4.76232
  4.12981  3.48929  3.28524  2.96613  2.82022  3.09461  3.81784  4.80706
  4.81125  3.11064  2.19879  1.79413  2.26340  3.62230  5.03506  6.19526
  6.42134  4.54813  2.74872  2.01212  1.67501  2.46391  3.72853  3.32011
  2.54393  2.64930  4.53517  3.65435  4.11000  4.43677  5.16380  5.36330
  2.40638  1.42733  0.83483  0.72279  1.83113  3.87438  5.88103  6.54537
  5.44021  4.07584  2.89687  2.46565  2.57255  2.85706  2.48850  1.54075
  1.55152  2.30832  3.47039  4.36402  4.62076  5.24285  4.48773  3.44960
  1.10697  0.48844  0.05413  0.22301  1.84021  4.72185  5.44366  5.35532
  4.78976  3.85091  3.07756  2.70321  2.41981  1.79438  0.82855  0.52195
  1.15697  2.28904  3.44297  4.00628  3.92284  3.44623  2.77364  1.79239
  0.57707  0.21457  0.12757  0.11426  1.68939  3.35709  3.67419  3.88209
  3.86371  3.22634  2.49647  1.84377  1.15687  0.09138 -0.36996 -0.04023
  1.02408  2.05775  2.68926  2.74955  2.42499  2.04678  1.55711  1.00697
  0.05163  0.00299 -0.17038  0.08753  1.18689  2.24636  2.73093  2.76323
  2.65887  2.14045  1.40562  0.50704 -0.61236 -1.29634 -1.05969 -0.13291
  0.96124  1.48528  1.46883  1.23917  0.87082  0.57255  0.35700  0.19011
 -0.10233  0.05477 -0.00840  0.09387  0.67551  1.37869  1.72925  1.53428
  1.31553  0.82680  0.14475 -0.97642 -1.85541 -1.92868 -1.09786  0.07237
  0.91454  0.97238  0.58573  0.26675 -0.11967 -0.34550 -0.35246 -0.32802
  0.52160  0.15688 -0.09909 -0.06538  0.41444  1.10954  1.57762  1.58789
  1.28279  0.65634 -0.44715 -1.51329 -2.08018 -1.90600 -1.01779  0.15231
  0.91178  1.43560  0.45842  0.08514 -0.30926 -0.44935 -0.25988 -0.05601
  0.17976  0.55827 -0.34578 -0.27097  0.25407  1.08656  1.80718  1.95109
  1.58890  0.72912 -0.40442 -1.34979 -1.91684 -1.87165 -0.98156  0.28439
  0.89099  0.90274  0.79523  0.40138  0.02081  0.00907  0.23280  0.31097
 -0.44608 -0.50159 -0.63851 -0.46568  0.06284  0.89854  2.27207  2.66185
  2.06789  0.75765 -0.37406 -1.13229 -1.70425 -1.63652 -0.60650  0.74288
  0.97450  0.83959  0.77625  0.54584  0.23025  0.14501  0.19838  0.06330
 -1.11297 -1.28309 -1.07056 -0.72163 -0.11182  1.28275  1.90578  2.41469
  1.97238  0.84092  0.11079 -0.94101 -1.15465 -0.94939  0.64316  0.56647
  0.70355  0.74958  1.63039  0.63838  0.25608  0.41040 -0.50836 -0.80252
 -1.72473 -1.92912 -1.10012 -1.05519 -0.10274  0.90677  2.05671  2.58075
  2.16667  1.05344  0.03573 -0.05773 -0.58287 -1.40318 -1.58072 -0.87231
  0.01980  0.51998  0.63491  0.37020 -0.25344 -0.90749 -1.16574 -1.34771
%FLAG CMAP_PARAMETER_06                                                         
%COMMENT  Leu CMAP                                                              
%FORMAT(8F9.5)                                                                  
 -0.86694 -0.26821  0.11903  0.36257  0.95573  1.67477  2.43156  2.60365
  2.27204  1.80613  1.46886  1.61233 -0.96663 -1.49770 -1.08239 -0.09973
  0.68400  0.98069  0.74771  0.20585 -0.44627 -0.94569 -1.07455 -1.03710
 -0.32646  0.18654  0.61372  0.67096  1.01304  1.68958  2.59064  2.69380
  2.62711  2.28315  1.55874 -0.12149 -1.21885 -1.44423 -0.97001 -0.05369
  0.80796  1.12834  0.84158  0.41540 -0.05618 -0.48333 -0.57243 -0.49018
 -0.00270  0.44349  0.67720  0.69907  0.96098  1.51827  2.31922  2.59766
  2.46815  2.10040  1.01494 -0.35138 -1.06078 -0.51379 -0.69064  0.13405
  0.94764  1.25044  1.05896  0.70807  1.27955  0.00478 -0.14861 -0.13199
  0.46773  1.06122  0.84151  0.87321  1.53577  2.26717  2.28379  2.61533
  2.48323  2.10062  0.99888 -0.16216 -0.70927 -0.70653 -0.29305  0.40855
  1.21244  1.57878  1.45953  1.15294  0.73992  0.44830  0.51887  0.42642
  1.08264  1.22032  1.01432  0.92883  1.19777  1.89909  2.63517  2.91989
  2.71483  2.15712  1.13870  0.10970 -0.35319 -0.45575 -0.07314  0.71696
  1.39933  1.70190  1.76612  1.54603  1.28907  0.96167  1.05593  0.99887
  1.28886  1.08719  1.25509  0.61945  1.07490  1.93759  3.19207  3.05501
  2.85024  2.25228  1.28855  0.30319 -0.32580 -0.33934  0.94330  1.01391
  1.36742  1.55398  1.68291  1.69903  1.58878  1.35670  1.38167  1.38984
  0.98482  0.77092  0.58293  0.75254  1.33157  2.19094  2.97361  3.31530
  2.98261  2.34181  1.68188  0.20860 -0.18920  0.15129  0.97347  1.18438
  1.41087  2.18263  1.74084  1.83977  2.49337  1.40782  1.29872  1.23230
  0.48495  0.51375  0.72118  1.16071  2.03516  2.76085  3.33781  3.33714
  3.21881  1.91348  0.71654 -0.06047  0.05722  0.95499  1.57463  1.97846
  2.20669  2.25753  2.16240  2.05082  1.46338  0.92763  0.63950  0.52464
  0.07954  0.44680  1.02424  2.02016  2.99245  3.73027  3.90871  3.36270
  2.34980  1.21384  0.31676  0.22259  0.86998  1.74017  2.65575  2.56314
  2.94846  3.04800  2.92362  2.53858  1.53008  0.44000  0.00000 -0.00769
  0.24993  1.09492  2.17567  3.43132  4.50566  5.05694  4.64546  3.50848
  2.15393  1.27464  0.97041  1.34987  2.11323  2.30548  2.56683  3.12183
  3.71616  4.15639  4.02019  3.11381  1.50702  0.51912 -0.20195 -0.08615
  1.52978  2.82371  4.12062  5.09490  6.15608  6.08176  5.03421  3.52597
  2.34959  2.18514  2.44731  2.85399  2.64346  2.42082  2.71715  3.68263
  4.79352  5.66725  5.08137  3.19151  1.34349  0.25042  0.36715  0.82954
  3.49877  5.10429  4.80281  4.54651  4.68704  4.66098  4.37663  3.68363
  3.39535  3.95518  3.96235  2.85930  2.21248  2.20453  2.53736  4.31396
  5.52110  4.69616  3.78755  2.61424  1.52261  1.35018  1.75048  2.53707
  5.65682  4.15269  3.35229  3.00261  3.08500  3.54523  4.16460  4.62833
  5.13779  5.01177  3.02054  1.47096  1.36914  1.36431  2.92161  6.08683
  3.79124  3.26901  3.87628  3.15138  2.56586  2.96443  3.52026  4.83005
  4.54702  3.10593  2.16146  1.79107  2.10872  3.47796  4.87594  5.92625
  6.01846  4.12483  2.27314  1.85210  1.40705  2.31574  3.63083  3.28348
  2.48395  2.41514  2.93210  3.56664  3.83230  4.13078  4.61915  5.21000
  2.54403  1.68952  0.97521  0.88413  2.02670  4.01998  5.83129  6.49399
  5.45501  4.03342  2.72981  3.04219  2.43764  2.97586  2.73313  1.73379
  1.55615  2.30112  3.86657  4.36600  4.57747  4.78312  4.62251  3.65331
  1.39094  0.80730  0.29380  0.53655  2.14327  4.35364  5.64162  5.52871
  4.81227  3.89474  3.02138  2.56961  2.36903  1.91970  1.04584  0.61644
  1.26738  2.48009  3.51320  4.14947  3.98350  3.59513  2.95805  2.05137
  0.59467  0.26702 -0.00118  0.34338  1.95569  3.71282  4.31538  4.26902
  3.93382  3.80334  2.45012  1.80769  1.23485  0.28708 -0.16539  0.11408
  1.10892  2.16939  3.27563  2.90643  2.66635  2.32593  1.63311  1.04332
 -0.00101 -0.07278 -0.15248  0.39936  1.35477  2.58696  2.88424  2.91922
  2.69118  2.08752  1.30318  0.53921 -0.47040 -1.05688 -0.84349  0.07495
  1.13508  1.90971  1.60384  1.52061  1.19284  0.82628  0.49692  0.18749
  0.52653 -0.01117  0.01170  0.35019  0.99208  1.68051  1.85145  1.71415
  1.38754  0.91039  0.24804 -0.73699 -1.51069 -1.53963 -0.72203  0.43100
  1.18026  1.23810  0.97321  0.69525  0.29409 -0.04217 -0.12688 -0.18077
  0.41738  0.42830  0.25395  0.41670  0.84705  1.54378  1.90242  1.75429
  1.39459  0.87970 -0.19758 -1.19662 -1.65765 -1.41581 -0.57110  0.57555
  1.30161  1.37911  1.15311  0.73096  0.18428  0.11942  0.12025  0.23185
  0.51056  0.47767  0.30339  0.39748  0.84570  1.55327  2.29045  2.38960
  1.92281  1.05703  0.33844 -0.94589 -1.40734 -1.22267 -0.28396  0.91594
  1.42889  1.47580  1.35177  1.37396  0.53214  0.53898  0.61490  0.64450
 -0.24761 -0.32226 -0.19849 -0.08985  1.01997  1.40580  2.20658  2.50290
  1.91878  0.83859 -0.21275 -0.98048 -1.44651 -1.19821  0.00869  1.25483
  1.43243  1.66446  1.63593  0.87150  0.53192  0.38847  0.31803  0.05867
 -0.50737 -1.45363 -0.79190  0.11592  0.23743  1.27007  2.22830  3.43018
  2.03991  0.82982 -0.28204 -0.30716 -1.28098 -0.47386  0.89069  1.08272
  1.18900  1.30124  1.20693  0.90441  0.47681 -0.17330 -0.62574 -1.08723
 -1.62255 -1.96136 -0.83933 -0.65406  0.11828  1.42624  2.54120  2.90447
  2.24826  1.86505 -0.18930 -0.85728 -0.87693 -1.06001 -1.16287  0.46816
  0.39155  1.80618  1.14253  0.79781  0.04909 -0.40498 -1.27362 -1.36635
%FLAG CMAP_PARAMETER_07                                                         
%COMMENT  GLN CMAP                                                              
%FORMAT(8F9.5)                                                                  
 -0.68860 -0.17683  0.26315  0.53095  1.05855  1.83025  2.50017  2.70035
  2.43653  2.08324  1.86529  1.95977 -0.68203 -1.25561 -0.85797 -0.06844
  0.70524  1.03192  0.79914  0.37286 -0.15501 -0.58518 -0.71775 -0.78418
 -0.44021  0.00331  0.36935  0.65767  1.02816  1.67134  2.43010  2.89161
  2.70831  2.54935  1.91622  0.09662 -1.06945 -1.37209 -0.99032 -0.19019
  0.66407  1.04802  0.86619  0.48117 -0.00358 -0.27669 -0.44416 -0.46691
 -0.15392  0.17146  0.45181  0.49943  0.79293  1.42305  2.37012  2.63478
  2.53179  2.26795  1.33209 -0.21128 -0.99060 -1.13708 -0.71617  0.05062
  0.83510  1.24034  1.05890  0.69110  0.23060 -0.01030 -0.11206 -0.19004
  0.05343  0.69235  0.42836  0.39957  0.71141  1.76433  2.50625  2.94763
  2.88145  2.16624  1.18796 -0.05129 -0.68524 -0.37490  0.01304  0.23315
  0.95699  1.37528  1.29651  0.98411  0.64489  0.42035  0.28819  0.16406
  0.69262  0.70412  0.62565  0.46287  0.80551  1.44138  2.97948  2.71369
  2.55513  2.18713  1.27839  0.28588 -0.26335 -0.46090 -0.09020  0.61046
  1.97561  1.54326  1.62505  1.48619  1.21086  1.01008  0.88831  0.79642
  1.20873  0.98247  0.74549  0.58619  0.99530  1.73596  2.54994  2.97028
  2.95963  2.42273  1.48069  0.48901 -0.16643 -0.20472  0.31166  0.98586
  1.28026  1.50339  1.69266  1.68735  1.63242  1.52595  1.51998  1.46291
  0.87957  0.99919  1.31583  0.72589  1.09701  1.91000  4.19972  3.09729
  2.87699  2.24436  1.26399  1.41644 -0.27119  1.01293  0.75403  1.01936
  1.28113  1.40715  1.60787  1.60726  1.48537  1.32209  1.35633  1.17080
  0.19251  0.19248  0.46261  0.96217  1.58644  2.27148  2.83702  2.93836
  2.52006  1.74634  0.68112 -0.07251 -0.08666  0.69823  1.23608  1.56455
  1.87372  1.85510  1.80131  1.73377  1.73225  0.84099  0.62438  0.36334
 -0.15504  0.04978  0.70198  1.66326  2.54173  3.20468  3.40156  2.99530
  2.13777  1.20326  0.43335  0.26032  1.45644  1.45401  1.79607  2.16966
  2.55999  2.68344  2.62643  2.33968  1.31252  0.37893  0.00000 -0.11953
  0.12324  0.70244  1.74045  3.01512  3.94521  4.42083  4.15067  3.11838
  1.86681  1.10343  0.95449  1.27590  2.01845  2.08191  2.35271  2.79854
  3.42596  3.90270  3.98411  3.04256  1.42080  0.05939 -0.29874 -0.11759
  1.37879  2.42047  3.65605  4.87302  5.75099  5.76752  4.67075  3.22630
  2.28713  2.16338  2.59640  2.90113  2.67477  2.40711  2.62992  3.48681
  4.57665  5.47686  4.97692  3.17615  1.29041  0.21053  0.34980  0.80606
  3.51232  4.99828  4.80914  4.31055  4.37295  4.30355  4.04915  3.52690
  3.41394  4.00207  4.09442  3.16854  2.05769  2.78296  2.71837  4.43302
  5.46988  4.59448  3.64453  2.58572  1.59115  1.31727  1.85098  2.64557
  5.56338  4.21386  3.22014  2.77185  2.80313  3.21466  4.02670  4.42856
  5.08370  5.19053  3.27785  2.31893  1.89422  1.42676  2.95008  4.44532
  3.67152  3.04403  2.75614  2.70247  2.62307  3.02137  3.65366  4.58389
  4.19824  2.95958  1.99833  1.45775  1.80759  3.16653  4.55726  5.78814
  6.03607  4.22652  2.51152  1.68622  1.58984  2.43734  3.59714  3.11592
  2.30052  2.23543  2.77920  3.42292  3.89334  4.38013  4.93113  5.21742
  2.20011  1.37575  0.75298  0.55181  1.60046  3.58555  5.46227  6.17325
  5.21747  3.97559  2.76414  2.33481  2.42900  2.87308  2.49415  1.47074
  1.33585  2.11863  3.29140  4.17771  4.69101  4.92810  4.43299  3.29531
  0.90641  0.36791  0.10648  0.26619  1.73548  3.83851  5.15676  5.11238
  4.64480  3.76087  2.96967  2.57195  2.28083  1.69762  0.83326  0.38814
  1.05475  2.15027  3.31850  3.93236  3.89136  3.47369  2.72668  1.69835
  0.33654  0.00368 -0.20632  0.09622  1.63346  3.20389  3.88031  3.91033
  3.70008  3.15607  2.43471  1.79430  1.15107  0.14778  0.48052  0.00924
  1.08623  2.05404  2.67258  2.87521  2.57356  2.02970  1.46136  0.80609
 -0.04987 -0.13277 -0.24655  0.08117  1.15244  2.09850  2.53905  2.58325
  2.53770  2.09647  1.39864  0.64954 -0.46411 -1.11627 -0.84486  0.12020
  1.22694  1.62904  1.55356  1.45507  1.16157  1.10860  0.79598  0.05990
 -0.15375 -0.00220  0.01459  0.11114  0.62857  1.22726  2.05881  1.44997
  1.30142  0.92229  0.25203 -0.73378 -1.53780 -1.61106 -0.84356  0.24043
  1.07483  1.10302  0.74349  0.46587  0.10521 -0.12181 -0.30694 -0.31669
  0.00410 -0.05892 -0.18787 -0.18506  0.30108  0.97022  1.38708  1.48251
  1.22445  0.68072 -0.39113 -1.36041 -1.82139 -1.63875 -0.81681  0.24622
  0.99223  0.97274  0.59573  0.22778 -0.09081 -0.20432 -0.23270 -0.08277
  0.06378 -0.07461 -0.33040 -0.36478  0.14595  0.93179  1.60772  1.75795
  1.39279  0.56420 -0.43150 -1.29763 -1.75715 -1.60136 -0.74274  0.42793
  1.02604  1.11187  0.91499  0.58424  0.28651  0.15969  0.20407  0.21399
 -0.43863 -0.57788 -0.58016 -0.41995  0.08982  0.90543  1.75666  2.13749
  2.12396  0.65682 -0.34460 -0.95593 -1.47256 -0.92681 -0.32507  0.99991
  1.88768  1.20699  1.08865  0.75558  0.48912  0.24563  0.29063  0.01788
 -1.10788 -1.26535 -0.20724 -0.53678  0.02619  0.97507  1.91629  2.37071
  1.95717  0.89479 -0.05509 -0.58401 -0.97055 -0.58431  0.82340  0.87215
  0.89673  1.04971  1.09440  0.88350  0.57490  0.01616 -0.33219 -0.69616
 -1.63971 -1.86210 -0.71883 -0.56492 -0.00834  1.12341  2.13866  2.59185
  2.12253  1.13628  0.18730 -0.36656 -0.29347 -0.82661 -0.84811 -0.17022
  0.38891  0.77772  0.91377  0.56968 -0.00905 -0.68852 -1.10739 -1.35481
%FLAG CMAP_INDEX                                                                
%FORMAT(6I8)                                                                    
      11      13      15      23      25       2
      23      25      27      35      37       2
      35      37      39      59      61       4
      59      61      63      69      71       6
      69      71      73      84      86       3
      84      86      88     108     110       4
     108     110     112     125     127       6
     125     127     129     135     137       6
     135     137     139     152     154       7
     152     154     156     176     178       4
     176     178     180     197     199       6
     197     199     201     214     216       6
     214     216     218     226     228       2
     226     228     230     250     252       4
     250     252     254     274     276       4
     274     276     278     289     291       3
     289     291     293     311     313       5
     311     313     315     333     335       5
     333     335     337     350     352       7
     350     352     354     360     362       6
     360     362     364     377     379       6
     377     379     381     399     401       5
     399     401     403     406     408       1
     406     408     410     416     418       6
     416     418     420     440     442       4
     440     442     444     461     463       6
