Cpptraj Generated Restart                                                       
 5623
  22.9230000   9.1570000  16.0410000  22.3070000   9.0000000  17.3080000
  21.1670000   9.7520000  17.6440000  20.6250000  10.6650000  16.7280000
  21.2210000  10.8270000  15.4690000  22.3620000  10.0810000  15.1220000
  22.9360000  10.2580000  13.8510000  24.0830000   9.5390000  13.4970000
  24.6550000   8.6390000  14.4000000  24.0770000   8.4170000  15.6640000
  24.7020000   7.3270000  16.5400000  23.9060000   5.9900000  16.4930000
  24.6190000   4.8560000  17.2940000  24.6130000   4.9270000  18.5130000
  25.1340000   3.9150000  16.6930000  23.4290000   5.6430000  15.1100000
  22.0780000   5.5500000  14.7760000  21.1190000   5.7090000  15.5180000
  22.0430000   5.1910000  13.3310000  20.9500000   4.9750000  12.4780000
  21.2110000   4.5930000  11.1390000  20.0630000   4.2630000  10.2100000
  19.1420000   3.5950000  10.6610000  20.1250000   4.6210000   9.0400000
  22.5550000   4.4970000  10.6850000  23.6340000   4.7470000  11.5580000
  23.3490000   5.0680000  12.8890000  24.2670000   5.3510000  14.0320000
  25.4910000   5.4080000  13.9940000  22.7030000   8.3090000  18.0460000
  20.7020000   9.6260000  18.6180000  19.7450000  11.2440000  16.9920000
  20.7950000  11.5340000  14.7630000  22.5000000  10.9550000  13.1420000
  24.5380000   9.6710000  12.5190000  25.5450000   8.0920000  14.1030000
  24.8110000   7.6660000  17.5760000  25.7260000   7.1260000  16.2020000
  22.9980000   6.1780000  17.0800000  19.9320000   5.0810000  12.8390000
  22.7580000   4.2180000   9.6550000  24.6600000   4.6820000  11.2080000
  21.7640000 -23.2800000  35.2950000  20.7840000 -23.1080000  35.4680000
  22.0960000 -23.9400000  35.9840000  21.8610000 -23.7000000  34.3820000
  22.5370000 -22.0080000  35.3670000  23.5830000 -22.2430000  35.1700000
  22.0660000 -21.0120000  34.2860000  21.0190000 -20.7520000  34.4420000
  22.6630000 -20.1020000  34.3300000  22.1820000 -21.4550000  33.2970000
  22.4570000 -21.3750000  36.7710000  21.4810000 -21.6250000  37.4850000
  23.4500000 -20.5590000  37.1920000  24.7070000 -20.2890000  36.5040000
  24.5760000 -19.4510000  35.8200000  25.0810000 -21.1620000  35.9680000
  25.6970000 -19.9110000  37.6010000  26.4990000 -19.2760000  37.2260000
  26.1030000 -20.8140000  38.0580000  24.8070000 -19.1810000  38.6050000
  24.6680000 -18.1510000  38.2770000  25.2320000 -19.2070000  39.6080000
  23.4830000 -19.9550000  38.5290000  23.5160000 -20.7600000  39.2640000
  22.2740000 -19.0500000  38.8190000  21.9740000 -18.1260000  38.0580000
  21.6020000 -19.2850000  39.9520000  21.8930000 -20.0610000  40.5300000
  20.3920000 -18.5490000  40.3430000  19.6850000 -18.6220000  39.5170000
  19.7400000 -19.2280000  41.5600000  19.5060000 -20.2570000  41.2870000
  20.4330000 -19.2360000  42.4010000  18.4450000 -18.5090000  41.9730000
  18.6960000 -17.5710000  42.4680000  17.8720000 -18.2760000  41.0750000
  17.5280000 -19.3070000  42.8980000  17.8120000 -20.4130000  43.3460000
  16.3740000 -18.7590000  43.2200000  15.7420000 -19.2680000  43.8210000
  16.1560000 -17.8390000  42.8670000  20.6590000 -17.0520000  40.5690000
  19.8360000 -16.2210000  40.1880000  21.8250000 -16.7000000  41.1280000
  22.4360000 -17.4360000  41.4530000  22.2700000 -15.3080000  41.2740000
  21.5750000 -14.7990000  41.9410000  23.6610000 -15.2830000  41.9400000
  23.5690000 -15.7300000  42.9300000  24.3580000 -15.8820000  41.3550000
  24.2290000 -13.8590000  42.0880000  24.4450000 -13.4630000  41.0950000
  23.4770000 -13.2270000  42.5610000  25.5140000 -13.7710000  42.9160000
  26.0550000 -14.7510000  43.4130000  26.0660000 -12.5870000  43.1000000
  26.9090000 -12.5410000  43.6550000  25.6610000 -11.7450000  42.7160000
  22.2320000 -14.5580000  39.9290000  21.5530000 -13.5390000  39.8210000
  22.9120000 -15.0830000  38.8970000  23.4100000 -15.9480000  39.0520000
  22.9150000 -14.5060000  37.5380000  23.3080000 -13.4920000  37.6060000
  23.8330000 -15.2980000  36.5700000  23.4610000 -16.3210000  36.5000000
  23.7920000 -14.6740000  35.1600000  24.1620000 -13.6500000  35.1940000
  24.4000000 -15.2540000  34.4660000  22.7760000 -14.6660000  34.7650000
  25.2940000 -15.3460000  37.0770000  25.7080000 -14.3370000  37.0920000
  25.3150000 -15.7340000  38.0960000  26.2170000 -16.2370000  36.2360000
  26.4470000 -15.7530000  35.2870000  27.1500000 -16.3980000  36.7760000
  25.7450000 -17.2010000  36.0500000  21.4830000 -14.3860000  36.9960000
  21.0570000 -13.2860000  36.6420000  20.7490000 -15.5070000  36.9520000
  21.1740000 -16.3620000  37.2790000  19.3540000 -15.5670000  36.5030000
  19.3280000 -15.4440000  35.4200000  18.7930000 -16.9570000  36.8500000
  19.4050000 -17.7240000  36.3760000  18.8260000 -17.1140000  37.9280000
  17.3590000 -17.1350000  36.3780000  17.1060000 -17.5480000  35.2550000
  16.3790000 -16.8640000  37.2130000  15.4310000 -16.9610000  36.8760000
  16.5550000 -16.5290000  38.1500000  18.4850000 -14.4480000  37.1060000
  17.9260000 -13.6240000  36.3800000  18.3930000 -14.4080000  38.4370000
  18.9020000 -15.0920000  38.9790000  17.5110000 -13.4900000  39.1540000
  16.5140000 -13.5840000  38.7230000  17.3940000 -13.8870000  40.6360000
  18.3850000 -13.8530000  41.0890000  16.7760000 -13.1420000  41.1370000
  16.7700000 -15.2820000  40.8850000  16.3800000 -15.9900000  39.9220000
  16.6240000 -15.6600000  42.0740000  17.9230000 -12.0220000  38.9560000
  17.0750000 -11.2010000  38.6120000  19.2140000 -11.6900000  39.1040000
  19.8660000 -12.4210000  39.3500000  19.7670000 -10.3550000  38.7980000
  19.3350000  -9.6380000  39.4960000  21.3020000 -10.3540000  39.0000000
  21.7100000 -11.2380000  38.5100000  21.9760000  -9.1280000  38.3680000
  21.5730000  -8.2120000  38.8010000  23.0540000  -9.1560000  38.5240000
  21.8190000  -9.1260000  37.2890000  21.6460000 -10.4060000  40.5050000
  21.4140000  -9.4490000  40.9720000  21.0400000 -11.1680000  40.9950000
  23.1170000 -10.7520000  40.7630000  23.7740000  -9.9560000  40.4140000
  23.2770000 -10.8870000  41.8330000  23.3750000 -11.6700000  40.2360000
  19.3640000  -9.8820000  37.3920000  18.8750000  -8.7590000  37.2300000
  19.5680000 -10.7270000  36.3750000  19.9650000 -11.6330000  36.5760000
  19.1940000 -10.4300000  34.9870000  19.6650000  -9.4880000  34.7060000
  19.7250000 -11.5080000  34.0210000  19.4530000 -12.4980000  34.3870000
  19.1670000 -11.3440000  32.6040000  19.3530000 -10.3340000  32.2390000
  19.6480000 -12.0570000  31.9350000  18.0970000 -11.5490000  32.6000000
  21.2530000 -11.4170000  33.9120000  21.7130000 -11.4970000  34.8970000
  21.6230000 -12.2350000  33.2940000  21.5450000 -10.4670000  33.4630000
  17.6880000 -10.1990000  34.8520000  17.2960000  -9.1000000  34.4670000
  16.8270000 -11.1650000  35.1950000  17.1890000 -12.0430000  35.5390000
  15.3680000 -11.0180000  35.0340000  15.1660000 -10.8050000  33.9840000
  14.6340000 -12.3200000  35.3870000  14.9760000 -12.6840000  36.3550000
  13.5680000 -12.1100000  35.4690000  14.8000000 -13.4030000  34.3470000
  15.6110000 -14.5340000  34.4560000  15.4660000 -15.2100000  33.3030000
  15.9580000 -16.1420000  33.0690000  14.6130000 -14.5640000  32.4870000
  14.3390000 -14.8740000  31.5660000  14.1780000 -13.4260000  33.1320000
  13.4810000 -12.6920000  32.7550000  14.7790000  -9.8340000  35.8120000
  13.9900000  -9.0760000  35.2450000  15.2040000  -9.6130000  37.0660000
  15.8680000 -10.2620000  37.4630000  14.7630000  -8.4740000  37.9020000
  13.6740000  -8.4680000  37.9450000  15.3070000  -8.6270000  39.3340000
  16.3870000  -8.7720000  39.2920000  15.1140000  -7.7110000  39.8920000
  14.6460000  -9.7890000  40.0920000  13.6000000  -9.5430000  40.2780000
  14.6860000 -10.7000000  39.4950000  15.3610000 -10.0340000  41.4250000
  16.4090000 -10.2560000  41.2220000  15.3020000  -9.1290000  42.0300000
  14.7520000 -11.1600000  42.1590000  13.8970000 -11.5430000  41.7810000
  15.2000000 -11.7150000  43.2720000  16.2770000 -11.2960000  43.8730000
  16.7780000 -10.5040000  43.4960000  16.5940000 -11.7320000  44.7280000
  14.5660000 -12.7150000  43.8100000  13.7270000 -13.0770000  43.3800000
  14.9150000 -13.1470000  44.6530000  15.1750000  -7.1150000  37.3260000
  14.5440000  -6.1050000  37.6320000  16.2100000  -7.0870000  36.4840000
  16.6860000  -7.9610000  36.3110000  16.6480000  -5.8950000  35.7430000
  16.4140000  -5.0080000  36.3320000  18.1710000  -5.9090000  35.5290000
  18.4450000  -6.7360000  34.8740000  18.6490000  -4.5960000  34.9140000
  18.3650000  -3.7640000  35.5580000  19.7350000  -4.6190000  34.8160000
  18.2140000  -4.4560000  33.9250000  18.8570000  -6.0580000  36.7540000
  18.8110000  -6.9860000  36.9950000  15.9160000  -5.7580000  34.4000000
  15.2690000  -4.7460000  34.1320000  16.0580000  -6.7650000  33.5330000
  16.5570000  -7.5840000  33.8500000  15.6750000  -6.7240000  32.1150000
  15.9820000  -5.7570000  31.7170000  16.4460000  -7.8060000  31.3190000
  16.1900000  -8.7780000  31.7390000  16.0290000  -7.8180000  29.8390000
  16.0370000  -6.8090000  29.4260000  16.7070000  -8.4430000  29.2580000
  15.0280000  -8.2370000  29.7450000  17.9830000  -7.6550000  31.4150000
  18.2900000  -7.7490000  32.4570000  18.4410000  -8.4880000  30.8810000
  18.5660000  -6.3480000  30.8550000  18.1910000  -5.4920000  31.4170000
  19.6520000  -6.3750000  30.9430000  18.3070000  -6.2350000  29.8020000
  14.1580000  -6.7990000  31.8860000  13.6460000  -6.0700000  31.0390000
  13.4090000  -7.6230000  32.6290000  13.8400000  -8.2010000  33.3360000
  11.9460000  -7.7140000  32.4470000  11.7790000  -7.9430000  31.3940000
  11.3400000  -8.8960000  33.2240000  11.6040000  -8.8260000  34.2790000
   9.8210000  -8.9760000  33.1070000   9.5280000  -9.0050000  32.0570000
   9.4590000  -9.8740000  33.6080000   9.3610000  -8.1120000  33.5870000
  11.8580000 -10.1070000  32.7100000  11.4920000 -10.8130000  33.2470000
  11.2350000  -6.3620000  32.6860000  10.4840000  -5.9310000  31.8030000
  11.5010000  -5.6230000  33.7910000  12.0980000  -6.0740000  35.0430000
  13.1850000  -6.0270000  34.9760000  11.7820000  -7.0820000  35.3140000
  11.5980000  -5.0970000  36.1040000  12.2770000  -5.0240000  36.9540000
  10.6020000  -5.3900000  36.4360000  11.5190000  -3.7880000  35.3330000
  12.5140000  -3.3500000  35.2610000  10.8250000  -3.0860000  35.7960000
  11.0270000  -4.2440000  33.9570000   9.9370000  -4.2590000  33.9670000
  11.4860000  -3.2800000  32.8540000  10.6710000  -2.5040000  32.3600000
  12.7600000  -3.3290000  32.4370000  13.3920000  -3.9650000  32.9000000
  13.2870000  -2.5060000  31.3360000  13.1990000  -1.4580000  31.6220000
  14.7820000  -2.8350000  31.1530000  15.3200000  -2.5590000  32.0600000
  14.8790000  -3.9140000  31.0280000  15.4620000  -2.1750000  29.9410000
  14.8820000  -2.3540000  29.0360000  15.6270000  -0.6700000  30.1360000
  16.2610000  -0.4700000  31.0000000  16.0790000  -0.2340000  29.2460000
  14.6530000  -0.2050000  30.2900000  16.8400000  -2.8040000  29.7400000
  16.7300000  -3.8640000  29.5120000  17.3460000  -2.3160000  28.9060000
  17.4390000  -2.6890000  30.6430000  12.4860000  -2.6940000  30.0330000
  12.0570000  -1.7140000  29.4230000  12.2690000  -3.9470000  29.6220000
  12.6740000  -4.6930000  30.1690000  11.4400000  -4.3250000  28.4670000
  11.8770000  -3.8730000  27.5770000  11.4570000  -5.8590000  28.2710000
  11.2810000  -6.3300000  29.2390000  10.3540000  -6.3480000  27.3110000
  10.4750000  -5.8890000  26.3300000  10.3920000  -7.4320000  27.2050000
   9.3650000  -6.1060000  27.7010000  12.8520000  -6.2800000  27.7580000
  13.0050000  -5.9020000  26.7470000  13.6250000  -5.8470000  28.3930000
  13.0650000  -7.7920000  27.7520000  12.4420000  -8.2520000  26.9850000
  14.1080000  -8.0120000  27.5250000  12.8180000  -8.2070000  28.7290000
  10.0250000  -3.7420000  28.5660000   9.5610000  -3.1170000  27.6130000
   9.3470000  -3.9250000  29.7040000   9.7830000  -4.4670000  30.4360000
   8.0220000  -3.3450000  29.9680000   7.3310000  -3.7210000  29.2140000
   7.5240000  -3.8360000  31.3390000   7.4760000  -4.9240000  31.3100000
   8.2350000  -3.5450000  32.1130000   6.1440000  -3.2770000  31.7120000
   6.2140000  -2.1930000  31.8070000   5.4440000  -3.5000000  30.9070000
   5.6070000  -3.8750000  33.0280000   5.1560000  -3.1000000  33.9070000
   5.6000000  -5.1200000  33.1930000   8.0100000  -1.8050000  29.8560000
   7.1690000  -1.2380000  29.1550000   8.9520000  -1.1300000  30.5250000
   9.6080000  -1.6660000  31.0750000   9.0880000   0.3330000  30.5460000
   8.1590000   0.7620000  30.9190000  10.2210000   0.7320000  31.5070000
  11.1050000   0.1430000  31.2620000  10.4660000   1.7840000  31.3660000
   9.8410000   0.5160000  32.9830000   9.1850000   1.3260000  33.3020000
   9.2830000  -0.4140000  33.0890000  11.0430000   0.4510000  33.9290000
  12.1920000   0.7010000  33.5800000  10.8230000   0.1230000  35.1860000
  11.6080000   0.0970000  35.8200000   9.8850000  -0.0750000  35.5040000
   9.3370000   0.9380000  29.1550000   8.7020000   1.9320000  28.7930000
  10.2480000   0.3470000  28.3700000  10.7550000  -0.4420000  28.7430000
  10.6380000   0.8600000  27.0470000  10.4220000   1.9280000  27.0040000
  12.1610000   0.6850000  26.8670000  12.3970000  -0.3790000  26.8690000
  12.4520000   1.0880000  25.8970000  13.0160000   1.3590000  27.9600000
  12.8960000   0.8120000  28.8950000  14.0640000   1.2830000  27.6680000
  12.6930000   2.8330000  28.2170000  12.5730000   3.2770000  29.3510000
  12.5080000   3.6510000  27.1980000  12.2780000   4.6130000  27.4020000
  12.5760000   3.3250000  26.2450000   9.8570000   0.2340000  25.8740000
  10.0550000   0.6380000  24.7260000   8.9460000  -0.7140000  26.1410000
   8.8620000  -1.0060000  27.1040000   8.0840000  -1.4100000  25.1590000
   7.5870000  -2.2270000  25.6810000   6.9710000  -0.4720000  24.6410000
   7.4130000   0.3570000  24.0890000   6.3310000  -1.0340000  23.9600000
   6.0950000   0.0900000  25.7730000   5.6830000  -0.7400000  26.3470000
   6.7030000   0.7110000  26.4310000   4.9520000   0.9420000  25.2020000
   5.3790000   1.7160000  24.5640000   4.3000000   0.3210000  24.5880000
   4.1280000   1.6340000  26.2970000   4.8000000   2.2210000  26.9240000
   3.4390000   2.3280000  25.8160000   3.3580000   0.6690000  27.1290000
   3.9680000   0.0420000  27.6340000   2.7930000   1.1560000  27.8120000
   2.7320000   0.1140000  26.5630000   8.8970000  -2.0880000  24.0410000
   8.6150000  -1.9220000  22.8540000   9.9420000  -2.8230000  24.4290000
  10.0670000  -2.9410000  25.4240000  10.8690000  -3.5120000  23.5100000
  11.1320000  -2.8250000  22.7060000  12.1870000  -3.8610000  24.2440000
  11.9410000  -4.4380000  25.1360000  13.1020000  -4.7230000  23.3560000
  13.2930000  -4.2250000  22.4060000  14.0510000  -4.9090000  23.8590000
  12.6460000  -5.6960000  23.1720000  12.9300000  -2.5770000  24.6870000
  13.3210000  -2.0580000  23.8120000  12.2250000  -1.9080000  25.1800000
  14.0780000  -2.8260000  25.6780000  14.9100000  -3.3270000  25.1820000
  14.4270000  -1.8700000  26.0680000  13.7380000  -3.4380000  26.5130000
  10.1900000  -4.7720000  22.9190000   9.7670000  -5.6300000  23.7000000
  10.0810000  -4.9320000  21.5800000  10.3560000  -3.9470000  20.5420000
  11.3840000  -4.0560000  20.1980000  10.1710000  -2.9260000  20.8770000
   9.3890000  -4.2780000  19.4100000   9.7660000  -3.9390000  18.4450000
   8.4120000  -3.8420000  19.6200000   9.3030000  -5.7980000  19.4780000
  10.1400000  -6.2320000  18.9330000   8.3590000  -6.1730000  19.0810000
   9.4150000  -6.0930000  20.9760000   8.4090000  -6.1660000  21.3900000
  10.1360000  -7.4270000  21.2070000   9.4800000  -8.4450000  21.4320000
  11.4710000  -7.4240000  21.1610000  11.9260000  -6.5830000  20.8370000
  12.3340000  -8.5880000  21.3530000  11.8910000  -9.2370000  22.1080000
  12.4080000  -9.1370000  20.4150000  13.7480000  -8.1990000  21.7970000
  14.2910000  -7.1710000  21.3830000  14.3560000  -9.0260000  22.6500000
  13.8740000  -9.8700000  22.9260000  15.6310000  -8.7230000  23.3080000
  16.2290000  -8.1120000  22.6320000  15.3530000  -7.9050000  24.5810000
  14.6920000  -7.0770000  24.3260000  14.8440000  -8.5330000  25.3130000
  16.6200000  -7.3210000  25.2120000  17.2140000  -8.1230000  25.6500000
  17.2080000  -6.8450000  24.4270000  16.2880000  -6.0730000  26.4810000
  17.9680000  -5.4430000  26.7280000  18.3470000  -5.0320000  25.7920000
  17.9490000  -4.6550000  27.4810000  18.6190000  -6.2490000  27.0640000
  16.4330000  -9.9890000  23.6210000  15.8670000 -11.0210000  23.9850000
  17.7550000  -9.9000000  23.4950000  18.1410000  -9.0290000  23.1620000
  18.7100000 -10.9260000  23.8990000  18.1950000 -11.7050000  24.4610000
  19.3110000 -11.5570000  22.6380000  19.8560000 -10.8070000  22.0670000
  19.9870000 -12.3620000  22.9240000  18.5200000 -11.9760000  22.0160000
  19.7940000 -10.3190000  24.8050000  20.2670000  -9.2060000  24.5630000
  20.1920000 -11.0560000  25.8450000  19.7530000 -11.9530000  25.9910000
  21.2160000 -10.6460000  26.8190000  21.8140000  -9.8560000  26.3650000
  20.5960000 -10.0710000  28.1130000  19.9580000 -10.8260000  28.5720000
  21.6600000  -9.6620000  29.1440000  22.3490000  -8.9390000  28.7090000
  21.1790000  -9.2140000  30.0140000  22.2170000 -10.5340000  29.4890000
  19.7500000  -8.8260000  27.8190000  18.8900000  -9.0870000  27.2030000
  19.3770000  -8.3980000  28.7500000  20.3490000  -8.0800000  27.2960000
  22.1420000 -11.8210000  27.1340000  21.6770000 -12.9210000  27.4270000
  23.4540000 -11.5830000  27.0820000  23.7540000 -10.6510000  26.8360000
  24.4710000 -12.5170000  27.5630000  23.9910000 -13.4170000  27.9470000
  25.3870000 -12.9390000  26.4130000  25.8800000 -12.0700000  25.9780000
  26.1430000 -13.6300000  26.7860000  24.8030000 -13.4470000  25.6460000
  25.2750000 -11.8790000  28.6950000  25.9140000 -10.8460000  28.4920000
  25.2560000 -12.4950000  29.8770000  24.7130000 -13.3440000  29.9500000
  26.1940000 -12.1980000  30.9700000  26.5370000 -11.1670000  30.8830000
  25.5140000 -12.3420000  32.3420000  25.0070000 -13.3050000  32.4010000
  26.5130000 -12.2440000  33.5000000  27.0630000 -11.3040000  33.4530000
  25.9740000 -12.3010000  34.4460000  27.2120000 -13.0800000  33.4700000
  24.4830000 -11.2240000  32.5220000  23.6980000 -11.3120000  31.7710000
  24.0310000 -11.3020000  33.5110000  24.9640000 -10.2500000  32.4280000
  27.4130000 -13.1100000  30.8470000  27.2750000 -14.3290000  30.8810000
  28.6050000 -12.5350000  30.6930000  28.6390000 -11.5260000  30.7250000
  29.8860000 -13.2430000  30.7790000  29.7290000 -14.2940000  30.5390000
  30.9210000 -12.6910000  29.7690000  31.1010000 -11.6360000  29.9750000
  32.2540000 -13.4460000  29.9420000  32.1000000 -14.5170000  29.8090000
  32.9790000 -13.1060000  29.2030000  32.6800000 -13.2590000  30.9280000
  30.4960000 -12.8410000  28.2860000  31.3670000 -12.6520000  27.6570000
  30.1740000 -13.8640000  28.0970000  29.4030000 -11.8700000  27.8140000
  29.5960000 -10.8650000  28.1910000  29.3970000 -11.8390000  26.7240000
  28.4190000 -12.2070000  28.1410000  30.3650000 -13.1490000  32.2340000
  30.6860000 -12.0590000  32.7010000  30.3970000 -14.2680000  32.9560000
  30.1310000 -15.1320000  32.5050000  30.7440000 -14.3350000  34.3810000
  31.0960000 -13.3620000  34.7250000  29.4830000 -14.6870000  35.1830000
  28.7410000 -13.9040000  35.0300000  29.0600000 -15.6140000  34.7970000
  29.7170000 -14.8400000  36.6730000  29.7030000 -13.7000000  37.4980000
  29.5190000 -12.7270000  37.0670000  29.9270000 -13.8270000  38.8820000
  29.9220000 -12.9510000  39.5130000  30.1580000 -15.1010000  39.4450000
  30.3830000 -15.2260000  40.7800000  30.2910000 -14.3860000  41.2350000
  30.1670000 -16.2430000  38.6170000  30.3450000 -17.2150000  39.0530000
  29.9510000 -16.1130000  37.2310000  29.9620000 -16.9890000  36.6000000
  31.8660000 -15.3570000  34.6070000  31.7590000 -16.5070000  34.1780000
  32.9780000 -14.9140000  35.2070000  33.0040000 -13.9480000  35.5000000
  34.2350000 -15.6760000  35.3330000  35.0160000 -14.9830000  35.6460000
  34.1110000 -16.7490000  36.4350000  33.3370000 -17.4670000  36.1630000
  35.0610000 -17.2780000  36.5090000  33.7860000 -16.1540000  37.8170000
  34.5500000 -15.4230000  38.0780000  32.8270000 -15.6380000  37.7760000
  33.7210000 -17.2010000  38.9330000  33.9780000 -18.3870000  38.7610000
  33.3790000 -16.8010000  40.1410000  33.3280000 -17.4890000  40.8790000
  33.1250000 -15.8380000  40.3070000  34.6910000 -16.2490000  33.9700000
  35.1160000 -17.4010000  33.8540000  34.5680000 -15.4320000  32.9150000
  34.2840000 -14.4800000  33.1010000  34.9380000 -15.7800000  31.5360000
  35.0420000 -14.8590000  30.9620000  35.9100000 -16.2730000  31.5430000
  33.9540000 -16.6930000  30.7810000  34.2280000 -17.0250000  29.6260000
  32.8110000 -17.0770000  31.3750000  32.6490000 -16.7720000  32.3240000
  31.8250000 -18.0230000  30.8000000  32.2260000 -18.4370000  29.8750000
  31.5970000 -19.1950000  31.7730000  31.2650000 -18.8100000  32.7370000
  30.8090000 -19.8320000  31.3720000  32.8570000 -20.0510000  31.9740000
  33.2010000 -20.4060000  31.0030000  33.6410000 -19.4460000  32.4300000
  32.5580000 -21.2500000  32.8870000  32.1650000 -20.8760000  33.8330000
  31.7950000 -21.8810000  32.4300000  33.8080000 -22.0890000  33.1910000
  34.5850000 -21.4330000  33.5840000  33.5540000 -22.8030000  33.9750000
  34.3100000 -22.8270000  31.9970000  34.5990000 -22.1980000  31.2620000
  35.1090000 -23.3950000  32.2380000  33.6030000 -23.4450000  31.6240000
  30.4800000 -17.3320000  30.5030000  29.9970000 -16.5970000  31.3650000
  29.8750000 -17.5130000  29.3130000  30.3970000 -18.2600000  28.1740000
  30.5230000 -19.3150000  28.4190000  31.3490000 -17.8250000  27.8690000
  29.3860000 -18.0960000  27.0390000  28.6810000 -18.9270000  27.0480000
  29.8780000 -18.0250000  26.0690000  28.6680000 -16.7990000  27.4050000
  27.6680000 -16.7440000  26.9720000  29.2700000 -15.9500000  27.0810000
  28.6310000 -16.8440000  28.9330000  28.6250000 -15.8210000  29.3080000
  27.3700000 -17.5720000  29.4440000  27.2840000 -18.8040000  29.4250000
  26.3670000 -16.7840000  29.8400000  26.5650000 -15.7960000  29.9190000
  25.0350000 -17.2130000  30.2820000  24.8930000 -18.2690000  30.0530000
  24.9210000 -17.0320000  31.8050000  25.0680000 -15.9810000  32.0530000
  23.9120000 -17.3010000  32.1160000  25.9130000 -17.8670000  32.5980000
  27.1750000 -17.3390000  32.9390000  27.4330000 -16.3300000  32.6510000
  28.1150000 -18.1310000  33.6260000  29.0890000 -17.7300000  33.8620000
  27.7910000 -19.4580000  33.9820000  28.6930000 -20.2300000  34.6460000
  29.4920000 -19.7400000  34.8560000  26.5290000 -19.9880000  33.6380000
  26.2950000 -21.0100000  33.8970000  25.5910000 -19.1940000  32.9490000
  24.6320000 -19.6080000  32.6750000  23.9700000 -16.3980000  29.5310000
  23.9570000 -15.1670000  29.6120000  23.1170000 -17.0810000  28.7600000
  23.1670000 -18.0890000  28.7770000  22.2230000 -16.4810000  27.7560000
  22.5600000 -15.4660000  27.5450000  22.3010000 -17.2820000  26.4470000
  21.9330000 -18.2920000  26.6290000  21.6340000 -16.8210000  25.7190000
  23.6850000 -17.3630000  25.8330000  24.2130000 -16.2450000  25.1600000
  23.6240000 -15.3430000  25.0780000  25.5030000 -16.3030000  24.5970000
  25.9020000 -15.4340000  24.0960000  26.2590000 -17.4960000  24.6860000
  27.5010000 -17.5810000  24.1370000  27.8100000 -16.7480000  23.7730000
  25.7210000 -18.6150000  25.3540000  26.3010000 -19.5240000  25.4200000
  24.4380000 -18.5490000  25.9300000  24.0330000 -19.4110000  26.4390000
  20.7550000 -16.4110000  28.2060000  20.2210000 -17.3600000  28.7890000
  20.0930000 -15.3020000  27.8620000  20.6180000 -14.5550000  27.4310000
  18.6940000 -15.0000000  28.1890000  18.1510000 -15.9260000  28.3760000
  18.6610000 -14.1360000  29.4640000  19.0920000 -13.1610000  29.2350000
  17.6190000 -13.9750000  29.7420000  19.4000000 -14.7130000  30.6620000
  20.7540000 -14.3890000  30.8870000  21.2720000 -13.7260000  30.2100000
  21.4430000 -14.9450000  31.9810000  22.4830000 -14.7020000  32.1420000
  20.7800000 -15.8240000  32.8570000  21.3080000 -16.2620000  33.6900000
  19.4280000 -16.1440000  32.6380000  18.9190000 -16.8250000  33.3040000
  18.7400000 -15.5910000  31.5420000  17.7060000 -15.8510000  31.3700000
  18.0230000 -14.2600000  27.0140000  18.6410000 -13.3830000  26.4070000
  16.7740000 -14.5980000  26.6710000  16.3010000 -15.3230000  27.1920000
  16.0110000 -13.9230000  25.5970000  16.4550000 -12.9400000  25.4410000
  16.0760000 -14.6590000  24.2420000  15.6300000 -13.9990000  23.4970000
  17.4910000 -15.0010000  23.7740000  17.9530000 -15.7210000  24.4500000
  17.4520000 -15.4320000  22.7730000  18.0970000 -14.0960000  23.7420000
  15.3300000 -15.8570000  24.2430000  15.0430000 -16.0090000  23.3390000
  14.5410000 -13.6760000  25.9620000  13.9690000 -14.3430000  26.8310000
  13.9270000 -12.7120000  25.2650000  14.4800000 -12.1980000  24.5950000
  12.5470000 -12.2450000  25.4460000  11.9410000 -13.0330000  25.8930000
  12.5120000 -11.0020000  26.3550000  13.0870000 -10.2180000  25.8610000
  11.4810000 -10.6530000  26.4090000  13.0300000 -11.1110000  27.7610000
  12.2680000 -11.1320000  28.8800000  11.1890000 -11.0930000  28.8940000
  13.0790000 -11.1570000  30.0010000  12.7210000 -11.0770000  30.9420000
  14.4140000 -11.2020000  29.6550000  15.6000000 -11.2670000  30.4020000
  15.5650000 -11.3330000  31.4800000  16.8330000 -11.2440000  29.7270000
  17.7590000 -11.2930000  30.2790000  16.8650000 -11.1410000  28.3250000
  17.8130000 -11.1230000  27.8080000  15.6710000 -11.0610000  27.5900000
  15.7110000 -10.9530000  26.5160000  14.4140000 -11.1240000  28.2290000
  11.9340000 -11.8440000  24.0940000  12.6290000 -11.2950000  23.2360000
  10.6240000 -12.0440000  23.9340000  10.1210000 -12.5160000  24.6710000
   9.8330000 -11.4800000  22.8330000   8.7870000 -11.7490000  22.9790000
   9.9060000 -10.3940000  22.8900000  10.2340000 -11.9340000  21.4220000
  10.6960000 -13.0590000  21.2230000   9.9940000 -11.0700000  20.4290000
   9.6720000 -10.1480000  20.6880000   9.9100000 -11.4230000  19.0060000
  10.0610000 -12.4970000  18.8990000   8.4940000 -11.1180000  18.4930000
   8.2570000 -10.0710000  18.6830000   8.4720000 -11.2660000  17.4140000
   7.4240000 -11.9980000  19.1110000   6.7130000 -11.5720000  20.2500000
   6.9130000 -10.6030000  20.6830000   5.7430000 -12.4140000  20.8300000
   5.2000000 -12.0900000  21.7040000   5.4830000 -13.6850000  20.2670000
   4.5490000 -14.5030000  20.8220000   4.1420000 -14.1040000  21.5940000
   6.1960000 -14.1080000  19.1250000   5.9970000 -15.0820000  18.7040000
   7.1640000 -13.2630000  18.5510000   7.7150000 -13.5840000  17.6790000
  10.9480000 -10.7160000  18.1200000  11.0510000  -9.4870000  18.0970000
  11.6740000 -11.5190000  17.3370000  11.4800000 -12.5090000  17.3930000
  12.4990000 -11.0890000  16.2070000  13.1620000 -10.2880000  16.5330000
  13.3470000 -12.2970000  15.7840000  12.7020000 -13.1180000  15.4690000
  13.9960000 -12.0270000  14.9500000  13.9640000 -12.6310000  16.6190000
  11.6500000 -10.5620000  15.0280000  12.0730000  -9.6580000  14.3090000
  10.4390000 -11.1030000  14.8490000  10.1770000 -11.8720000  15.4490000
   9.4380000 -10.6480000  13.8760000   9.5800000  -9.5850000  13.6780000
   9.6260000 -11.4030000  12.5480000  10.6430000 -11.2270000  12.1980000
   9.5200000 -12.4720000  12.7320000   8.6410000 -11.0220000  11.4240000
   7.5310000 -10.5100000  11.6980000   8.9910000 -11.2660000  10.2460000
   8.0390000 -10.8460000  14.4780000   7.6130000 -11.9790000  14.7170000
   7.3500000  -9.7360000  14.7620000   7.7730000  -8.8500000  14.5240000
   6.0180000  -9.7170000  15.3840000   6.0530000 -10.3170000  16.2930000
   5.6120000  -8.2720000  15.7760000   5.5330000  -7.6890000  14.8580000
   4.2310000  -8.2690000  16.4580000   4.2650000  -8.8600000  17.3730000
   3.9290000  -7.2510000  16.7050000   3.4680000  -8.6780000  15.7960000
   6.6550000  -7.5780000  16.6860000   6.6630000  -8.0470000  17.6700000
   7.6520000  -7.6870000  16.2580000   6.3980000  -6.0710000  16.8370000
   5.5730000  -5.8940000  17.5270000   7.2920000  -5.5810000  17.2230000
   6.1620000  -5.6310000  15.8680000   4.9730000 -10.3500000  14.4490000
   4.2550000 -11.2700000  14.8430000   4.8910000  -9.8630000  13.2050000
   5.5730000  -9.1740000  12.9220000   3.9030000 -10.2790000  12.2060000
   2.9100000 -10.0900000  12.6120000   4.0750000  -9.4050000  10.9580000
   5.0630000  -9.5600000  10.5230000   3.3170000  -9.6680000  10.2210000
   3.9580000  -8.3540000  11.2220000   3.9810000 -11.7780000  11.8610000
   2.9430000 -12.4410000  11.7640000   5.1990000 -12.3250000  11.7190000
   5.9930000 -11.7020000  11.7580000   5.4380000 -13.7640000  11.4740000
   4.5630000 -14.1870000  10.9810000   6.6250000 -13.9520000  10.5090000
   7.5270000 -13.5250000  10.9480000   6.7930000 -15.0190000  10.3620000
   6.3610000 -13.3180000   9.1340000   5.4060000 -13.6770000   8.7520000
   6.3140000 -12.2330000   9.2330000   7.4650000 -13.6870000   8.1340000
   8.4290000 -13.3520000   8.5160000   7.4880000 -14.7700000   8.0080000
   7.1890000 -13.0190000   6.7810000   6.2050000 -13.3320000   6.4310000
   7.1660000 -11.9390000   6.9230000   8.2230000 -13.3770000   5.7720000
   8.2490000 -14.3740000   5.6110000   8.0310000 -12.9310000   4.8860000
   9.1430000 -13.0840000   6.0690000   5.6100000 -14.5920000  12.7580000
   5.8700000 -15.7930000  12.6720000   5.4800000 -13.9720000  13.9390000
   5.2920000 -12.9800000  13.9100000   5.4760000 -14.6100000  15.2750000
   5.4500000 -13.8170000  16.0220000   4.1950000 -15.4550000  15.4610000
   4.1990000 -16.2830000  14.7520000   4.1940000 -15.8710000  16.4680000
   2.9010000 -14.6430000  15.2800000   2.8850000 -13.8280000  16.0040000
   2.8630000 -14.2270000  14.2740000   1.6700000 -15.5340000  15.4890000
   1.6950000 -16.3540000  14.7720000   1.6880000 -15.9430000  16.4990000
   0.3890000 -14.7180000  15.2870000   0.3810000 -13.8950000  16.0020000
   0.4000000 -14.2910000  14.2840000  -0.8260000 -15.5580000  15.4660000
  -0.8650000 -15.9550000  16.3940000  -1.6660000 -15.0130000  15.3330000
  -0.8490000 -16.3180000  14.8010000   6.7650000 -15.4040000  15.5590000
   6.7270000 -16.4970000  16.1240000   7.9160000 -14.8500000  15.1640000
   7.8720000 -13.9110000  14.7950000   9.2360000 -15.4800000  15.3180000
   9.1080000 -16.5620000  15.3290000  10.1320000 -15.1480000  14.1110000
  10.3120000 -14.0730000  14.0820000  11.0970000 -15.6370000  14.2450000
   9.5380000 -15.5890000  12.7620000   8.5950000 -15.0710000  12.5870000
  10.2210000 -15.2950000  11.9650000   9.3280000 -17.1020000  12.6750000
  10.2590000 -17.8930000  12.7630000   8.1090000 -17.5730000  12.5050000
   7.9850000 -18.5740000  12.4530000   7.3150000 -16.9500000  12.4750000
   9.8980000 -15.0300000  16.6340000  10.2130000 -13.8420000  16.7590000
  10.0930000 -15.9130000  17.6330000   9.7790000 -17.3380000  17.6190000
  10.1870000 -17.8300000  16.7370000   8.6980000 -17.4740000  17.6640000
  10.4190000 -17.9250000  18.8760000  11.4440000 -18.2260000  18.6620000
   9.8440000 -18.7650000  19.2660000  10.4180000 -16.7410000  19.8400000
  11.1740000 -16.8500000  20.6180000   9.4290000 -16.6370000  20.2850000
  10.6910000 -15.5490000  18.9190000  10.1850000 -14.6710000  19.3220000
  12.1970000 -15.2570000  18.8000000  12.8780000 -15.7740000  17.9110000
  12.7340000 -14.4420000  19.7130000  12.1250000 -14.0430000  20.4120000
  14.1870000 -14.2210000  19.8380000  14.5970000 -14.0510000  18.8420000
  14.5060000 -12.9760000  20.6840000  14.0580000 -13.0830000  21.6720000
  16.0160000 -12.7760000  20.8520000  16.4900000 -12.6370000  19.8810000
  16.1910000 -11.9000000  21.4770000  16.4780000 -13.6300000  21.3500000
  13.9580000 -11.7090000  20.0190000  12.8690000 -11.7380000  20.0090000
  14.2730000 -10.8320000  20.5840000  14.3300000 -11.6220000  18.9980000
  14.8730000 -15.4580000  20.4280000  14.5260000 -15.9150000  21.5210000
  15.8950000 -15.9590000  19.7350000  16.1380000 -15.5150000  18.8610000
  16.7080000 -17.1260000  20.1180000  16.3610000 -17.5230000  21.0730000
  16.5960000 -18.2510000  19.0640000  17.0200000 -19.1620000  19.4850000
  15.1630000 -18.5530000  18.6300000  14.7620000 -17.7270000  18.0420000
  15.1490000 -19.4580000  18.0230000  14.5360000 -18.7100000  19.5070000
  17.3320000 -17.9120000  17.9090000  17.0900000 -18.5390000  17.2230000
  18.1790000 -16.7250000  20.2770000  18.5770000 -15.6020000  19.9590000
  19.0220000 -17.6620000  20.7200000  18.6540000 -18.5610000  20.9970000
  20.4780000 -17.4700000  20.7590000  20.6910000 -16.5740000  21.3430000
  21.1200000 -18.6680000  21.4730000  20.6580000 -19.5920000  21.1270000
  22.1800000 -18.7030000  21.2210000  20.9980000 -18.5610000  23.0010000
  21.6440000 -17.7540000  23.3450000  19.9690000 -18.3130000  23.2620000
  21.3840000 -19.8420000  23.7470000  20.7510000 -20.2230000  24.7240000
  22.3940000 -20.5830000  23.3340000  22.6120000 -21.4170000  23.8590000
  22.9570000 -20.3250000  22.5360000  21.0970000 -17.2440000  19.3600000
  22.1720000 -16.6540000  19.2490000  20.4140000 -17.6720000  18.2900000
  19.5320000 -18.1410000  18.4430000  20.8650000 -17.5390000  16.8980000
  21.9410000 -17.3640000  16.8860000  20.6080000 -18.8640000  16.1520000
  19.5410000 -19.0860000  16.1430000  20.9230000 -18.7350000  15.1160000
  21.3960000 -20.0610000  16.7220000  21.3960000 -20.8580000  15.9780000
  22.4330000 -19.7610000  16.8760000  20.8350000 -20.6500000  18.0190000
  19.6400000 -20.6450000  18.2910000  21.6750000 -21.1810000  18.8800000
  21.3060000 -21.5990000  19.7220000  22.6710000 -21.1360000  18.7180000
  20.2240000 -16.3520000  16.1460000  20.6040000 -16.0900000  15.0050000
  19.3060000 -15.5910000  16.7600000  18.9820000 -15.8610000  17.6780000
  18.7780000 -14.3380000  16.1840000  18.3160000 -14.5640000  15.2230000
  17.7070000 -13.7320000  17.1080000  18.1450000 -13.5480000  18.0890000
  17.1040000 -12.4300000  16.5890000  16.7250000 -12.5680000  15.5760000
  16.2910000 -12.1180000  17.2450000  17.8540000 -11.6390000  16.5920000
  16.6280000 -14.6280000  17.2570000  16.2330000 -14.7840000  16.3960000
  19.8960000 -13.3100000  15.9530000  20.7220000 -13.0810000  16.8370000
  19.8880000 -12.6500000  14.7910000  19.1620000 -12.8800000  14.1270000
  20.7750000 -11.5410000  14.4300000  21.7250000 -11.6610000  14.9510000
  21.0350000 -11.5300000  12.9110000  20.0750000 -11.3860000  12.4150000
  21.6520000 -10.6660000  12.6650000  21.6950000 -12.7860000  12.3230000
  21.1880000 -13.6820000  12.6800000  21.6050000 -12.7490000  10.7990000
  22.0620000 -11.8370000  10.4130000  22.1220000 -13.6130000  10.3820000
  20.5610000 -12.7880000  10.4870000  23.1680000 -12.8490000  12.7090000
  23.2700000 -12.8390000  13.7940000  23.6010000 -13.7730000  12.3270000
  23.7100000 -12.0000000  12.2930000  20.1650000 -10.1900000  14.8250000
  18.9780000  -9.9500000  14.5920000  21.0060000  -9.2900000  15.3330000
  21.9550000  -9.5820000  15.5200000  20.6730000  -7.8930000  15.6250000
  19.6690000  -7.6710000  15.2660000  20.7180000  -7.6540000  17.1420000
  21.7180000  -7.8960000  17.5020000  20.5680000  -6.5900000  17.3250000
  19.7020000  -8.4310000  17.9640000  19.9410000  -9.7760000  18.3140000
  20.8330000 -10.2770000  17.9680000  19.0260000 -10.4680000  19.1270000
  19.2140000 -11.4970000  19.3960000  17.8740000  -9.8150000  19.5980000
  17.1720000 -10.3360000  20.2340000  17.6310000  -8.4760000  19.2580000
  16.7470000  -7.9790000  19.6280000  18.5480000  -7.7840000  18.4490000
  18.3690000  -6.7440000  18.2190000  21.6560000  -6.9550000  14.9120000
  22.8590000  -7.2270000  14.8640000  21.1570000  -5.8550000  14.3410000
  20.1650000  -5.6780000  14.4090000  22.0070000  -4.7710000  13.8250000
  22.7470000  -5.2000000  13.1490000  21.1780000  -3.7480000  13.0290000
  20.4820000  -3.2510000  13.7050000  21.8600000  -3.0020000  12.6210000
  20.3980000  -4.3870000  11.8700000  21.1120000  -4.8670000  11.2000000
  19.7390000  -5.1600000  12.2640000  19.5450000  -3.3940000  11.0580000
  19.3690000  -2.2200000  11.4610000  19.0560000  -3.8030000   9.9800000
  22.7540000  -4.0870000  14.9840000  22.1410000  -3.6570000  15.9640000
  24.0850000  -3.9860000  14.8850000  24.5430000  -4.3480000  14.0610000
  24.9290000  -3.5090000  15.9880000  24.4790000  -3.8080000  16.9350000
  26.3200000  -4.1620000  15.8880000  26.7760000  -3.8760000  14.9400000
  26.9430000  -3.7460000  16.6790000  26.3610000  -5.6960000  16.0130000
  25.9700000  -6.1530000  15.1040000  27.8200000  -6.1020000  16.1920000
  28.1690000  -5.8130000  17.1830000  27.9230000  -7.1810000  16.0740000
  28.4500000  -5.6110000  15.4490000  25.5820000  -6.2280000  17.2180000
  24.5130000  -6.0880000  17.0610000  25.7640000  -7.2950000  17.3380000
  25.8910000  -5.7110000  18.1270000  25.0760000  -1.9870000  16.0660000
  25.4870000  -1.4850000  17.1150000  24.7740000  -1.2430000  14.9970000
  24.4610000  -1.7070000  14.1560000  25.0400000   0.1980000  14.9390000
  24.8370000   0.5710000  13.9350000  24.3790000   0.6980000  15.6460000
  26.4930000   0.5110000  15.2980000  27.3980000  -0.2310000  14.9150000
  26.7430000   1.5510000  16.0970000  25.9930000   2.2010000  16.2870000
  28.1010000   1.9220000  16.5410000  28.6890000   2.1300000  15.6460000
  28.0780000   3.2000000  17.3710000  27.4010000   3.1000000  18.2190000
  29.0800000   3.3930000  17.7550000  27.6680000   4.2810000  16.5590000
  26.7130000   4.2210000  16.4830000  28.8910000   0.8750000  17.3310000
  30.0980000   1.0480000  17.4490000  28.3160000  -0.2410000  17.7950000
  27.3250000  -0.3830000  17.6640000  29.1410000  -1.3550000  18.3270000
  29.8410000  -0.9330000  19.0490000  28.2950000  -2.3810000  19.1130000
  27.4430000  -2.6900000  18.5080000  29.0760000  -3.6350000  19.5230000
  29.9480000  -3.3610000  20.1180000  28.4320000  -4.2870000  20.1130000
  29.4010000  -4.1880000  18.6420000  27.7580000  -1.7430000  20.4010000
  27.1760000  -0.8510000  20.1690000  27.1070000  -2.4460000  20.9210000
  28.5820000  -1.4680000  21.0600000  30.0310000  -1.9630000  17.2260000
  31.1360000  -2.4150000  17.5180000  29.6520000  -1.8130000  15.9470000
  28.7310000  -1.4360000  15.7750000  30.5170000  -2.0530000  14.7690000
  30.6690000  -3.1260000  14.6530000  29.8640000  -1.5260000  13.4830000
  29.8070000  -0.4380000  13.5160000  30.4800000  -1.8110000  12.6300000
  28.5610000  -2.0510000  13.3110000  27.9420000  -1.5090000  13.8040000
  31.8870000  -1.3710000  14.8710000  32.8950000  -1.9360000  14.4550000
  31.9480000  -0.1710000  15.4730000  31.0970000   0.2130000  15.8590000
  33.1860000   0.6170000  15.6190000  33.6130000   0.7820000  14.6300000
  32.8790000   1.9910000  16.2470000  32.4180000   1.8530000  17.2250000
  33.8190000   2.5190000  16.4060000  31.9750000   2.8630000  15.3550000
  32.4820000   3.0440000  14.4070000  31.0400000   2.3390000  15.1560000
  31.6620000   4.2020000  16.0440000  31.0350000   4.0250000  16.9180000
  32.5990000   4.6260000  16.4050000  31.0130000   5.2620000  15.1340000
  30.9380000   6.1910000  15.6990000  31.6690000   5.4500000  14.2850000
  29.6570000   4.8670000  14.6480000  29.0040000   4.7150000  15.4030000
  29.2480000   5.6130000  14.1030000  29.6800000   4.0420000  14.0660000
  34.2510000  -0.1260000  16.4290000  35.4340000   0.0480000  16.1630000
  33.8470000  -0.9760000  17.3770000  32.8520000  -1.0890000  17.5070000
  34.7630000  -1.8590000  18.1280000  35.5130000  -1.2310000  18.6100000
  34.0530000  -2.6360000  19.2550000  34.8210000  -3.1210000  19.8570000
  33.2230000  -1.7240000  20.1580000  32.4420000  -1.2150000  19.5930000
  32.7450000  -2.3240000  20.9330000  33.8690000  -0.9850000  20.6320000
  33.1860000  -3.6410000  18.7750000  32.3850000  -3.2340000  18.4370000
  35.5270000  -2.7930000  17.1810000  36.7560000  -2.7760000  17.1610000
  34.8150000  -3.5330000  16.3240000  33.8100000  -3.5350000  16.4240000
  35.3970000  -4.3650000  15.2670000  36.0200000  -5.1300000  15.7300000
  34.2870000  -5.0780000  14.4780000  33.6430000  -4.3410000  13.9990000
  34.7580000  -5.6490000  13.6790000  33.4270000  -6.0360000  15.2850000
  33.7990000  -7.3900000  15.3880000  34.7000000  -7.7430000  14.9090000
  33.0010000  -8.2910000  16.1140000  33.2980000  -9.3260000  16.2010000
  31.8330000  -7.8400000  16.7500000  31.2340000  -8.5280000  17.3280000
  31.4590000  -6.4890000  16.6520000  30.5670000  -6.1420000  17.1520000
  32.2500000  -5.5890000  15.9170000  31.9530000  -4.5530000  15.8480000
  36.3020000  -3.5480000  14.3330000  37.4440000  -3.9410000  14.1000000
  35.8410000  -2.3880000  13.8450000  34.8700000  -2.1570000  14.0050000
  36.6420000  -1.4590000  13.0150000  36.8910000  -1.9660000  12.0830000
  35.8410000  -0.1950000  12.6520000  35.6150000   0.3700000  13.5560000
  36.5740000   0.7230000  11.6710000  36.8270000   0.1720000  10.7650000
  35.9410000   1.5710000  11.4110000  37.4880000   1.1090000  12.1230000
  34.6350000  -0.5840000  12.0430000  34.2010000   0.1980000  11.6950000
  37.9690000  -1.0750000  13.6780000  39.0310000  -1.2290000  13.0760000
  37.9240000  -0.6000000  14.9280000  37.0230000  -0.4980000  15.3710000
  39.1070000  -0.2530000  15.7200000  39.6480000   0.5580000  15.2310000
  38.7750000   0.0970000  16.6980000  40.0690000  -1.4220000  15.9390000
  41.2800000  -1.2450000  15.8280000  39.5460000  -2.6270000  16.1850000
  38.5460000  -2.7000000  16.3020000  40.3500000  -3.8560000  16.3050000
  41.1790000  -3.6610000  16.9850000  39.5120000  -4.9930000  16.9170000
  38.5560000  -5.0510000  16.3960000  40.2080000  -6.3560000  16.8080000
  41.2380000  -6.2730000  17.1550000  39.6860000  -7.1020000  17.4070000
  40.2050000  -6.6980000  15.7730000  39.2510000  -4.7120000  18.4030000
  38.7270000  -3.7640000  18.5270000  38.6350000  -5.5000000  18.8350000
  40.1970000  -4.6640000  18.9430000  40.9890000  -4.2730000  14.9740000
  42.1660000  -4.6250000  14.9690000  40.2730000  -4.1990000  13.8440000
  39.2960000  -3.9510000  13.9100000  40.8450000  -4.4390000  12.5100000
  41.3070000  -5.4260000  12.5270000  39.7120000  -4.4650000  11.4620000
  39.0030000  -5.2470000  11.7340000  39.1840000  -3.5120000  11.4960000
  40.1810000  -4.7060000  10.0120000  40.8700000  -3.9170000   9.7120000
  40.8630000  -6.0630000   9.8260000  40.1800000  -6.8640000  10.1110000
  41.1460000  -6.1910000   8.7820000  41.7680000  -6.1200000  10.4310000
  38.9800000  -4.6720000   9.0710000  38.4690000  -3.7130000   9.1620000
  39.3100000  -4.7910000   8.0390000  38.2860000  -5.4750000   9.3190000
  41.9570000  -3.4280000  12.1640000  43.0040000  -3.8170000  11.6480000
  41.7720000  -2.1480000  12.5120000  40.8660000  -1.8740000  12.8640000
  42.8440000  -1.1450000  12.5030000  43.1930000  -0.9920000  11.4810000
  42.4540000  -0.1990000  12.8780000  44.0380000  -1.5600000  13.3700000
  45.1670000  -1.5890000  12.8910000  43.7860000  -1.9630000  14.6200000
  42.8430000  -1.8580000  14.9660000  44.7710000  -2.5640000  15.5290000
  45.4780000  -1.8100000  15.8750000  44.2400000  -2.9400000  16.4040000
  45.5660000  -3.7220000  14.9130000  46.7890000  -3.7600000  15.0140000
  44.8870000  -4.6670000  14.2660000  43.8790000  -4.6090000  14.2650000
  45.5110000  -5.7810000  13.5480000  46.1530000  -6.3230000  14.2420000
  44.4120000  -6.7420000  13.0860000  43.9010000  -7.1430000  13.9620000
  43.6800000  -6.1950000  12.4910000  44.9780000  -7.8960000  12.2590000
  45.6700000  -8.7750000  12.8140000  44.7490000  -7.9310000  11.0310000
  46.4090000  -5.3050000  12.3890000  47.5540000  -5.7420000  12.2810000
  45.9420000  -4.3650000  11.5590000  44.9950000  -4.0380000  11.6850000
  46.7540000  -3.7470000  10.5060000  47.1080000  -4.5350000   9.8420000
  45.8610000  -2.8110000   9.6810000  45.4850000  -1.9990000  10.3030000
  46.4340000  -2.3910000   8.8540000  45.0180000  -3.3690000   9.2740000
  48.0040000  -3.0280000  11.0600000  49.1010000  -3.1850000  10.5170000
  47.8610000  -2.2790000  12.1610000  46.9280000  -2.1640000  12.5280000
  48.9820000  -1.6900000  12.9180000  49.5190000  -1.0150000  12.2520000
  48.4850000  -0.8610000  14.1260000  47.8520000  -1.5030000  14.7390000
  49.6550000  -0.3730000  15.0020000  50.3660000   0.1910000  14.3980000
  49.2910000   0.2660000  15.8060000  50.1680000  -1.2180000  15.4630000
  47.6510000   0.3580000  13.6790000  48.3090000   1.1780000  13.3880000
  47.0520000   0.0920000  12.8080000  46.6690000   0.8410000  14.7490000
  47.2020000   1.1830000  15.6370000  46.0710000   1.6550000  14.3400000
  45.9890000   0.0370000  15.0280000  49.9820000  -2.7760000  13.3430000
  51.1800000  -2.6550000  13.0880000  49.4960000  -3.8570000  13.9610000
  48.5060000  -3.8910000  14.1590000  50.3210000  -4.9720000  14.4290000
  51.0890000  -4.5680000  15.0890000  49.4350000  -5.9000000  15.2600000
  48.6390000  -6.3140000  14.6410000  50.0460000  -6.7080000  15.6630000
  48.9870000  -5.3470000  16.0850000  51.0530000  -5.7270000  13.2950000
  52.1840000  -6.1790000  13.4910000  50.4540000  -5.8170000  12.0950000
  49.4960000  -5.5050000  12.0320000  51.1160000  -6.3120000  10.8630000
  51.6230000  -7.2530000  11.0780000  50.0710000  -6.5590000   9.7590000
  49.4710000  -5.6590000   9.6250000  50.5840000  -6.7680000   8.8200000
  49.1540000  -7.7480000  10.0620000  49.7400000  -8.6680000  10.0740000
  48.6960000  -7.6150000  11.0420000  48.0500000  -7.8710000   9.0070000
  47.6620000  -6.8780000   8.7820000  48.4560000  -8.2920000   8.0870000
  46.9390000  -8.6850000   9.5260000  46.2020000  -8.1900000  10.0080000
  46.8170000  -9.9940000   9.5810000  47.6540000 -10.8160000   9.0150000
  48.4560000 -10.4510000   8.5200000  47.5250000 -11.8150000   9.0870000
  45.8080000 -10.4730000  10.2410000  45.2670000  -9.8070000  10.7730000
  45.6770000 -11.4690000  10.3510000  52.1970000  -5.3610000  10.3230000
  53.0210000  -5.7770000   9.5080000  52.1810000  -4.0930000  10.7400000
  51.5000000  -3.8320000  11.4380000  53.0260000  -3.0260000  10.1940000
  53.0720000  -2.2110000  10.9170000  54.0400000  -3.4000000  10.0480000
  52.5220000  -2.4490000   8.8630000  53.2560000  -1.7200000   8.1950000
  51.2850000  -2.7700000   8.4600000  50.7100000  -3.3150000   9.0860000
  50.6530000  -2.2340000   7.2430000  51.3230000  -2.3810000   6.3960000
  49.3420000  -2.9830000   6.9570000  48.7340000  -3.0020000   7.8620000
  48.7880000  -2.4420000   6.1900000  49.5920000  -4.4140000   6.4620000
  50.2110000  -4.3670000   5.5660000  50.1420000  -4.9640000   7.2260000
  48.2940000  -5.1750000   6.1360000  47.1880000  -4.7510000   6.5400000
  48.3600000  -6.2510000   5.4980000  50.3750000  -0.7250000   7.3390000
  50.5100000  -0.0100000   6.3440000  50.0160000  -0.2490000   8.5390000
  49.9780000  -0.9060000   9.3060000  49.7220000   1.1610000   8.8450000
  50.1730000   1.7750000   8.0650000  48.1940000   1.4370000   8.8450000
  48.0670000   2.5120000   8.9670000  47.5480000   1.0720000   7.5010000
  47.4530000  -0.0090000   7.3980000  46.5610000   1.5300000   7.4230000
  48.1580000   1.4600000   6.6850000  47.4760000   0.7510000  10.0300000
  47.5680000  -0.3310000   9.9350000  47.9610000   1.0550000  10.9570000
  45.9930000   1.1100000  10.1670000  45.4370000   0.7090000   9.3200000
  45.5900000   0.6690000  11.0790000  45.8720000   2.1920000  10.2160000
  50.3580000   1.6010000  10.1740000  50.7450000   0.7690000  10.9980000
  50.3930000   2.9190000  10.4100000  50.1030000   3.5330000   9.6620000
  50.7240000   3.5470000  11.7040000  50.6610000   2.8050000  12.5000000
  52.1520000   4.1240000  11.6740000  52.2150000   4.8440000  10.8580000
  52.3330000   4.6470000  12.6130000  53.2460000   3.0580000  11.4990000
  53.1290000   2.3020000  12.2750000  53.1240000   2.5730000  10.5300000
  54.6760000   3.6220000  11.5840000  54.8640000   4.0270000  12.5780000
  55.3640000   2.7900000  11.4340000  54.9680000   4.6770000  10.5040000
  56.0000000   4.5630000  10.1690000  54.3260000   4.4740000   9.6470000
  54.7570000   6.0760000  10.9810000  55.6020000   6.4650000  11.3750000
  54.4580000   6.6560000  10.2110000  54.0260000   6.1420000  11.6740000
  49.7270000   4.6690000  12.0080000  49.4180000   5.4700000  11.1300000
  49.2640000   4.7660000  13.2560000  49.5770000   4.0840000  13.9320000
  48.3150000   5.8060000  13.6960000  47.4230000   5.7460000  13.0720000
  47.9060000   5.5420000  15.1580000  48.8100000   5.4420000  15.7590000
  47.3550000   6.4010000  15.5410000  47.0200000   4.3030000  15.3600000
  47.4910000   3.4530000  14.8660000  46.8980000   3.9930000  16.8500000
  46.4250000   4.8280000  17.3680000  46.2920000   3.0980000  16.9900000
  47.8870000   3.8160000  17.2730000  45.6080000   4.4960000  14.8020000
  45.6380000   4.6410000  13.7220000  45.0010000   3.6150000  15.0100000
  45.1330000   5.3570000  15.2720000  48.8640000   7.2360000  13.5230000
  48.1020000   8.1630000  13.2550000  50.1840000   7.4100000  13.6410000
  50.7530000   6.6120000  13.8810000  50.8760000   8.6990000  13.4850000
  50.3200000   9.4620000  14.0300000  52.2640000   8.5920000  14.1280000
  52.7890000   9.5410000  14.0200000  52.1420000   8.3850000  15.1920000
  53.0320000   7.5500000  13.5370000  53.8280000   7.4590000  14.0660000
  51.0130000   9.1870000  12.0320000  51.3140000  10.3640000  11.8190000
  50.8000000   8.3310000  11.0240000  50.4870000   7.3960000  11.2430000
  50.8240000   8.7410000   9.6110000  51.7870000   9.2190000   9.4340000
  50.7430000   7.5230000   8.6840000  49.9030000   6.9010000   8.9940000
  50.5410000   7.8830000   7.6750000  52.0090000   6.6640000   8.6130000
  53.1000000   7.0930000   9.0570000  51.9200000   5.5620000   8.0230000
  49.7000000   9.7290000   9.2330000  48.5580000   9.5450000   9.6710000
  49.9650000  10.7220000   8.3570000  51.2780000  11.1480000   7.8910000
  51.5970000  10.5090000   7.0670000  52.0180000  11.1410000   8.6910000
  51.0910000  12.5810000   7.3980000  51.8250000  12.8470000   6.6380000
  51.1380000  13.2690000   8.2420000  49.6740000  12.5510000   6.8360000
  49.7040000  12.1570000   5.8200000  49.2190000  13.5420000   6.8450000
  48.9370000  11.5780000   7.7670000  48.4680000  12.1480000   8.5680000
  47.8760000  10.7930000   6.9830000  48.2010000   9.8680000   6.2390000
  46.6150000  11.2220000   7.0600000  46.4010000  11.9670000   7.7080000
  45.5000000  10.7010000   6.2400000  45.2850000   9.6750000   6.5400000
  44.2440000  11.5520000   6.4910000  44.4530000  12.5860000   6.2190000
  43.0090000  11.0810000   5.7300000  42.7450000  10.0760000   6.0590000
  42.1730000  11.7540000   5.9240000  43.1930000  11.0700000   4.6560000
  43.9290000  11.4880000   7.8610000  43.1370000  12.0110000   8.0050000
  45.8340000  10.6870000   4.7410000  45.5310000   9.7280000   4.0300000
  46.5160000  11.7340000   4.2630000  46.7830000  12.4620000   4.9100000
  46.8900000  11.9320000   2.8500000  45.9880000  11.8570000   2.2420000
  47.4680000  13.3420000   2.6470000  47.6940000  13.4830000   1.5900000
  46.5050000  14.4400000   3.1030000  46.4380000  14.4740000   4.1900000
  46.8570000  15.4060000   2.7410000  45.5130000  14.2550000   2.6920000
  48.6490000  13.4790000   3.4070000  49.0410000  14.3270000   3.1870000
  47.8800000  10.8870000   2.3110000  47.9000000  10.6510000   1.1030000
  48.6420000  10.1880000   3.1740000  48.5750000  10.4160000   4.1560000
  49.5230000   9.0660000   2.7800000  50.2440000   9.4250000   2.0460000
  50.2960000   8.5700000   4.0180000  50.8690000   9.4000000   4.4300000
  49.5870000   8.2320000   4.7740000  51.2560000   7.4090000   3.7020000
  50.6840000   6.5520000   3.3460000  51.9580000   7.7160000   2.9280000
  52.0320000   6.9820000   4.9530000  52.6800000   7.7970000   5.2750000
  51.3160000   6.7550000   5.7430000  52.8690000   5.7280000   4.6640000
  52.1950000   4.9220000   4.3730000  53.5330000   5.9300000   3.8230000
  53.6630000   5.3180000   5.8560000  53.0730000   5.2160000   6.6690000
  54.1340000   4.4400000   5.6920000  54.3680000   6.0070000   6.0770000
  48.7420000   7.9230000   2.1150000  49.2010000   7.3370000   1.1340000
  47.5450000   7.6440000   2.6340000  47.2530000   8.1830000   3.4360000
  46.6540000   6.5650000   2.1840000  47.2400000   5.8110000   1.6570000
  46.0520000   5.8910000   3.4270000  45.4170000   6.6070000   3.9480000
  45.4250000   5.0550000   3.1130000  47.1060000   5.3720000   4.3880000
  47.5390000   6.1710000   5.4640000  47.0960000   7.1400000   5.6400000
  48.5600000   5.7110000   6.3160000  48.8720000   6.3200000   7.1510000
  49.1490000   4.4470000   6.1020000  50.1300000   3.9870000   6.9260000
  50.6630000   4.6740000   7.3320000  48.7110000   3.6480000   5.0250000
  49.1650000   2.6820000   4.8620000  47.6930000   4.1100000   4.1700000
  47.3660000   3.4970000   3.3420000  45.5720000   7.0510000   1.2030000
  44.7550000   6.2590000   0.7280000  45.5770000   8.3430000   0.8570000
  46.2670000   8.9460000   1.2820000  44.6880000   8.9320000  -0.1470000
  44.4920000   8.1810000  -0.9120000  43.3400000   9.2760000   0.5180000
  43.0950000   8.4790000   1.2200000  43.4440000  10.1820000   1.1160000
  42.1440000   9.4160000  -0.3780000  42.0960000   9.2080000  -1.7170000
  42.9320000   8.9420000  -2.3460000  40.7940000   9.3360000  -2.1630000
  40.5240000   9.1960000  -3.1260000  39.9300000   9.6240000  -1.1300000
  38.5410000   9.7910000  -1.0630000  37.9320000   9.6770000  -1.9490000
  37.9490000  10.0910000   0.1730000  36.8780000  10.2140000   0.2410000
  38.7510000  10.2190000   1.3220000  38.2930000  10.4500000   2.2730000
  40.1430000  10.0220000   1.2480000  40.7440000  10.0910000   2.1430000
  40.7700000   9.7180000   0.0200000  45.3630000  10.1390000  -0.8350000
  45.1250000  11.2840000  -0.4440000  46.2070000   9.9120000  -1.8650000
  46.6910000   8.6130000  -2.3170000  45.9990000   8.1980000  -3.0490000
  46.8280000   7.9130000  -1.4930000  48.0380000   8.8890000  -2.9780000
  48.2740000   8.1460000  -3.7400000  48.8200000   8.9280000  -2.2200000
  47.8300000  10.2750000  -3.5810000  47.2890000  10.1800000  -4.5220000
  48.7760000  10.7950000  -3.7330000  46.9570000  10.9800000  -2.5380000
  47.6050000  11.4580000  -1.8040000  46.0720000  12.0570000  -3.1880000
  46.4660000  13.2210000  -3.2730000  44.8610000  11.6840000  -3.6130000
  44.6410000  10.6980000  -3.5940000  43.8380000  12.5850000  -4.1580000
  44.2800000  13.1700000  -4.9640000  42.6750000  11.7670000  -4.7500000
  42.2530000  11.1170000  -3.9840000  41.8930000  12.4680000  -5.0450000
  43.0280000  10.9460000  -6.0020000  42.0990000  10.5540000  -6.4170000
  43.4540000  11.6220000  -6.7430000  43.9890000   9.7610000  -5.7630000
  43.9780000   9.1580000  -4.6620000  44.7580000   9.4180000  -6.6950000
  43.2890000  13.5950000  -3.1270000  42.7380000  14.6260000  -3.5220000
  43.4540000  13.3430000  -1.8200000  43.9600000  12.5110000  -1.5550000
  42.9760000  14.2060000  -0.7330000  42.0220000  14.6340000  -1.0410000
  42.7220000  13.3320000   0.5120000  42.1650000  12.4430000   0.2170000
  43.6870000  13.0050000   0.9000000  41.9510000  14.0330000   1.6460000
  42.3890000  15.0080000   1.8580000  40.4740000  14.2210000   1.3030000
  40.0000000  13.2540000   1.1300000  39.9800000  14.7280000   2.1310000
  40.3700000  14.8430000   0.4140000  42.0410000  13.1770000   2.9080000
  43.0750000  13.1380000   3.2490000  41.4260000  13.6110000   3.6960000
  41.6850000  12.1670000   2.7030000  43.9600000  15.3760000  -0.4930000
  44.5860000  15.5140000   0.5590000  44.1420000  16.1970000  -1.5290000
  43.6010000  16.0010000  -2.3590000  45.1430000  17.2730000  -1.6250000
  46.1030000  16.8930000  -1.2760000  45.3060000  17.6970000  -3.0940000
  46.0040000  18.5320000  -3.1460000  45.8380000  16.5760000  -3.9840000
  45.1210000  15.7580000  -4.0440000  46.0220000  16.9620000  -4.9870000
  46.7770000  16.2010000  -3.5770000  44.0550000  18.1080000  -3.6120000
  44.2190000  18.4750000  -4.4830000  44.8340000  18.5390000  -0.8130000
  45.7400000  19.3490000  -0.5970000  43.5840000  18.7540000  -0.3870000
  42.8860000  18.0440000  -0.5620000  43.1390000  20.0110000   0.2200000
  43.3880000  20.8090000  -0.4790000  41.6110000  19.9830000   0.3370000
  41.3000000  19.2350000   1.0670000  41.2470000  20.9650000   0.6410000
  41.1680000  19.7500000  -0.6310000  43.8590000  20.3210000   1.5560000
  43.9960000  19.4600000   2.4300000  44.3320000  21.5680000   1.7100000
  44.1320000  22.2230000   0.9680000  45.3450000  21.9730000   2.7090000
  46.2230000  21.3470000   2.5470000  45.7850000  23.4250000   2.4450000
  46.6120000  23.6670000   3.1110000  46.1540000  23.4910000   1.4220000
  44.6680000  24.4650000   2.6430000  43.8090000  24.2040000   2.0250000
  44.3610000  24.4770000   3.6880000  45.1560000  25.8640000   2.2450000
  45.9950000  26.1490000   2.8810000  45.4850000  25.8480000   1.2060000
  44.0210000  26.8840000   2.4030000  43.1720000  26.5580000   1.8030000
  43.7080000  26.9030000   3.4470000  44.4480000  28.2450000   1.9750000
  44.7270000  28.2540000   1.0040000  43.6950000  28.9100000   2.0810000
  45.2260000  28.5770000   2.5260000  44.9630000  21.7470000   4.1770000
  45.8430000  21.5230000   5.0070000  43.6690000  21.7400000   4.5020000
  42.9990000  21.8980000   3.7630000  43.1580000  21.4930000   5.8590000
  43.6610000  22.1950000   6.5240000  41.6500000  21.8190000   5.9390000
  41.3960000  21.8330000   6.9990000  41.4790000  22.8280000   5.5650000
  40.6620000  20.8490000   5.2550000  40.9420000  19.8140000   5.4550000
  39.6840000  21.0040000   5.7090000  40.4940000  21.0420000   3.7440000
  41.2950000  21.6660000   3.0630000  39.4460000  20.5080000   3.1620000
  39.3030000  20.6710000   2.1760000  38.6750000  20.1980000   3.7360000
  43.4880000  20.0810000   6.3910000  43.5070000  19.8770000   7.6050000
  43.7970000  19.1230000   5.5060000  43.7450000  19.3410000   4.5210000
  44.2340000  17.7680000   5.8690000  43.6610000  17.4440000   6.7390000
  43.8870000  16.8040000   4.7300000  44.3070000  17.1640000   3.7910000
  44.3310000  15.8310000   4.9390000  42.4120000  16.6080000   4.5910000
  41.5930000  17.2800000   3.7490000  41.9150000  18.0180000   3.0300000
  40.2840000  16.9090000   3.9910000  39.4880000  17.2760000   3.4880000
  40.1990000  15.9680000   4.9930000  39.1210000  15.2980000   5.5850000
  38.1130000  15.5230000   5.2720000  39.3720000  14.3430000   6.5830000
  38.5520000  13.8040000   7.0350000  40.6950000  14.0880000   6.9900000
  40.8820000  13.3550000   7.7610000  41.7710000  14.7850000   6.4050000
  42.7830000  14.5850000   6.7240000  41.5490000  15.7420000   5.3890000
  45.7070000  17.6590000   6.2940000  46.0960000  16.6320000   6.8550000
  46.5250000  18.7010000   6.0980000  46.1590000  19.5380000   5.6660000
  47.9040000  18.7240000   6.5940000  48.4340000  17.8650000   6.1820000
  48.6190000  20.0040000   6.1170000  48.0650000  20.8750000   6.4670000
  49.6120000  20.0430000   6.5660000  48.7960000  20.1100000   4.6070000
  48.6390000  19.1620000   3.8490000  49.1610000  21.2740000   4.1190000
  49.3100000  21.3560000   3.1240000  49.3000000  22.0620000   4.7360000
  47.9160000  18.6060000   8.1330000  47.2880000  19.4010000   8.8370000
  48.6200000  17.5950000   8.6520000  49.1200000  16.9850000   8.0210000
  48.6980000  17.2950000  10.0870000  49.5990000  16.7100000  10.2700000
  48.7970000  18.2250000  10.6460000  47.5080000  16.5140000  10.6700000
  47.5380000  16.2010000  11.8600000  46.4910000  16.1570000   9.8690000
  46.5340000  16.4180000   8.8950000  45.4450000  15.1940000  10.2670000
  45.2730000  15.2990000  11.3390000  44.0860000  15.4520000   9.5740000
  44.2150000  15.3690000   8.4950000  43.0570000  14.3940000  10.0330000
  42.8860000  14.4830000  11.1060000  42.1100000  14.5320000   9.5100000
  43.4020000  13.3850000   9.8110000  43.5730000  16.8700000   9.9140000
  43.5230000  16.9670000  10.9980000  44.2840000  17.6050000   9.5370000
  42.1930000  17.2250000   9.3430000  41.4140000  16.6500000   9.8440000
  41.9950000  18.2830000   9.5100000  42.1600000  17.0190000   8.2730000
  45.9550000  13.7710000  10.0120000  46.3790000  13.4550000   8.8970000
  45.9280000  12.9140000  11.0330000  45.5780000  13.2400000  11.9230000
  46.5010000  11.5580000  11.0010000  47.0010000  11.4000000  10.0460000
  47.5470000  11.3820000  12.1150000  48.0240000  10.4080000  12.0020000
  48.6430000  12.4470000  12.0860000  48.2300000  13.4300000  12.3080000
  49.4050000  12.2070000  12.8270000  49.1100000  12.4630000  11.1010000
  46.9220000  11.4240000  13.3780000  47.6130000  11.4750000  14.0410000
  45.4380000  10.4660000  11.1370000  44.2730000  10.7320000  11.4560000
  45.8360000   9.2050000  10.9210000  46.7940000   9.0420000  10.6450000
  44.9520000   8.0560000  11.1500000  44.0540000   8.1980000  10.5490000
  45.6260000   6.7440000  10.7070000  46.5800000   6.6450000  11.2260000
  44.9870000   5.9240000  11.0350000  45.8850000   6.5720000   9.1960000
  46.6860000   7.2420000   8.8840000  46.3170000   5.1250000   8.9450000
  45.5420000   4.4350000   9.2780000  46.4880000   4.9640000   7.8810000
  47.2420000   4.9200000   9.4840000  44.6530000   6.8380000   8.3240000
  44.3790000   7.8920000   8.3760000  44.8810000   6.6030000   7.2840000
  43.8160000   6.2220000   8.6530000  44.4520000   7.9730000  12.6060000
  43.2960000   7.6080000  12.8130000  45.2580000   8.3710000  13.6030000
  46.2060000   8.6360000  13.3750000  44.8250000   8.4890000  15.0030000
  44.5620000   7.4920000  15.3580000  45.9630000   9.0590000  15.8770000
  46.8510000   8.4340000  15.7900000  46.2280000  10.0470000  15.4990000
  45.5940000   9.2130000  17.3680000  44.7640000   9.9130000  17.4680000
  45.1930000   7.8860000  18.0100000  46.0120000   7.1700000  17.9410000
  44.9500000   8.0540000  19.0600000  44.3070000   7.4720000  17.5300000
  46.7780000   9.7760000  18.1480000  47.0710000  10.7380000  17.7270000
  46.4960000   9.9240000  19.1900000  47.6230000   9.0880000  18.0980000
  43.5820000   9.3680000  15.1490000  42.6180000   8.9840000  15.8120000
  43.6020000  10.5510000  14.5330000  44.4240000  10.8020000  14.0020000
  42.4980000  11.5060000  14.5950000  42.3150000  11.7510000  15.6410000
  42.8870000  12.7910000  13.8620000  43.0470000  12.5770000  12.8050000
  42.0450000  13.4790000  13.9360000  44.1050000  13.4970000  14.4060000
  45.0140000  14.2180000  13.6330000  45.9250000  14.7070000  14.4900000
  46.7800000  15.3030000  14.2080000  45.6190000  14.3560000  15.7510000
  46.1530000  14.6050000  16.5710000  44.4670000  13.6000000  15.7200000
  43.9420000  13.1820000  16.5660000  41.1930000  10.9200000  14.0550000
  40.1530000  11.0560000  14.7000000  41.2550000  10.2150000  12.9220000
  42.1520000  10.1410000  12.4640000  40.1160000   9.4880000  12.3550000
  39.2680000  10.1710000  12.3100000  40.4500000   9.0440000  10.9210000
  41.3370000   8.4100000  10.9500000  39.6170000   8.4470000  10.5480000
  40.6910000  10.1850000   9.9180000  41.4920000  10.8340000  10.2700000
  41.1090000   9.5760000   8.5820000  40.3670000   8.8470000   8.2550000
  41.1960000  10.3630000   7.8330000  42.0760000   9.0840000   8.6880000
  39.4330000  11.0230000   9.6890000  39.1640000  11.5510000  10.6040000
  39.6160000  11.7650000   8.9120000  38.6040000  10.3840000   9.3840000
  39.6610000   8.3020000  13.2260000  38.4660000   8.0780000  13.3970000
  40.5960000   7.5700000  13.8380000  41.5670000   7.7610000  13.6350000
  40.2950000   6.4280000  14.7080000  39.6050000   5.7690000  14.1820000
  41.5930000   5.6470000  14.9490000  42.2840000   6.2360000  15.5520000
  41.3580000   4.7180000  15.4690000  42.0680000   5.4040000  13.9990000
  39.6290000   6.8130000  16.0490000  39.0640000   5.9510000  16.7240000
  39.7130000   8.0910000  16.4480000  40.2340000   8.7190000  15.8520000
  39.3460000   8.5750000  17.7980000  38.7860000   7.8020000  18.3260000
  40.6190000   8.8550000  18.6130000  40.3270000   9.2100000  19.6010000
  41.5110000   7.6290000  18.8110000  41.8830000   7.2560000  17.8570000
  42.3580000   7.8850000  19.4480000  40.9360000   6.8410000  19.2980000
  41.3930000   9.8570000  17.9870000  41.8210000   9.4640000  17.2220000
  38.4570000   9.8300000  17.8130000  38.1880000  10.3710000  18.8830000
  37.9790000  10.2910000  16.6500000  38.2340000   9.7920000  15.8100000
  37.0360000  11.4170000  16.4890000  36.7610000  11.4440000  15.4340000
  35.7250000  11.1940000  17.2750000  35.8300000  11.6320000  18.2680000
  34.9340000  11.7440000  16.7640000  35.2600000   9.7620000  17.4370000
  34.8870000   9.0000000  16.3140000  34.9030000   9.4440000  15.3290000
  34.5310000   7.6470000  16.4740000  34.2500000   7.0610000  15.6120000
  34.5470000   7.0580000  17.7580000  34.2950000   5.7360000  17.9250000
  34.5660000   5.2260000  17.1580000  34.8640000   7.8390000  18.8810000
  34.8440000   7.3810000  19.8580000  35.2250000   9.1880000  18.7220000
  35.5060000   9.7730000  19.5850000  37.6590000  12.7970000  16.7980000
  36.9510000  13.7320000  17.1740000  38.9790000  12.9440000  16.6340000
  39.4930000  12.1550000  16.2680000  39.7510000  14.1450000  17.0400000
  39.0720000  14.8620000  17.5000000  40.7970000  13.7960000  18.1220000
  41.4020000  14.6800000  18.3190000  40.1750000  13.3780000  19.4540000
  39.5390000  12.5020000  19.3280000  40.9640000  13.1460000  20.1690000
  39.5780000  14.1990000  19.8520000  41.6470000  12.7580000  17.6930000
  41.3070000  11.9220000  18.0190000  40.3760000  14.8950000  15.8500000
  41.3660000  15.6080000  15.9910000  39.7520000  14.8210000  14.6670000
  38.9290000  14.2380000  14.6060000  40.2280000  15.4540000  13.4230000
  41.3140000  15.3760000  13.3750000  39.6520000  14.6610000  12.2400000
  38.5670000  14.7650000  12.2160000  40.0600000  15.0420000  11.3030000
  39.9180000  13.6080000  12.3280000  39.9230000  16.9650000  13.3050000
  40.2840000  17.5840000  12.3040000  39.2760000  17.5720000  14.3110000
  39.0630000  17.0330000  15.1380000  38.9790000  19.0120000  14.3330000
  39.1080000  19.3830000  15.3500000  39.6960000  19.5410000  13.7040000
  37.5750000  19.4030000  13.8630000  37.3450000  20.5760000  13.5890000
  36.6250000  18.4610000  13.7940000  36.8770000  17.5240000  14.0740000
  35.2020000  18.7580000  13.5450000  34.6350000  18.4220000  14.4130000
  35.0470000  19.8340000  13.4660000  34.5750000  18.1050000  12.3080000
  33.7880000  18.7490000  11.6120000  34.9020000  16.8390000  12.0130000
  35.5520000  16.3580000  12.6180000  34.1470000  16.0280000  11.0420000
  34.1260000  16.5810000  10.1030000  34.8630000  14.6850000  10.8010000
  35.1780000  14.2780000  11.7620000  34.1560000  13.9780000  10.3670000
  36.0740000  14.7890000   9.8520000  36.7240000  15.6020000  10.1760000
  36.8700000  13.4870000   9.8850000  36.2690000  12.6760000   9.4740000
  37.7740000  13.6010000   9.2860000  37.1610000  13.2480000  10.9080000
  35.6440000  15.0150000   8.4020000  35.1000000  15.9540000   8.3030000
  36.5240000  15.0690000   7.7620000  34.9970000  14.2020000   8.0690000
  32.6770000  15.8250000  11.4890000  32.4220000  15.6850000  12.6900000
  31.7020000  15.8230000  10.5560000  31.8850000  15.9380000   9.1150000
  32.5970000  15.2030000   8.7410000  32.2190000  16.9470000   8.8720000
  30.5080000  15.6980000   8.4990000  30.3530000  14.6300000   8.3490000
  30.3790000  16.2450000   7.5660000  29.5630000  16.2010000   9.5860000
  28.5680000  15.7650000   9.4920000  29.5070000  17.2890000   9.5410000
  30.2740000  15.7780000  10.8760000  30.0510000  16.5040000  11.6580000
  29.8100000  14.3910000  11.3460000  30.3560000  13.3630000  10.9350000
  28.7510000  14.3590000  12.1670000  28.3510000  15.2430000  12.4490000
  28.1840000  13.1380000  12.7620000  28.9300000  12.7330000  13.4460000
  26.9510000  13.5290000  13.6010000  27.2670000  14.2270000  14.3770000
  26.2460000  14.0480000  12.9530000  26.2080000  12.3540000  14.2700000
  25.8510000  11.6700000  13.5000000  27.0780000  11.5750000  15.2570000
  27.4690000  12.2460000  16.0220000  26.4810000  10.7940000  15.7280000
  27.9070000  11.0980000  14.7340000  24.9950000  12.8890000  15.0290000
  24.3260000  13.4040000  14.3390000  24.4520000  12.0590000  15.4790000
  25.3130000  13.5790000  15.8100000  27.8630000  12.0480000  11.7220000
  28.1130000  10.8690000  11.9690000  27.3590000  12.4540000  10.5520000
  27.2360000  13.4490000  10.4280000  26.9970000  11.5970000   9.4150000
  27.2030000  10.5520000   9.6490000  25.4920000  11.7550000   9.1200000
  25.2760000  12.8090000   8.9390000  25.2450000  11.2010000   8.2140000
  24.5840000  11.2520000  10.2480000  24.6860000  10.1690000  10.3220000
  24.8850000  11.6970000  11.1970000  23.1190000  11.5950000   9.9860000
  22.4170000  10.9240000   9.2400000  22.5970000  12.6510000  10.5770000
  21.6280000  12.8710000  10.3970000  23.1540000  13.2250000  11.1950000
  27.7820000  11.9900000   8.1510000  28.0210000  13.1740000   7.9090000
  28.1180000  11.0120000   7.3000000  27.8910000  10.0600000   7.5520000
  28.3850000  11.2900000   5.8740000  29.1070000  12.1050000   5.8110000
  29.0020000  10.0780000   5.1450000  28.2920000   9.2510000   5.1520000
  29.3340000  10.4280000   3.6890000  29.9860000  11.3000000   3.6480000
  29.8410000   9.5890000   3.2120000  28.4170000  10.6340000   3.1380000
  30.2990000   9.6060000   5.8110000  30.1040000   9.2870000   6.8350000
  30.6990000   8.7530000   5.2640000  31.0370000  10.4090000   5.8060000
  27.0470000  11.6990000   5.2160000  26.0690000  10.9640000   5.3950000
  26.9470000  12.8420000   4.5040000  27.9990000  13.8290000   4.2970000
  28.6550000  13.5000000   3.4910000  28.5700000  14.0080000   5.2080000
  27.2930000  15.1210000   3.8990000  27.9110000  15.7350000   3.2450000
  27.0130000  15.6750000   4.7950000  26.0380000  14.6210000   3.1910000
  26.2750000  14.3930000   2.1520000  25.2350000  15.3550000   3.2500000
  25.6820000  13.3380000   3.9470000  25.0290000  13.5960000   4.7810000
  24.9600000  12.3270000   3.0380000  25.5960000  11.6220000   2.2550000
  23.6260000  12.2680000   3.1090000  23.1540000  12.8940000   3.7460000
  22.8030000  11.3120000   2.3420000  23.1130000  10.3030000   2.6140000
  21.3170000  11.4630000   2.7110000  21.0080000  12.4860000   2.4980000
  20.7350000  10.8010000   2.0690000  20.9810000  11.1150000   4.1730000
  21.6730000  10.2720000   4.7940000  19.9780000  11.6590000   4.6960000
  22.9790000  11.4240000   0.8140000  22.8540000  10.4300000   0.0950000
  23.2830000  12.6190000   0.3050000  23.2880000  13.4080000   0.9360000
  23.5840000  12.8860000  -1.1070000  22.8020000  12.4280000  -1.7120000
  23.5200000  14.4010000  -1.3740000  23.7340000  14.5580000  -2.4310000
  22.5030000  14.7570000  -1.2060000  24.5030000  15.2660000  -0.5630000
  25.3750000  14.6790000  -0.2760000  24.8550000  16.0660000  -1.2150000
  23.8610000  15.8980000   0.6930000  23.1460000  15.1980000   1.4490000
  24.0880000  17.1090000   0.9380000  24.9220000  12.2870000  -1.6000000
  25.1270000  12.1760000  -2.8110000  25.8280000  11.8780000  -0.7010000
  25.5820000  11.9240000   0.2770000  27.1150000  11.2460000  -1.0480000
  27.5130000  11.7320000  -1.9380000  28.1420000  11.4260000   0.0930000
  27.6920000  11.0820000   1.0250000  29.4380000  10.6280000  -0.0900000
  29.9400000  10.9210000  -1.0130000  30.1070000  10.8220000   0.7480000
  29.2300000   9.5590000  -0.1160000  28.5330000  12.9000000   0.2580000
  27.6470000  13.5070000   0.4440000  29.2070000  13.0080000   1.1080000
  29.0310000  13.2610000  -0.6410000  26.9030000   9.7630000  -1.3710000
  26.5420000   8.9790000  -0.4880000  27.1360000   9.3710000  -2.6320000
  27.3750000  10.0780000  -3.3130000  27.0410000   7.9810000  -3.1170000
  26.7430000   7.3220000  -2.3020000  25.9870000   7.8650000  -4.2410000
  25.9410000   8.7890000  -4.8170000  26.3020000   7.0770000  -4.9240000
  24.5800000   7.4760000  -3.7640000  24.0000000   7.2040000  -4.6460000
  24.6510000   6.5930000  -3.1290000  23.8170000   8.5790000  -3.0180000
  24.3390000   8.8390000  -2.0970000  23.7410000   9.4600000  -3.6550000
  22.4160000   8.0520000  -2.6790000  21.9430000   7.6950000  -3.5940000
  22.5200000   7.2020000  -2.0050000  21.5670000   9.0990000  -2.0480000
  21.3900000   9.8600000  -2.6880000  20.6720000   8.7180000  -1.7760000
  22.0070000   9.4750000  -1.2200000  28.3960000   7.4510000  -3.6000000
  28.8770000   6.4420000  -3.0800000  28.9720000   8.0790000  -4.6260000
  28.5580000   8.9410000  -4.9500000  30.1610000   7.5770000  -5.3340000
  30.0370000   6.5050000  -5.4850000  30.2350000   8.2270000  -6.7210000
  30.9720000   7.7050000  -7.3310000  29.2630000   8.1560000  -7.2110000
  30.6100000   9.5840000  -6.5950000  30.6620000   9.9740000  -7.4710000
  31.4820000   7.7830000  -4.5690000  31.5580000   8.5040000  -3.5690000
  32.5630000   7.1930000  -5.0910000  32.4500000   6.5950000  -5.8960000
  33.9400000   7.4940000  -4.6720000  34.0280000   7.3110000  -3.6010000
  34.9180000   6.5530000  -5.3880000  35.9360000   6.7940000  -5.0850000
  34.7020000   5.5260000  -5.0950000  34.7980000   6.6740000  -6.7980000
  35.4180000   6.0630000  -7.2030000  34.3200000   8.9610000  -4.9260000
  34.9870000   9.5710000  -4.0870000  33.8620000   9.5600000  -6.0360000
  33.3320000   9.0110000  -6.6980000  34.0760000  10.9880000  -6.3130000
  35.1320000  11.1950000  -6.1370000  33.8160000  11.3380000  -7.7850000
  34.2500000  12.3160000  -7.9930000  34.3190000  10.6050000  -8.4150000
  32.4350000  11.3760000  -8.1130000  32.3590000  11.2200000  -9.0580000
  33.2890000  11.8870000  -5.3540000  33.8330000  12.8910000  -4.9030000
  32.0610000  11.5130000  -4.9690000  31.6520000  10.7010000  -5.4080000
  31.3010000  12.1880000  -3.9070000  31.1840000  13.2370000  -4.1780000
  29.8980000  11.5950000  -3.7130000  29.9830000  10.5430000  -3.4380000
  29.4490000  12.1210000  -2.8710000  28.9270000  11.7410000  -4.8890000
  29.0370000  12.7300000  -5.6540000  27.9950000  10.9050000  -4.9660000
  32.0350000  12.1570000  -2.5620000  32.1460000  13.1960000  -1.9170000
  32.5460000  10.9910000  -2.1410000  32.3800000  10.1670000  -2.7010000
  33.3560000  10.8660000  -0.9240000  32.7600000  11.2150000  -0.0810000
  33.7390000   9.3930000  -0.6860000  34.0200000   8.9420000  -1.6380000
  34.6130000   9.3470000  -0.0350000  32.6060000   8.5780000  -0.0390000
  31.6510000   8.8450000  -0.4940000  32.8330000   7.0820000  -0.2490000
  33.7960000   6.7850000   0.1660000  32.0390000   6.5150000   0.2360000
  32.8140000   6.8600000  -1.3160000  32.5460000   8.8460000   1.4670000
  32.3980000   9.9080000   1.6630000  31.7190000   8.2970000   1.9170000
  33.4750000   8.5210000   1.9350000  34.5980000  11.7660000  -0.9690000
  34.8230000  12.5430000  -0.0410000  35.3790000  11.7070000  -2.0550000
  35.1530000  11.0380000  -2.7770000  36.5410000  12.5780000  -2.2450000
  37.2500000  12.3700000  -1.4430000  37.2130000  12.2500000  -3.5920000
  37.5430000  11.2110000  -3.5850000  36.4710000  12.3560000  -4.3840000
  38.4100000  13.1560000  -3.9320000  38.0800000  14.1940000  -3.9700000
  39.5460000  13.0380000  -2.9160000  39.9160000  12.0140000  -2.8800000
  40.3580000  13.7050000  -3.2060000  39.2060000  13.3310000  -1.9220000
  38.9520000  12.7850000  -5.3090000  38.1600000  12.8740000  -6.0530000
  39.7600000  13.4640000  -5.5820000  39.3260000  11.7610000  -5.3040000
  36.1560000  14.0620000  -2.1360000  36.7270000  14.7920000  -1.3300000
  35.1610000  14.4950000  -2.9180000  34.7390000  13.8150000  -3.5350000
  34.6040000  15.8580000  -2.9420000  35.3760000  16.5560000  -3.2670000
  33.4860000  15.8470000  -4.0000000  33.9630000  15.6670000  -4.9630000
  32.8170000  15.0120000  -3.7910000  32.6120000  17.1010000  -4.1210000
  31.9050000  17.1180000  -3.2910000  33.2400000  17.9890000  -4.0590000
  31.8320000  17.1470000  -5.4520000  31.0270000  17.8750000  -5.3510000
  32.5000000  17.5210000  -6.2280000  31.2500000  15.8400000  -5.8580000
  30.4020000  15.5560000  -5.3890000  31.6950000  15.0190000  -6.8000000
  32.7400000  15.2930000  -7.5300000  33.2210000  16.1710000  -7.3960000
  33.0270000  14.6760000  -8.2760000  31.1030000  13.8850000  -7.0340000
  30.3000000  13.5990000  -6.4920000  31.5140000  13.2040000  -7.6570000
  34.1530000  16.3250000  -1.5540000  34.5360000  17.4090000  -1.1190000
  33.4130000  15.4860000  -0.8310000  33.1440000  14.6110000  -1.2580000
  32.9930000  15.7180000   0.5530000  32.3560000  16.6020000   0.5750000
  32.1420000  14.5230000   1.0120000  31.1780000  14.5720000   0.5070000
  32.6250000  13.6020000   0.6870000  31.9030000  14.4180000   2.5040000
  31.2100000  15.4350000   3.1890000  30.8410000  16.2970000   2.6530000
  31.0070000  15.3340000   4.5770000  30.4830000  16.1190000   5.1020000
  31.4780000  14.2090000   5.2770000  31.3230000  14.1250000   6.3430000
  32.1570000  13.1890000   4.5920000  32.5230000  12.3260000   5.1290000
  32.3760000  13.2950000   3.2100000  32.9140000  12.5130000   2.6940000
  34.1800000  16.0090000   1.4890000  34.2320000  17.0940000   2.0720000
  35.1680000  15.1130000   1.5950000  35.0980000  14.2390000   1.0930000
  36.3330000  15.3460000   2.4610000  35.9590000  15.6520000   3.4380000
  37.1120000  14.0430000   2.6760000  37.4040000  13.6400000   1.7070000
  38.0280000  14.2730000   3.2200000  36.3620000  12.9870000   3.4750000
  36.1080000  13.1760000   4.8500000  36.4300000  14.0810000   5.3430000
  35.4340000  12.1870000   5.5910000  35.2440000  12.3300000   6.6440000
  34.9910000  11.0110000   4.9500000  34.3180000  10.0660000   5.6520000
  34.5540000  10.0860000   6.5830000  35.2390000  10.8210000   3.5760000
  34.9020000   9.9170000   3.0920000  35.9300000  11.8050000   2.8490000
  36.1350000  11.6520000   1.8000000  37.2380000  16.4990000   1.9780000
  37.7420000  17.2620000   2.8040000  37.4020000  16.6990000   0.6630000
  36.9940000  16.0310000   0.0240000  38.1260000  17.8480000   0.0890000
  39.1360000  17.8620000   0.4990000  38.2240000  17.7180000  -1.4460000
  37.2300000  17.5050000  -1.8410000  38.5400000  18.6720000  -1.8670000
  39.1960000  16.6360000  -1.9440000  39.0930000  15.7300000  -1.3460000
  38.9350000  16.3840000  -2.9720000  40.6520000  17.0870000  -1.9050000
  41.3110000  17.0390000  -0.8780000  41.2110000  17.5430000  -3.0070000
  42.1950000  17.7690000  -3.0020000  40.6870000  17.5760000  -3.8700000
  37.4840000  19.2070000   0.4320000  38.2000000  20.2060000   0.5310000
  36.1560000  19.2700000   0.5960000  35.6220000  18.4240000   0.4510000
  35.4060000  20.5200000   0.7990000  36.0500000  21.3750000   0.5900000
  34.2230000  20.5650000  -0.1910000  33.5620000  19.7220000   0.0080000
  33.6600000  21.4800000  -0.0050000  34.5700000  20.5590000  -1.6780000
  33.7210000  20.3010000  -2.5200000  35.7870000  20.8600000  -2.0830000
  35.9670000  20.8650000  -3.0770000  36.5130000  21.0980000  -1.4220000
  34.9170000  20.7270000   2.2480000  34.5610000  21.8510000   2.6120000
  34.9360000  19.6920000   3.0960000  35.1440000  18.7740000   2.7300000
  34.8130000  19.8340000   4.5510000  33.8620000  20.3160000   4.7760000
  34.8090000  18.4490000   5.2160000  33.8500000  17.9640000   5.0330000
  35.5830000  17.8370000   4.7540000  35.0810000  18.4790000   6.6900000
  34.1740000  18.7310000   7.6620000  33.1210000  18.9020000   7.4970000
  34.8130000  18.7780000   8.8880000  34.3320000  18.9550000   9.7590000
  36.1660000  18.5400000   8.7680000  37.2150000  18.4520000   9.6950000
  37.0270000  18.5740000  10.7520000  38.5180000  18.2020000   9.2310000
  39.3380000  18.1260000   9.9300000  38.7590000  18.0600000   7.8530000
  39.7630000  17.8720000   7.5010000  37.6980000  18.1460000   6.9320000
  37.8940000  18.0270000   5.8770000  36.3730000  18.3700000   7.3660000
  35.9380000  20.7150000   5.1270000  37.0930000  20.6120000   4.7070000
  35.6030000  21.5490000   6.1180000  34.6470000  21.5360000   6.4450000
  36.5310000  22.4420000   6.8180000  37.5460000  22.2240000   6.4850000
  36.2160000  23.9080000   6.4680000  35.1870000  24.1240000   6.7570000
  36.8610000  24.5590000   7.0580000  36.3720000  24.2650000   4.9770000
  35.6770000  23.6680000   4.3870000  36.0930000  25.3120000   4.8540000
  37.7850000  24.0930000   4.4150000  37.9870000  23.5930000   3.3160000
  38.8230000  24.5020000   5.1200000  39.7380000  24.4280000   4.6990000
  38.6910000  24.9890000   5.9950000  36.4350000  22.2400000   8.3490000
  35.3220000  22.2750000   8.8900000  37.5610000  22.0490000   9.0670000
  38.9200000  21.9700000   8.5500000  39.1350000  22.7840000   7.8570000
  39.0600000  21.0060000   8.0610000  39.8440000  22.0710000   9.7590000
  40.0530000  23.1190000   9.9740000  40.7700000  21.5170000   9.6090000
  39.0020000  21.4750000  10.8820000  39.2990000  21.8740000  11.8520000
  39.0990000  20.3900000  10.8790000  37.5680000  21.8700000  10.5200000
  36.8980000  21.0530000  10.7890000  37.1280000  23.1320000  11.2830000
  37.4490000  24.2620000  10.9020000  36.4190000  22.9260000  12.3960000
  36.2640000  21.9660000  12.6700000  36.0930000  23.9530000  13.3850000
  35.8650000  24.8850000  12.8680000  34.8290000  23.5030000  14.1260000
  35.0070000  22.5520000  14.6280000  34.5540000  24.2500000  14.8700000
  34.0060000  23.3860000  13.4200000  37.2480000  24.2380000  14.3720000
  37.3390000  25.3510000  14.8980000  38.1470000  23.2660000  14.5930000
  38.0050000  22.3850000  14.1200000  39.2560000  23.3320000  15.5630000
  39.4830000  24.3770000  15.7710000  38.8450000  22.6570000  16.8890000
  38.8870000  21.5760000  16.7520000  39.5750000  22.9140000  17.6560000
  37.4780000  22.9930000  17.4030000  37.1180000  24.1660000  17.9720000
  37.7870000  24.9950000  18.1510000  35.7570000  24.1670000  18.2120000
  35.2620000  24.9590000  18.5980000  35.1690000  22.9900000  17.8000000
  33.8430000  22.5340000  17.7900000  33.0460000  23.1630000  18.1590000
  33.5650000  21.2530000  17.2860000  32.5470000  20.8920000  17.2580000
  34.6140000  20.4370000  16.8250000  34.3980000  19.4450000  16.4580000
  35.9410000  20.9100000  16.8300000  36.7380000  20.2800000  16.4610000
  36.2510000  22.2040000  17.3030000  40.5400000  22.6760000  15.0240000
  40.5030000  21.9070000  14.0620000  41.6880000  22.9650000  15.6430000
  41.6730000  23.6080000  16.4210000  42.9550000  22.2970000  15.3280000
  43.1640000  22.4940000  14.2770000  44.0680000  22.9470000  16.1550000
  43.8630000  22.8250000  17.2190000  45.0230000  22.4770000  15.9190000
  44.1310000  24.0100000  15.9210000  42.8930000  20.7600000  15.5490000
  42.1860000  20.2980000  16.4550000  43.6340000  19.9440000  14.7690000
  44.4350000  20.3170000  13.6130000  45.4050000  20.6860000  13.9460000
  43.9380000  21.0600000  12.9900000  44.6100000  19.0310000  12.8180000
  45.5190000  19.0420000  12.2150000  43.7310000  18.8810000  12.1910000
  44.6600000  17.9620000  13.9050000  45.6740000  17.8950000  14.2990000
  44.3330000  16.9930000  13.5270000  43.7030000  18.4960000  14.9780000
  42.7120000  18.0750000  14.8090000  44.1790000  18.1370000  16.3990000
  45.1460000  18.7100000  16.9110000  43.4980000  17.1830000  17.0390000
  42.7370000  16.7320000  16.5520000  43.8490000  16.6630000  18.3640000
  43.4000000  15.6760000  18.4790000  44.9300000  16.5280000  18.4130000
  43.4300000  17.5190000  19.5700000  43.7430000  17.1330000  20.6950000
  42.7340000  18.6530000  19.3920000  42.5480000  18.9770000  18.4540000
  42.3200000  19.5150000  20.5300000  42.9640000  19.3040000  21.3840000
  42.4990000  21.0130000  20.2370000  42.3120000  21.5620000  21.1600000
  43.9070000  21.3610000  19.7550000  44.0990000  20.9150000  18.7790000
  44.0110000  22.4440000  19.6840000  44.6400000  20.9880000  20.4700000
  41.5770000  21.4540000  19.2670000  41.6940000  22.4020000  19.1720000
  40.8860000  19.2690000  21.0140000  40.6090000  19.4510000  22.2020000
  39.9860000  18.8000000  20.1390000  40.2850000  18.6830000  19.1810000
  38.5710000  18.5300000  20.4370000  38.4340000  18.4700000  21.5170000
  37.6780000  19.6680000  19.9040000  37.9070000  19.8330000  18.8510000
  36.6410000  19.3380000  19.9540000  37.8330000  21.0040000  20.6600000
  38.5110000  20.8880000  21.5050000  38.2820000  21.7310000  19.9840000
  36.5190000  21.5680000  21.2090000  35.6400000  20.8620000  21.6870000
  36.3490000  22.8730000  21.2140000  35.4780000  23.2390000  21.5720000
  37.0370000  23.4800000  20.7930000  38.1080000  17.1950000  19.8340000
  38.3570000  16.9100000  18.6610000  37.4020000  16.3940000  20.6410000
  37.2220000  16.7390000  21.5730000  36.5990000  15.2350000  20.2190000
  37.1250000  14.6980000  19.4290000  36.4300000  14.3010000  21.4370000
  37.4230000  14.0810000  21.8300000  35.8710000  14.8260000  22.2120000
  35.7420000  12.9530000  21.1480000  34.7550000  13.1190000  20.7170000
  36.3520000  12.3850000  20.4460000  35.6000000  12.1540000  22.4560000
  36.5870000  12.0520000  22.9080000  34.9790000  12.7090000  23.1590000
  35.0470000  10.7970000  22.2410000  35.7160000  10.0430000  22.1780000
  33.7810000  10.4160000  22.2490000  32.7900000  11.2580000  22.3320000
  32.9830000  12.2450000  22.4250000  31.8300000  10.9450000  22.3190000
  33.5070000   9.1480000  22.1680000  34.2730000   8.4910000  22.1390000
  32.5550000   8.8180000  22.2440000  35.2440000  15.7180000  19.6880000
  34.5590000  16.4750000  20.3730000  34.8340000  15.2370000  18.5150000
  35.4900000  14.6860000  17.9810000  33.4550000  15.3270000  18.0140000
  32.7850000  15.4660000  18.8630000  33.2860000  16.5470000  17.0820000
  33.4620000  17.4540000  17.6610000  34.0390000  16.4950000  16.2960000
  31.8920000  16.6330000  16.4160000  31.7210000  15.7540000  15.7960000
  30.7610000  16.7320000  17.4400000  30.9240000  17.5840000  18.1000000
  29.8080000  16.8550000  16.9270000  30.7040000  15.8180000  18.0320000
  31.8050000  17.8650000  15.5190000  32.5370000  17.7790000  14.7150000
  30.8150000  17.9230000  15.0670000  31.9910000  18.7700000  16.0970000
  33.0880000  14.0040000  17.3310000  33.5310000  13.7270000  16.2170000
  32.3100000  13.1770000  18.0360000  31.9720000  13.4930000  18.9330000
  31.9290000  11.8260000  17.6110000  32.8230000  11.2050000  17.5670000
  31.0050000  11.2500000  18.6870000  31.4950000  11.3370000  19.6570000
  30.0930000  11.8450000  18.7280000  30.6320000   9.8010000  18.4790000
  29.4430000   9.4660000  17.8050000  28.8210000  10.2440000  17.3880000
  29.0470000   8.1190000  17.7070000  28.1160000   7.8680000  17.2190000
  29.8540000   7.1130000  18.2760000  29.4480000   5.8190000  18.2580000
  28.6010000   5.7140000  17.8190000  31.0780000   7.4430000  18.8890000
  31.7090000   6.6650000  19.2920000  31.4650000   8.7900000  18.9940000
  32.3910000   9.0500000  19.4850000  31.2510000  11.8200000  16.2270000
  30.3720000  12.6450000  15.9610000  31.6600000  10.8990000  15.3420000
  32.3430000  10.2150000  15.6340000  31.3650000  11.0070000  13.9080000
  30.3220000  11.3000000  13.7930000  32.2500000  12.1240000  13.3290000
  33.2910000  11.9630000  13.6090000  32.1750000  12.1430000  12.2410000
  31.9290000  13.0910000  13.7170000  31.5530000   9.7030000  13.1190000
  32.6630000   9.1740000  13.0280000  30.4880000   9.2470000  12.4470000
  29.6080000   9.7280000  12.5610000  30.5280000   8.1330000  11.4860000
  30.9340000   7.2560000  11.9910000  29.0880000   7.8080000  11.0100000
  28.6150000   8.7030000  10.6070000  29.1350000   7.0750000  10.2050000
  28.1950000   7.2300000  12.1030000  28.6240000   6.9730000  13.2140000
  26.9500000   6.9300000  11.8250000  26.4110000   6.4890000  12.5560000
  26.5590000   7.1140000  10.9120000  31.4740000   8.4320000  10.3110000
  32.2400000   7.5630000   9.9010000  31.4930000   9.6810000   9.8280000
  30.8390000  10.3480000  10.2110000  32.4110000  10.1350000   8.7650000
  32.2730000   9.4920000   7.8960000  32.0610000  11.5720000   8.3520000
  32.6550000  11.8430000   7.4790000  31.0040000  11.6420000   8.0940000
  32.3590000  12.4700000   9.4050000  31.5580000  12.7520000   9.8520000
  33.8990000  10.0590000   9.1510000  34.7510000   9.9370000   8.2720000
  34.2220000  10.0950000  10.4490000  33.4670000  10.1690000  11.1170000
  35.5950000  10.0520000  10.9670000  36.2360000  10.6040000  10.2810000
  35.6580000  10.7850000  12.3110000  35.2390000  11.7830000  12.1830000
  35.0750000  10.2520000  13.0610000  36.9940000  10.9000000  12.7490000
  37.1430000  11.7880000  13.0830000  36.1430000   8.6200000  10.9970000
  36.9840000   8.2600000  10.1700000  35.6260000   7.7540000  11.8830000
  34.9250000   8.0760000  12.5350000  36.1110000   6.3600000  11.9680000
  37.1990000   6.4210000  11.9640000  35.7240000   5.6970000  13.3050000
  35.9650000   6.4030000  14.1000000  34.2160000   5.3860000  13.3570000
  33.9580000   4.6130000  12.6330000  33.9540000   5.0280000  14.3530000
  33.6340000   6.2830000  13.1470000  36.5640000   4.4210000  13.5430000
  36.2560000   3.6380000  12.8500000  37.6110000   4.6540000  13.3480000
  36.4810000   3.8670000  14.9700000  35.4760000   3.4960000  15.1710000
  37.1830000   3.0410000  15.0790000  36.7360000   4.6450000  15.6900000
  35.7420000   5.5190000  10.7350000  36.4740000   4.5930000  10.3910000
  34.6700000   5.8730000  10.0160000  34.0750000   6.6190000  10.3480000
  34.3700000   5.3070000   8.6980000  34.1270000   4.2510000   8.8180000
  33.5040000   5.8120000   8.2710000  35.5450000   5.4470000   7.7200000
  35.9460000   4.4710000   7.0840000  36.1400000   6.6460000   7.6430000
  35.7910000   7.4070000   8.2080000  37.3360000   6.8830000   6.8330000
  37.1340000   6.4600000   5.8480000  37.5610000   8.3960000   6.6520000
  36.6450000   8.8400000   6.2600000  37.7580000   8.8420000   7.6270000
  38.7210000   8.7570000   5.7020000  39.6500000   8.3440000   6.0940000
  38.5080000   8.2220000   4.2840000  37.5670000   8.5950000   3.8800000
  39.3290000   8.5460000   3.6440000  38.4980000   7.1320000   4.2830000
  38.8740000  10.2750000   5.6120000  39.0150000  10.6950000   6.6070000
  39.7420000  10.5240000   5.0000000  37.9850000  10.7160000   5.1630000
  38.5720000   6.1470000   7.3810000  39.3220000   5.5780000   6.5910000
  38.7640000   6.0780000   8.7090000  38.1310000   6.5810000   9.3140000
  39.8220000   5.2400000   9.3030000  40.7840000   5.6110000   8.9500000
  39.8250000   5.3180000  10.8370000  40.0640000   6.3370000  11.1440000
  38.8270000   5.0880000  11.2080000  40.8170000   4.3830000  11.5070000
  42.2000000   4.5710000  11.3200000  42.5580000   5.3880000  10.7120000
  43.1210000   3.6970000  11.9280000  44.1820000   3.8360000  11.7800000
  42.6650000   2.6440000  12.7380000  43.3760000   1.9860000  13.2160000
  41.2840000   2.4500000  12.9230000  40.9310000   1.6360000  13.5390000
  40.3610000   3.3140000  12.3040000  39.3030000   3.1500000  12.4450000
  39.7220000   3.7780000   8.8470000  40.6960000   3.2440000   8.3240000
  38.5470000   3.1470000   8.9810000  37.7820000   3.6450000   9.4140000
  38.3140000   1.7700000   8.5300000  38.9220000   1.0900000   9.1280000
  37.2650000   1.5130000   8.6780000  38.6580000   1.5590000   7.0510000
  39.3680000   0.6120000   6.7100000  38.1980000   2.4640000   6.1800000
  37.6000000   3.2020000   6.5240000  38.4790000   2.4250000   4.7460000
  38.1310000   1.4680000   4.3580000  37.6720000   3.5300000   4.0540000
  37.9580000   4.5110000   4.4340000  37.8520000   3.4960000   2.9800000
  36.6090000   3.3670000   4.2350000  39.9840000   2.5250000   4.4250000
  40.5130000   1.6950000   3.6850000  40.6850000   3.5210000   4.9820000
  40.1990000   4.1700000   5.5860000  42.1240000   3.7180000   4.7610000
  42.3150000   3.6530000   3.6900000  42.5400000   5.1250000   5.2320000
  42.3370000   5.2100000   6.3000000  43.6160000   5.2290000   5.0920000
  41.8360000   6.2890000   4.5020000  40.7640000   6.2510000   4.6950000
  42.3660000   7.6230000   5.0180000  43.4290000   7.7210000   4.8010000
  41.8280000   8.4380000   4.5330000  42.2060000   7.6880000   6.0940000
  42.0310000   6.2660000   2.9870000  41.5290000   5.3960000   2.5640000
  41.5800000   7.1570000   2.5480000  43.0940000   6.2390000   2.7510000
  42.9950000   2.6180000   5.4010000  44.0050000   2.2280000   4.8170000
  42.5960000   2.0820000   6.5600000  41.7760000   2.4650000   7.0090000
  43.3370000   1.0530000   7.2930000  44.3200000   1.4610000   7.5290000
  42.6150000   0.7620000   8.6170000  41.5880000   0.4490000   8.4270000
  43.1310000  -0.0340000   9.1530000  42.6110000   1.6560000   9.2420000
  43.5640000  -0.2430000   6.4920000  44.6460000  -0.8280000   6.5590000
  42.5470000  -0.7100000   5.7530000  41.6760000  -0.2000000   5.7680000
  42.6230000  -1.9550000   4.9590000  43.1840000  -2.6780000   5.5510000
  41.2350000  -2.5920000   4.7360000  41.3750000  -3.5270000   4.1930000
  40.5970000  -2.9350000   6.0890000  40.3980000  -2.0310000   6.6640000
  39.6560000  -3.4620000   5.9310000  41.2660000  -3.5800000   6.6590000
  40.2720000  -1.7210000   3.9250000  40.7140000  -1.4590000   2.9640000
  39.3530000  -2.2760000   3.7360000  40.0250000  -0.8120000   4.4730000
  43.4070000  -1.8350000   3.6430000  43.9000000  -2.8560000   3.1590000
  43.5670000  -0.6260000   3.0730000  43.1940000   0.1710000   3.5680000
  44.1230000  -0.4000000   1.7170000  43.4090000  -0.8070000   1.0010000
  44.2810000   1.1060000   1.4110000  44.6780000   1.6320000   2.2790000
  45.0050000   1.2140000   0.6030000  42.9810000   1.7890000   0.9570000
  42.5420000   1.2190000   0.1380000  42.2770000   1.8260000   1.7880000
  43.2870000   3.2150000   0.4690000  43.7210000   3.7860000   1.2900000
  44.0170000   3.1580000  -0.3390000  42.0370000   3.9430000  -0.0490000
  41.5390000   3.3160000  -0.7890000  41.3450000   4.0920000   0.7790000
  42.4060000   5.2540000  -0.6620000  42.8950000   5.1130000  -1.5340000
  41.5860000   5.8090000  -0.8630000  43.0210000   5.7800000  -0.0580000
  45.4460000  -1.1320000   1.4120000  45.5260000  -1.7250000   0.3330000
  46.4550000  -1.1710000   2.3090000  46.5510000  -0.4370000   3.5650000
  46.1470000  -1.0470000   4.3720000  46.0420000   0.5260000   3.5310000
  48.0400000  -0.2140000   3.7900000  48.2680000  -0.1030000   4.8500000
  48.3730000   0.6570000   3.2260000  48.6550000  -1.4830000   3.2040000
  48.6160000  -2.2820000   3.9450000  49.6830000  -1.3120000   2.8830000
  47.7400000  -1.8200000   2.0220000  48.1600000  -1.3670000   1.1240000
  47.6430000  -3.3400000   1.7970000  48.4640000  -3.9080000   1.0730000
  46.6330000  -4.0040000   2.3770000  46.0040000  -3.4880000   2.9760000
  46.3750000  -5.4420000   2.1660000  47.3110000  -5.9850000   2.2930000
  45.3930000  -5.9560000   3.2250000  45.4100000  -7.0460000   3.2130000
  45.7030000  -5.6160000   4.2130000  44.0690000  -5.5170000   2.9580000
  44.0060000  -4.5720000   3.1130000  45.8240000  -5.7900000   0.7700000
  45.9170000  -6.9420000   0.3380000  45.2110000  -4.8200000   0.0770000
  45.2240000  -3.8850000   0.4610000  44.4800000  -5.0120000  -1.1830000
  44.3980000  -4.0500000  -1.6890000  45.0440000  -5.6820000  -1.8330000
  43.0580000  -5.5840000  -1.0240000  42.3170000  -5.6660000  -2.0070000
  42.6600000  -5.9740000   0.1940000  43.3050000  -5.8510000   0.9620000
  41.3180000  -6.4680000   0.5260000  40.9980000  -7.1600000  -0.2530000
  41.3630000  -7.2220000   1.8720000  41.6000000  -6.4980000   2.6520000
  40.3680000  -7.6140000   2.0850000  42.3770000  -8.3790000   1.9630000
  43.3820000  -8.0110000   1.7550000  42.3690000  -8.9610000   3.3770000
  41.3910000  -9.3860000   3.6010000  43.1260000  -9.7420000   3.4560000
  42.6010000  -8.1760000   4.0970000  42.0530000  -9.5020000   0.9780000
  42.1420000  -9.1360000  -0.0440000  42.7610000 -10.3210000   1.1110000
  41.0410000  -9.8710000   1.1460000  40.2830000  -5.3290000   0.5970000
  40.6100000  -4.2020000   0.9830000  39.0160000  -5.6350000   0.2940000
  38.8080000  -6.5700000  -0.0260000  37.8830000  -4.8130000   0.7500000
  38.0630000  -3.7800000   0.4530000  36.5790000  -5.2710000   0.0820000
  35.7970000  -4.5380000   0.2820000  36.7320000  -5.3250000  -0.9960000
  36.1600000  -6.5360000   0.5670000  35.4590000  -6.8450000  -0.0110000
  37.7550000  -4.8560000   2.2800000  38.2650000  -5.7710000   2.9320000
  37.0420000  -3.8910000   2.8720000  36.6570000  -3.1470000   2.3070000
  36.8020000  -3.8710000   4.3210000  37.7680000  -3.8690000   4.8250000
  36.0710000  -2.5800000   4.7070000  36.6410000  -1.7290000   4.3350000
  35.0950000  -2.5600000   4.2220000  35.8890000  -2.4180000   6.2030000
  36.9360000  -1.8880000   6.9800000  37.8630000  -1.5950000   6.5100000
  36.7730000  -1.7240000   8.3660000  37.5780000  -1.3150000   8.9580000
  35.5670000  -2.1070000   8.9790000  35.4400000  -1.9910000  10.0450000
  34.5250000  -2.6520000   8.2090000  33.6020000  -2.9500000   8.6850000
  34.6830000  -2.8040000   6.8200000  33.8800000  -3.2220000   6.2310000
  36.0540000  -5.1230000   4.8070000  36.4310000  -5.7190000   5.8130000
  35.0350000  -5.5640000   4.0590000  34.7790000  -5.0280000   3.2420000
  34.3030000  -6.8090000   4.3290000  33.8780000  -6.7420000   5.3300000
  33.1390000  -6.9410000   3.3320000  32.4960000  -6.0680000   3.4420000
  33.5360000  -6.9540000   2.3170000  32.2930000  -8.2020000   3.5600000
  32.8840000  -9.0780000   3.2930000  32.0440000  -8.2680000   4.6190000
  30.9990000  -8.1870000   2.7190000  31.0460000  -7.8530000   1.5110000
  29.9150000  -8.5120000   3.2620000  35.2240000  -8.0430000   4.3220000
  35.2420000  -8.7950000   5.2970000  36.0190000  -8.2340000   3.2580000
  35.9920000  -7.5620000   2.5040000  36.9910000  -9.3340000   3.1710000
  36.4510000 -10.2760000   3.2640000  37.7130000  -9.3200000   1.8130000
  38.0350000  -8.3020000   1.5900000  38.6080000  -9.9380000   1.8710000
  36.8310000  -9.8340000   0.6620000  35.8710000  -9.3170000   0.6790000
  37.3210000  -9.5910000  -0.2820000  36.5840000 -11.3460000   0.6850000
  37.1960000 -12.1170000   1.4150000  35.6820000 -11.8390000  -0.1390000
  35.5170000 -12.8350000  -0.1290000  35.1680000 -11.2300000  -0.7600000
  38.0100000  -9.3010000   4.3160000  38.2210000 -10.3180000   4.9770000
  38.6160000  -8.1380000   4.5800000  38.4000000  -7.3370000   4.0040000
  39.5480000  -7.9490000   5.6890000  40.4010000  -8.6130000   5.5450000
  40.0530000  -6.5020000   5.6620000  39.2180000  -5.8160000   5.8060000
  40.7870000  -6.3500000   6.4530000  40.5240000  -6.2890000   4.7030000
  38.9170000  -8.3140000   7.0430000  39.4820000  -9.1100000   7.7890000
  37.7310000  -7.7830000   7.3530000  37.3060000  -7.1330000   6.7070000
  37.0240000  -8.0850000   8.6000000  37.6810000  -7.8130000   9.4260000
  35.7570000  -7.2220000   8.6850000  35.9980000  -6.1870000   8.4400000
  35.0230000  -7.5790000   7.9620000  35.1470000  -7.2740000  10.0870000
  34.1780000  -6.7750000  10.0630000  34.9820000  -8.3180000  10.3520000
  36.1490000  -6.5110000  11.3900000  35.8860000  -4.7630000  11.0000000
  34.8390000  -4.5030000  11.1560000  36.5140000  -4.1520000  11.6480000
  36.1560000  -4.5660000   9.9630000  36.7100000  -9.5820000   8.7500000
  36.9490000 -10.1650000   9.8100000  36.2360000 -10.2230000   7.6760000
  36.0600000  -9.6870000   6.8380000  36.0100000 -11.6690000   7.6280000
  35.2850000 -11.9250000   8.4010000  35.4110000 -12.0730000   6.2700000
  35.9990000 -11.6140000   5.4750000  35.4730000 -13.1550000   6.1550000
  33.9340000 -11.6600000   6.1320000  33.3330000 -12.2970000   6.7800000
  33.8000000 -10.6320000   6.4670000  33.3950000 -11.7640000   4.7010000
  34.1060000 -11.9600000   3.7230000  32.0960000 -11.6480000   4.5230000
  31.7330000 -11.7230000   3.5830000  31.4790000 -11.4980000   5.3080000
  37.2860000 -12.4670000   7.9390000  37.3040000 -13.2200000   8.9110000
  38.3570000 -12.3030000   7.1570000  38.3190000 -11.6360000   6.4000000
  39.5630000 -13.1480000   7.2680000  39.2400000 -14.1770000   7.4310000
  40.3860000 -13.1470000   5.9690000  41.2230000 -13.8350000   6.0900000
  39.5820000 -13.5960000   4.7480000  38.7760000 -12.8940000   4.5350000
  40.2380000 -13.6590000   3.8800000  39.1570000 -14.5820000   4.9350000
  40.9030000 -11.8620000   5.7050000  41.3920000 -11.9130000   4.8810000
  40.4820000 -12.7980000   8.4440000  41.2500000 -13.6610000   8.8760000
  40.4020000 -11.5740000   8.9940000  39.8220000 -10.8960000   8.5210000
  41.3090000 -11.0840000  10.0570000  42.1060000 -11.8100000  10.2170000
  41.9710000  -9.7670000   9.6200000  41.2120000  -8.9900000   9.5360000
  42.6650000  -9.4560000  10.4000000  42.7500000  -9.8800000   8.3010000
  43.5750000 -10.5790000   8.4360000  42.1050000 -10.2440000   7.5010000
  43.2910000  -8.5100000   7.8950000  42.4680000  -7.8970000   7.5260000
  43.7130000  -8.0320000   8.7790000  44.3350000  -8.6270000   6.8590000
  44.3910000  -9.5010000   6.3560000  45.2450000  -7.7130000   6.5800000
  45.2250000  -6.5320000   7.1170000  44.4850000  -6.2810000   7.7570000
  45.9350000  -5.8590000   6.8660000  46.2200000  -7.9630000   5.7610000
  46.3140000  -8.8710000   5.3270000  46.9480000  -7.2730000   5.6400000
  40.6540000 -10.8890000  11.4280000  41.3830000 -10.7320000  12.4040000
  39.3190000 -10.9320000  11.5300000  38.7820000 -11.0090000  10.6790000
  38.5920000 -10.7950000  12.8110000  39.2970000 -10.9400000  13.6290000
  37.9900000  -9.3820000  13.0000000  37.2260000  -9.2080000  12.2420000
  37.3410000  -9.2410000  14.3810000  38.0720000  -9.4580000  15.1590000
  36.9750000  -8.2220000  14.5140000  36.4940000  -9.9200000  14.4810000
  39.0520000  -8.2800000  12.8820000  39.4640000  -8.2650000  11.8730000
  38.6010000  -7.3070000  13.0790000  39.8550000  -8.4520000  13.5980000
  37.5380000 -11.8880000  12.9840000  37.6710000 -12.7050000  13.8950000
  36.5070000 -11.9400000  12.1300000  36.4600000 -11.2680000  11.3770000
  35.3980000 -12.8930000  12.2970000  34.9680000 -12.7320000  13.2850000
  34.2880000 -12.6490000  11.2570000  34.6840000 -12.9080000  10.2750000
  33.4800000 -13.3510000  11.4630000  33.6590000 -11.2620000  11.1600000
  33.7040000 -10.3330000  12.2220000  34.2110000 -10.5700000  13.1460000
  33.0760000  -9.0800000  12.0920000  33.1120000  -8.3700000  12.9050000
  32.3890000  -8.7480000  10.9110000  31.9020000  -7.7890000  10.8200000
  32.3340000  -9.6710000   9.8540000  31.8040000  -9.4240000   8.9460000
  32.9630000 -10.9230000   9.9820000  32.8960000 -11.6350000   9.1730000
  35.8540000 -14.3630000  12.2630000  35.5790000 -15.1110000  13.2000000
  36.5630000 -14.7820000  11.2070000  36.7770000 -14.1190000  10.4760000
  37.0000000 -16.1760000  11.0200000  36.1230000 -16.8070000  11.1690000
  37.4660000 -16.4230000   9.5720000  38.2360000 -15.6990000   9.3060000
  37.9000000 -17.4210000   9.5010000  36.3160000 -16.3210000   8.5520000
  35.6410000 -17.1660000   8.6930000  35.7460000 -15.4090000   8.7290000
  36.7880000 -16.3010000   7.0960000  37.9630000 -16.4100000   6.7680000
  35.8810000 -16.1570000   6.1540000  36.1870000 -16.1610000   5.1910000
  34.9010000 -16.0920000   6.3890000  38.0300000 -16.6520000  12.0690000
  37.8040000 -17.7190000  12.6460000  39.0970000 -15.8890000  12.4090000
  39.6140000 -14.7180000  11.7070000  39.0480000 -13.8320000  11.9950000
  39.5870000 -14.8410000  10.6240000  41.0660000 -14.5690000  12.1560000
  41.4080000 -13.5350000  12.1060000  41.7070000 -15.2170000  11.5580000
  41.0100000 -15.0790000  13.5910000  40.6100000 -14.2960000  14.2350000
  41.9870000 -15.4040000  13.9470000  40.0270000 -16.2490000  13.4880000
  40.5750000 -17.1430000  13.1890000  39.3510000 -16.5130000  14.8400000
  39.6870000 -17.4750000  15.5330000  38.3650000 -15.6800000  15.1970000
  38.1500000 -14.9050000  14.5870000  37.6140000 -15.7800000  16.4550000
  38.2600000 -16.2100000  17.2200000  37.2230000 -14.3610000  16.9120000
  36.5910000 -13.9160000  16.1430000  36.6490000 -14.4280000  17.8360000
  38.4070000 -13.4080000  17.1360000  38.9550000 -13.2980000  16.2000000
  37.8850000 -12.0340000  17.5500000  37.3150000 -12.1140000  18.4760000
  38.7190000 -11.3470000  17.6990000  37.2420000 -11.6420000  16.7620000
  39.3800000 -13.9010000  18.2050000  39.8400000 -14.8400000  17.8970000
  40.1750000 -13.1650000  18.3250000  38.8610000 -14.0400000  19.1530000
  36.3970000 -16.7200000  16.3750000  35.7080000 -16.9020000  17.3770000
  36.1320000 -17.3280000  15.2090000  36.7610000 -17.1370000  14.4420000
  35.0360000 -18.2860000  14.9450000  35.0840000 -18.5570000  13.8900000
  35.2310000 -19.5930000  15.7460000  35.1720000 -19.3900000  16.8150000
  34.4250000 -20.2820000  15.4900000  36.5680000 -20.2810000  15.4230000
  36.6110000 -20.4860000  14.3540000  37.3920000 -19.6180000  15.6900000
  36.7160000 -21.6000000  16.1960000  36.7380000 -21.4010000  17.2680000
  35.8470000 -22.2250000  15.9870000  37.9720000 -22.3840000  15.7850000
  37.9270000 -23.3670000  16.2540000  37.9510000 -22.5360000  14.7060000
  39.2380000 -21.7040000  16.1840000  39.2850000 -21.5710000  17.1840000
  40.0380000 -22.2610000  15.9190000  39.3380000 -20.8040000  15.7360000
  33.6450000 -17.6510000  15.1280000  32.6970000 -18.2960000  15.5800000
  33.5140000 -16.3810000  14.7300000  34.3270000 -15.9490000  14.3140000
  32.2790000 -15.5890000  14.7940000  31.6750000 -15.9420000  15.6290000
  32.5970000 -14.1040000  15.0440000  33.0510000 -13.6870000  14.1450000
  31.6520000 -13.5890000  15.2160000  33.5280000 -13.8160000  16.2330000
  34.4870000 -14.2990000  16.0460000  33.7630000 -12.3120000  16.3690000
  32.8270000 -11.8060000  16.6040000  34.4800000 -12.1250000  17.1680000
  34.1700000 -11.9110000  15.4400000  32.9790000 -14.3340000  17.5590000
  32.8900000 -15.4200000  17.5250000  33.6600000 -14.0670000  18.3670000
  32.0000000 -13.8940000  17.7500000  31.4530000 -15.8210000  13.5160000
  31.2550000 -14.9310000  12.6820000  31.0500000 -17.0800000  13.3300000
  31.2410000 -17.7270000  14.0820000  30.5790000 -17.6360000  12.0610000
  31.2770000 -17.3300000  11.2810000  30.6210000 -19.1750000  12.1480000
  29.9360000 -19.5010000  12.9310000  30.2740000 -19.5990000  11.2060000
  32.0060000 -19.7470000  12.4280000  33.0400000 -19.1380000  12.1840000
  32.0750000 -20.9480000  12.9570000  32.9860000 -21.3430000  13.1380000
  31.2320000 -21.4660000  13.1570000  29.1930000 -17.1140000  11.6170000
  28.7390000 -17.4470000  10.5190000  28.5400000 -16.2880000  12.4400000
  28.9730000 -16.0700000  13.3260000  27.2590000 -15.6300000  12.1800000
  26.9860000 -15.7780000  11.1350000  26.1610000 -16.2760000  13.0440000
  26.3650000 -16.0600000  14.0920000  25.2040000 -15.8200000  12.7900000
  26.0210000 -17.7750000  12.8830000  26.7660000 -18.7520000  13.5560000
  26.3190000 -19.9370000  13.1020000  26.6880000 -20.9010000  13.4190000
  25.3440000 -19.7520000  12.1940000  24.8520000 -20.4880000  11.7090000
  25.1420000 -18.3970000  12.0440000  24.4290000 -17.9150000  11.3920000
  27.3250000 -14.1010000  12.4000000  26.2880000 -13.4350000  12.3860000
  28.5200000 -13.5150000  12.5460000  29.3330000 -14.1080000  12.6310000
  28.7350000 -12.0670000  12.3790000  27.8650000 -11.5380000  12.7680000
  29.9620000 -11.5560000  13.1500000  30.8710000 -11.9930000  12.7350000
  30.0550000 -10.0330000  13.1010000  29.1310000  -9.5910000  13.4740000
  30.8890000  -9.6870000  13.7110000  30.2110000  -9.7010000  12.0750000
  29.8780000 -11.8630000  14.5220000  30.6680000 -11.5150000  14.9410000
  28.8840000 -11.7140000  10.8920000  29.6410000 -12.3730000  10.1730000
  28.1980000 -10.6600000  10.4320000  27.6020000 -10.1710000  11.0850000
  28.0920000 -10.2770000   9.0160000  28.9130000 -10.7280000   8.4580000
  26.7640000 -10.8050000   8.4430000  25.9460000 -10.2450000   8.8940000
  26.7450000 -10.5970000   7.3730000  26.4820000 -12.2650000   8.6270000
  25.4710000 -12.7770000   9.3660000  24.7540000 -12.1930000   9.9240000
  25.5120000 -14.1560000   9.3170000  24.8490000 -14.7450000   9.8020000
  26.5660000 -14.6060000   8.5510000  27.0290000 -15.8870000   8.2160000
  26.5360000 -16.7660000   8.6020000  28.1480000 -16.0120000   7.3750000
  28.5180000 -16.9910000   7.1090000  28.7800000 -14.8590000   6.8730000
  29.6340000 -14.9620000   6.2190000  28.3090000 -13.5770000   7.2190000
  28.8040000 -12.7000000   6.8280000  27.1960000 -13.4150000   8.0760000
  28.1360000  -8.7570000   8.7990000  27.5440000  -8.0010000   9.5660000
  28.7690000  -8.3030000   7.7090000  29.3020000  -8.9610000   7.1590000
  28.5060000  -6.9670000   7.1290000  28.3140000  -6.2580000   7.9340000
  29.7340000  -6.4630000   6.3310000  29.9490000  -7.1960000   5.5550000
  29.4420000  -5.1290000   5.6240000  29.1190000  -4.3760000   6.3430000
  30.3400000  -4.7850000   5.1100000  28.6600000  -5.2540000   4.8750000
  31.0130000  -6.3370000   7.1930000  31.2530000  -7.3110000   7.6190000
  31.8440000  -6.0620000   6.5430000  30.9470000  -5.3160000   8.3370000
  30.1110000  -5.5450000   8.9970000  31.8720000  -5.3620000   8.9120000
  30.8330000  -4.3050000   7.9460000  27.2210000  -7.0130000   6.2810000
  26.2940000  -6.2350000   6.5020000  27.1330000  -7.9720000   5.3530000
  27.9420000  -8.5560000   5.1980000  25.9420000  -8.2770000   4.5530000
  25.1540000  -7.5510000   4.7540000  26.3080000  -8.1840000   3.0610000
  27.1030000  -8.8940000   2.8320000  25.4400000  -8.4520000   2.4590000
  26.7490000  -6.7900000   2.6480000  25.9470000  -5.8790000   2.4960000
  28.0300000  -6.5810000   2.4470000  28.3340000  -5.6670000   2.1430000
  28.6880000  -7.3270000   2.6230000  25.4200000  -9.6800000   4.9170000
  26.1350000 -10.6680000   4.7420000  24.1920000  -9.7760000   5.4470000
  23.6350000  -8.9380000   5.5330000  23.5950000 -11.0570000   5.8860000
  24.2850000 -11.5220000   6.5910000  22.2690000 -10.8380000   6.6460000
  21.5480000 -10.3540000   5.9870000  21.6680000 -12.1610000   7.1340000
  22.3840000 -12.6870000   7.7650000  20.7630000 -11.9680000   7.7090000
  21.3940000 -12.7900000   6.2870000  22.4730000  -9.9470000   7.8780000
  22.7450000  -8.9380000   7.5680000  21.5460000  -9.8790000   8.4480000
  23.2550000 -10.3580000   8.5180000  23.3780000 -11.9900000   4.6750000
  22.6910000 -11.5820000   3.7310000  23.9240000 -13.2260000   4.6650000
  24.9250000 -13.7420000   5.5870000  24.4360000 -14.1830000   6.4560000
  25.6260000 -12.9680000   5.8980000  25.6830000 -14.8140000   4.8120000
  26.0980000 -15.5760000   5.4720000  26.4670000 -14.3500000   4.2140000
  24.6070000 -15.3920000   3.9000000  24.0410000 -16.1440000   4.4510000
  25.0390000 -15.8270000   2.9990000  23.7180000 -14.1850000   3.5750000
  24.0730000 -13.7180000   2.6570000  22.2490000 -14.6220000   3.4280000
  21.5380000 -14.6730000   4.4350000  21.7920000 -15.0390000   2.2290000
  22.5100000 -14.9730000   0.9630000  23.2070000 -15.8080000   0.8950000
  23.0370000 -14.0270000   0.8410000  21.4430000 -15.0980000  -0.1210000
  21.8420000 -15.5490000  -1.0300000  21.0150000 -14.1180000  -0.3300000
  20.3930000 -15.9860000   0.5410000  20.7060000 -17.0280000   0.4660000
  19.4090000 -15.8480000   0.0940000  20.4230000 -15.5220000   2.0000000
  19.7400000 -14.6790000   2.1070000  19.9800000 -16.6430000   2.9560000
  18.8300000 -16.6700000   3.3980000  20.9040000 -17.5410000   3.3200000
  21.8160000 -17.4820000   2.8900000  20.6790000 -18.6190000   4.2890000
  19.8100000 -19.1940000   3.9710000  21.9030000 -19.5430000   4.2540000
  22.7920000 -18.9980000   4.5720000  21.7450000 -20.3860000   4.9260000
  22.0530000 -19.9220000   3.2430000  20.4060000 -18.1250000   5.7290000
  19.7770000 -18.8350000   6.5150000  20.8700000 -16.9250000   6.0900000
  21.3350000 -16.3650000   5.3900000  20.7510000 -16.3390000   7.4350000
  20.4680000 -17.1160000   8.1450000  22.1180000 -15.7840000   7.8680000
  22.4500000 -15.0400000   7.1430000  22.0110000 -15.2880000   8.8330000
  23.2020000 -16.8640000   8.0040000  23.4310000 -17.2620000   7.0150000
  24.1100000 -16.3940000   8.3820000  22.7910000 -18.0080000   8.9540000
  22.1730000 -17.7370000  10.0140000  23.0880000 -19.1880000   8.6420000
  19.6530000 -15.2680000   7.5530000  19.3720000 -14.7960000   8.6530000
  18.9380000 -14.9450000   6.4690000  19.2160000 -15.3320000   5.5790000
  17.7940000 -14.0160000   6.5030000  18.1340000 -13.0660000   6.9160000
  17.2630000 -13.7490000   5.0860000  17.0010000 -14.6970000   4.6150000
  16.3630000 -13.1390000   5.1640000  18.2820000 -12.9950000   4.2190000
  18.6120000 -12.1110000   4.7640000  19.1520000 -13.6310000   4.0570000
  17.7060000 -12.5680000   2.8520000  16.8380000 -13.2740000   2.2810000
  18.1310000 -11.5110000   2.3240000  16.6590000 -14.5140000   7.4180000
  15.9830000 -13.7060000   8.0570000  16.5030000 -15.8410000   7.5720000
  17.0610000 -16.4470000   6.9870000  15.5860000 -16.4540000   8.5550000
  14.5890000 -16.0540000   8.3700000  15.5080000 -17.9790000   8.3440000
  14.6960000 -18.3640000   8.9610000  15.2530000 -18.1760000   7.3030000
  16.7960000 -18.7440000   8.7000000  17.6160000 -18.3910000   8.0740000
  17.0470000 -18.5660000   9.7460000  16.6020000 -20.2550000   8.5020000
  15.7440000 -20.5710000   9.0950000  16.3900000 -20.4730000   7.4550000
  17.8220000 -21.0620000   8.9760000  18.1760000 -20.6410000   9.9170000
  17.4970000 -22.0830000   9.1770000  18.9180000 -21.0890000   7.9670000
  19.1950000 -20.1630000   7.6740000  19.7360000 -21.5540000   8.3340000
  18.6330000 -21.5940000   7.1390000  15.9160000 -16.0920000  10.0130000
  15.0160000 -16.0440000  10.8510000  17.1920000 -15.8190000  10.3110000
  17.8630000 -15.8280000   9.5570000  17.6650000 -15.3540000  11.6190000
  16.9820000 -15.6960000  12.3970000  19.0490000 -15.9830000  11.8860000
  19.7200000 -15.7780000  11.0520000  19.4880000 -15.5280000  12.7740000
  18.9800000 -17.4830000  12.1330000  18.1250000 -17.9780000  12.8550000
  19.8550000 -18.2680000  11.5450000  19.8110000 -19.2560000  11.7470000
  20.6190000 -17.8970000  10.9980000  17.7130000 -13.8180000  11.7440000
  17.9970000 -13.3140000  12.8290000  17.4040000 -13.0580000  10.6900000
  17.1210000 -13.5060000   9.8300000  17.5150000 -11.5980000  10.6820000
  18.3210000 -11.3100000  11.3560000  17.9270000 -11.1260000   9.2770000
  18.7490000 -11.7620000   8.9480000  17.0960000 -11.3020000   8.5950000
  18.3890000  -9.6830000   9.0900000  18.5070000  -8.7620000  10.1580000
  18.2550000  -9.0410000  11.1710000  18.9480000  -7.4450000   9.9150000
  19.0190000  -6.7380000  10.7290000  19.2870000  -7.0370000   8.6060000
  19.7230000  -5.7690000   8.3600000  19.4080000  -5.1350000   9.0080000
  19.1900000  -7.9620000   7.5450000  19.4540000  -7.6520000   6.5450000
  18.7370000  -9.2720000   7.7870000  18.6580000  -9.9680000   6.9650000
  16.2220000 -10.9550000  11.2050000  15.2410000 -10.8020000  10.4720000
  16.2170000 -10.6110000  12.5000000  17.0400000 -10.7960000  13.0540000
  15.1390000  -9.8500000  13.1290000  14.2450000 -10.4720000  13.1530000
  15.5450000  -9.4990000  14.5670000  16.4390000  -8.8760000  14.5600000
  14.7390000  -8.9500000  15.0530000  15.7480000 -10.4060000  15.1360000
  14.8160000  -8.5660000  12.3450000  15.7200000  -7.8920000  11.8450000
  13.5390000  -8.1920000  12.2710000  12.8580000  -8.7580000  12.7560000
  13.1640000  -6.8100000  11.9740000  13.7500000  -6.4450000  11.1300000
  11.6870000  -6.7200000  11.5890000  11.0850000  -7.2410000  12.3340000
  11.3930000  -5.6710000  11.6040000  11.3810000  -7.2570000  10.2270000
  10.8100000  -8.4490000   9.9600000  10.4990000  -9.1620000  10.7100000
  10.6870000  -8.6160000   8.5950000  10.2740000  -9.4370000   8.1760000
  11.1890000  -7.5320000   7.9060000  11.2950000  -7.2260000   6.5410000
  10.9370000  -7.9220000   5.7960000  11.8740000  -6.0030000   6.1570000
  11.9670000  -5.7520000   5.1110000  12.3400000  -5.1080000   7.1400000
  12.7940000  -4.1750000   6.8400000  12.2310000  -5.4300000   8.5070000
  12.6030000  -4.7450000   9.2540000  11.6500000  -6.6460000   8.9270000
  13.4720000  -5.9200000  13.1780000  13.1210000  -6.2610000  14.3120000
  14.1110000  -4.7790000  12.9230000  14.3410000  -4.5730000  11.9610000
  14.0770000  -3.6320000  13.8230000  14.3590000  -3.9330000  14.8320000
  14.7880000  -2.8840000  13.4730000  12.6830000  -3.0050000  13.8430000
  11.9330000  -3.1490000  12.8760000  12.3490000  -2.2580000  14.8960000
  12.9820000  -2.2180000  15.6820000  11.0630000  -1.5580000  15.0020000
  10.5870000  -1.5610000  14.0210000  10.1100000  -2.3110000  15.9400000
  10.6110000  -2.4910000  16.8910000   9.2450000  -1.6790000  16.1410000
   9.6150000  -3.6220000  15.3520000   8.5140000  -3.6150000  14.4720000
   7.9990000  -2.6910000  14.2580000   8.0910000  -4.8090000  13.8540000
   7.2470000  -4.7970000  13.1810000   8.7700000  -6.0180000  14.1200000
   8.3750000  -7.1710000  13.5120000   7.8570000  -6.9890000  12.7240000
   9.8570000  -6.0300000  15.0190000  10.3770000  -6.9560000  15.2120000
  10.2790000  -4.8330000  15.6320000  11.1310000  -4.8370000  16.2960000
  11.2320000  -0.0880000  15.3980000  11.8830000   0.2370000  16.3950000
  10.6240000   0.7970000  14.5940000  10.1390000   0.4260000  13.7890000
  10.6340000   2.2630000  14.7530000  10.9860000   2.5200000  15.7520000
  11.6080000   2.8590000  13.7180000  12.5690000   2.3520000  13.8000000
  11.2220000   2.6890000  12.7130000  11.8140000   4.3640000  13.9430000
  10.8440000   4.8610000  13.9440000  12.2850000   4.5230000  14.9130000
  12.6870000   4.9980000  12.8500000  13.6870000   4.5680000  12.9050000
  12.2760000   4.7660000  11.8680000  12.7770000   6.4630000  13.0280000
  13.6280000   6.8140000  13.4430000  11.8430000   7.3600000  12.7580000
  10.7120000   7.0380000  12.1990000  10.5510000   6.0790000  11.9260000
   9.9460000   7.6950000  12.1600000  12.0240000   8.6120000  13.0590000
  12.8830000   8.9120000  13.4970000  11.3160000   9.2960000  12.8350000
   9.2160000   2.8090000  14.5720000   8.6200000   2.6330000  13.5150000
   8.6500000   3.4100000  15.6210000   9.2050000   3.5210000  16.4570000
   7.2690000   3.9430000  15.6450000   7.0350000   4.2300000  16.6700000
   7.1640000   5.2240000  14.7850000   7.3810000   4.9880000  13.7430000
   6.1440000   5.6040000  14.8460000   8.1090000   6.3350000  15.2690000
   7.9360000   6.4940000  16.3330000   9.1430000   6.0130000  15.1450000
   7.9050000   7.6590000  14.5050000   7.9540000   7.6720000  13.2490000
   7.7300000   8.7150000  15.1610000   6.2220000   2.8650000  15.2640000
   5.2080000   3.1400000  14.6170000   6.4840000   1.6120000  15.6630000
   7.3080000   1.4690000  16.2290000   5.6600000   0.4320000  15.3640000
   5.8640000  -0.3350000  16.1110000   4.6060000   0.6980000  15.4490000
   5.8780000  -0.1960000  13.9760000   5.3230000  -1.2630000  13.7030000
   6.6880000   0.4240000  13.1020000   7.1250000   1.2860000  13.3950000
   6.9950000  -0.0550000  11.7400000   6.1570000  -0.6500000  11.3780000
   7.1780000   1.1330000  10.7780000   8.0200000   1.7440000  11.1040000
   7.4140000   0.7350000   9.7910000   5.9210000   2.0150000  10.6770000
   5.0710000   1.4010000  10.3800000   5.7080000   2.4450000  11.6560000
   6.0790000   3.1720000   9.6780000   5.2020000   3.8150000   9.7630000
   6.9600000   3.7560000   9.9420000   6.1960000   2.6760000   8.2280000
   7.0930000   2.0650000   8.1320000   5.3350000   2.0450000   8.0050000
   6.2530000   3.8080000   7.2650000   7.0510000   4.4020000   7.4390000
   6.3270000   3.4720000   6.3150000   5.4220000   4.3800000   7.3180000
   8.2450000  -0.9410000  11.7200000   9.2690000  -0.5740000  12.2970000
   8.1660000  -2.0870000  11.0430000   7.2870000  -2.3190000  10.6030000
   9.3120000  -2.9550000  10.7650000   9.8030000  -3.1900000  11.7100000
   8.7940000  -4.2650000  10.1620000   8.2860000  -4.0690000   9.2180000
   9.6330000  -4.9370000   9.9780000   8.1020000  -4.7480000  10.8520000
  10.3310000  -2.2690000   9.8270000   9.9500000  -1.7490000   8.7730000
  11.6190000  -2.2790000  10.1950000  11.8420000  -2.7120000  11.0790000
  12.7200000  -1.5760000   9.5000000  12.4720000  -1.5170000   8.4400000
  12.8980000  -0.1270000  10.0210000  13.7420000   0.3120000   9.4890000
  11.6900000   0.7750000   9.7420000  10.8330000   0.4620000  10.3390000
  11.9360000   1.8060000   9.9970000  11.4320000   0.7290000   8.6840000
  13.2130000  -0.0520000  11.5200000  14.1070000  -0.6370000  11.7380000
  13.4010000   0.9840000  11.8020000  12.3750000  -0.4320000  12.1030000
  14.0670000  -2.3190000   9.6040000  14.3020000  -3.1000000  10.5280000
  14.9660000  -2.0280000   8.6590000  14.6840000  -1.3780000   7.9390000
  16.3790000  -2.4460000   8.6080000  16.7220000  -2.7630000   9.5930000
  16.5650000  -3.5960000   7.6010000  16.0670000  -3.3340000   6.6670000
  17.6290000  -3.6920000   7.3860000  16.0870000  -4.9610000   8.0450000
  15.7660000  -6.0200000   7.1850000  15.5510000  -7.0860000   7.9800000
  15.3010000  -8.0770000   7.6330000  15.7370000  -6.7530000   9.2680000
  15.7180000  -7.3890000  10.0530000  16.0870000  -5.4260000   9.3280000
  16.3780000  -4.8730000  10.2090000  17.2530000  -1.2600000   8.1740000
  16.7950000  -0.4070000   7.4060000  18.4940000  -1.1810000   8.6690000
  18.8050000  -1.9090000   9.2960000  19.4270000  -0.0810000   8.3570000
  18.9690000   0.8360000   8.7270000  20.7550000  -0.2490000   9.1200000
  20.5050000  -0.3400000  10.1770000  21.5890000  -1.4740000   8.7200000
  21.9920000  -1.3490000   7.7140000  22.4150000  -1.5950000   9.4200000
  20.9720000  -2.3710000   8.7470000  21.6440000   0.9870000   8.9850000
  21.0870000   1.8750000   9.2810000  22.5090000   0.8870000   9.6400000
  21.9840000   1.1020000   7.9550000  19.6470000   0.0950000   6.8460000
  19.9360000  -0.8640000   6.1220000  19.5000000   1.3300000   6.3580000
  19.2320000   2.0740000   6.9860000  19.6990000   1.6760000   4.9430000
  19.1050000   0.9840000   4.3450000  19.1880000   3.0940000   4.6550000
  19.7610000   3.8120000   5.2420000  19.3290000   3.3160000   3.5970000
  17.8090000   3.2070000   4.9780000  17.5260000   4.1000000   4.7670000
  21.1770000   1.5910000   4.5200000  22.0550000   1.9570000   5.3130000
  21.4810000   1.1920000   3.2670000  20.5930000   0.5450000   2.3140000
  19.9650000   1.2950000   1.8320000  19.9780000  -0.2200000   2.7890000
  21.5120000  -0.1050000   1.2830000  21.0250000  -0.2070000   0.3130000
  21.8490000  -1.0750000   1.6490000  22.6900000   0.8640000   1.2290000
  22.4440000   1.6890000   0.5600000  23.6040000   0.3690000   0.9020000
  22.8060000   1.3680000   2.6730000  23.5130000   0.7400000   3.2160000
  23.2720000   2.8320000   2.7170000  22.4750000   3.7510000   2.4930000
  24.5580000   3.0590000   2.9890000  25.1570000   2.2660000   3.1700000
  25.1490000   4.4020000   3.0620000  24.6660000   5.0540000   2.3350000
  24.9780000   4.8140000   4.0570000  26.6550000   4.4190000   2.7930000
  27.3440000   3.4110000   2.9550000  27.1890000   5.5750000   2.3960000
  26.5910000   6.3810000   2.2850000  28.6220000   5.7320000   2.1590000
  28.9390000   4.9590000   1.4580000  28.8500000   7.0870000   1.4840000
  28.5410000   7.8960000   2.1460000  29.9050000   7.1980000   1.2340000
  28.2710000   7.1370000   0.5610000  29.4160000   5.5580000   3.4750000
  29.1860000   6.2830000   4.4470000  30.3180000   4.5640000   3.4970000
  30.4210000   4.0240000   2.6500000  31.1260000   4.1190000   4.6520000
  31.7860000   3.3370000   4.2780000  32.0470000   5.2440000   5.1810000
  31.4320000   6.0370000   5.6060000  32.6550000   4.8420000   5.9920000
  32.9970000   5.8480000   4.1290000  32.4370000   6.1550000   3.2460000
  33.6790000   7.0820000   4.7070000  34.2190000   6.8260000   5.6190000
  34.3810000   7.4980000   3.9830000  32.9280000   7.8390000   4.9350000
  34.0880000   4.8640000   3.7100000  33.6450000   4.0000000   3.2140000
  34.7740000   5.3450000   3.0130000  34.6390000   4.5300000   4.5880000
  30.2990000   3.4240000   5.7660000  30.6990000   3.4110000   6.9340000
  29.1450000   2.8370000   5.4200000  28.8550000   2.8870000   4.4540000
  28.2650000   2.1170000   6.3540000  27.9630000   2.8290000   7.1230000
  26.9690000   1.6500000   5.6600000  26.3840000   1.0840000   6.3850000
  26.3920000   2.5410000   5.4120000  27.0980000   0.8030000   4.3700000
  28.2050000   0.3450000   3.9930000  26.0390000   0.5630000   3.7400000
  28.9500000   0.9620000   7.1120000  28.9490000   0.9510000   8.3440000
  29.5560000   0.0090000   6.4030000  29.4620000   0.0660000   5.3990000
  30.2600000  -1.1480000   6.9600000  29.5340000  -1.8010000   7.4440000
  30.8990000  -1.9220000   5.7990000  31.6200000  -1.2940000   5.2750000
  31.4170000  -2.8010000   6.1830000  30.1280000  -2.2380000   5.0970000
  31.3110000  -0.7520000   8.0160000  31.3300000  -1.3000000   9.1200000
  32.1530000   0.2270000   7.6850000  32.0880000   0.6020000   6.7490000
  33.2040000   0.7790000   8.5360000  33.8490000  -0.0340000   8.8710000
  34.0610000   1.7630000   7.7180000  33.4520000   2.6020000   7.3800000
  34.8210000   2.1540000   8.3940000  34.8030000   1.1540000   6.5200000
  35.6730000   1.7840000   6.3340000  35.1750000   0.1700000   6.8070000
  34.0120000   1.0510000   5.1940000  32.7710000   1.2270000   5.1700000
  34.6540000   0.7840000   4.1480000  32.6790000   1.4810000   9.8030000
  33.3320000   1.4170000  10.8460000  31.5270000   2.1600000   9.7340000
  31.0520000   2.2000000   8.8440000  31.0290000   3.0090000  10.8220000
  31.8470000   3.2200000  11.5110000  30.6120000   4.3520000  10.2090000
  29.8200000   4.2040000   9.4750000  30.2600000   5.0200000  10.9950000
  31.4660000   4.8140000   9.7140000  29.8980000   2.3970000  11.6750000
  29.8140000   2.7170000  12.8620000  29.0120000   1.5650000  11.1160000
  29.0950000   1.3960000  10.1240000  27.7880000   1.1020000  11.8040000
  28.0400000   0.9050000  12.8450000  26.7520000   2.2430000  11.7980000
  25.8510000   1.9130000  12.3150000  27.1450000   3.0750000  12.3820000
  26.3510000   2.7590000  10.4260000  25.3560000   2.0950000   9.6810000
  24.9110000   1.1880000  10.0600000  24.9130000   2.6340000   8.4570000
  24.1440000   2.1310000   7.8900000  25.4580000   3.8450000   7.9780000
  25.0000000   4.3910000   6.8200000  24.2470000   3.9060000   6.4750000
  26.4730000   4.4950000   8.7120000  26.8890000   5.4190000   8.3380000
  26.9180000   3.9500000   9.9320000  27.6700000   4.4690000  10.5090000
  27.1540000  -0.2010000  11.2650000  26.1510000  -0.6610000  11.8120000
  27.7000000  -0.8010000  10.2030000  28.5060000  -0.3610000   9.7820000
  26.9900000  -1.7900000   9.3810000  25.9570000  -1.4620000   9.2640000
  27.4330000  -1.7870000   8.3850000  26.9520000  -3.2490000   9.8580000
  26.3100000  -4.0470000   9.1790000  27.6320000  -3.6430000  10.9420000
  28.0760000  -2.9360000  11.5120000  27.6950000  -5.0500000  11.4120000
  27.9680000  -5.6600000  10.5500000  28.8020000  -5.2600000  12.4730000
  28.5630000  -4.6640000  13.3540000  28.9290000  -6.7290000  12.9050000
  29.0960000  -7.3610000  12.0340000  29.7700000  -6.8430000  13.5900000
  28.0300000  -7.0590000  13.4250000  30.1980000  -4.8560000  11.9770000
  30.1890000  -3.8490000  11.5600000  30.9010000  -4.8780000  12.8100000
  30.5420000  -5.5540000  11.2140000  26.3390000  -5.5740000  11.9280000
  25.6080000  -4.8680000  12.6240000  26.0270000  -6.8420000  11.6320000
  26.6650000  -7.3320000  11.0210000  24.9310000  -7.6490000  12.2010000
  24.3900000  -7.0630000  12.9450000  23.9410000  -8.1200000  11.1120000
  24.4560000  -8.7650000  10.4000000  23.1800000  -8.7250000  11.6030000
  23.2130000  -6.9970000  10.3520000  22.2530000  -7.3810000  10.0070000
  23.0260000  -6.1690000  11.0350000  23.9940000  -6.4950000   9.1290000
  24.9770000  -6.1460000   9.4440000  24.1430000  -7.3140000   8.4250000
  23.2530000  -5.3450000   8.4350000  22.3640000  -5.7400000   7.9420000
  22.9260000  -4.6290000   9.1900000  24.1460000  -4.6650000   7.4530000
  24.5510000  -5.3220000   6.8010000  23.6590000  -3.9480000   6.9340000
  24.9330000  -4.2490000   7.9310000  25.5320000  -8.8760000  12.8950000
  26.4540000  -9.4810000  12.3500000  25.0560000  -9.2400000  14.0880000
  24.3030000  -8.7070000  14.4980000  25.6140000 -10.3770000  14.8470000
  25.9580000 -11.1350000  14.1440000  26.8280000  -9.9020000  15.6490000
  27.5230000  -9.3880000  14.9860000  26.5020000  -9.2100000  16.4260000
  27.4770000 -11.0050000  16.2410000  28.3800000 -10.7560000  16.4490000
  24.5970000 -11.0560000  15.7730000  23.5680000 -10.4650000  16.1110000
  24.8670000 -12.3070000  16.1590000  25.7790000 -12.6710000  15.9230000
  24.0950000 -13.0570000  17.1630000  23.0490000 -12.7680000  17.0660000
  24.1850000 -14.5800000  16.9580000  23.5000000 -15.0600000  17.6570000
  23.8030000 -15.0170000  15.5480000  24.5200000 -14.6240000  14.8270000
  23.7880000 -16.1050000  15.4860000  22.8090000 -14.6390000  15.3090000
  25.4870000 -15.0560000  17.2170000  25.5300000 -15.9660000  16.9120000
  24.5260000 -12.7210000  18.5890000  25.6530000 -12.2830000  18.8310000
  23.6540000 -12.9780000  19.5710000  22.7280000 -13.3070000  19.3370000
  24.0210000 -12.8210000  20.9890000  24.4170000 -11.8110000  21.0950000
  22.7650000 -12.9320000  21.8880000  21.9880000 -12.3030000  21.4540000
  22.2130000 -14.3660000  21.9480000  22.9210000 -15.0370000  22.4330000
  21.2800000 -14.3830000  22.5110000  22.0040000 -14.7200000  20.9380000
  23.0160000 -12.4440000  23.3280000  22.1850000 -12.7420000  23.9670000
  23.9220000 -12.9080000  23.7170000  23.1480000 -10.9210000  23.4200000
  22.2370000 -10.4440000  23.0570000  23.3150000 -10.6290000  24.4560000
  23.9930000 -10.5820000  22.8200000  25.1650000 -13.7700000  21.3940000
  26.0310000 -13.3900000  22.1780000  25.2200000 -14.9760000  20.8160000
  24.4770000 -15.2330000  20.1810000  26.3350000 -15.9190000  20.9840000
  26.4600000 -16.1180000  22.0480000  26.0290000 -17.2580000  20.2960000
  25.7310000 -17.0760000  19.2630000  26.9310000 -17.8700000  20.3010000
  24.9240000 -18.0230000  21.0340000  25.2280000 -18.1480000  22.0730000
  24.0160000 -17.4200000  21.0310000  24.6240000 -19.4100000  20.4260000
  24.7420000 -19.6080000  19.1920000  24.2260000 -20.3170000  21.1980000
  27.6750000 -15.3510000  20.4980000  28.6350000 -15.2990000  21.2720000
  27.7530000 -14.9010000  19.2440000  26.9330000 -14.9280000  18.6550000
  28.9820000 -14.3250000  18.6890000  29.7970000 -15.0210000  18.8870000
  28.8920000 -14.1590000  17.1670000  27.9570000 -13.6590000  16.9140000
  29.7130000 -13.5150000  16.8500000  29.0030000 -15.4850000  16.3840000
  29.2500000 -16.5630000  16.9820000  28.9030000 -15.4370000  15.1370000
  29.3880000 -13.0170000  19.3790000  30.5730000 -12.8160000  19.6400000
  28.4380000 -12.1530000  19.7500000  27.4830000 -12.3240000  19.4710000
  28.7470000 -10.9780000  20.5720000  29.5610000 -10.4400000  20.0860000
  27.5420000 -10.0370000  20.6550000  26.6680000 -10.5990000  20.9840000
  27.7640000  -9.2630000  21.3890000  27.2240000  -9.3520000  19.3250000
  26.8710000 -10.1080000  18.6230000  26.4090000  -8.6460000  19.4840000
  28.6090000  -8.4680000  18.5540000  28.9700000  -7.2200000  19.8170000
  29.3230000  -7.7000000  20.7290000  29.7470000  -6.5510000  19.4480000
  28.0680000  -6.6460000  20.0310000  29.2650000 -11.3320000  21.9740000
  30.1790000 -10.6740000  22.4720000  28.7480000 -12.3820000  22.6200000
  27.9670000 -12.8810000  22.2180000  29.3260000 -12.8740000  23.8730000
  29.3680000 -12.0370000  24.5690000  28.4100000 -13.9410000  24.4740000
  28.3870000 -14.8200000  23.8300000  28.7770000 -14.2260000  25.4610000
  27.4010000 -13.5400000  24.5730000  30.7710000 -13.3750000  23.6840000
  31.6540000 -13.0440000  24.4780000  31.0400000 -14.1060000  22.5940000
  30.2640000 -14.3770000  22.0070000  32.3950000 -14.5450000  22.2110000
  32.8440000 -15.0310000  23.0780000  32.2700000 -15.6020000  21.1010000
  31.5250000 -16.3360000  21.4080000  31.9290000 -15.1340000  20.1770000
  33.5940000 -16.3330000  20.8500000  34.3050000 -15.6530000  20.3800000
  34.0060000 -16.6760000  21.7990000  33.3770000 -17.5430000  19.9370000
  32.6800000 -18.2400000  20.4020000  32.9340000 -17.2060000  18.9990000
  34.6610000 -18.1990000  19.6430000  35.1630000 -17.8240000  18.8500000
  35.2500000 -19.1740000  20.3100000  34.7040000 -19.7390000  21.3500000
  33.7930000 -19.4300000  21.6590000  35.1780000 -20.4790000  21.8460000
  36.4230000 -19.6000000  19.9420000  36.9000000 -19.1610000  19.1680000
  36.8830000 -20.3360000  20.4580000  33.3280000 -13.3800000  21.8520000
  34.5130000 -13.4240000  22.1810000  32.8080000 -12.3030000  21.2630000
  31.8620000 -12.3750000  20.9180000  33.5120000 -11.0250000  21.0920000
  34.4380000 -11.2170000  20.5480000  32.6600000 -10.0800000  20.2310000
  32.4420000 -10.5740000  19.2840000  31.7060000  -9.9020000  20.7280000
  33.2610000  -8.7460000  19.9210000  32.7310000  -7.5410000  20.2410000
  31.8070000  -7.3950000  20.7810000  33.5190000  -6.5300000  19.7180000
  33.2690000  -5.5520000  19.7330000  34.6090000  -7.0410000  19.0510000
  35.6730000  -6.4430000  18.3660000  35.7350000  -5.3670000  18.2940000
  36.6310000  -7.2620000  17.7520000  37.4310000  -6.8240000  17.1720000
  36.5470000  -8.6580000  17.8690000  37.3000000  -9.2770000  17.4030000
  35.4790000  -9.2520000  18.5660000  35.4120000 -10.3280000  18.6230000
  34.4760000  -8.4580000  19.1650000  33.9150000 -10.3970000  22.4350000
  35.0760000 -10.0230000  22.6050000  33.0130000 -10.3640000  23.4240000
  32.0650000 -10.6400000  23.2100000  33.3390000  -9.9710000  24.8120000
  33.7890000  -8.9790000  24.7690000  32.0910000  -9.8490000  25.7070000
  31.4600000 -10.7320000  25.5990000  32.4310000  -9.6710000  27.1940000
  33.1510000  -8.8630000  27.3180000  31.5300000  -9.4360000  27.7610000
  32.8480000 -10.5940000  27.5970000  31.2990000  -8.6140000  25.2860000
  30.9430000  -8.7270000  24.2620000  30.4430000  -8.4830000  25.9470000
  31.9310000  -7.7280000  25.3510000  34.4130000 -10.8610000  25.4310000
  35.4000000 -10.3260000  25.9190000  34.2900000 -12.1930000  25.3810000
  33.4400000 -12.5820000  24.9990000  35.3660000 -13.1030000  25.8210000
  35.5030000 -12.9880000  26.8960000  34.9910000 -14.5680000  25.5420000
  34.7300000 -14.6750000  24.4890000  35.8670000 -15.1890000  25.7300000
  33.8410000 -15.1100000  26.4070000  34.1310000 -15.0740000  27.4570000
  32.9490000 -14.4960000  26.2800000  33.5050000 -16.5480000  26.0080000
  33.0560000 -16.8260000  24.9040000  33.7210000 -17.5200000  26.8680000
  33.5320000 -18.4670000  26.5720000  34.0540000 -17.3220000  27.8010000
  36.7180000 -12.7710000  25.1550000  37.7330000 -12.6190000  25.8360000
  36.7210000 -12.5920000  23.8300000  35.8510000 -12.7360000  23.3380000
  37.9180000 -12.2250000  23.0480000  38.6750000 -12.9970000  23.1860000
  37.5870000 -12.1550000  21.5500000  36.8850000 -11.3440000  21.3530000
  38.5010000 -11.9520000  20.9920000  37.0360000 -13.3830000  21.1030000
  36.1640000 -13.4930000  21.4900000  38.5340000 -10.8930000  23.4940000
  39.7550000 -10.7520000  23.5310000  37.6980000  -9.9200000  23.8690000
  36.7050000 -10.1000000  23.8170000  38.1330000  -8.6090000  24.3520000
  39.0440000  -8.3350000  23.8210000  37.0680000  -7.5610000  23.9910000
  36.0630000  -7.9370000  24.1840000  37.2170000  -6.6820000  24.6190000
  37.1950000  -7.0930000  22.5510000  37.9040000  -6.1420000  22.2540000
  36.5370000  -7.7450000  21.6230000  36.5980000  -7.4260000  20.6670000
  35.9500000  -8.5270000  21.8780000  38.5200000  -8.5920000  25.8480000
  39.4070000  -7.8240000  26.2200000  37.9190000  -9.4440000  26.6890000
  37.1420000  -9.9820000  26.3310000  38.3340000  -9.6920000  28.0790000
  38.3700000  -8.7400000  28.6090000  37.3120000 -10.6260000  28.7690000
  37.0130000 -11.3990000  28.0610000  37.7970000 -11.1350000  29.6020000
  36.0510000  -9.9270000  29.3090000  35.6530000  -9.2380000  28.5640000
  34.9840000 -10.9670000  29.6450000  35.3510000 -11.6540000  30.4070000
  34.0860000 -10.4710000  30.0110000  34.7340000 -11.5310000  28.7460000
  36.3680000  -9.1700000  30.5990000  37.0520000  -8.3490000  30.3830000
  35.4550000  -8.7640000  31.0340000  36.8290000  -9.8380000  31.3260000
  39.7440000 -10.3050000  28.1650000  40.5320000  -9.8990000  29.0220000
  40.0590000 -11.2660000  27.2810000  39.3280000 -11.5780000  26.6580000
  41.3520000 -11.9800000  27.2370000  42.0920000 -11.4410000  27.8290000
  41.2110000 -13.3780000  27.8710000  40.3710000 -13.9070000  27.4230000
  42.1220000 -13.9410000  27.6680000  41.0290000 -13.3150000  29.3890000
  41.8170000 -12.6960000  29.8190000  40.0600000 -12.8760000  29.6260000
  41.1130000 -14.7180000  29.9970000  40.3020000 -15.3360000  29.6100000
  42.0690000 -15.1730000  29.7400000  40.9960000 -14.5810000  31.5180000
  41.7840000 -13.9140000  31.8680000  40.0370000 -14.1170000  31.7510000
  41.1080000 -15.8910000  32.2140000  42.0240000 -16.2970000  32.0840000
  40.9620000 -15.7520000  33.2030000  40.4190000 -16.5490000  31.8790000
  41.9080000 -12.0810000  25.8050000  41.7740000 -13.1280000  25.1660000
  42.6210000 -11.0460000  25.3150000  42.7450000  -9.7110000  25.8900000
  43.0160000  -9.7370000  26.9460000  41.8050000  -9.1760000  25.7570000
  43.8480000  -9.0180000  25.0930000  44.8170000  -9.2340000  25.5420000
  43.6870000  -7.9420000  25.0320000  43.7570000  -9.6850000  23.7210000
  44.7070000  -9.6440000  23.1890000  42.9770000  -9.2000000  23.1340000
  43.3150000 -11.1180000  24.0280000  42.6050000 -11.4380000  23.2660000
  44.4940000 -12.1040000  24.0260000  44.8190000 -12.6610000  22.9820000
  45.1130000 -12.3680000  25.1840000  44.8190000 -11.8650000  26.0090000
  46.2520000 -13.2920000  25.3200000  47.0310000 -12.9800000  24.6250000
  46.8300000 -13.1980000  26.7460000  46.0240000 -13.0670000  27.4680000
  47.3210000 -14.1430000  26.9780000  47.8870000 -12.0880000  26.9270000
  48.7240000 -12.2900000  26.2600000  47.3660000 -10.6770000  26.6390000
  46.4930000 -10.4630000  27.2560000  48.1470000  -9.9500000  26.8610000
  47.1120000 -10.5820000  25.5830000  48.4070000 -12.1060000  28.3650000
  48.8100000 -13.0920000  28.5980000  49.2020000 -11.3700000  28.4770000
  47.5990000 -11.8740000  29.0600000  45.9130000 -14.7500000  24.9440000
  46.8080000 -15.5040000  24.5590000  44.6370000 -15.1440000  25.0060000
  43.9470000 -14.4860000  25.3400000  44.1680000 -16.4710000  24.5740000
  44.8850000 -17.2210000  24.9070000  42.8160000 -16.7970000  25.2380000
  42.1020000 -16.0180000  24.9720000  42.4470000 -17.7350000  24.8240000
  42.8560000 -16.9500000  26.7720000  43.9500000 -17.0420000  27.3800000
  41.7620000 -17.0300000  27.3800000  44.0580000 -16.6210000  23.0380000
  43.8990000 -17.7380000  22.5370000  44.1530000 -15.5220000  22.2750000
  44.3430000 -14.6420000  22.7340000  44.0350000 -15.5060000  20.8070000
  43.3110000 -16.2640000  20.5050000  43.5050000 -14.1390000  20.3140000
  44.2000000 -13.3670000  20.6470000  43.4520000 -14.0710000  18.7770000
  42.7920000 -14.8460000  18.3870000  43.0900000 -13.0970000  18.4490000
  44.4480000 -14.1960000  18.3520000  42.1150000 -13.8380000  20.9190000
  41.3630000 -14.4820000  20.4630000  42.1180000 -14.0370000  21.9900000
  41.7080000 -12.3750000  20.7550000  41.5270000 -12.1380000  19.7060000
  40.7960000 -12.1870000  21.3220000  42.5020000 -11.7260000  21.1230000
  45.3940000 -15.8560000  20.1840000  46.3650000 -15.1110000  20.3450000
  45.4680000 -16.9850000  19.4710000  44.6350000 -17.5510000  19.3890000
  46.7120000 -17.4920000  18.8730000  47.4790000 -17.5090000  19.6480000
  46.4910000 -18.9370000  18.3920000  45.7190000 -18.9470000  17.6220000
  47.4110000 -19.3110000  17.9430000  46.1140000 -19.8860000  19.5190000
  46.8220000 -20.0320000  20.5070000  44.9910000 -20.5630000  19.4170000
  44.7390000 -21.1880000  20.1690000  44.4090000 -20.4710000  18.5970000
  47.2580000 -16.6020000  17.7360000  48.4650000 -16.5750000  17.4920000
  46.3850000 -15.8530000  17.0550000  45.4030000 -15.9950000  17.2420000
  46.7280000 -14.8910000  16.0040000  47.4620000 -15.3370000  15.3330000
  45.4780000 -14.5630000  15.1620000  44.6780000 -14.1890000  15.8000000
  45.7410000 -13.7680000  14.4640000  44.9660000 -15.7530000  14.3300000
  44.2430000 -15.3710000  13.6110000  45.8020000 -16.1530000  13.7560000
  44.3020000 -16.8910000  15.1430000  43.7570000 -16.6490000  16.2480000
  44.3230000 -18.0510000  14.6610000  47.3570000 -13.6250000  16.6160000
  46.6610000 -12.7270000  17.0950000  48.6960000 -13.5610000  16.6010000
  49.1790000 -14.3570000  16.2090000  49.5210000 -12.5630000  17.3120000
  49.3820000 -12.6930000  18.3860000  51.0120000 -12.7970000  16.9810000
  51.1670000 -12.6490000  15.9120000  51.6120000 -12.0590000  17.5150000
  51.5210000 -14.1980000  17.3620000  51.4110000 -14.3410000  18.4370000
  50.9340000 -14.9560000  16.8420000  52.9950000 -14.3610000  16.9580000
  53.1010000 -14.0930000  15.9060000  53.6180000 -13.6840000  17.5430000
  53.4890000 -15.8050000  17.1200000  52.8120000 -16.4680000  16.5820000
  54.4690000 -15.8840000  16.6500000  53.5870000 -16.2180000  18.5470000
  52.6840000 -16.2070000  19.0010000  53.9510000 -17.1570000  18.6220000
  54.2080000 -15.6110000  19.0630000  49.1270000 -11.1180000  16.9940000
  48.9840000 -10.2960000  17.8980000  48.8990000 -10.8130000  15.7150000
  49.0230000 -11.5340000  15.0190000  48.5060000  -9.4630000  15.2770000
  49.1770000  -8.7540000  15.7620000  48.6750000  -9.2770000  13.7610000
  48.3920000  -8.2590000  13.4950000  50.1280000  -9.5000000  13.3340000
  50.4380000 -10.5250000  13.5370000  50.2280000  -9.3120000  12.2650000
  50.7810000  -8.8140000  13.8720000  47.8500000 -10.1670000  13.0460000
  47.0080000  -9.7170000  12.9480000  47.0930000  -9.0820000  15.7220000
  46.8790000  -7.9310000  16.0910000  46.1490000 -10.0290000  15.7900000
  46.3840000 -10.9670000  15.5010000  44.8050000  -9.7780000  16.3230000
  44.4560000  -8.8380000  15.8970000  43.8570000 -10.8920000  15.8480000
  43.8830000 -10.9280000  14.7590000  44.2230000 -11.8460000  16.2270000
  42.3950000 -10.7190000  16.3050000  42.3450000 -10.7360000  17.3940000
  41.7670000  -9.4170000  15.8030000  41.8690000  -9.3490000  14.7200000
  40.7100000  -9.3890000  16.0690000  42.2560000  -8.5610000  16.2690000
  41.5650000 -11.8820000  15.7730000  41.9150000 -12.8200000  16.2050000
  40.5200000 -11.7290000  16.0420000  41.6470000 -11.9370000  14.6870000
  44.8090000  -9.6100000  17.8500000  44.1820000  -8.6830000  18.3620000
  45.5680000 -10.4470000  18.5700000  46.0200000 -11.2080000  18.0840000
  45.8440000 -10.2840000  20.0070000  44.9120000 -10.4110000  20.5570000
  46.8180000 -11.3950000  20.4610000  46.2630000 -12.3320000  20.4880000
  47.6200000 -11.5050000  19.7310000  47.4640000 -11.1380000  21.8360000
  48.1140000 -10.2650000  21.7650000  46.6820000 -10.9150000  22.5610000
  48.3080000 -12.2940000  22.3850000  49.2140000 -12.0850000  23.1800000
  48.0890000 -13.5380000  22.0160000  48.6520000 -14.2630000  22.4380000
  47.3400000 -13.7860000  21.3850000  46.3570000  -8.8650000  20.3110000
  45.7410000  -8.1340000  21.0900000  47.4370000  -8.4440000  19.6420000
  47.9150000  -9.0940000  19.0340000  47.9670000  -7.0810000  19.7510000
  48.1870000  -6.8920000  20.8020000  49.2890000  -6.9860000  18.9740000
  49.9660000  -7.7510000  19.3550000  49.1050000  -7.1810000  17.9170000
  49.9610000  -5.6110000  19.1340000  49.3630000  -4.8480000  18.6360000
  50.0050000  -5.3650000  20.1950000  51.3820000  -5.5520000  18.5700000
  51.8240000  -6.3790000  17.7830000  52.1580000  -4.5570000  18.9470000
  53.1000000  -4.5210000  18.5860000  51.8250000  -3.8670000  19.6050000
  46.9460000  -6.0200000  19.3140000  46.7990000  -5.0000000  19.9790000
  46.2000000  -6.2570000  18.2330000  46.4040000  -7.0760000  17.6790000
  45.1610000  -5.3530000  17.7390000  45.6360000  -4.4070000  17.4790000
  44.7070000  -5.7820000  16.8450000  44.0510000  -5.0550000  18.7450000
  43.6170000  -3.9100000  18.8550000  43.6270000  -6.0520000  19.5250000
  43.9850000  -6.9790000  19.3420000  42.6520000  -5.8760000  20.6130000
  41.8240000  -5.2730000  20.2420000  42.0770000  -7.2480000  21.0300000
  42.9040000  -7.9470000  21.1480000  41.3020000  -7.1750000  22.3570000
  40.4980000  -6.4430000  22.2740000  40.8810000  -8.1510000  22.5980000
  41.9610000  -6.8930000  23.1780000  41.1420000  -7.7570000  19.9100000
  40.2100000  -7.1920000  19.9220000  41.6230000  -7.6010000  18.9440000
  40.8260000  -9.2490000  19.9820000  40.2920000  -9.4940000  20.9000000
  40.2060000  -9.5280000  19.1300000  41.7630000  -9.8040000  19.9340000
  43.2560000  -5.0780000  21.7780000  42.6140000  -4.1530000  22.2780000
  44.5020000  -5.3750000  22.1710000  44.9780000  -6.1470000  21.7260000
  45.2360000  -4.5620000  23.1530000  44.6770000  -4.5740000  24.0890000
  46.6260000  -5.1600000  23.4310000  47.1770000  -5.2580000  22.4960000
  47.1780000  -4.4770000  24.0770000  46.5560000  -6.5290000  24.1280000
  46.0960000  -6.4070000  25.1090000  45.9360000  -7.2150000  23.5510000
  47.9410000  -7.1560000  24.2790000  48.5880000  -7.5470000  23.3170000
  48.4540000  -7.2770000  25.4860000  49.3740000  -7.6830000  25.5760000
  47.9440000  -6.9590000  26.2980000  45.3310000  -3.0870000  22.7140000
  44.9450000  -2.2030000  23.4740000  45.7600000  -2.8240000  21.4710000
  46.0750000  -3.6050000  20.9120000  45.8010000  -1.4840000  20.8630000
  46.4590000  -0.8520000  21.4610000  46.3580000  -1.5700000  19.4280000
  45.7920000  -2.3270000  18.8840000  46.1860000  -0.6170000  18.9290000
  47.8580000  -1.9030000  19.3260000  48.0940000  -2.7740000  19.9370000
  48.2100000  -2.2190000  17.8720000  47.9480000  -1.3740000  17.2350000
  49.2770000  -2.4210000  17.7810000  47.6620000  -3.1020000  17.5430000
  48.7340000  -0.7360000  19.7830000  48.5590000  -0.5270000  20.8390000
  49.7850000  -0.9960000  19.6580000  48.5120000   0.1540000  19.1950000
  44.4290000  -0.7940000  20.8570000  44.3240000   0.3680000  21.2420000
  43.3600000  -1.4990000  20.4700000  43.4900000  -2.4370000  20.1180000
  42.0100000  -0.9360000  20.4720000  42.0240000  -0.0570000  19.8270000
  41.0320000  -1.9490000  19.8680000  40.9650000  -2.8320000  20.5030000
  40.0450000  -1.4940000  19.7810000  41.3700000  -2.2380000  18.8730000
  41.5640000  -0.4430000  21.8610000  40.9090000   0.5950000  21.9580000
  41.9480000  -1.1580000  22.9250000  42.4700000  -2.0070000  22.7600000
  41.6650000  -0.7900000  24.3180000  40.7300000  -0.2320000  24.3530000
  41.4650000  -2.0760000  25.1380000  42.3740000  -2.6750000  25.0800000
  41.2960000  -1.8050000  26.1800000  40.2800000  -2.9370000  24.6630000
  39.3520000  -2.3760000  24.7740000  40.4020000  -3.1820000  23.6080000
  40.1640000  -4.2460000  25.4480000  40.5700000  -4.3690000  26.5960000
  39.6050000  -5.2860000  24.8680000  39.5740000  -6.1380000  25.4090000
  39.2450000  -5.2310000  23.9250000  42.7370000   0.1190000  24.9720000
  42.5610000   0.5200000  26.1260000  43.8210000   0.4870000  24.2760000
  43.9600000   0.1030000  23.3520000  44.7540000   1.5380000  24.7240000
  45.0960000   1.2840000  25.7280000  45.9910000   1.6290000  23.8220000
  45.6830000   1.7870000  22.7880000  46.5980000   2.4800000  24.1300000
  46.7720000   0.4510000  23.9210000  47.5680000   0.5710000  23.3980000
  44.0730000   2.9110000  24.7980000  43.1380000   3.1950000  24.0510000
  44.5480000   3.7800000  25.6970000  45.3650000   3.4970000  26.2190000
  43.9850000   5.1180000  25.9670000  42.9620000   5.1630000  25.5940000
  43.9480000   5.3690000  27.4890000  44.9690000   5.4050000  27.8670000
  43.4950000   6.3440000  27.6660000  43.1570000   4.3130000  28.2860000
  42.1120000   4.3430000  27.9780000  43.5570000   3.3160000  28.1010000
  43.2500000   4.6120000  29.7860000  44.2850000   4.4960000  30.1080000
  42.9520000   5.6490000  29.9460000  42.3850000   3.7240000  30.5930000
  42.0180000   2.8930000  30.1530000  42.0560000   3.9310000  31.8580000
  42.4590000   4.9610000  32.5330000  43.0160000   5.6820000  32.0990000
  42.1300000   5.0440000  33.4850000  41.3060000   3.1150000  32.5330000
  40.9740000   2.2350000  32.1650000  41.1310000   3.3760000  33.4920000
  44.8030000   6.1990000  25.2470000  45.9600000   6.4220000  25.6010000
  44.2040000   6.8750000  24.2630000  43.2750000   6.5870000  23.9910000
  44.8780000   7.8990000  23.4380000  45.9590000   7.8100000  23.5500000
  44.5430000   7.6460000  21.9610000  43.4630000   7.6950000  21.8240000
  44.9800000   8.4500000  21.3680000  45.0470000   6.3170000  21.4250000
  46.2970000   6.2440000  20.7820000  46.8830000   7.1400000  20.6410000
  46.7880000   5.0070000  20.3200000  47.7510000   4.9570000  19.8320000
  46.0230000   3.8330000  20.4970000  46.5000000   2.6340000  20.0660000
  47.3630000   2.7240000  19.6530000  44.7630000   3.9100000  21.1270000
  44.1800000   3.0110000  21.2630000  44.2750000   5.1500000  21.5820000
  43.3120000   5.2030000  22.0670000  44.5080000   9.3460000  23.8210000
  45.3200000  10.2610000  23.6600000  43.3110000   9.5440000  24.3850000
  42.7040000   8.7450000  24.5000000  42.7570000  10.8500000  24.7710000
  43.5690000  11.5520000  24.9620000  41.8750000  11.4060000  23.6420000
  40.9570000  10.8200000  23.5910000  41.5860000  12.4240000  23.9000000
  42.4870000  11.4230000  22.2770000  42.2730000  10.4910000  21.3240000
  41.6220000   9.6370000  21.4350000  43.0090000  10.8010000  20.1990000
  42.9160000  10.3010000  19.3260000  43.7650000  11.9360000  20.3820000
  44.6620000  12.6300000  19.5580000  44.8790000  12.2690000  18.5630000
  45.2670000  13.8010000  20.0440000  45.9620000  14.3490000  19.4250000
  44.9520000  14.2660000  21.3340000  45.3990000  15.1820000  21.6900000
  44.0440000  13.5640000  22.1520000  43.8010000  13.9400000  23.1350000
  43.4370000  12.3720000  21.7020000  41.9060000  10.7130000  26.0340000
  41.2110000   9.7070000  26.1870000  41.9190000  11.7290000  26.8990000
  42.5410000  12.5030000  26.7140000  40.9990000  11.8500000  28.0380000
  40.3450000  10.9780000  28.0650000  41.7930000  11.8780000  29.3590000
  42.3810000  10.9630000  29.4310000  42.4780000  12.7260000  29.3500000
  40.8880000  11.9850000  30.6020000  40.3110000  12.9080000  30.5530000
  40.1900000  11.1480000  30.6140000  41.6360000  11.9900000  31.9370000
  42.8240000  11.7130000  32.0490000  40.9500000  12.3140000  33.0130000
  41.4200000  12.3270000  33.9070000  39.9750000  12.5620000  32.9240000
  40.1140000  13.0940000  27.8800000  40.5910000  14.1560000  27.4810000
  38.8330000  12.9760000  28.2300000  38.5020000  12.0670000  28.5200000
  37.9150000  14.1150000  28.4140000  38.5080000  14.9870000  28.6920000
  37.1860000  14.4840000  27.1100000  37.9410000  14.6860000  26.3510000
  36.2340000  13.4260000  26.5530000  35.4040000  13.2550000  27.2400000
  35.8370000  13.7640000  25.5960000  36.7740000  12.4920000  26.3980000
  36.4540000  15.6700000  27.3000000  36.9710000  16.3600000  26.8790000
  36.9600000  13.8180000  29.5730000  36.3570000  12.7440000  29.6330000
  36.8960000  14.7100000  30.5680000  37.3940000  15.5850000  30.4770000
  36.3090000  14.3760000  31.8710000  36.4450000  15.2140000  32.5550000
  35.2410000  14.1930000  31.7540000  36.9800000  13.1380000  32.4840000
  38.2090000  13.0560000  32.5540000  36.1770000  12.1720000  32.9250000
  35.1790000  12.2870000  32.8220000  36.6250000  10.8860000  33.4800000
  37.6580000  10.9790000  33.8150000  35.7780000  10.5490000  34.7220000
  36.1810000   9.6510000  35.1890000  35.8920000  11.3610000  35.4400000
  34.2710000  10.3450000  34.4570000  33.7650000  10.6730000  33.3580000
  33.5670000   9.8750000  35.3840000  36.5960000   9.7190000  32.4610000
  36.8340000   8.5730000  32.8560000  36.3560000   9.9840000  31.1640000
  36.2220000  10.9460000  30.8870000  36.3800000   8.9610000  30.1050000
  36.4660000   7.9900000  30.5930000  35.0550000   8.9050000  29.3170000
  34.9640000   7.9140000  28.8720000  34.2330000   9.0070000  30.0250000
  34.8610000   9.9480000  28.2030000  33.8010000   9.9690000  27.9480000
  35.1070000  10.9300000  28.6070000  35.7890000   9.7170000  26.6490000
  34.9940000   8.2350000  25.9610000  33.9250000   8.4140000  25.8420000
  35.4300000   8.0120000  24.9870000  35.1530000   7.3870000  26.6260000
  37.6140000   9.0590000  29.2010000  38.2270000  10.1180000  29.0350000
  37.9590000   7.9090000  28.6220000  37.4070000   7.0950000  28.8510000
  39.1410000   7.6670000  27.8060000  39.6590000   8.6110000  27.6380000
  40.0870000   6.7210000  28.5560000  39.5750000   5.7780000  28.7470000
  40.9400000   6.5050000  27.9120000  40.5960000   7.2730000  29.8700000
  41.7580000   8.0620000  29.8770000  42.2720000   8.2550000  28.9470000
  42.2430000   8.6000000  31.0820000  43.1400000   9.2010000  31.0830000
  41.5430000   8.3700000  32.2870000  41.9940000   8.9170000  33.4470000
  42.6730000   9.5750000  33.2790000  40.3760000   7.5750000  32.2810000
  39.8450000   7.4030000  33.2050000  39.9090000   7.0210000  31.0740000
  39.0120000   6.4190000  31.0670000  38.7480000   7.0620000  26.4540000
  37.9700000   6.1060000  26.3900000  39.2940000   7.6110000  25.3680000
  39.9320000   8.3830000  25.4980000  39.0190000   7.1570000  24.0030000
  38.0480000   6.6630000  23.9970000  38.9200000   8.3910000  23.0870000
  38.2150000   9.0990000  23.5230000  39.8970000   8.8720000  23.0370000
  38.4640000   8.0670000  21.6570000  38.3980000   8.9990000  21.0970000
  39.2070000   7.4360000  21.1690000  37.0960000   7.3950000  21.6180000
  36.0890000   7.9660000  22.0190000  37.0150000   6.1650000  21.1650000
  36.1230000   5.6930000  21.2000000  37.8410000   5.6820000  20.8420000
  40.0720000   6.1440000  23.5180000  41.2650000   6.4610000  23.4690000
  39.6240000   4.9390000  23.1510000  38.6410000   4.7320000  23.2520000
  40.4080000   3.9440000  22.4090000  41.4740000   4.1170000  22.5560000
  40.1640000   2.9520000  22.7920000  40.1270000   3.9670000  20.9060000
  39.4750000   4.8870000  20.4020000  40.5620000   2.9270000  20.1880000
  40.9900000   2.1610000  20.6880000  40.2110000   2.7320000  18.7750000
  40.1170000   3.7060000  18.2960000  41.2860000   1.9370000  17.9920000
  41.1400000   0.8720000  18.1760000  41.1070000   2.0890000  16.9270000
  42.7600000   2.2740000  18.2910000  42.9510000   2.1410000  19.3560000
  43.6700000   1.3120000  17.5230000  43.5420000   1.4470000  16.4490000
  44.7090000   1.5030000  17.7920000  43.4300000   0.2820000  17.7840000
  43.1200000   3.7050000  17.8960000  42.4780000   4.4140000  18.4200000
  44.1530000   3.9090000  18.1760000  43.0120000   3.8350000  16.8190000
  38.8430000   2.0380000  18.7430000  38.7380000   0.8370000  18.9960000
  37.7730000   2.8070000  18.5420000  37.9150000   3.7940000  18.3820000
  36.3980000   2.3030000  18.6200000  35.7430000   2.9560000  18.0440000
  36.3440000   1.3030000  18.1910000  35.8850000   2.2460000  20.0630000
  34.9590000   2.9760000  20.4100000  36.4820000   1.3840000  20.8960000
  37.2520000   0.8390000  20.5360000  36.1570000   1.2470000  22.3270000
  35.1200000   0.9180000  22.4020000  37.0450000   0.1740000  22.9820000
  38.0880000   0.3940000  22.7580000  36.9310000   0.2470000  24.0640000
  36.7480000  -1.2520000  22.6160000  37.6060000  -2.1090000  22.0150000
  38.6130000  -1.8640000  21.7120000  37.0070000  -3.3500000  21.8810000
  37.4810000  -4.1720000  21.5340000  35.7200000  -3.3460000  22.3710000
  34.7140000  -4.3220000  22.4200000  34.8840000  -5.3040000  22.0030000
  33.4780000  -4.0030000  23.0080000  32.6930000  -4.7430000  23.0460000
  33.2770000  -2.7260000  23.5660000  32.3320000  -2.4910000  24.0330000
  34.2950000  -1.7510000  23.5020000  34.1250000  -0.7710000  23.9240000
  35.5350000  -2.0280000  22.8840000  36.2660000   2.5680000  23.1150000
  37.1030000   3.4300000  22.8310000  35.4350000   2.6890000  24.1510000
  34.7790000   1.9430000  24.3340000  35.4500000   3.7680000  25.1450000
  36.2570000   4.4690000  24.9320000  34.1090000   4.5320000  25.1070000
  33.3050000   3.8480000  25.3800000  34.1420000   5.3250000  25.8540000
  33.7710000   5.1470000  23.7350000  34.5170000   5.9050000  23.4960000
  33.8220000   4.3770000  22.9650000  32.3640000   5.7830000  23.7110000
  32.0670000   6.6490000  24.5670000  31.5590000   5.4450000  22.8060000
  35.7000000   3.1560000  26.5390000  35.2450000   2.0440000  26.8200000
  36.4420000   3.8460000  27.4140000  36.8300000   4.7330000  27.1270000
  36.8880000   3.2980000  28.7080000  36.2530000   2.4500000  28.9660000
  38.3400000   2.7870000  28.6200000  39.0130000   3.6190000  28.4120000
  38.6090000   2.3910000  29.5990000  38.5810000   1.6650000  27.6000000
  39.4600000   1.1070000  27.9200000  37.7300000   0.9840000  27.6430000
  38.8510000   2.1340000  25.8640000  40.3610000   3.1200000  26.0250000
  41.0850000   2.5880000  26.6420000  40.7940000   3.2870000  25.0390000
  40.1280000   4.0850000  26.4770000  36.7810000   4.3090000  29.8600000
  36.9330000   5.5120000  29.6560000  36.5730000   3.8090000  31.0820000
  36.3730000   2.8220000  31.1520000  36.6300000   4.5530000  32.3520000
  37.2230000   5.4590000  32.2240000  35.2170000   4.9470000  32.8260000
  34.6300000   4.0460000  33.0090000  35.3410000   5.4450000  33.7880000
  34.4330000   5.8880000  31.8890000  35.1260000   6.4810000  31.2930000
  33.5010000   5.1210000  30.9460000  32.8280000   4.4820000  31.5180000
  32.9160000   5.8230000  30.3510000  34.0780000   4.4920000  30.2690000
  33.5900000   6.8610000  32.7120000  34.2490000   7.5170000  33.2800000
  32.9750000   7.4760000  32.0560000  32.9540000   6.3140000  33.4080000
  37.2980000   3.6820000  33.4310000  37.1460000   2.4640000  33.4040000
  38.0410000   4.2700000  34.3730000  38.1270000   5.2760000  34.3630000
  38.6010000   3.5330000  35.5240000  39.3060000   2.7910000  35.1480000
  39.3630000   4.4800000  36.4670000  38.7000000   5.2960000  36.7580000
  39.6220000   3.9260000  37.3690000  40.6610000   5.0570000  35.8850000
  41.2150000   4.4760000  34.9220000  41.1510000   6.0820000  36.4150000
  37.5300000   2.7790000  36.3370000  36.4970000   3.3490000  36.7000000
  37.8030000   1.5130000  36.6770000  38.6820000   1.1200000  36.3730000
  37.0090000   0.7320000  37.6360000  35.9810000   1.0910000  37.5940000
  36.9870000  -0.7470000  37.2180000  36.6640000  -0.8170000  36.1800000
  37.9950000  -1.1560000  37.2860000  36.0650000  -1.5920000  38.0460000
  36.4320000  -2.3800000  39.0830000  37.4480000  -2.5220000  39.4230000
  35.3040000  -2.9140000  39.6810000  35.3320000  -3.4730000  40.5220000
  34.1500000  -2.4900000  39.0590000  32.7880000  -2.7110000  39.3100000
  32.4760000  -3.3400000  40.1310000  31.8310000  -2.0930000  38.4890000
  30.7780000  -2.2550000  38.6660000  32.2480000  -1.2540000  37.4400000
  31.5050000  -0.7760000  36.8190000  33.6190000  -1.0420000  37.1940000
  33.9300000  -0.4000000  36.3820000  34.6060000  -1.6580000  37.9930000
  37.5550000   0.8930000  39.0770000  38.7790000   0.8410000  39.2530000
  36.7040000   1.0530000  40.1150000  37.1510000   1.0590000  41.5020000
  37.9400000   1.7940000  41.6610000  37.5100000   0.0640000  41.7670000
  35.9300000   1.4050000  42.3520000  35.8690000   2.4850000  42.4860000
  35.9550000   0.9000000  43.3170000  34.7650000   0.9220000  41.4910000
  33.8420000   1.4530000  41.7220000  34.6300000  -0.1500000  41.6340000
  35.2470000   1.1870000  40.0620000  34.8170000   0.4200000  39.4180000
  34.7980000   2.5700000  39.5570000  35.2980000   3.6110000  39.9940000
  33.8390000   2.5700000  38.6260000  33.4540000   1.6810000  38.3410000
  33.2180000   3.7870000  38.0660000  34.0170000   4.4610000  37.7560000
  32.3640000   3.4710000  36.8180000  31.9170000   4.4000000  36.4630000
  33.2260000   2.9330000  35.6740000  33.6890000   1.9880000  35.9560000
  32.6070000   2.7830000  34.7900000  34.0080000   3.6540000  35.4360000
  31.2220000   2.4890000  37.1050000  30.5330000   2.9100000  37.8380000
  30.6660000   2.2910000  36.1890000  31.6130000   1.5440000  37.4820000
  32.3560000   4.5400000  39.0890000  31.8760000   3.9660000  40.0710000
  32.0650000   5.8110000  38.7960000  32.5310000   6.2360000  38.0070000
  30.8520000   6.4690000  39.2830000  30.6530000   6.1540000  40.3080000
  31.1000000   7.9910000  39.2910000  31.9110000   8.2110000  39.9860000
  31.4120000   8.3160000  38.2990000  29.8910000   8.8230000  39.7010000
  28.7970000   8.3330000  39.9340000  30.0450000  10.1240000  39.7730000
  29.2540000  10.6840000  40.0580000  30.9460000  10.5450000  39.5950000
  29.6790000   6.0580000  38.3580000  29.7340000   6.3730000  37.1630000
  28.6270000   5.3760000  38.8540000  28.4030000   4.9730000  40.2370000
  28.6170000   5.7810000  40.9370000  29.0150000   4.1000000  40.4640000
  26.9240000   4.5990000  40.3260000  26.3290000   5.4910000  40.5190000
  26.7430000   3.8420000  41.0880000  26.6290000   4.0760000  38.9230000
  25.5720000   4.1580000  38.6670000  26.9580000   3.0390000  38.8520000
  27.5240000   4.9130000  38.0130000  27.9130000   4.2650000  37.2270000
  26.7540000   6.0600000  37.3520000  26.4420000   5.9800000  36.1650000
  26.5030000   7.1560000  38.0760000  26.8120000   7.1780000  39.0370000
  25.8520000   8.3530000  37.5280000  24.8530000   8.0780000  37.1900000
  25.7080000   9.4490000  38.5980000  26.7030000   9.7530000  38.9240000
  25.2400000  10.3160000  38.1320000  24.8710000   9.0630000  39.8330000
  24.0800000   8.0900000  39.7900000  24.9730000   9.7790000  40.8600000
  26.6090000   8.9080000  36.3130000  25.9870000   9.2790000  35.3170000
  27.9470000   8.9280000  36.3750000  28.3850000   8.5630000  37.2090000
  28.8030000   9.3730000  35.2700000  28.5200000  10.3970000  35.0280000
  30.2800000   9.3980000  35.6780000  30.4010000  10.0070000  36.5730000
  30.6310000   8.3860000  35.8780000  31.0450000   9.9550000  34.6290000
  31.9700000   9.9250000  34.8820000  28.6000000   8.5350000  34.0020000
  28.2880000   9.0980000  32.9500000  28.7130000   7.1990000  34.0820000
  28.9470000   6.7770000  34.9690000  28.4980000   6.3400000  32.9010000
  29.0860000   6.7690000  32.0900000  29.0140000   4.8920000  33.0850000
  28.7800000   4.3600000  32.1630000  30.5420000   4.9090000  33.2150000
  30.8390000   5.3320000  34.1750000  30.9420000   3.8990000  33.1260000
  30.9620000   5.5120000  32.4090000  28.3760000   4.1140000  34.2550000
  28.7790000   4.4860000  35.1970000  27.2970000   4.2680000  34.2560000
  28.6080000   2.6000000  34.1750000  29.6730000   2.3700000  34.1740000
  28.1440000   2.1160000  35.0340000  28.1630000   2.2040000  33.2620000
  27.0470000   6.3770000  32.4020000  26.8300000   6.4470000  31.1910000
  26.0540000   6.3910000  33.3010000  26.2920000   6.3260000  34.2800000
  24.6310000   6.4660000  32.9400000  24.4100000   5.6550000  32.2460000
  23.7390000   6.2640000  34.1900000  24.0860000   6.9330000  34.9780000
  22.2620000   6.5920000  33.9020000  21.8830000   5.9430000  33.1130000
  21.6600000   6.4470000  34.7990000  22.1450000   7.6340000  33.6060000
  23.8540000   4.8000000  34.6770000  23.3390000   4.1470000  33.9720000
  24.9000000   4.4950000  34.6920000  23.2970000   4.5610000  36.0850000
  22.2130000   4.6750000  36.0920000  23.5420000   3.5460000  36.4000000
  23.7430000   5.2640000  36.7880000  24.3420000   7.7700000  32.1860000
  23.9570000   7.7250000  31.0170000  24.5760000   8.9260000  32.8120000
  24.9360000   8.9040000  33.7550000  24.2920000  10.2340000  32.2130000
  23.2600000  10.2340000  31.8620000  24.4320000  11.3310000  33.2840000
  25.4530000  11.3300000  33.6650000  24.2490000  12.3030000  32.8270000
  23.4660000  11.1800000  34.4540000  22.4160000  10.5560000  34.3710000
  23.7790000  11.7700000  35.5850000  23.1430000  11.6830000  36.3650000
  24.6450000  12.2840000  35.6680000  25.1710000  10.5270000  30.9850000
  24.6650000  10.9880000  29.9640000  26.4710000  10.2180000  31.0520000
  26.8340000   9.8240000  31.9080000  27.4310000  10.4400000  29.9630000
  27.4650000  11.5050000  29.7370000  28.4240000  10.1330000  30.2920000
  27.1040000   9.6860000  28.6690000  27.4770000  10.1370000  27.5860000
  26.4030000   8.5500000  28.7700000  26.1710000   8.2160000  29.6950000
  25.9510000   7.7680000  27.6090000  26.8020000   7.6200000  26.9450000
  25.4820000   6.3840000  28.0630000  25.4160000   5.7340000  27.1910000
  26.2220000   5.9620000  28.7440000  24.2100000   6.4260000  28.6860000
  24.2700000   6.8710000  29.5350000  24.8440000   8.4450000  26.7880000
  24.6830000   8.1250000  25.6080000  24.0800000   9.3680000  27.3850000
  24.2940000   9.6200000  28.3390000  23.0390000  10.1430000  26.7040000
  22.2690000   9.4490000  26.3650000  22.4020000  11.1260000  27.7040000
  22.1850000  10.5930000  28.6300000  23.1210000  11.9130000  27.9310000
  21.0930000  11.7760000  27.2170000  20.5080000  12.5700000  27.9910000
  20.6390000  11.5010000  26.0810000  23.6120000  10.8810000  25.4840000
  24.6630000  11.5170000  25.5810000  22.9160000  10.8430000  24.3420000
  22.0270000  10.3640000  24.3510000  23.3480000  11.4820000  23.0910000
  24.2630000  10.9900000  22.7600000  22.2670000  11.2670000  22.0160000
  21.3100000  11.6330000  22.3880000  22.5150000  11.8480000  21.1280000
  22.1370000   9.8110000  21.5880000  23.1080000   9.1260000  21.3020000
  20.9330000   9.2870000  21.5370000  20.8420000   8.3240000  21.2450000
  20.1190000   9.8440000  21.7530000  23.6930000  12.9740000  23.2700000
  24.6370000  13.4650000  22.6510000  22.9890000  13.6620000  24.1820000
  22.2340000  13.1680000  24.6350000  23.2370000  15.0600000  24.5880000
  23.0640000  15.7110000  23.7310000  22.2530000  15.4530000  25.7060000
  22.3820000  14.7780000  26.5530000  22.4860000  16.4640000  26.0400000
  20.7870000  15.4220000  25.2460000  20.6610000  16.1100000  24.4100000
  20.5250000  14.4160000  24.9200000  19.8490000  15.8330000  26.3880000
  20.0060000  15.1680000  27.2360000  20.0750000  16.8550000  26.6920000
  18.3880000  15.7400000  25.9290000  18.2360000  16.4260000  25.0960000
  18.1990000  14.7280000  25.5710000  17.4480000  16.0680000  27.0340000
  17.6000000  17.0050000  27.3790000  16.4890000  16.0110000  26.7210000
  17.5540000  15.4290000  27.8080000  24.6780000  15.3230000  25.0580000
  25.1890000  16.4230000  24.8540000  25.3280000  14.3280000  25.6740000
  24.8300000  13.4560000  25.7890000  26.7400000  14.3670000  26.0970000
  27.0930000  15.3980000  26.0740000  26.8890000  13.8690000  27.5560000
  26.4310000  12.8830000  27.6400000  28.3770000  13.7450000  27.9400000
  28.8850000  14.6980000  27.7880000  28.4880000  13.4460000  28.9830000
  28.8670000  12.9800000  27.3390000  26.1540000  14.8380000  28.5150000
  26.6310000  15.8170000  28.4780000  25.1220000  14.9580000  28.1840000
  26.0950000  14.3750000  29.9760000  27.0870000  14.3850000  30.4270000
  25.4530000  15.0500000  30.5420000  25.6780000  13.3700000  30.0270000
  27.6260000  13.5840000  25.1140000  28.6230000  14.1160000  24.6290000
  27.2590000  12.3410000  24.7830000  26.4270000  11.9620000  25.2130000
  28.0670000  11.4240000  23.9730000  29.0100000  11.2570000  24.4940000
  27.3290000  10.0820000  23.8930000  26.3760000  10.2040000  23.3780000
  27.9390000   9.3620000  23.3460000  27.1470000   9.6970000  24.8960000
  28.4110000  11.9540000  22.5640000  29.5160000  11.7080000  22.0730000
  27.4820000  12.6780000  21.9200000  26.6000000  12.8470000  22.3830000
  27.6590000  13.2410000  20.5720000  28.3920000  12.6400000  20.0320000
  26.3310000  13.1660000  19.7880000  25.6440000  13.8980000  20.2100000
  26.5300000  13.4660000  18.7590000  25.6210000  11.7980000  19.7620000
  25.3310000  11.5160000  20.7740000  24.3600000  11.8970000  18.9070000
  24.6260000  12.1090000  17.8710000  23.8110000  10.9560000  18.9480000
  23.7210000  12.6980000  19.2790000  26.4910000  10.6870000  19.1780000
  27.3770000  10.5370000  19.7960000  25.9270000   9.7540000  19.1530000
  26.7900000  10.9530000  18.1650000  28.1950000  14.6880000  20.5700000
  28.5000000  15.2240000  19.5030000  28.2990000  15.3370000  21.7360000
  28.1020000  14.8310000  22.5880000  28.7590000  16.7210000  21.8650000
  28.1620000  17.3350000  21.1900000  28.4920000  17.2060000  23.2950000
  29.1090000  16.6520000  24.0030000  28.7330000  18.2660000  23.3750000
  27.4400000  17.0670000  23.5430000  30.2420000  16.9080000  21.4820000
  31.0800000  16.0290000  21.7080000  30.5730000  18.0890000  20.9510000
  29.8400000  18.7660000  20.7940000  31.9530000  18.5620000  20.8570000
  32.5500000  17.8050000  20.3500000  31.9790000  19.8400000  20.0140000
  31.3920000  20.6210000  20.4980000  33.0080000  20.1840000  19.9100000
  31.5660000  19.6430000  19.0250000  32.5330000  18.8080000  22.2630000
  31.8970000  19.4860000  23.0780000  33.7330000  18.2840000  22.5480000
  34.1860000  17.7350000  21.8320000  34.3960000  18.3820000  23.8640000
  34.0520000  19.2890000  24.3620000  34.0310000  17.1590000  24.7370000
  34.2370000  16.2510000  24.1690000  34.6840000  17.1480000  25.6100000
  32.5780000  17.0930000  25.2440000  31.8870000  17.0950000  24.4000000
  32.4460000  16.1520000  25.7780000  32.2350000  18.2490000  26.1970000
  32.9580000  18.2750000  27.0120000  32.3150000  19.1930000  25.6590000
  30.8600000  18.1390000  26.7280000  30.1450000  18.6280000  26.2090000
  30.4720000  17.5510000  27.8460000  31.2940000  16.8830000  28.6040000
  32.2630000  16.8050000  28.3320000  30.9770000  16.4520000  29.4600000
  29.2310000  17.6290000  28.2310000  28.5650000  18.1670000  27.6940000
  28.9420000  17.2250000  29.1100000  35.9270000  18.4510000  23.7220000
  36.4910000  17.6460000  22.9770000  36.6270000  19.3430000  24.4530000
  36.0870000  20.4750000  25.1930000  35.7430000  20.1400000  26.1720000
  35.2800000  20.9680000  24.6510000  37.2510000  21.4470000  25.3530000
  37.1290000  22.0810000  26.2320000  37.3540000  22.0500000  24.4500000
  38.4430000  20.5050000  25.4860000  38.4990000  20.1400000  26.5110000
  39.3750000  20.9930000  25.2010000  38.0900000  19.3550000  24.5340000
  38.4840000  19.5850000  23.5440000  38.6780000  18.0240000  25.0290000
  38.0330000  17.3020000  25.7940000  39.9150000  17.7150000  24.6280000
  40.3890000  18.3620000  24.0150000  40.6260000  16.4700000  24.9880000
  40.1230000  16.0110000  25.8380000  40.6480000  15.4320000  23.8430000
  41.4610000  14.7330000  24.0400000  39.3610000  14.6070000  23.8070000
  38.4960000  15.2600000  23.6930000  39.4050000  13.9030000  22.9760000
  39.2700000  14.0320000  24.7290000  40.8810000  16.0230000  22.4500000
  41.7630000  16.6630000  22.4620000  41.0480000  15.2190000  21.7340000
  40.0120000  16.6040000  22.1400000  42.0710000  16.7360000  25.4130000
  42.7880000  17.5300000  24.8010000  42.5040000  16.0260000  26.4610000
  41.8380000  15.4120000  26.9090000  43.9020000  15.9320000  26.9050000
  44.4090000  16.8760000  26.7030000  43.9150000  15.6890000  28.4270000
  43.3670000  16.4960000  28.9120000  43.4070000  14.7510000  28.6470000
  45.3360000  15.6420000  29.0080000  45.8960000  14.8300000  28.5440000
  45.8400000  16.5860000  28.7960000  45.3030000  15.4130000  30.5250000
  44.7280000  16.2090000  30.9980000  44.8270000  14.4550000  30.7340000
  46.7300000  15.4090000  31.0900000  47.3050000  14.6290000  30.5920000
  47.1990000  16.3670000  30.8620000  46.7350000  15.1820000  32.5610000
  46.3290000  14.2880000  32.7970000  47.6770000  15.1950000  32.9260000
  46.2140000  15.9000000  33.0450000  44.6060000  14.8130000  26.1310000
  44.1490000  13.6690000  26.1560000  45.6970000  15.1420000  25.4420000
  46.0020000  16.1050000  25.4580000  46.5520000  14.1690000  24.7640000
  45.9390000  13.5530000  24.1070000  47.5760000  14.9180000  23.9040000
  48.2550000  15.4880000  24.5380000  48.1550000  14.2020000  23.3200000
  47.0680000  15.6000000  23.2220000  47.2480000  13.2440000  25.7790000
  47.8670000  13.7170000  26.7380000  47.1650000  11.9290000  25.5600000
  46.6410000  11.6020000  24.7610000  47.8620000  10.9170000  26.3660000
  48.1690000  11.3570000  27.3150000  46.9350000   9.7300000  26.7060000
  46.6450000   9.2310000  25.7820000  47.6820000   8.7190000  27.5890000
  47.9180000   9.1620000  28.5560000  47.0660000   7.8330000  27.7420000
  48.6080000   8.3950000  27.1140000  45.6640000  10.2410000  27.4230000
  45.9450000  10.7580000  28.3410000  45.1460000  10.9560000  26.7840000
  44.6520000   9.1490000  27.7670000  45.0380000   8.4960000  28.5510000
  43.7440000   9.6320000  28.1280000  44.4140000   8.5650000  26.8780000
  49.1260000  10.5070000  25.6020000  49.0450000   9.8200000  24.5830000
  50.2850000  10.9930000  26.0580000  50.2660000  11.5550000  26.8970000
  51.5480000  10.9500000  25.3000000  51.4080000  10.3630000  24.3920000
  51.9350000  12.3670000  24.8330000  52.0800000  13.0090000  25.7020000
  53.2070000  12.3800000  23.9840000  53.0970000  11.7100000  23.1320000
  53.3990000  13.3920000  23.6260000  54.0630000  12.0650000  24.5820000
  50.9080000  12.9150000  24.0310000  51.1640000  13.8150000  23.8150000
  52.6840000  10.3410000  26.1430000  53.1050000  10.9740000  27.1180000
  53.2170000   9.1530000  25.7840000  54.3690000   8.5630000  26.4560000
  54.2890000   8.6530000  27.5390000  55.2770000   9.0530000  26.1060000
  54.3900000   7.0910000  26.0540000  53.7750000   6.5110000  26.7420000
  55.4060000   6.6970000  26.0180000  53.7420000   7.1140000  24.6730000
  53.3220000   6.1440000  24.4060000  54.4790000   7.4240000  23.9310000
  52.6690000   8.1980000  24.8100000  52.5480000   8.6850000  23.8430000
  51.3250000   7.5890000  25.2860000  51.0640000   7.5700000  26.4950000
  50.4700000   7.0820000  24.3730000  50.6030000   7.1680000  22.9260000
  51.3090000   6.4140000  22.5790000  50.9170000   8.1610000  22.6050000
  49.2130000   6.8770000  22.3710000  49.2640000   6.4380000  21.3740000
  48.6240000   7.7940000  22.3610000  48.6340000   5.9040000  23.3950000
  49.0060000   4.9000000  23.1900000  47.5440000   5.9120000  23.3930000
  49.2030000   6.4250000  24.7180000  48.5220000   7.1770000  25.1160000
  49.3750000   5.2940000  25.7420000  50.2830000   4.4650000  25.6190000
  48.5020000   5.2400000  26.7520000  47.7490000   5.9130000  26.7750000
  48.5860000   4.2340000  27.8260000  49.6280000   4.1700000  28.1420000
  47.7680000   4.6410000  29.0650000  46.7050000   4.5940000  28.8260000
  48.0360000   3.7490000  30.2770000  49.0930000   3.7860000  30.5430000
  47.4390000   4.0860000  31.1250000  47.7590000   2.7180000  30.0610000
  48.0950000   5.9530000  29.4640000  47.5760000   6.1620000  30.2450000
  48.1040000   2.8670000  27.3140000  47.0190000   2.8150000  26.7260000
  48.8360000   1.7570000  27.5430000  50.1960000   1.7070000  28.0620000
  50.1750000   1.8000000  29.1480000  50.8250000   2.4830000  27.6250000
  50.7320000   0.3350000  27.6670000  51.5030000  -0.0100000  28.3550000
  51.1110000   0.3710000  26.6450000  49.4820000  -0.5380000  27.7260000
  49.3040000  -0.8380000  28.7580000  49.5740000  -1.4150000  27.0850000
  48.3670000   0.3980000  27.2470000  48.2560000   0.3000000  26.1670000
  47.0310000   0.0590000  27.9290000  46.6520000   0.6950000  28.9140000
  46.3070000  -0.9440000  27.4190000  46.6520000  -1.4240000  26.6000000
  45.0130000  -1.3600000  27.9720000  44.3010000  -0.5500000  27.8100000
  44.5230000  -2.5810000  27.1830000  45.2120000  -3.4150000  27.3150000
  43.5350000  -2.8750000  27.5360000  44.4630000  -2.3320000  26.1230000
  45.0860000  -1.6500000  29.4930000  45.8250000  -2.5330000  29.9410000
  44.3080000  -0.9010000  30.2850000  43.7180000  -0.2130000  29.8390000
  44.2860000  -0.9640000  31.7610000  45.2630000  -1.2920000  32.1160000
  44.0270000   0.4380000  32.3630000  43.1000000   0.8340000  31.9480000
  43.8930000   0.4110000  33.8910000  44.7820000  -0.0320000  34.3400000
  43.7740000   1.4260000  34.2690000  43.0100000  -0.1550000  34.1890000
  45.1480000   1.4200000  32.0060000  45.1910000   1.5650000  30.9270000
  44.9590000   2.3890000  32.4680000  46.1080000   1.0380000  32.3550000
  43.2410000  -1.9830000  32.2240000  42.0500000  -1.7660000  32.0020000
  43.6510000  -3.0730000  32.8900000  44.6430000  -3.1970000  33.0300000
  42.7360000  -4.1610000  33.3200000  42.2490000  -4.5590000  32.4300000
  43.5250000  -5.2940000  34.0010000  44.2300000  -4.8760000  34.7200000
  42.8220000  -5.9270000  34.5420000  44.2700000  -6.1670000  32.9800000
  43.5450000  -6.6110000  32.2980000  44.9480000  -5.5440000  32.3960000
  45.0900000  -7.2830000  33.6480000  45.5260000  -7.9190000  32.8760000
  45.9130000  -6.8220000  34.1940000  44.2990000  -8.1000000  34.5930000
  44.4410000  -7.9110000  35.5750000  43.4030000  -9.0300000  34.3200000
  43.0870000  -9.3650000  33.1020000  43.5770000  -8.9410000  32.3270000
  42.3540000 -10.0380000  32.9280000  42.7920000  -9.6330000  35.2940000
  42.9750000  -9.3410000  36.2430000  42.0690000 -10.3120000  35.1020000
  41.5970000  -3.7000000  34.2300000  40.4800000  -4.1980000  34.1090000
  41.8470000  -2.7240000  35.1000000  42.7970000  -2.3860000  35.1660000
  40.8280000  -2.1150000  35.9570000  40.0780000  -2.8630000  36.2170000
  41.5000000  -1.6690000  37.2640000  42.2640000  -0.9190000  37.0600000
  40.7540000  -1.2440000  37.9350000  41.9610000  -2.5280000  37.7510000
  40.1020000  -0.9760000  35.2070000  40.1750000   0.1970000  35.5810000
  39.3730000  -1.3420000  34.1470000  39.3500000  -2.3230000  33.9060000
  38.5580000  -0.4320000  33.3300000  38.4660000   0.5230000  33.8480000
  39.1770000  -0.1640000  31.9520000  39.2250000  -1.0950000  31.3860000
  38.5430000   0.5390000  31.4100000  40.4780000   0.3770000  32.0540000
  41.0690000  -0.3790000  32.0970000  37.1600000  -0.9930000  33.0900000
  37.0140000  -2.1620000  32.7440000  36.1460000  -0.1350000  33.1850000
  36.3670000   0.8090000  33.4670000  34.8610000  -0.3260000  32.5170000
  34.5310000  -1.3610000  32.6110000  33.8240000   0.5890000  33.1790000
  33.7750000   0.3260000  34.2360000  34.1700000   1.6200000  33.1200000
  32.4280000   0.5310000  32.6380000  31.9380000   1.2900000  31.6320000
  32.5020000   2.0260000  31.0780000  30.6060000   0.9850000  31.4250000
  30.0550000   1.4210000  30.7000000  30.1640000   0.0130000  32.2980000
  28.9210000  -0.6060000  32.5050000  28.0670000  -0.3270000  31.9050000
  28.8010000  -1.5820000  33.5090000  27.8510000  -2.0650000  33.6840000
  29.9220000  -1.9320000  34.2840000  29.8290000  -2.6780000  35.0590000
  31.1680000  -1.3170000  34.0550000  32.0260000  -1.5970000  34.6490000
  31.3190000  -0.3180000  33.0700000  35.0460000   0.0060000  31.0290000
  35.0410000   1.1740000  30.6330000  35.3150000  -1.0160000  30.2160000
  35.3090000  -1.9450000  30.6130000  35.4010000  -0.9170000  28.7510000
  35.7500000   0.0780000  28.4740000  36.3770000  -1.9520000  28.1600000
  35.9570000  -2.9480000  28.2980000  36.5700000  -1.7020000  26.6580000
  36.8700000  -0.6700000  26.4730000  37.3410000  -2.3640000  26.2640000
  35.6420000  -1.9050000  26.1230000  37.7500000  -1.9340000  28.8450000
  37.6500000  -2.2500000  29.8840000  38.4210000  -2.6340000  28.3470000
  38.1840000  -0.9340000  28.8100000  34.0030000  -1.1200000  28.1690000
  33.3730000  -2.1380000  28.4590000  33.4880000  -0.1710000  27.3820000
  34.0540000   0.6330000  27.1490000  32.1100000  -0.2300000  26.8730000
  31.8860000  -1.2830000  26.7030000  31.1180000   0.2900000  27.9370000
  30.1170000  -0.0330000  27.6510000  31.3400000  -0.1880000  28.8900000
  31.0470000   1.7850000  28.1660000  29.9750000   2.4330000  28.7880000
  30.2950000   3.7370000  28.8300000  29.6710000   4.5130000  29.2480000
  31.5020000   3.9360000  28.2760000  31.9580000   4.8320000  28.1810000
  31.9930000   2.7190000  27.8620000  32.9450000   2.5340000  27.3860000
  31.8920000   0.4550000  25.5180000  32.7480000   1.1980000  25.0310000
  30.7160000   0.2030000  24.9200000  30.1170000  -0.4830000  25.3560000
  30.2330000   0.8630000  23.6960000  30.4880000   1.9190000  23.7840000
  30.9630000   0.2650000  22.4660000  32.0310000   0.1760000  22.6650000
  30.5830000  -0.7400000  22.2810000  30.7810000   1.1110000  21.1950000
  31.0790000   0.5210000  20.3270000  29.7260000   1.3560000  21.0730000
  31.6340000   2.3890000  21.2110000  31.6680000   2.8310000  22.2060000
  32.6530000   2.1020000  20.9530000  31.1460000   3.4390000  20.1980000
  31.9990000   4.0650000  19.9360000  30.8070000   2.9340000  19.2930000
  30.0710000   4.3050000  20.7760000  30.4280000   4.7690000  21.5990000
  29.8040000   5.0300000  20.1240000  29.2390000   3.7840000  21.0100000
  28.7070000   0.7480000  23.5410000  28.1470000  -0.3450000  23.5780000
  28.0460000   1.8890000  23.3310000  28.5610000   2.7530000  23.4200000
  26.6670000   2.0240000  22.8080000  26.0380000   1.2200000  23.1900000
  26.0740000   3.3810000  23.2410000  25.1320000   3.5450000  22.7170000
  25.8090000   3.4770000  24.7420000  26.7210000   3.2780000  25.3060000
  25.4580000   4.4800000  24.9880000  25.0380000   2.7630000  25.0290000
  26.9750000   4.4150000  22.9070000  26.5530000   5.2540000  23.1070000
  26.6340000   1.9610000  21.2760000  27.5670000   2.4270000  20.6150000
  25.5420000   1.4440000  20.7020000  24.8570000   0.9630000  21.2660000
  25.2610000   1.5550000  19.2660000  25.6050000   2.5290000  18.9170000
  25.7970000   0.7690000  18.7330000  23.7800000   1.4560000  18.9110000
  22.9690000   0.9860000  19.7060000  23.4010000   1.9040000  17.7180000
  24.0580000   2.4370000  17.1660000  22.0170000   1.8900000  17.2620000
  21.5500000   0.9640000  17.5980000  21.2870000   3.0740000  17.9020000
  21.7660000   4.0100000  17.6160000  20.2560000   3.0860000  17.5510000
  21.2920000   2.9840000  18.9890000  21.8710000   1.9600000  15.7350000
  22.7430000   2.4490000  15.0160000  20.7100000   1.5180000  15.2620000
  20.0430000   1.1790000  15.9410000  20.1520000   1.8620000  13.9450000
  20.7190000   2.6930000  13.5260000  20.2250000   0.7010000  12.9330000
  20.0150000   1.1040000  11.9420000  21.6000000   0.0270000  12.8980000
  21.8000000  -0.4810000  13.8410000  21.6310000  -0.7070000  12.0920000
  22.3710000   0.7760000  12.7150000  19.2540000  -0.2760000  13.2170000
  19.3390000  -0.9690000  12.5580000  18.7110000   2.3330000  14.1600000
  18.2240000   2.3130000  15.2940000  17.9990000   2.7650000  13.1150000
  18.4410000   2.8260000  12.2090000  16.6370000   3.3050000  13.2400000
  16.6890000   4.2850000  13.7160000  16.2140000   3.4360000  12.2440000
  15.6820000   2.4200000  14.0550000  14.8740000   2.9420000  14.8220000
  15.8030000   1.0910000  13.9230000  16.5000000   0.7470000  13.2770000
  15.0020000   0.1030000  14.6560000  14.2180000   0.6070000  15.2220000
  14.5050000  -0.5450000  13.9340000  15.7570000  -0.8050000  15.6360000
  15.1850000  -1.8140000  16.0350000  16.9920000  -0.4920000  16.0460000
  17.4110000   0.3650000  15.7130000  17.7980000  -1.3490000  16.9400000
  17.1370000  -2.0190000  17.4910000  18.7870000  -2.2160000  16.1440000
  19.3090000  -1.5960000  15.4150000  19.5510000  -2.5840000  16.8280000
  18.1940000  -3.4260000  15.4530000  17.7300000  -3.3400000  14.1300000
  17.7550000  -2.3960000  13.6060000  17.2640000  -4.4900000  13.4710000
  16.9320000  -4.4240000  12.4460000  17.2300000  -5.7210000  14.1440000
  16.8660000  -6.6030000  13.6390000  17.6660000  -5.8070000  15.4750000
  17.6210000  -6.7560000  15.9900000  18.1640000  -4.6630000  16.1240000
  18.5250000  -4.7300000  17.1400000  18.5970000  -0.5490000  17.9710000
  19.1180000   0.5250000  17.6730000  18.7330000  -1.1160000  19.1730000
  18.2810000  -2.0050000  19.3290000  19.6140000  -0.6370000  20.2400000
  20.2050000   0.2120000  19.8980000  19.0040000  -0.3170000  21.0840000
  20.5510000  -1.7510000  20.7180000  20.0960000  -2.8310000  21.0990000
  21.8590000  -1.4860000  20.7060000  22.1790000  -0.6100000  20.3170000
  22.9060000  -2.3720000  21.2290000  22.4520000  -3.2880000  21.6080000
  23.8630000  -2.7560000  20.0910000  24.5740000  -3.5040000  20.4430000
  23.2880000  -3.1770000  19.2660000  24.5690000  -1.6130000  19.6450000
  24.8700000  -1.7360000  18.7420000  23.6710000  -1.7080000  22.3810000
  23.7840000  -0.4780000  22.4630000  24.2200000  -2.5260000  23.2770000
  24.0020000  -3.5110000  23.2290000  25.1830000  -2.1000000  24.2940000
  25.8260000  -1.3410000  23.8490000  24.4600000  -1.4710000  25.4960000
  23.8410000  -0.6440000  25.1470000  23.8000000  -2.2110000  25.9480000
  25.4080000  -0.9280000  26.5490000  26.1900000   0.2050000  26.2580000
  26.0990000   0.6840000  25.2940000  27.0870000   0.7250000  27.2100000
  27.6730000   1.6050000  26.9920000  27.1940000   0.1020000  28.4700000
  28.0020000   0.6200000  29.4290000  28.5720000   1.3110000  29.0840000
  26.4330000  -1.0490000  28.7490000  26.5600000  -1.5290000  29.7080000
  25.5370000  -1.5660000  27.7960000  24.9530000  -2.4460000  28.0230000
  26.0730000  -3.2670000  24.7330000  25.6100000  -4.4000000  24.8780000
  27.3580000  -2.9830000  24.9420000  27.6670000  -2.0350000  24.7820000
  28.3720000  -3.9550000  25.3770000  27.8810000  -4.8180000  25.8260000
  29.2200000  -4.4410000  24.1820000  29.7180000  -3.5900000  23.7170000
  30.2870000  -5.4390000  24.6430000  29.8210000  -6.2230000  25.2400000
  30.7770000  -5.8920000  23.7810000  31.0490000  -4.9350000  25.2370000
  28.3660000  -5.1390000  23.1150000  27.6680000  -4.4310000  22.6700000
  29.0060000  -5.5250000  22.3220000  27.8100000  -5.9610000  23.5650000
  29.2610000  -3.3030000  26.4340000  29.7310000  -2.1860000  26.2170000
  29.4970000  -3.9860000  27.5590000  29.0700000  -4.8940000  27.6700000
  30.3480000  -3.5020000  28.6520000  31.1140000  -2.8510000  28.2320000
  29.5060000  -2.6770000  29.6270000  28.6940000  -3.2790000  30.0340000
  30.1350000  -2.3230000  30.4440000  29.0940000  -1.8140000  29.1050000
  31.0520000  -4.6510000  29.3890000  30.4460000  -5.6950000  29.6270000
  32.3200000  -4.4740000  29.7610000  32.7840000  -3.6140000  29.5020000
  33.1220000  -5.4970000  30.4410000  32.4740000  -6.0060000  31.1540000
  33.6100000  -6.5400000  29.4180000  34.0880000  -7.3590000  29.9540000
  32.7450000  -6.9690000  28.9120000  34.5730000  -6.0170000  28.3680000
  34.0760000  -5.5120000  27.1520000  33.0130000  -5.4940000  26.9630000
  34.9650000  -5.0100000  26.1880000  34.5840000  -4.5980000  25.2660000
  36.3480000  -5.0240000  26.4250000  37.0220000  -4.6230000  25.6830000
  36.8510000  -5.5460000  27.6280000  37.9160000  -5.5530000  27.8080000
  35.9620000  -6.0330000  28.6020000  36.3480000  -6.4060000  29.5400000
  34.2840000  -4.9150000  31.2660000  34.7010000  -3.7690000  31.0770000
  34.7880000  -5.7280000  32.2030000  34.3580000  -6.6370000  32.3030000
  35.8400000  -5.3910000  33.1720000  36.3170000  -4.4550000  32.8800000
  35.2410000  -5.1770000  34.5890000  34.8430000  -6.1340000  34.9270000
  36.3500000  -4.7370000  35.5690000  36.7920000  -3.7990000  35.2350000
  35.9390000  -4.5900000  36.5680000  37.1320000  -5.4930000  35.6400000
  34.0860000  -4.1440000  34.6480000  34.4870000  -3.1320000  34.6890000
  33.4570000  -4.2150000  33.7600000  33.1600000  -4.3880000  35.8480000
  33.7070000  -4.2800000  36.7840000  32.3430000  -3.6660000  35.8310000
  32.7370000  -5.3910000  35.7900000  36.8860000  -6.5250000  33.1680000
  36.6390000  -7.5810000  33.7610000  38.0620000  -6.3430000  32.5310000
  38.3960000  -5.2290000  31.6470000  38.8080000  -4.4060000  32.2310000
  37.5330000  -4.8840000  31.0790000  39.4560000  -5.7680000  30.6880000
  40.1200000  -4.9790000  30.3360000  38.9720000  -6.2700000  29.8500000
  40.1940000  -6.7990000  31.5390000  40.9350000  -6.2950000  32.1600000
  40.6700000  -7.5620000  30.9220000  39.0880000  -7.3900000  32.4190000
  38.6580000  -8.2450000  31.8970000  39.6350000  -7.8900000  33.7610000
  39.9050000  -9.0810000  33.9080000  39.7450000  -7.0090000  34.7620000
  39.6040000  -6.0320000  34.5510000  40.2140000  -7.3690000  36.1090000
  41.1920000  -7.8380000  35.9960000  40.4050000  -6.0850000  36.9370000
  41.1170000  -5.4390000  36.4250000  39.4500000  -5.5610000  36.9730000
  40.8930000  -6.2680000  38.3850000  40.8550000  -5.2880000  38.8590000
  40.1900000  -6.9020000  38.9250000  42.3290000  -6.8320000  38.5410000
  42.8870000  -6.7060000  39.6590000  42.9160000  -7.3990000  37.5840000
  39.3150000  -8.3990000  36.8230000  39.8100000  -9.2410000  37.5770000
  37.9970000  -8.3500000  36.5690000  37.6780000  -7.6610000  35.9030000
  36.9790000  -9.2150000  37.1990000  37.3880000  -9.6470000  38.1130000
  35.7610000  -8.3470000  37.5850000  35.3410000  -7.9140000  36.6770000
  34.9970000  -8.9810000  38.0360000  36.0610000  -7.1920000  38.5620000
  36.7650000  -6.4980000  38.1020000  35.1310000  -6.6520000  38.7420000
  36.6270000  -7.6630000  39.9110000  35.9330000  -8.3720000  40.3630000
  37.5880000  -8.1530000  39.7520000  36.8290000  -6.4670000  40.8530000
  37.4880000  -5.7470000  40.3690000  35.8660000  -5.9840000  41.0190000
  37.4150000  -6.8930000  42.1560000  38.3160000  -7.3310000  42.0310000
  37.5490000  -6.1040000  42.7720000  36.8170000  -7.5530000  42.6340000
  36.5610000 -10.4310000  36.3490000  35.7840000 -11.2560000  36.8270000
  37.0530000 -10.5470000  35.1080000  37.7300000  -9.8550000  34.8190000
  36.6430000 -11.5620000  34.1090000  37.1030000 -11.3010000  33.1550000
  37.1600000 -12.9680000  34.4790000  36.6810000 -13.3010000  35.4000000
  36.8780000 -13.6520000  33.6790000  38.6860000 -13.0430000  34.6510000
  39.1500000 -12.6190000  33.7600000  38.9790000 -12.4340000  35.5060000
  39.2000000 -14.4890000  34.8460000  38.4030000 -15.4190000  35.1220000
  40.4250000 -14.7200000  34.6920000  35.1160000 -11.5440000  33.8660000
  34.4520000 -12.5830000  33.8050000  34.5580000 -10.3330000  33.7500000
  35.1760000  -9.5350000  33.7410000  33.1290000 -10.0480000  33.9190000
  32.5610000 -10.9760000  33.8570000  32.9650000  -9.4500000  35.3320000
  33.3210000 -10.1760000  36.0630000  33.6060000  -8.5700000  35.3910000
  31.5470000  -9.0110000  35.7300000  31.1840000  -8.2830000  35.0050000
  30.5800000 -10.1920000  35.8080000  30.9770000 -10.9490000  36.4840000
  29.6100000  -9.8570000  36.1760000  30.4370000 -10.6260000  34.8190000
  31.5810000  -8.3400000  37.1030000  32.2490000  -7.4790000  37.0790000
  30.5820000  -7.9960000  37.3710000  31.9290000  -9.0440000  37.8580000
  32.6350000  -9.0850000  32.8300000  33.2890000  -8.0800000  32.5580000
  31.4840000  -9.3560000  32.2150000  30.9920000 -10.2060000  32.4510000
  30.9090000  -8.4830000  31.1860000  30.9180000  -7.4580000  31.5550000
  31.5270000  -8.5360000  30.2900000  29.4700000  -8.8170000  30.7940000
  28.8900000  -9.7970000  31.2560000  28.8860000  -7.9870000  29.9310000
  29.4180000  -7.1890000  29.6120000  27.5020000  -8.0850000  29.4620000
  27.2340000  -9.1420000  29.4810000  26.5340000  -7.3480000  30.4210000
  26.7270000  -7.7170000  31.4280000  26.7580000  -5.8240000  30.4230000
  26.3890000  -5.3790000  29.4990000  26.2390000  -5.3780000  31.2710000
  27.8190000  -5.5930000  30.5240000  25.0610000  -7.6880000  30.0980000
  24.7980000  -7.3140000  29.1080000  24.9450000  -8.7710000  30.0960000
  24.0560000  -7.1070000  31.0970000  24.0110000  -6.0230000  31.0000000
  23.0660000  -7.5120000  30.8870000  24.3480000  -7.3730000  32.1130000
  27.3670000  -7.6000000  28.0140000  28.0350000  -6.6610000  27.5760000
  26.4550000  -8.2440000  27.2900000  26.0100000  -9.0410000  27.7210000
  26.0110000  -7.9000000  25.9350000  26.4400000  -6.9490000  25.6220000
  26.4120000  -8.9900000  24.9280000  25.9500000  -9.9310000  25.2280000
  25.9330000  -8.6610000  23.5120000  26.4740000  -7.8060000  23.1060000
  26.0950000  -9.5370000  22.8850000  24.8640000  -8.4470000  23.4960000
  27.9240000  -9.2010000  24.8770000  28.2860000  -9.5450000  25.8460000
  28.1600000  -9.9630000  24.1340000  28.4200000  -8.2690000  24.6070000
  24.4920000  -7.7910000  25.9580000  23.8270000  -8.7210000  26.4100000
  23.9480000  -6.6680000  25.4910000  24.5660000  -5.9360000  25.1710000
  22.5080000  -6.4040000  25.3920000  21.9410000  -7.2970000  25.6540000
  22.1230000  -5.2710000  26.3600000  22.6890000  -4.3760000  26.1010000
  21.0630000  -5.0520000  26.2330000  22.3900000  -5.6040000  27.8360000
  21.6990000  -6.3810000  28.1610000  23.4030000  -5.9950000  27.9300000
  22.2680000  -4.1940000  28.9730000  20.5330000  -3.7240000  28.7370000
  19.8850000  -4.5560000  29.0110000  20.3010000  -2.8640000  29.3660000
  20.3630000  -3.4520000  27.6950000  22.1580000  -6.0070000  23.9500000
  22.7360000  -5.0630000  23.4090000  21.2230000  -6.7300000  23.3260000
  20.8050000  -7.5050000  23.8200000  20.7740000  -6.5130000  21.9430000
  21.1450000  -5.5570000  21.5740000  21.3080000  -7.6430000  21.0360000
  20.8360000  -8.5750000  21.3450000  20.9840000  -7.4270000  20.0180000
  22.8310000  -7.8610000  21.0130000  23.1890000  -8.0100000  22.0310000
  23.1740000  -9.1150000  20.2060000  22.9260000  -8.9700000  19.1540000
  24.2390000  -9.3300000  20.2920000  22.6110000  -9.9670000  20.5850000
  23.5800000  -6.6830000  20.3880000  23.4170000  -5.7820000  20.9790000
  24.6490000  -6.8950000  20.3700000  23.2290000  -6.5140000  19.3700000
  19.2400000  -6.4830000  21.8960000  18.5930000  -7.3990000  22.4020000
  18.6540000  -5.4410000  21.3040000  19.2350000  -4.6880000  20.9640000
  17.2060000  -5.2250000  21.2670000  16.6840000  -6.1700000  21.4190000
  16.8440000  -4.2720000  22.4080000  17.3770000  -3.3320000  22.2700000
  15.7720000  -4.0750000  22.4020000  17.1210000  -4.7110000  23.3670000
  16.7520000  -4.6350000  19.9240000  17.3850000  -3.7200000  19.3930000
  15.6160000  -5.0950000  19.3920000  15.0840000  -5.7900000  19.8960000
  15.0810000  -4.6130000  18.1090000  15.9080000  -4.2370000  17.5070000
  14.5050000  -5.7930000  17.3140000  14.3070000  -5.4400000  16.3020000
  15.2530000  -6.5830000  17.2400000  13.2230000  -6.3990000  17.8570000
  12.8240000  -6.1890000  18.9900000  12.5620000  -7.2030000  17.0580000
  11.8030000  -7.7450000  17.4440000  12.8060000  -7.2270000  16.0780000
  14.1340000  -3.4040000  18.2790000  13.0590000  -3.3240000  17.6810000
  14.6080000  -2.4270000  19.0670000  15.4980000  -2.6140000  19.5080000
  14.0720000  -1.0660000  19.2330000  13.7390000  -0.7040000  18.2600000
  12.8630000  -1.0910000  20.1910000  12.1030000  -1.7530000  19.7760000
  13.1710000  -1.4790000  21.1620000  12.2460000   0.3060000  20.3710000
  12.9740000   0.9680000  20.8410000  11.9850000   0.7080000  19.3910000
  10.9900000   0.2780000  21.2480000  10.2380000  -0.3640000  20.7900000
  11.2450000  -0.1090000  22.2350000  10.4440000   1.7090000  21.3740000
  11.2250000   2.3460000  21.7900000  10.2050000   2.0830000  20.3780000
   9.2350000   1.7590000  22.2420000   9.4520000   1.4280000  23.1710000
   8.8890000   2.7050000  22.3220000   8.4910000   1.1910000  21.8630000
  15.1880000  -0.1480000  19.7430000  15.9680000  -0.5490000  20.6030000
  15.2740000   1.0800000  19.2330000  14.5870000   1.3630000  18.5490000
  16.3100000   2.0530000  19.6090000  17.2150000   1.5190000  19.8970000
  16.6480000   2.8850000  18.3570000  16.9050000   2.2140000  17.5380000
  15.7770000   3.4660000  18.0560000  17.8210000   3.8340000  18.5640000
  18.5680000   3.7580000  19.5320000  18.0210000   4.7580000  17.6530000
  18.8170000   5.3710000  17.7520000  17.4410000   4.7850000  16.8270000
  15.8800000   2.9060000  20.8290000  15.5810000   4.0960000  20.7060000
  15.8150000   2.2800000  22.0120000  16.0790000   1.3060000  22.0480000
  15.4980000   2.9500000  23.2880000  14.7330000   3.6970000  23.0720000
  14.8720000   1.9300000  24.2530000  14.4240000   2.4700000  25.0860000
  14.0560000   1.4180000  23.7420000  15.8190000   0.8920000  24.8190000
  16.4610000   1.1250000  26.0510000  16.3070000   2.0560000  26.5750000
  17.2950000   0.1370000  26.6120000  17.7750000   0.3170000  27.5620000
  17.5040000  -1.0790000  25.9240000  18.3160000  -2.0390000  26.4390000
  18.6870000  -1.7750000  27.2840000  16.8830000  -1.2940000  24.6820000
  17.0490000  -2.2320000  24.1730000  16.0300000  -0.3200000  24.1330000
  15.5270000  -0.5180000  23.1980000  16.7180000   3.6960000  23.8890000
  17.8510000   3.3810000  23.5160000  16.5380000   4.6770000  24.8010000
  15.2630000   5.1350000  25.3420000  15.0050000   4.5250000  26.2080000
  14.4600000   5.1100000  24.6050000  15.4960000   6.5740000  25.7850000
  14.8150000   6.8660000  26.5850000  15.4030000   7.2440000  24.9300000
  16.9440000   6.5340000  26.2570000  16.9800000   6.1150000  27.2630000
  17.4010000   7.5230000  26.2380000  17.6080000   5.5820000  25.2550000
  17.9280000   6.1640000  24.3910000  18.8400000   4.9040000  25.8770000
  18.7190000   3.9490000  26.6450000  20.0360000   5.4390000  25.5940000
  20.0640000   6.2210000  24.9560000  21.3150000   4.9200000  26.1100000
  21.4220000   3.8990000  25.7440000  22.5050000   5.7300000  25.5520000
  22.4040000   6.7760000  25.8400000  23.4230000   5.3590000  26.0090000
  22.7020000   5.6720000  24.0450000  22.1600000   4.8380000  23.3360000
  23.5050000   6.5670000  23.5180000  23.6050000   6.6020000  22.5130000
  23.9620000   7.2410000  24.1160000  21.4000000   4.8210000  27.6520000
  21.8440000   3.7750000  28.1300000  20.9410000   5.8100000  28.4550000
  20.4630000   7.1380000  28.0800000  19.3860000   7.1060000  27.9200000
  20.9600000   7.5340000  27.1940000  20.7730000   8.0310000  29.2770000
  20.1170000   8.9010000  29.3180000  21.8200000   8.3300000  29.2520000
  20.5380000   7.0800000  30.4470000  19.4680000   6.9990000  30.6410000
  21.0670000   7.4120000  31.3400000  21.0910000   5.7540000  29.9140000
  22.1550000   5.7070000  30.1460000  20.4140000   4.5370000  30.5510000
  20.9830000   3.9280000  31.4530000  19.2450000   4.1280000  30.0420000
  18.8280000   4.6730000  29.3010000  18.5510000   2.9110000  30.4700000
  18.3740000   2.9780000  31.5440000  17.1870000   2.8660000  29.7710000
  17.3170000   2.7770000  28.6920000  16.6170000   2.0120000  30.1360000
  16.6270000   3.7750000  29.9910000  19.3740000   1.6290000  30.2200000
  19.4210000   0.7470000  31.0810000  20.0630000   1.5360000  29.0670000
  20.0060000   2.3190000  28.4310000  20.9930000   0.4280000  28.7420000
  20.4500000  -0.5160000  28.7820000  21.6240000   0.5890000  27.3390000
  22.3480000   1.4030000  27.3580000  22.1710000  -0.3250000  27.1060000
  20.6250000   0.8620000  26.2090000  19.9600000   0.0050000  26.1050000
  20.0380000   1.7490000  26.4450000  21.3440000   1.0840000  24.8770000
  22.2090000   1.7270000  25.0390000  21.6860000   0.1190000  24.5050000
  20.4540000   1.7260000  23.8880000  19.5470000   2.0440000  24.2000000
  20.7610000   1.9900000  22.6320000  21.8780000   1.5890000  22.1050000
  22.5060000   0.9930000  22.6250000  22.0930000   1.7570000  21.1330000
  19.9250000   2.6380000  21.8820000  19.0890000   3.0100000  22.3100000
  20.1360000   2.9110000  20.9320000  22.1170000   0.3380000  29.7750000
  22.3620000  -0.7230000  30.3450000  22.7680000   1.4740000  30.0300000
  22.4910000   2.2950000  29.5110000  23.9190000   1.5620000  30.9390000
  24.6180000   0.7700000  30.6710000  24.6640000   2.8980000  30.7790000
  24.0010000   3.7230000  31.0420000  25.9000000   2.9490000  31.6810000
  26.5370000   2.0860000  31.4870000  26.4690000   3.8570000  31.4780000
  25.6080000   2.9570000  32.7310000  25.1330000   3.0830000  29.3330000
  24.2890000   3.3140000  28.6830000  25.8520000   3.9000000  29.2730000
  25.6140000   2.1710000  28.9780000  23.5170000   1.3180000  32.3950000
  24.2110000   0.5870000  33.0950000  22.3860000   1.8700000  32.8440000
  21.8760000   2.4930000  32.2340000  21.8030000   1.5920000  34.1610000
  22.5070000   1.9170000  34.9270000  20.5070000   2.3980000  34.3270000
  20.7360000   3.4560000  34.1940000  19.8100000   2.1060000  33.5410000
  19.8240000   2.2230000  35.6970000  20.5010000   1.9310000  36.7110000
  18.5860000   2.4150000  35.7630000  21.5630000   0.0870000  34.3660000
  22.0770000  -0.5000000  35.3170000  20.8480000  -0.5690000  33.4440000
  20.4630000  -0.0540000  32.6660000  20.6260000  -2.0140000  33.4930000
  20.0760000  -2.2400000  34.4070000  19.7520000  -2.4010000  32.2990000
  20.2150000  -2.0530000  31.3750000  19.6370000  -3.4840000  32.2540000
  18.7710000  -1.9370000  32.4020000  21.9380000  -2.8240000  33.5390000
  22.1100000  -3.6810000  34.4100000  22.8850000  -2.5380000  32.6400000
  22.6900000  -1.8420000  31.9350000  24.2060000  -3.1620000  32.6430000
  24.0800000  -4.2340000  32.4910000  25.0040000  -2.6020000  31.4690000
  25.0900000  -1.5190000  31.5590000  26.0040000  -3.0360000  31.4640000
  24.5030000  -2.8460000  30.5320000  24.9590000  -2.9740000  33.9740000
  25.4680000  -3.9500000  34.5290000  25.0040000  -1.7460000  34.5050000
  24.5710000  -0.9880000  33.9960000  25.5520000  -1.4410000  35.8290000
  26.6120000  -1.6960000  35.8390000  25.4290000   0.0600000  36.1330000
  26.1830000   0.6010000  35.5610000  24.4510000   0.4180000  35.8090000
  25.5800000   0.3950000  37.5860000  24.5590000   0.6820000  38.4280000
  23.5200000   0.7440000  38.1400000  25.0450000   0.8360000  39.7120000
  24.4580000   1.0580000  40.5040000  26.4120000   0.6650000  39.7590000
  27.3490000   0.7520000  40.7990000  27.0280000   0.9690000  41.8070000
  28.7110000   0.5670000  40.5060000  29.4480000   0.6350000  41.2920000
  29.1140000   0.2960000  39.1870000  30.1640000   0.1650000  38.9710000
  28.1650000   0.2040000  38.1480000  28.4910000   0.0050000  37.1380000
  26.7890000   0.3930000  38.4070000  24.8880000  -2.2760000  36.9300000
  25.5940000  -2.9730000  37.6560000  23.5540000  -2.2550000  37.0370000
  23.0330000  -1.6720000  36.3980000  22.8120000  -3.0300000  38.0380000
  23.1060000  -2.6770000  39.0270000  21.2930000  -2.8320000  37.8790000
  21.0140000  -3.0520000  36.8480000  20.7720000  -3.5470000  38.5170000
  20.7990000  -1.4170000  38.2300000  21.3390000  -0.6840000  37.6310000
  19.7440000  -1.3430000  37.9670000  20.9520000  -1.0150000  39.6960000
  21.1800000  -1.8160000  40.5950000  20.8210000   0.2610000  39.9930000
  20.8990000   0.5460000  40.9590000  20.6300000   0.9280000  39.2590000
  23.1620000  -4.5250000  37.9840000  23.3720000  -5.1430000  39.0300000
  23.2690000  -5.0970000  36.7780000  23.0570000  -4.5390000  35.9630000
  23.6550000  -6.4980000  36.5860000  23.0360000  -7.0920000  37.2580000
  23.3430000  -6.9740000  35.1470000  23.8020000  -6.2770000  34.4460000
  23.9130000  -8.3810000  34.8850000  23.5580000  -9.0840000  35.6380000
  23.6070000  -8.7390000  33.9020000  25.0030000  -8.3620000  34.9030000
  21.8140000  -6.9940000  34.9120000  21.3710000  -7.8570000  35.4090000
  21.3670000  -6.1030000  35.3550000  21.4070000  -7.0070000  33.4340000
  21.7100000  -7.9410000  32.9600000  20.3230000  -6.9180000  33.3630000
  21.8610000  -6.1640000  32.9150000  25.1070000  -6.7480000  37.0250000
  25.3380000  -7.5640000  37.9180000  26.0940000  -6.0590000  36.4370000
  25.8570000  -5.3540000  35.7530000  27.5110000  -6.3120000  36.7390000
  27.6760000  -7.3860000  36.6610000  28.4290000  -5.6240000  35.7080000
  28.2770000  -4.5460000  35.7580000  29.4590000  -5.8260000  36.0020000
  28.2470000  -6.0800000  34.2430000  27.3240000  -5.6650000  33.8380000
  29.4180000  -5.5820000  33.3930000  30.3580000  -5.9940000  33.7600000
  29.2760000  -5.8760000  32.3520000  29.4630000  -4.4940000  33.4330000
  28.1910000  -7.6000000  34.0980000  27.2550000  -7.9840000  34.5060000
  28.2340000  -7.8790000  33.0450000  29.0280000  -8.0630000  34.6200000
  27.9080000  -5.9610000  38.1840000  28.6200000  -6.7360000  38.8210000
  27.4100000  -4.8570000  38.7480000  26.8130000  -4.2570000  38.1970000
  27.6850000  -4.4620000  40.1360000  28.7650000  -4.3830000  40.2580000
  27.0760000  -3.0750000  40.3920000  27.4590000  -2.3660000  39.6590000
  25.9930000  -3.1280000  40.2810000  27.4200000  -2.5450000  41.7750000
  28.5730000  -2.4800000  42.1790000  26.4300000  -2.1760000  42.5600000
  26.6540000  -1.8250000  43.4800000  25.4740000  -2.2120000  42.2350000
  27.1910000  -5.5040000  41.1650000  27.8230000  -5.6920000  42.2050000
  26.0880000  -6.2050000  40.8700000  25.6060000  -6.0000000  40.0060000
  25.5420000  -7.2810000  41.7040000  25.6840000  -7.0180000  42.7520000
  24.0320000  -7.3440000  41.4480000  23.8390000  -7.5970000  40.4050000
  23.5780000  -8.0970000  42.0930000  23.5770000  -6.3790000  41.6700000
  26.2350000  -8.6520000  41.4900000  25.9310000  -9.6170000  42.1980000
  27.1690000  -8.7450000  40.5330000  27.3530000  -7.9170000  39.9840000
  27.9690000  -9.9420000  40.2290000  27.6010000 -10.7860000  40.8130000
  27.8190000 -10.2750000  38.7340000  28.0760000  -9.3880000  38.1550000
  28.5350000 -11.0560000  38.4750000  26.4100000 -10.7500000  38.3350000
  25.6590000 -10.0400000  38.6840000  26.3100000 -10.8500000  36.8160000
  27.0390000 -11.5700000  36.4430000  25.3050000 -11.1670000  36.5350000
  26.5040000  -9.8760000  36.3680000  26.0910000 -12.1240000  38.9230000
  26.0620000 -12.0670000  40.0120000  25.1120000 -12.4530000  38.5750000
  26.8480000 -12.8470000  38.6220000  29.4560000  -9.7940000  40.6090000
  30.0910000 -10.7870000  40.9760000  29.9920000  -8.5690000  40.5660000
  29.4170000  -7.8270000  40.1930000  31.3010000  -8.1860000  41.1100000
  32.0700000  -8.8050000  40.6480000  31.5680000  -6.7170000  40.7260000
  31.6850000  -6.6750000  39.6430000  30.7010000  -6.1060000  40.9750000
  32.8340000  -6.1100000  41.3660000  33.4890000  -6.9050000  41.7200000
  33.3750000  -5.5720000  40.5870000  32.5670000  -5.1280000  42.5190000
  33.2360000  -4.1120000  42.6610000  31.5960000  -5.3600000  43.3760000
  31.4220000  -4.6910000  44.1120000  31.0770000  -6.2240000  43.3110000
  31.3800000  -8.4380000  42.6290000  30.5190000  -7.9160000  43.3760000
  32.3270000  -9.1270000  43.0720000
