2r9w_ligand
  5623
  22.9090000   9.3210000  15.6750000  22.4060000   9.2820000  16.9720000
  21.3400000  10.0720000  17.3400000  20.7510000  10.9320000  16.4290000
  21.2410000  10.9980000  15.1300000  22.3160000  10.1940000  14.7590000
  22.7950000  10.2750000  13.4610000  23.8630000   9.4750000  13.0910000
  24.4450000   8.6080000  13.9970000  23.9950000   8.5220000  15.3010000
  24.7120000   7.5120000  16.2130000  23.7960000   6.2670000  16.3550000
  24.3490000   5.1940000  17.3360000  24.0970000   5.3900000  18.5510000
  24.9630000   4.2210000  16.8750000  23.3960000   5.7440000  15.0260000
  22.1140000   5.6400000  14.6600000  21.1580000   5.9120000  15.3850000
  22.0290000   5.1580000  13.3540000  20.9590000   4.8580000  12.5070000
  21.2080000   4.3710000  11.2250000  20.0820000   4.0090000  10.2690000
  19.0120000   3.5780000  10.7470000  20.3180000   4.1100000   9.0460000
  22.5210000   4.1870000  10.8070000  23.5720000   4.4900000  11.6530000
  23.3420000   4.9770000  12.9340000  24.1670000   5.3610000  13.9950000
  25.4050000   5.3390000  13.9930000  22.8590000   8.6210000  17.7020000
  20.9580000  10.0200000  18.3530000  19.9120000  11.5510000  16.7270000
  20.7890000  11.6710000  14.4100000  22.3410000  10.9530000  12.7470000
  24.2470000   9.5290000  12.0790000  25.2710000   7.9830000  13.6780000
  24.8890000   7.9610000  17.2010000  25.6730000   7.2200000  15.7650000
  22.8680000   6.6300000  16.8210000  19.9390000   5.0030000  12.8450000
  22.7220000   3.8040000   9.8130000  24.5910000   4.3460000  11.3120000
  21.3560000 -23.1410000  36.0740000  20.8099174 -22.8507823  36.8725415
  21.8863626 -23.9631088  36.3249044  20.7585435 -23.1545140  35.2597748
  22.3590000 -22.0990000  35.8030000  23.3683842 -22.5041555  35.8743565
  22.1500000 -21.5320000  34.3650000  21.1466692 -21.1144653  34.2807854
  22.8853831 -20.7510939  34.1713573  22.2716892 -22.3336560  33.6365506
  22.2250000 -20.9190000  36.7810000  21.1050000 -20.6290000  37.2080000
  23.3570000 -20.4080000  37.3090000  24.6800000 -20.3680000  36.6470000
  24.6737679 -19.5892018  35.8844157  24.8737113 -21.3329466  36.1785419
  25.6410000 -20.0710000  37.7700000  26.4312726 -19.4111278  37.4120378
  26.0806301 -21.0002815  38.1323019  24.8270000 -19.4180000  38.8330000
  24.7309982 -18.4118019  38.4250196  25.1566001 -19.3589973  39.8702956
  23.4780000 -20.1440000  38.7530000  23.3341700 -21.0486654  39.3437552
  22.3510000 -19.1450000  39.0640000  22.1310000 -18.1780000  38.3030000
  21.6160000 -19.3810000  40.1400000  21.8417083 -20.1439492  40.7621443
  20.4120000 -18.6050000  40.4070000  19.7190131 -18.7029250  39.5713691
  19.7210000 -19.1000000  41.6740000  19.7252967 -20.1898559  41.6568295
  20.2955000 -18.7483742  42.5309767  18.3010000 -18.6050000  41.7840000
  18.3523707 -17.5491421  42.0497557  17.7954350 -18.7134313  40.8244435
  17.4930000 -19.3330000  42.8430000  18.0490000 -19.9580000  43.7450000
  16.1650000 -19.2830000  42.7100000  15.5750904 -19.7489038  43.3845678
  15.7567164 -18.7795122  41.9354641  20.6700000 -17.0980000  40.5080000
  19.8300000 -16.2910000  40.0860000  21.8270000 -16.7230000  41.0500000
  22.4624405 -17.4162355  41.4184281  22.1730000 -15.3080000  41.2110000
  21.4145921 -14.8140633  41.8184070  23.5370000 -15.1490000  41.9030000
  23.4471300 -15.6208298  42.8814678  24.2588057 -15.6995215  41.2996572
  24.0120000 -13.7070000  42.0750000  23.9184027 -13.1870306  41.1215997
  23.3589088 -13.2369466  42.8102712  25.4590000 -13.5860000  42.5580000
  26.2490000 -14.5250000  42.4470000  25.8140000 -12.4090000  43.0790000
  26.7569523 -12.2722992  43.4140452  25.1379581 -11.6607640  43.1356709
  22.1510000 -14.5810000  39.8670000  21.5830000 -13.4970000  39.7510000
  22.7630000 -15.1830000  38.8540000  23.2836420 -16.0359813  39.0004723
  22.7800000 -14.5820000  37.5250000  23.0931950 -13.5406266  37.5994944
  23.7260000 -15.3360000  36.5670000  23.4611690 -16.3933286  36.5624028
  23.6020000 -14.7750000  35.1540000  23.8671383 -13.7177448  35.1577130
  24.2744207 -15.3153425  34.4876810  22.5757053 -14.8904530  34.8054474
  25.1730000 -15.2060000  37.0690000  25.4101182 -14.1421089  37.0656194
  25.1821968 -15.5765105  38.0940546  26.2030000 -15.9540000  36.2540000
  26.1947140 -15.5836911  35.2288646  27.1913221 -15.8003962  36.6872718
  25.9667910 -17.0180932  36.2572980  21.3680000 -14.5060000  36.9520000
  20.9510000 -13.4820000  36.4170000  20.6220000 -15.6010000  37.0690000
  21.0079643 -16.4464500  37.4644050  19.2360000 -15.6220000  36.6080000
  19.1966387 -15.5090854  35.5245794  18.5900000 -16.9610000  36.9850000
  19.1679664 -17.7729205  36.5435941  18.6041082 -17.0542439  38.0709128
  17.1740000 -17.0710000  36.5140000  16.9170000 -17.4890000  35.3710000
  16.2230000 -16.7060000  37.3940000  15.2491700 -16.7591373  37.1314520
  16.4876054 -16.3806587  38.3128242  18.4200000 -14.4810000  37.2160000
  17.7180000 -13.7530000  36.5260000  18.5000000 -14.3530000  38.5320000
  19.1254865 -14.9377455  39.0676666  17.6580000 -13.4030000  39.2490000
  16.6240154 -13.5108569  38.9213693  17.7210000 -13.6490000  40.7590000
  18.7719103 -13.6761896  41.0470062  17.2309133 -12.8102300  41.2533480
  17.0470000 -14.9480000  41.1770000  16.2850000 -15.5520000  40.3960000
  17.2830000 -15.3750000  42.3110000  18.0730000 -11.9750000  38.9450000
  17.2260000 -11.1400000  38.6770000  19.3740000 -11.7190000  38.9790000
  20.0165460 -12.4455336  39.2607495  19.9150000 -10.3810000  38.6960000
  19.4570330  -9.6416609  39.3530716  21.4590000 -10.3500000  38.8780000
  21.8942990 -11.1799524  38.3214084  22.0300000  -9.0620000  38.3790000
  21.5954907  -8.2315537  38.9354721  23.1111508  -9.0653847  38.5175719
  21.8003615  -8.9484282  37.3195347  21.8390000 -10.5470000  40.3630000
  21.6286828  -9.6097233  40.8781504  21.1954951 -11.3318304  40.7605452
  23.2950000 -10.9280000  40.5790000  23.9391534 -10.1433758  40.1820981
  23.4851654 -11.0486681  41.6454781  23.5059662 -11.8654823  40.0644906
  19.5100000  -9.9430000  37.2810000  18.9890000  -8.8440000  37.0790000
  19.6820000 -10.8290000  36.3010000  20.1381537 -11.7147791  36.4665855
  19.3110000 -10.4840000  34.9230000  19.7039969  -9.5131587  34.6211393
  19.8130000 -11.5520000  33.9250000  19.4975164 -12.5363038  34.2709990
  19.2370000 -11.2930000  32.5230000  19.5524593 -10.3089999  32.1761136
  19.6012022 -12.0546940  31.8335948  18.1484515 -11.3314486  32.5640556
  21.3370000 -11.5580000  33.9190000  21.7038721 -11.7915442  34.9184819
  21.6951279 -12.3101885  33.2161085  21.7035353 -10.5765619  33.6181149
  17.8130000 -10.2510000  34.7650000  17.3760000  -9.2120000  34.2760000
  17.0020000 -11.2150000  35.1930000  17.3618435 -12.0886442  35.5498722
  15.5560000 -11.0760000  35.0300000  15.3276993 -10.8366078  33.9914099
  14.8360000 -12.3690000  35.4020000  15.2357724 -12.8374565  36.3013497
  13.7816943 -12.1365422  35.5520095  14.8970000 -13.3960000  34.3230000
  15.7370000 -14.4790000  34.3750000  15.6000000 -15.1960000  33.2700000
  16.1826117 -16.1048973  33.1197726  14.7030000 -14.6090000  32.5060000
  14.3871968 -14.9342387  31.6034547  14.2570000 -13.4710000  33.1340000
  13.5184359 -12.8338715  32.6474905  14.9520000  -9.8870000  35.7820000
  14.0700000  -9.2230000  35.2570000  15.4170000  -9.6270000  37.0000000
  16.0952305 -10.2397480  37.4297007  14.8900000  -8.5060000  37.7920000
  13.8007540  -8.5463535  37.7957455  15.3860000  -8.5640000  39.2370000
  16.4602868  -8.7473801  39.2175354  15.1914502  -7.5962424  39.6992722
  14.7050000  -9.6490000  40.0360000  13.6443402  -9.4052622  40.0967742
  14.8309749 -10.5896282  39.4998555  15.2720000  -9.7850000  41.4330000
  16.3563487  -9.8831868  41.3815578  15.0149665  -8.9041259  42.0212976
  14.7230000 -10.9730000  42.1000000  13.8517007 -11.3302800  41.7349139
  15.2680000 -11.5810000  43.1470000  16.4030000 -11.1470000  43.6610000
  16.8633018 -10.3446235  43.2555197  16.8062933 -11.6191572  44.4575688
  14.6800000 -12.6560000  43.6650000  13.8228330 -13.0037117  43.2594617
  15.0934403 -13.1195193  44.4614394  15.2100000  -7.1430000  37.1830000
  14.4650000  -6.2010000  37.3890000  16.2990000  -7.0680000  36.4220000
  16.9186485  -7.8636560  36.3666230  16.6910000  -5.8380000  35.7440000
  16.3223067  -4.9614228  36.2767072  18.2240000  -5.7520000  35.6580000
  18.5793698  -6.5693390  35.0304894  18.6840000  -4.4160000  35.0650000
  18.3293758  -3.5981503  35.6922665  19.7728560  -4.3933119  35.0205361
  18.2774379  -4.3048637  34.0597853  18.7910000  -5.9090000  36.9670000
  19.7477679  -5.8548410  36.9098835  16.0270000  -5.7120000  34.3530000
  15.4430000  -4.6770000  34.0220000  16.0740000  -6.7790000  33.5570000
  16.5130532  -7.6293671  33.8798118  15.6380000  -6.7080000  32.1510000
  15.8267179  -5.7293491  31.7097209  16.3170000  -7.8080000  31.2830000
  16.1024469  -8.7841545  31.7179596  15.7810000  -7.7620000  29.8230000
  15.9956109  -6.7862378  29.3871893  16.2674458  -8.5381576  29.2321950
  14.7039237  -7.9293326  29.8253826  17.8400000  -7.6770000  31.3420000
  18.1222980  -7.7327901  32.3933306  18.2525656  -8.5339845  30.8095841
  18.3950000  -6.3770000  30.7300000  17.9832131  -5.5195281  31.2622343
  19.4816089  -6.3694989  30.8155803  18.1134785  -6.3207215  29.6784877
  14.1120000  -6.7180000  31.9510000  13.5890000  -6.0300000  31.0800000
  13.3850000  -7.4770000  32.7620000  13.8208114  -8.1403834  33.3865720
  11.9200000  -7.4870000  32.6470000  11.6517082  -7.7832778  31.6329299
  11.2460000  -8.4610000  33.6410000  11.3711155  -8.0725089  34.6517032
   9.7660000  -8.6100000  33.3360000   9.6400897  -8.9989114  32.3255574
   9.3152078  -9.3001189  34.0491770   9.2787773  -7.6380796  33.4140088
  11.8780000  -9.7310000  33.5300000  11.4688788 -10.3466380  34.1425439
  11.2820000  -6.0940000  32.7300000  10.5240000  -5.7270000  31.8490000
  11.5740000  -5.3250000  33.7930000  12.3620000  -5.6530000  34.9820000
  13.4247575  -5.5745184  34.7528988  12.1347312  -6.6686145  35.3059987
  11.9170000  -4.6410000  35.9540000  12.7245924  -4.4450365  36.6593310
  11.0491666  -5.0215062  36.4926850  11.5810000  -3.4710000  35.2080000
  12.4831155  -2.8823665  35.0412752  10.8323026  -2.8545125  35.7054888
  11.0370000  -3.9760000  33.8740000   9.9497949  -4.0517253  33.8553204
  11.5060000  -3.0690000  32.7270000  10.7360000  -2.2550000  32.2120000
  12.7600000  -3.2400000  32.3220000  13.3679423  -3.8660693  32.8304710
  13.3140000  -2.5070000  31.1870000  13.2851024  -1.4352337  31.3834207
  14.7720000  -2.9240000  30.9570000  15.2445333  -2.6606701  31.9032922
  14.7881542  -4.0067248  30.8323163  15.5370000  -2.2660000  29.8040000
  14.9672236  -2.3813011  28.8819581  15.7380000  -0.7890000  30.0930000
  16.3081382  -0.6728966  31.0147165  16.2825219  -0.3278364  29.2690310
  14.7678371  -0.3044577  30.2030143  16.8780000  -2.9740000  29.5650000
  16.6979667  -4.0196127  29.3152369  17.4035496  -2.4896813  28.7419968
  17.4859897  -2.9161238  30.4678277  12.5000000  -2.7330000  29.9230000
  12.0930000  -1.7820000  29.2400000  12.2820000  -4.0010000  29.5930000
  12.7060191  -4.7453682  30.1279983  11.4980000  -4.3560000  28.4140000
  11.9203249  -3.8961812  27.5205194  11.4500000  -5.8900000  28.2300000
  11.2255653  -6.3474281  29.1935813  10.3920000  -6.2940000  27.2200000
  10.6160295  -5.8372968  26.2559805  10.3849806  -7.3788737  27.1146408
   9.4139402  -5.9564373  27.5628553  12.8260000  -6.3750000  27.7870000
  12.9836847  -5.9846676  26.7815762  13.5478705  -5.9247195  28.4683589
  13.0110000  -7.8910000  27.7790000  12.2897311  -8.3419759  27.0974637
  14.0215730  -8.1324944  27.4495734  12.8539144  -8.2820281  28.7842467
  10.1000000  -3.7660000  28.5200000   9.5700000  -3.2320000  27.5460000
   9.5300000  -3.8360000  29.7190000  10.0039403  -4.2973759  30.4822904
   8.1900000  -3.3070000  29.9550000   7.4925325  -3.7117674  29.2216504
   7.7160000  -3.7020000  31.3470000   7.8052329  -4.7865038  31.4101519
   8.4052747  -3.2394953  32.0534629   6.2940000  -3.2910000  31.6850000
   6.2842795  -2.2037455  31.7617069   5.6131177  -3.6050022  30.8938609
   5.8510000  -3.8920000  32.9980000   5.9290000  -3.1910000  34.0290000
   5.4580000  -5.0800000  33.0080000   8.1560000  -1.7940000  29.7900000
   7.3610000  -1.2670000  29.0160000   9.0370000  -1.1080000  30.5030000
   9.6648212  -1.5953347  31.1262533   9.0990000   0.3550000  30.4590000
   8.1339290   0.7791505  30.7361885  10.1550000   0.8610000  31.4410000
  11.0914381   0.3764572  31.1645924  10.2400875   1.9352136  31.2769105
   9.8580000   0.5920000  32.9230000   9.2516130   1.4159866  33.2990874
   9.2985977  -0.3394304  33.0102271  11.1230000   0.4850000  33.7790000
  12.2190000   0.8350000  33.3420000  10.9700000  -0.0150000  35.0000000
  11.7709499  -0.1083742  35.6081628  10.0534131  -0.2995234  35.3146684
   9.4030000   0.8920000  29.0670000   8.8300000   1.9010000  28.6550000
  10.3250000   0.2430000  28.3450000  10.7830146  -0.5729465  28.7252015
  10.7590000   0.7360000  27.0380000  10.5861335   1.8097888  26.9659305
  12.2530000   0.4680000  26.8520000  12.3863248  -0.6135639  26.8753084
  12.5223694   0.8455922  25.8656105  13.1510000   1.1150000  27.9080000
  12.8050059   0.7757392  28.8843662  14.1777697   0.7841460  27.7518533
  13.1210000   2.6460000  27.8830000  13.3260000   3.3010000  28.9160000
  12.8490000   3.2180000  26.7220000  12.8175496   4.2252057  26.6538160
  12.6739860   2.6449814  25.9089065   9.9860000   0.1700000  25.8380000
  10.2440000   0.5550000  24.7010000   9.0520000  -0.7420000  26.0900000
   8.9511856  -1.0836161  27.0351107   8.2520000  -1.3770000  25.0290000
   7.7006185  -2.2201865  25.4450700   7.2550000  -0.3920000  24.4270000
   7.8142955   0.4451540  24.0093147   6.7139052  -0.9008990  23.6292918
   6.2540000   0.1310000  25.4730000   5.9586035  -0.6974086  26.1168796
   6.7449120   0.8984579  26.0714279   5.0180000   0.7210000  24.8060000
   5.3383722   1.3754672  23.9953624   4.4190373  -0.0938185  24.3992888
   4.1830000   1.5170000  25.8010000   4.7866953   2.3503518  26.1604126
   3.3077357   1.9021323  25.2778511   3.7450000   0.6880000  26.9560000
   4.5558952   0.3313833  27.4411528   3.1965236   1.2538398  27.5877428
   3.1852310  -0.0840180  26.6232148   9.1270000  -2.0430000  23.9500000
   8.8830000  -1.9210000  22.7490000  10.1310000  -2.7730000  24.4180000
  10.2651495  -2.8411406  25.4167292  11.0790000  -3.4650000  23.5410000
  11.3201627  -2.8444262  22.6779659  12.3770000  -3.8010000  24.3130000
  12.1126128  -4.2570811  25.2670387  13.2410000  -4.7620000  23.5150000
  13.5061927  -4.3064013  22.5609543  14.1489562  -4.9857843  24.0750330
  12.6887932  -5.6844681  23.3355023  13.1700000  -2.5100000  24.6110000
  13.6459538  -2.2008621  23.6804074  12.4498353  -1.7521365  24.9193913
  14.2090000  -2.6700000  25.6720000  14.9298341  -3.4274249  25.3640949
  14.7227698  -1.7208071  25.8242255  13.7337154  -2.9787017  26.6030788
  10.4250000  -4.7500000  23.0070000   9.9970000  -5.6000000  23.7960000
  10.3300000  -4.8920000  21.6730000  10.6740000  -3.9580000  20.5890000
  11.7337893  -4.0501214  20.3513855  10.4607066  -2.9372425  20.9062681
   9.8060000  -4.3950000  19.4820000  10.2911107  -4.1650888  18.5333655
   8.8550951  -3.8654660  19.5409494   9.6100000  -5.8550000  19.6500000
  10.3874840  -6.4198422  19.1356353   8.6326722  -6.1580858  19.2744085
   9.6920000  -6.1090000  21.1510000   8.7090570  -6.1676167  21.6184243
  10.4490000  -7.4000000  21.4030000   9.8160000  -8.4350000  21.6200000
  11.7790000  -7.3420000  21.3260000  12.2192193  -6.4472835  21.1654112
  12.6270000  -8.5110000  21.4630000  12.1662980  -9.2173358  22.1536103
  12.7545415  -8.9855790  20.4900625  13.9860000  -8.1130000  21.9990000
  14.4720000  -7.0330000  21.7010000  14.5920000  -8.9980000  22.7760000
  14.1489057  -9.8899099  22.9441179  15.8570000  -8.7290000  23.4210000
  16.4789672  -8.0941461  22.7899560  15.6030000  -8.0060000  24.7400000
  14.9121194  -7.1883700  24.5344168  15.1304830  -8.7190912  25.4155210
  16.8510000  -7.4590000  25.3810000  17.2803566  -8.2054551  26.0492503
  17.5781323  -7.1999197  24.6114170  16.4390000  -5.9800000  26.3300000
  18.1090000  -5.4490000  26.7300000  18.6608532  -5.2594033  25.8093426
  18.0680681  -4.5354383  27.3231529  18.6122273  -6.2296981  27.3004156
  16.6200000 -10.0040000  23.6750000  16.0280000 -11.0320000  23.9730000
  17.9390000  -9.9260000  23.5270000  18.3245046  -9.0850137  23.1217501
  18.8500000 -10.9880000  23.9010000  18.3408782 -11.7655674  24.4704586
  19.4970000 -11.6250000  22.6780000  20.0184998 -10.8602551  22.1024105
  20.2083052 -12.3865056  22.9977724  18.7278496 -12.0847263  22.0573885
  19.9170000 -10.3850000  24.7990000  20.4120000  -9.2940000  24.5270000
  20.2400000 -11.1010000  25.8650000  19.7308915 -11.9492079  26.0685955
  21.2920000 -10.6770000  26.8020000  21.9045248  -9.8789176  26.3825038
  20.7000000 -10.1900000  28.1560000  19.9922693 -10.9319483  28.5257691
  21.8100000 -10.0020000  29.1700000  22.5179295  -9.2598012  28.8011130
  21.3860686  -9.6610331  30.1145233  22.3256825 -10.9497264  29.3248800
  19.9100000  -8.9090000  27.9860000  19.0878078  -9.0781313  27.2906608
  19.5106716  -8.5970024  28.9510357  20.5621724  -8.1286561  27.5937816
  22.2600000 -11.8410000  27.0370000  21.8390000 -12.9990000  27.1880000
  23.5570000 -11.5330000  27.0540000  23.8509867 -10.6305070  26.7087790
  24.5700000 -12.4520000  27.5170000  24.1182251 -13.3740097  27.8829190
  25.5650000 -12.8050000  26.3770000  26.0322834 -11.8926320  26.0064182
  26.3334873 -13.4765715  26.7597784  25.0282297 -13.2937825  25.5639387
  25.3000000 -11.8150000  28.6780000  25.6660000 -10.6340000  28.6180000
  25.4800000 -12.6000000  29.7370000  24.9484982 -13.4558444  29.8086631
  26.3780000 -12.2620000  30.8110000  26.7630340 -11.2497919  30.6873768
  25.6960000 -12.3670000  32.2020000  25.1802047 -13.3241683  32.2787028
  26.7440000 -12.2660000  33.3020000  27.2599363 -11.3088329  33.2262248
  26.2584850 -12.3404305  34.2750549  27.4648608 -13.0763335  33.1932760
  24.6630000 -11.2880000  32.3490000  23.9083085 -11.3982818  31.5702955
  24.1893023 -11.3686463  33.3273692  25.1401650 -10.3123931  32.2562341
  27.5790000 -13.1980000  30.7440000  27.4320000 -14.4270000  30.6190000
  28.7610000 -12.5920000  30.7630000  28.8004992 -11.5854861  30.6890485
  30.0080000 -13.3240000  30.8430000  29.8391648 -14.3814405  30.6394972
  31.0730000 -12.7780000  29.8720000  31.0922370 -11.6903785  29.9413532
  32.4620000 -13.3390000  30.2260000  32.4436724 -14.4266224  30.1564129
  33.2022412 -12.9433705  29.5305713  32.7250747 -13.0448335  31.2420497
  30.7050000 -13.1170000  28.4210000  31.6271470 -13.0929713  27.8403380
  30.3011317 -14.1294154  28.4187861  29.6780000 -12.1530000  27.7940000
  30.0813782 -11.1403876  27.7954407  29.4701722 -12.4592972  26.7687738
  28.7553631 -12.1768302  28.3738906  30.4710000 -13.2200000  32.2870000
  30.7170000 -12.1340000  32.7910000  30.5530000 -14.3590000  32.9520000
  30.4185895 -15.2368235  32.4708981  30.8200000 -14.3900000  34.3880000
  31.1510039 -13.4071179  34.7233780  29.5530000 -14.7700000  35.1610000
  28.8316334 -13.9775844  34.9614830  29.1656410 -15.7165838  34.7841286
  29.7840000 -14.8780000  36.6550000  29.7790000 -13.7460000  37.4560000
  29.5824020 -12.7799838  36.9909608  30.0190000 -13.8240000  38.8320000
  30.0075938 -12.9241756  39.4470511  30.2760000 -15.0530000  39.4100000
  30.5110000 -15.1130000  40.7760000  30.4693210 -14.2536489  41.2018851
  30.2930000 -16.2050000  38.6310000  30.4901180 -17.1774275  39.0822536
  30.0530000 -16.1070000  37.2500000  30.0759187 -17.0018119  36.6279980
  31.9140000 -15.4110000  34.6090000  31.7860000 -16.5670000  34.1910000
  33.0070000 -14.9670000  35.2160000  33.0388269 -14.0211089  35.5686704
  34.2190000 -15.7810000  35.3040000  35.0713594 -15.1601248  35.5798561
  34.0350000 -16.8600000  36.3710000  33.1832807 -17.4801852  36.0916369
  34.9357937 -17.4729954  36.4011222  33.7920000 -16.2560000  37.7330000
  34.6216605 -15.5797035  37.9388821  32.8605393 -15.6904419  37.7079578
  33.7090000 -17.2820000  38.8580000  33.6700000 -18.4970000  38.6230000
  33.6590000 -16.7870000  40.0940000  33.6030977 -17.4139283  40.8838970
  33.6772313 -15.7871096  40.2353796  34.5570000 -16.3540000  33.9260000
  34.8880000 -17.5420000  33.7660000  34.4260000 -15.5020000  32.9090000
  34.0757844 -14.5674251  33.0639777  34.7800000 -15.8880000  31.5570000
  34.9506672 -14.9457317  31.0363251  35.7247710 -16.4216813  31.6603995
  33.8180000 -16.7380000  30.7400000  34.0600000 -16.9360000  29.5460000
  32.7360000 -17.2280000  31.3500000  32.5668275 -16.9780360  32.3138454
  31.7730000 -18.1240000  30.6800000  32.1806076 -18.4714791  29.7306773
  31.4960000 -19.3330000  31.5620000  30.9813937 -18.9711390  32.4521327
  30.8334125 -19.9941111  31.0034215  32.7440000 -20.0970000  31.9740000
  33.3111467 -20.3444173  31.0766539  33.3458721 -19.4562596  32.6184407
  32.3910000 -21.3730000  32.7170000  31.8802938 -21.1063248  33.6422905
  31.7231832 -21.9656816  32.0918210  33.6350000 -22.1850000  33.0410000
  34.2863024 -21.5723089  33.6643100  33.3262906 -23.0693629  33.5984047
  34.3710000 -22.6030000  31.8150000  34.6575206 -21.7836656  31.2985731
  35.1866155 -23.1375992  32.0778214  33.7678027 -23.1710993  31.2374922
  30.4480000 -17.3960000  30.4090000  30.0380000 -16.5840000  31.2330000
  29.7910000 -17.6660000  29.2470000  30.2140000 -18.5640000  28.1570000
  30.1662814 -19.5968059  28.5021597  31.2377926 -18.3244139  27.8696914
  29.2040000 -18.2690000  27.0320000  28.4663495 -19.0705753  26.9939480
  29.7330066 -18.2172783  26.0803812  28.5790000 -16.9800000  27.3550000
  27.5641198 -16.9059318  26.9643196  29.1700153 -16.1394402  26.9913247
  28.5490000 -16.9740000  28.8910000  28.6196474 -15.9778164  29.3277212
  27.2550000 -17.6430000  29.3560000  27.1290000 -18.8840000  29.3300000
  26.3090000 -16.8050000  29.7520000  26.5507078 -15.8258424  29.8061021
  24.9680000 -17.2010000  30.1180000  24.8107758 -18.2545187  29.8867468
  24.7600000 -16.9940000  31.6170000  24.8907583 -15.9303854  31.8163124
  23.7524669 -17.2956138  31.9033671  25.7560000 -17.7740000  32.4080000
  26.9920000 -17.2250000  32.7530000  27.2103630 -16.1984820  32.4585889
  27.9370000 -17.9620000  33.4590000  28.8943501 -17.5192945  33.7339446
  27.6360000 -19.2630000  33.8460000  28.5680000 -20.0160000  34.5550000
  29.3846725 -19.5402654  34.7232922  26.4280000 -19.8320000  33.5010000
  26.2047102 -20.8607489  33.7836976  25.4870000 -19.0830000  32.7850000
  24.5281464 -19.5261887  32.5161437  24.0020000 -16.3460000  29.3210000
  24.1390000 -15.1190000  29.2830000  23.0280000 -16.9980000  28.6860000
  22.8705412 -17.9774316  28.8757886  22.1840000 -16.3420000  27.6970000
  22.5344755 -15.3249984  27.5210062  22.2350000 -17.1150000  26.3710000
  21.8560401 -18.1214950  26.5483598  21.5657819 -16.5902638  25.6891649
  23.6140000 -17.1970000  25.7590000  24.2120000 -16.0770000  25.1840000
  23.6703865 -15.1310858  25.1832108  25.4640000 -16.1520000  24.6240000
  25.9168677 -15.2745023  24.1624694  26.1550000 -17.3510000  24.6570000
  27.4030000 -17.4620000  24.1150000  27.7188059 -16.6415380  23.7293728
  25.5890000 -18.4640000  25.2330000  26.1300181 -19.4098698  25.2600223
  24.3360000 -18.3770000  25.7750000  23.8796404 -19.2528990  26.2361257
  20.7540000 -16.2530000  28.1520000  20.2460000 -17.1640000  28.8210000
  20.0970000 -15.1760000  27.7510000  20.5961664 -14.5147525  27.1733461
  18.7110000 -14.8840000  28.0960000  18.1881925 -15.8014248  28.3663762
  18.6700000 -13.9270000  29.2910000  19.1434402 -12.9850166  29.0141954
  17.6469544 -13.7372151  29.6157451  19.4050000 -14.4400000  30.4780000
  20.7650000 -14.2310000  30.6090000  21.2946602 -13.6710302  29.8382901
  21.4490000 -14.7200000  31.6950000  22.5202886 -14.5461267  31.7960418
  20.7730000 -15.4340000  32.6600000  21.3218625 -15.8324965  33.5132587
  19.4170000 -15.6460000  32.5540000  18.8829088 -16.1929298  33.3309907
  18.7350000 -15.1630000  31.4590000  17.6653333 -15.3468907  31.3585151
  18.0480000 -14.2490000  26.8830000  18.6480000 -13.3990000  26.2070000
  16.8240000 -14.6580000  26.5980000  16.4024767 -15.3997443  27.1385857
  16.0900000 -14.1320000  25.4620000  16.5389327 -13.1836818  25.1666169
  16.1720000 -15.1020000  24.2790000  15.5172414 -14.7481236  23.4826566
  17.6200000 -15.1870000  23.7540000  18.2753178 -15.5412736  24.5497063
  17.6622629 -15.8799365  22.9136715  17.9470445 -14.1999355  23.4271268
  15.7820000 -16.4130000  24.7200000  15.8311417 -17.0262773  23.9830629
  14.6310000 -13.8230000  25.8320000  14.0340000 -14.5010000  26.6990000
  14.0800000 -12.7900000  25.1940000  14.6446181 -12.2970148  24.5170426
  12.6990000 -12.3820000  25.3650000  12.1329638 -13.1904084  25.8277937
  12.6040000 -11.1460000  26.2580000  13.2225987 -10.3905411  25.7735242
  11.5765038 -10.7877013  26.3210368  13.1000000 -11.2690000  27.6600000
  12.3340000 -11.4040000  28.7810000  11.2536058 -11.4402228  28.6412284
  13.1320000 -11.4670000  29.8860000  12.8053114 -11.6383770  30.8262149
  14.4420000 -11.3160000  29.5140000  15.6100000 -11.3190000  30.2870000
  15.5220883 -11.4458188  31.3660214  16.7970000 -11.1610000  29.6310000
  17.7276879 -11.1352179  30.1977938  16.8470000 -11.0300000  28.2330000
  17.8008792 -10.9138951  27.7184772  15.6950000 -11.0440000  27.4690000
  15.7920002 -10.9343988  26.3888707  14.4630000 -11.1970000  28.1110000
  12.0780000 -11.9640000  24.0550000  12.7370000 -11.3540000  23.2310000
  10.7790000 -12.2210000  23.9040000  10.3194057 -12.8929632  24.5017774
   9.9910000 -11.5530000  22.8890000   8.9439928 -11.7530795  23.1166912
  10.1859470 -10.4850632  22.9870106  10.2750000 -11.9770000  21.4630000
  10.6610000 -13.1190000  21.2170000  10.1030000 -11.0300000  20.5470000
  10.0005093 -10.0721225  20.8504233   9.9710000 -11.3220000  19.1270000
  10.1098711 -12.3876987  18.9450652   8.5740000 -10.9240000  18.6540000
   8.3676418  -9.9338931  19.0604529   8.5032369 -10.8918463  17.5667747
   7.5730000 -11.9030000  19.1910000   6.9750000 -11.7080000  20.4290000
   7.2129686 -10.7995520  20.9823468   6.0800000 -12.6500000  20.9730000
   5.6169351 -12.4865535  21.9461177   5.7880000 -13.7920000  20.2520000
   4.9070000 -14.7350000  20.7490000   4.5508544 -14.4992300  21.6087514
   6.3780000 -14.0120000  19.0210000   6.1572323 -14.9196598  18.4592922
   7.2740000 -13.0500000  18.4900000   7.7351507 -13.2138725  17.5160462
  11.0340000 -10.6570000  18.2550000  11.2730000  -9.4640000  18.3760000
  11.6170000 -11.4570000  17.3690000  11.4800835 -12.4506117  17.4876968
  12.4660000 -11.0000000  16.2670000  13.1214069 -10.2028602  16.6178691
  13.3390000 -12.1720000  15.7650000  12.6969041 -12.9744795  15.4019029
  13.9811179 -11.8264052  14.9548463  13.9556668 -12.5430201  16.5836363
  11.6360000 -10.4440000  15.1170000  12.0620000  -9.5210000  14.4190000
  10.4470000 -11.0080000  14.9280000  10.1625409 -11.7571754  15.5427509
   9.5340000 -10.6040000  13.8580000   9.7237634  -9.5646882  13.5898210
   9.7290000 -11.4780000  12.6070000  10.7727015 -11.3849444  12.3067882
   9.5221290 -12.5115202  12.8847415   8.8230000 -11.0720000  11.4380000
   7.7430000 -10.5160000  11.6790000   9.2010000 -11.3230000  10.2710000
   8.1390000 -10.7670000  14.4360000   7.6720000 -11.8890000  14.6330000
   7.5190000  -9.6480000  14.7650000   7.9744960  -8.7615730  14.6010797
   6.2110000  -9.6450000  15.4210000   6.2142948 -10.3040226  16.2892037
   5.8070000  -8.2330000  15.8540000   5.8905203  -7.5612252  14.9996913
   4.3660000  -8.2260000  16.3690000   4.2817939  -8.8972395  17.2236622
   4.0931884  -7.2154487  16.6730734   3.6951492  -8.5603200  15.5776160
   6.7720000  -7.7030000  16.9320000   6.5974721  -8.2922152  17.8322590
   7.7838938  -7.8848039  16.5698982   6.6080000  -6.2370000  17.2510000
   5.5964218  -6.0544887  17.6136279   7.3261230  -5.9491578  18.0188187
   6.7828414  -5.6470773  16.3512659   5.1310000 -10.2380000  14.5100000
   4.3310000 -11.0700000  14.9550000   5.1230000  -9.8200000  13.2440000
   5.8132871  -9.1442457  12.9491115   4.0920000 -10.2400000  12.2700000
   3.1244407  -9.9850286  12.7023398   4.2610000  -9.4670000  10.9580000
   5.2215234  -9.7188155  10.5084626   3.4577763  -9.7351139  10.2716715
   4.2241034  -8.3963563  11.1591468   4.0930000 -11.7400000  12.0010000
   3.0260000 -12.3620000  11.8850000   5.2860000 -12.3200000  11.9010000
   6.1156993 -11.7456807  11.9440783   5.4440000 -13.7370000  11.6420000
   4.5396806 -14.1380682  11.1843430   6.6090000 -13.9600000  10.6920000
   7.5091492 -13.5713492  11.1682156   6.7149742 -15.0337916  10.5375946
   6.4090000 -13.2740000   9.3530000   5.4066130 -13.5099503   8.9957204
   6.4960965 -12.1981748   9.5050411   7.4340000 -13.7250000   8.3220000
   8.4244561 -13.4019755   8.6425478   7.4118036 -14.8125770   8.2528406
   7.1180000 -13.1180000   6.9460000   6.1619526 -13.5153127   6.6050946
   7.0430605 -12.0360850   7.0552845   8.1720000 -13.4430000   5.9510000
   8.2413050 -14.4454705   5.8492680   7.9334021 -13.0299363   5.0607475
   9.0578965 -13.0745580   6.2664948   5.6200000 -14.5710000  12.9190000
   5.8570000 -15.7740000  12.8360000   5.5090000 -13.9100000  14.0730000
   5.4660107 -12.9017103  14.0329619   5.5510000 -14.5510000  15.3880000
   5.5344039 -13.7927340  16.1708515   4.3310000 -15.4760000  15.5720000
   4.3790699 -16.2587422  14.8149642   4.3902272 -15.9257141  16.5631354
   3.0150000 -14.7180000  15.4360000   2.9401675 -14.0249452  16.2739594
   3.0475688 -14.1563276  14.5024233   1.8120000 -15.6340000  15.4310000
   1.9140891 -16.3587686  14.6232950   1.7546839 -16.1590329  16.3844961
   0.5630000 -14.8320000  15.2270000   0.4594474 -14.1319365  16.0560287
   0.6539713 -14.2774345  14.2930404  -0.6390000 -15.7120000  15.1670000
  -0.7237213 -16.2256426  16.0325018  -1.4640751 -15.1459826  15.0292491
  -0.5434400 -16.3604887  14.3986057   6.8500000 -15.3070000  15.6520000
   6.8500000 -16.3130000  16.3410000   7.9620000 -14.8040000  15.1160000
   7.9214152 -13.9612916  14.5607570   9.2550000 -15.4510000  15.2960000
   9.1230833 -16.5308937  15.3632812  10.1680000 -15.1450000  14.1170000
  10.3437166 -14.0692704  14.1223587  11.1074056 -15.6669829  14.2990740
   9.6110000 -15.5610000  12.7630000   8.6523292 -15.0638675  12.6149781
  10.3044330 -15.2521902  11.9807665   9.4020000 -17.0510000  12.6610000
  10.3480000 -17.8230000  12.7690000   8.1540000 -17.4650000  12.4430000
   7.9590874 -18.4530490  12.3663866   7.4089130 -16.7887782  12.3554167
   9.9070000 -14.9550000  16.5870000  10.1340000 -13.7590000  16.7280000
  10.2350000 -15.8780000  17.5120000  10.1130000 -17.3490000  17.3880000
  10.5698190 -17.6664111  16.4506277   9.0572137 -17.6199493  17.3871105
  10.8470000 -17.8840000  18.6050000  11.8854064 -18.1032120  18.3564900
  10.3631687 -18.7888312  18.9728167  10.7470000 -16.7790000  19.6090000
  11.6122956 -16.8519608  20.2678165   9.8352310 -16.7784963  20.2063079
  10.8300000 -15.4930000  18.7810000  10.2677687 -14.6502283  19.1831567
  12.2860000 -15.0980000  18.6200000  12.9550000 -15.5600000  17.6890000
  12.7750000 -14.2780000  19.5440000  12.1562129 -13.7553784  20.1473809
  14.2070000 -14.0710000  19.6800000  14.6812725 -13.8988938  18.7137991
  14.5310000 -12.8780000  20.6090000  13.9968159 -13.0011938  21.5511093
  16.0680000 -12.8180000  20.8860000  16.6028654 -12.6943408  19.9443375
  16.2870074 -11.9748006  21.5410961  16.3875818 -13.7429567  21.3660251
  14.0140000 -11.5580000  19.9720000  12.9351215 -11.6207281  19.8299142
  14.2451118 -10.7210767  20.6309737  14.4986579 -11.4051140  19.0077213
  14.8320000 -15.3560000  20.2170000  14.3590000 -15.9110000  21.2320000
  15.8800000 -15.8310000  19.5410000  16.1342523 -15.3768434  18.6754384
  16.6650000 -16.9810000  19.9750000  16.3338378 -17.2859911  20.9676788
  16.5130000 -18.1910000  19.0060000  16.9035707 -19.0822104  19.4972217
  15.0210000 -18.4210000  18.6240000  14.6298418 -17.5303222  18.1322807
  14.9457745 -19.2718605  17.9468909  14.4415390 -18.6220381  19.5250600
  17.2600000 -17.9450000  17.8090000  17.1649482 -18.6918222  17.2133305
  18.1440000 -16.5890000  20.0520000  18.5160000 -15.4430000  19.7400000
  18.9780000 -17.5360000  20.4790000  18.6098915 -18.3778666  20.8983521
  20.4420000 -17.3270000  20.4950000  20.6763464 -16.3525188  20.9234477
  21.1110000 -18.4040000  21.3400000  20.7775687 -19.3773653  20.9801629
  22.1899553 -18.3193988  21.2103924  20.7670000 -18.2640000  22.8070000
  21.1886311 -17.3192966  23.1503126  19.6809489 -18.2291135  22.8928949
  21.2840000 -19.3700000  23.6880000  20.7110000 -19.6180000  24.7560000
  22.3520000 -20.0350000  23.2750000  22.7268326 -20.7834798  23.8401370
  22.7868489 -19.7906780  22.3967548  21.0870000 -17.2110000  19.0970000
  22.2610000 -16.8410000  18.9840000  20.3070000 -17.5230000  18.0490000
  19.3822173 -17.8853392  18.2322664  20.7450000 -17.4150000  16.6620000
  21.8301947 -17.3210774  16.6216256  20.3320000 -18.6640000  15.8760000
  19.2539455 -18.7831962  15.9841207  20.5746428 -18.4919571  14.8273696
  21.0340000 -19.9290000  16.3590000  20.9174554 -20.7144760  15.6123102
  22.0917558 -19.6928263  16.4750888  20.5020000 -20.4390000  17.6870000
  19.2960000 -20.3690000  17.9680000  21.3960000 -20.9800000  18.5070000
  21.1021227 -21.3370150  19.4049298  22.3655480 -21.0318663  18.2288131
  20.1950000 -16.1740000  15.9610000  20.4890000 -15.9500000  14.8000000
  19.3770000 -15.3800000  16.6540000  19.1622776 -15.5670967  17.6230142
  18.7890000 -14.2000000  16.0310000  18.3236659 -14.4411130  15.0752658
  17.7370000 -13.5240000  16.9350000  18.1871122 -13.3102240  17.9044324
  17.2410000 -12.2070000  16.2960000  16.7903131 -12.4200448  15.3266740
  16.4996076 -11.7434473  16.9468112  18.0827862 -11.5273916  16.1632262
  16.6460000 -14.4370000  17.1810000  15.9941526 -14.0124800  17.7435638
  19.8780000 -13.1630000  15.7600000  20.6790000 -12.8650000  16.6570000
  19.8710000 -12.5950000  14.5470000  19.2243898 -12.9246898  13.8446474
  20.7880000 -11.5030000  14.1920000  21.7143632 -11.6074515  14.7568365
  21.1200000 -11.5270000  12.7010000  20.1410555 -11.5176672  12.2217507
  21.6573428 -10.6134783  12.4463614  21.9040000 -12.7220000  12.2190000
  21.5263277 -13.6285174  12.6919595  21.7410000 -12.8360000  10.6760000
  22.1189071 -11.9299790  10.2022796  22.3031237 -13.6965776  10.3133379
  20.6866048 -12.9614267  10.4297899  23.3680000 -12.6320000  12.6200000
  23.4455642 -12.5862445  13.7062733  23.8999120 -13.5105901  12.2549654
  23.8094504 -11.7345588  12.1866182  20.1740000 -10.1650000  14.5230000
  19.0200000  -9.8930000  14.1640000  20.9520000  -9.3210000  15.2110000
  21.8533401  -9.6419167  15.5345704  20.5780000  -7.9380000  15.4700000
  19.5635491  -7.7637443  15.1113587  20.6290000  -7.6210000  16.9610000
  21.6187069  -7.8058331  17.3786317  20.3781035  -6.5664518  17.0753633
  19.6470000  -8.3950000  17.8150000  19.9090000  -9.7170000  18.1960000
  20.8198745 -10.2072927  17.8524587  19.0110000 -10.4060000  19.0110000
  19.2185795 -11.4395943  19.2879375  17.8660000  -9.7870000  19.4660000
  17.1762415 -10.3349601  20.1079290  17.5900000  -8.4770000  19.1120000
  16.6858790  -7.9812034  19.4653428  18.5000000  -7.7810000  18.2800000
  18.2998545  -6.7471894  17.9984376  21.5700000  -6.9840000  14.7980000
  22.7550000  -7.2940000  14.6700000  21.0850000  -5.8190000  14.4030000
  20.0872310  -5.6635300  14.4226330  21.9480000  -4.7400000  13.9060000
  22.6883909  -5.1481860  13.2180285  21.1260000  -3.6920000  13.1700000
  20.3687718  -3.3180419  13.8591009  21.7958619  -2.8787011  12.8908405
  20.4590000  -4.2340000  11.9410000  21.2445456  -4.5550982  11.2569570
  19.8763305  -5.0995514  12.2563035  19.5470000  -3.2380000  11.2350000
  19.3650000  -2.0810000  11.7050000  19.0170000  -3.6470000  10.1770000
  22.6580000  -4.1280000  15.1070000  22.0020000  -3.6560000  16.0500000
  23.9850000  -4.1340000  15.0690000  24.4530977  -4.5668194  14.2856410
  24.7990000  -3.5810000  16.1380000  24.3740453  -3.8307831  17.1101734
  26.2100000  -4.1770000  16.0520000  26.5346702  -3.8895460  15.0519706
  26.8159787  -3.6567119  16.7937480  26.3750000  -5.6780000  16.2260000
  25.9112011  -6.1924668  15.3843853  27.8520000  -6.0290000  16.2820000
  28.3164175  -5.5152336  17.1237003  27.9655981  -7.1058595  16.4067794
  28.3352383  -5.7181062  15.3557569  25.6580000  -6.1440000  17.4780000
  24.5964899  -5.9097340  17.3979054  25.7844435  -7.2208081  17.5902391
  26.0768672  -5.6369508  18.3472240  24.8830000  -2.0520000  16.0980000
  25.2880000  -1.4130000  17.0850000  24.5520000  -1.4540000  14.9630000
  24.1162513  -1.9706695  14.2124835  24.8090000  -0.0260000  14.7650000
  24.6402532   0.2373586  13.7208420  24.1431916   0.5595049  15.3990208
  26.2500000   0.2960000  15.1300000  27.1520000  -0.4520000  14.7690000
  26.4490000   1.3770000  15.8900000  25.6547813   1.9322663  16.1745968
  27.7920000   1.8510000  16.2440000  28.4042363   1.9360624  15.3462081
  27.7100000   3.2310000  16.9150000  27.0255523   3.1884091  17.7622406
  28.6987477   3.5310273  17.2620760  27.2330000   4.1780000  15.9680000
  27.1790145   5.0433368  16.3801620  28.6370000   0.9280000  17.1180000
  29.8280000   1.1710000  17.2610000  28.0710000  -0.1250000  17.7070000
  27.0758807  -0.1692583  17.8739676  28.9260000  -1.1610000  18.3080000
  29.6549107  -0.7221929  18.9893492  28.1050000  -2.2190000  19.0780000
  27.3157608  -2.6001283  18.4299707  29.0160000  -3.3830000  19.5170000
  29.8052691  -3.0026952  20.1654778  28.4261005  -4.1223566  20.0587295
  29.4615424  -3.8479602  18.6375652  27.4090000  -1.5580000  20.3050000
  26.7435047  -0.7655619  19.9625675  26.8315546  -2.3090740  20.8440216
  28.1642668  -1.1362092  20.9681481  29.9050000  -1.7620000  17.2480000
  30.9810000  -2.2790000  17.5870000  29.5330000  -1.6480000  15.9740000
  28.6073378  -1.2921213  15.7826911  30.3880000  -2.0370000  14.8260000
  30.5357337  -3.1169096  14.8343218  29.7460000  -1.6420000  13.4960000
  29.5866734  -0.5637734  13.5079035  30.4437069  -1.8968711  12.6982871
  28.4850000  -2.3130000  13.2660000  28.1229299  -2.0332317  12.4220600
  31.7610000  -1.3760000  14.9270000  32.7580000  -1.9400000  14.4930000
  31.8090000  -0.1750000  15.4990000  30.9634482   0.2873204  15.8013265
  33.0790000   0.5570000  15.6040000  33.5347814   0.6389667  14.6172660
  32.8590000   1.9560000  16.1550000  32.3416421   1.8505530  17.1085832
  33.8420332   2.3961803  16.3222932  32.0570000   2.8500000  15.2450000
  32.5664894   2.9359742  14.2852449  31.0689389   2.4153563  15.0935990
  31.9140000   4.2240000  15.8650000  31.3801116   4.1000419  16.8071765
  32.9192093   4.5956785  16.0637681  31.1740000   5.2140000  14.9930000
  31.2583439   6.2004957  15.4488651  31.6482655   5.2260510  14.0116610
  29.7500000   4.8610000  14.8460000  29.3102491   4.8501990  15.7551766
  29.2927433   5.5439039  14.2589238  29.6716193   3.9471046  14.4232107
  34.1240000  -0.1790000  16.4200000  35.3240000   0.0190000  16.1980000
  33.6880000  -1.0240000  17.3620000  32.7151373  -1.0428941  17.6327036
  34.6430000  -1.8590000  18.1210000  35.4738523  -1.2612086  18.4957386
  33.9860000  -2.5960000  19.3140000  34.7519859  -3.1482340  19.8584295
  33.3130000  -1.5820000  20.2610000  32.5465225  -1.0296697  19.7173613
  32.8547109  -2.1123992  21.0957137  34.0613812  -0.8861648  20.6402618
  33.0350000  -3.5780000  18.8520000  32.6409110  -4.0215885  19.6066678
  35.3680000  -2.8380000  17.1840000  36.5720000  -3.0750000  17.3210000
  34.6380000  -3.4090000  16.2270000  33.6379568  -3.2733313  16.1869145
  35.2540000  -4.2930000  15.2490000  35.8477963  -5.0471533  15.7654861
  34.1990000  -5.0000000  14.3990000  33.5028264  -4.2805730  13.9678777
  34.6873514  -5.5565055  13.5990534  33.3630000  -6.0010000  15.1770000
  33.8390000  -7.2840000  15.4040000  34.8211915  -7.5589281  15.0195338
  33.0760000  -8.2230000  16.1170000  33.4591440  -9.2317008  16.2713508
  31.8590000  -7.8740000  16.6150000  31.2597863  -8.5969048  17.1685807
  31.3780000  -6.5760000  16.4120000  30.4117827  -6.2864073  16.8251106
  32.1290000  -5.6550000  15.6850000  31.7420687  -4.6505334  15.5134454
  36.2180000  -3.5030000  14.3550000  37.3400000  -3.9400000  14.0780000
  35.7720000  -2.3430000  13.8900000  34.8180461  -2.0644072  14.0701592
  36.6090000  -1.4690000  13.0400000  36.9409110  -1.9845050  12.1387848
  35.8170000  -0.2230000  12.6280000  35.5172435   0.3153156  13.5271455
  36.6770000   0.7090000  11.7290000  36.9767647   0.1714892  10.8293763
  36.0927403   1.5858681  11.4499982  37.5653839   1.0240862  12.2763531
  34.6240000  -0.6400000  11.9340000  34.1198455   0.1335094  11.6711088
  37.9240000  -1.0860000  13.7640000  39.0040000  -1.1080000  13.1760000
  37.8130000  -0.7760000  15.0530000  36.9019994  -0.7888689  15.4889033
  38.9580000  -0.4170000  15.8650000  39.4392031   0.4464079  15.4055769
  38.5957979  -0.1455432  16.8565746  39.9690000  -1.5290000  15.9990000
  41.1590000  -1.3150000  15.8150000  39.4830000  -2.7260000  16.3400000
  38.5216383  -2.7929287  16.6423304  40.3190000  -3.9320000  16.4050000
  41.2252173  -3.7721875  16.9892340  39.5410000  -5.1150000  17.0160000
  38.6051864  -5.2340018  16.4699315  40.3500000  -6.4170000  16.9340000
  41.2858139  -6.2989149  17.4802684  39.7739312  -7.2315707  17.3729988
  40.5655211  -6.6463414  15.8904221  39.1660000  -4.7770000  18.4820000
  38.5441905  -3.8819701  18.5014061  38.6156903  -5.6106311  18.9182545
  40.0741195  -4.6004420  19.0584088  40.9140000  -4.3000000  15.0350000
  42.0950000  -4.6700000  14.9520000  40.1310000  -4.1880000  13.9590000
  39.1491162  -3.9640536  14.0354956  40.6800000  -4.4560000  12.6290000
  41.1297641  -5.4488514  12.6214192  39.5990000  -4.4000000  11.5450000
  38.8883025  -5.1666133  11.8537269  39.1122414  -3.4249228  11.5647632
  40.0870000  -4.6990000  10.1210000  40.9159479  -4.0331627   9.8809857
  40.5510000  -6.1450000  10.0150000  39.7224096  -6.8114874  10.2544397
  40.8944919  -6.3434084   8.9997423  41.3688018  -6.3169337  10.7148139
  38.9880000  -4.3780000   9.1300000  38.7240902  -3.3233365   9.2083321
  39.3359804  -4.5908231   8.1191997  38.1117074  -4.9884449   9.3480994
  41.8090000  -3.4570000  12.3010000  42.8390000  -3.8460000  11.7490000
  41.6050000  -2.1860000  12.6360000  40.6904626  -1.8941863  12.9499513
  42.6720000  -1.1780000  12.5660000  42.9695490  -1.0690690  11.5230725
  42.2709625  -0.2319177  12.9295885  43.8860000  -1.5460000  13.3880000
  45.0300000  -1.4710000  12.9070000  43.6630000  -1.9440000  14.6370000
  42.7214045  -1.9576422  15.0021180  44.7540000  -2.3700000  15.5150000
  45.4302902  -1.5296154  15.6714755  44.3359736  -2.6823591  16.4719666
  45.5380000  -3.5330000  14.9120000  46.7730000  -3.5770000  14.9800000
  44.8160000  -4.4750000  14.3010000  43.8075989  -4.4283489  14.3334077
  45.4360000  -5.6340000  13.6610000  46.0981758  -6.1448884  14.3600104
  44.3370000  -6.6180000  13.2150000  43.8190595  -6.9940186  14.0972964
  43.6406279  -6.0461421  12.6016938  44.8750000  -7.7790000  12.4150000
  45.2670000  -8.8060000  13.0230000  44.8770000  -7.6740000  11.1760000
  46.3400000  -5.1830000  12.4930000  47.4530000  -5.7160000  12.3210000
  45.8770000  -4.2140000  11.6990000  44.9182705  -3.9134475  11.8019824
  46.6750000  -3.6380000  10.6050000  47.0109743  -4.4732928   9.9905845
  45.8320000  -2.7120000   9.7460000  45.4956775  -1.8657713  10.3450694
  46.4281031  -2.3495383   8.9085140  44.9662630  -3.2550724   9.3669602
  47.9360000  -2.9220000  11.1220000  48.9890000  -2.9820000  10.4810000
  47.8340000  -2.2670000  12.2730000  46.9332721  -2.1345386  12.7103129
  49.0170000  -1.6620000  12.9120000  49.5364247  -1.0437489  12.1798370
  48.6650000  -0.8080000  14.1490000  48.1057495  -1.4295760  14.8482729
  49.9270000  -0.2650000  14.8420000  50.4865705   0.3570927  14.1434428
  49.6387137   0.3309615  15.7079224  50.5509504  -1.0978619  15.1662317
  47.7710000   0.3600000  13.7370000  48.4106783   1.1547491  13.3532209
  47.1078947   0.0133715  12.9443844  46.9370000   0.8950000  14.9010000
  47.5994682   1.2422661  15.6938695  46.3193070   1.7238751  14.5552824
  46.2966859   0.1008872  15.2850346  49.9890000  -2.7620000  13.2970000
  51.1880000  -2.6960000  12.9440000  49.4660000  -3.8000000  13.9440000
  48.4845736  -3.8009590  14.1825387  50.2920000  -4.9210000  14.3980000
  51.0852895  -4.5183884  15.0278372  49.4440000  -5.9130000  15.2410000
  48.6509064  -6.3314751  14.6213378  50.0819436  -6.7178208  15.6062283
  49.0033670  -5.3866571  16.0877024  50.9620000  -5.6430000  13.2290000
  52.0780000  -6.1580000  13.3700000  50.2990000  -5.6550000  12.0740000
  49.3596964  -5.2846655  12.0483026  50.8480000  -6.2370000  10.8510000
  51.3661934  -7.1652259  11.0917726  49.7450000  -6.5420000   9.8410000
  49.1543626  -5.6310846   9.7436356  50.2424061  -6.7547679   8.8947352
  48.8310000  -7.7020000  10.2050000  49.3880957  -8.6363845  10.1366572
  48.4676855  -7.5699189  11.2241463  47.6540000  -7.7450000   9.2510000
  47.0860386  -6.8171223   9.3185411  48.0080008  -7.8801261   8.2289805
  46.7760000  -8.8550000   9.5910000  46.0433301  -8.6446526  10.2536071
  46.8750000 -10.0970000   9.1280000  47.8060000 -10.4330000   8.2310000
  48.4521063  -9.7344086   7.8924491  47.8595819 -11.3841098   7.8954128
  46.0160000 -11.0040000   9.5500000  45.2997246 -10.7464614  10.2138701
  46.0782769 -11.9520824   9.2074213  51.9030000  -5.3600000  10.1670000
  52.5050000  -5.8090000   9.1800000  52.1080000  -4.1400000  10.6700000
  51.6334519  -3.8915812  11.5262660  52.9860000  -3.1410000  10.0450000
  53.1202349  -2.3344834  10.7658406  53.9446536  -3.6256753   9.8601419
  52.4640000  -2.5540000   8.7330000  53.2300000  -1.9830000   7.9500000
  51.1690000  -2.6900000   8.4720000  50.5938731  -3.2499717   9.0849927
  50.5640000  -2.1460000   7.2630000  51.2649630  -2.2219390   6.4317460
  49.2900000  -2.9270000   6.9040000  48.6490572  -2.9505171   7.7853277
  48.7823986  -2.3935086   6.1003659  49.5900000  -4.3510000   6.4570000
  50.1758917  -4.2833141   5.5403483  50.1916738  -4.8146124   7.2387617
  48.3570000  -5.1900000   6.2060000  47.2780000  -4.7970000   6.6690000
  48.4690000  -6.2530000   5.5400000  50.2740000  -0.6510000   7.3370000
  50.3860000   0.0540000   6.3340000  49.8860000  -0.1840000   8.5210000
  49.7254795  -0.8405793   9.2714906  49.6500000   1.2460000   8.7820000
  50.1425357   1.8709986   8.0370943  48.1400000   1.5760000   8.8140000
  48.0107008   2.6491779   8.9542548  47.4770000   1.1480000   7.4920000
  47.6054911   0.0747874   7.3512683  46.4135538   1.3848549   7.5249034
  47.9419062   1.6809155   6.6625650  47.4440000   0.9170000  10.0170000
  47.4095727  -0.1552448   9.8241097  48.0624587   1.1082061  10.8939541
  46.0270000   1.4350000  10.2700000  45.4077866   1.2437178   9.3935950
  45.6014618   0.9237260  11.1334902  46.0606726   2.5071698  10.4634372
  50.2720000   1.6660000  10.1090000  50.6030000   0.8190000  10.9390000
  50.4040000   2.9760000  10.2850000  50.2919254   3.5772928   9.4812677
  50.7290000   3.5950000  11.5790000  50.7034887   2.8417912  12.3664801
  52.1320000   4.2140000  11.5380000  52.1528319   4.9431339  10.7280439
  52.3020168   4.7215395  12.4875251  53.2130000   3.1870000  11.3170000
  53.1152996   2.4263064  12.0915326  53.0485510   2.7330055  10.3397858
  54.6190000   3.7900000  11.3690000  54.7100987   4.3595475  12.2938868
  55.3392469   2.9718827  11.3742716  54.8970000   4.7040000  10.1800000
  55.9381886   4.5729212   9.8853050  54.2467806   4.4024491   9.3587930
  54.6520000   6.1280000  10.5060000  55.2547170   6.4077422  11.2666420
  54.8470781   6.6974195   9.6949476  53.6871589   6.2497523  10.7786851
  49.7040000   4.6650000  11.9090000  49.3110000   5.4480000  11.0500000
  49.2720000   4.7160000  13.1640000  49.5533247   4.0138407  13.8332743
  48.3350000   5.7560000  13.6000000  47.4372364   5.7326649  12.9822822
  47.9330000   5.5210000  15.0540000  48.8556051   5.3542513  15.6099622
  47.4300737   6.4064221  15.4428352  47.0210000   4.3100000  15.2090000
  47.4930042   3.4384849  14.7553765  46.7770000   4.0410000  16.7010000
  46.3045619   4.9119572  17.1552408  46.1247117   3.1748844  16.8126442
  47.7282810   3.8449416  17.1956979  45.6940000   4.5310000  14.4880000
  45.8796065   4.6956502  13.4266141  45.0609535   3.6526097  14.6136335
  45.1924254   5.4027905  14.9081229  48.9160000   7.1700000  13.4480000
  48.1860000   8.1620000  13.3590000  50.2440000   7.2460000  13.4380000
  50.7967302   6.4133117  13.5836671  50.9380000   8.5180000  13.2870000
  50.3925644   9.3092575  13.8013061  52.3360000   8.4130000  13.8960000
  52.8666529   9.3530018  13.7446618  52.2498498   8.2128701  14.9640010
  53.0430000   7.3760000  13.2840000  53.9197086   7.3148643  13.6703214
  51.0260000   8.9640000  11.8250000  51.4140000  10.0930000  11.5430000
  50.6630000   8.0990000  10.8940000  50.3790304   7.1611707  11.1388199
  50.6960000   8.4670000   9.4760000  51.6581117   8.9234916   9.2435011
  50.5080000   7.2590000   8.5890000  49.6762951   6.6815434   8.9926212
  50.2521673   7.6147111   7.5909422  51.7490000   6.3760000   8.5110000
  52.8610000   6.8720000   8.7120000  51.5510000   5.1870000   8.2400000
  49.6320000   9.4940000   9.0880000  48.4810000   9.4090000   9.5270000
  49.9930000  10.4230000   8.1990000  51.3450000  10.6610000   7.6660000
  51.6305903   9.8324551   7.0178860  52.0525296  10.7362660   8.4917335
  51.2010000  11.9350000   6.9290000  51.7900796  11.8480625   6.0160235
  51.6194923  12.7212444   7.5573195  49.8210000  12.1920000   6.6390000
  49.6272321  11.8629973   5.6180640  49.5475724  13.2423237   6.7397823
  49.0040000  11.3390000   7.6280000  48.5528756  11.8979017   8.4478865
  47.9230000  10.6210000   6.8540000  48.1960000   9.6720000   6.1290000
  46.6980000  11.1070000   6.9780000  46.4970431  11.8248792   7.6594435
  45.6010000  10.5710000   6.2030000  45.3831493   9.5348585   6.4619420
  44.3260000  11.4170000   6.4340000  44.5560654  12.4573330   6.2040488
  43.1680000  10.9430000   5.5500000  42.9370393   9.9028150   5.7797214
  42.2896068  11.5600207   5.7392353  43.4522924  11.0284426   4.5012017
  43.9630000  11.3520000   7.8220000  43.1721543  11.8754795   7.9707705
  45.9800000  10.5100000   4.7270000  45.6900000   9.5210000   4.0490000
  46.6520000  11.5600000   4.2400000  46.9091131  12.3156077   4.8589098
  46.9890000  11.6820000   2.8120000  46.0903969  11.5548865   2.2082999
  47.5830000  13.0610000   2.5200000  47.8893096  13.1058896   1.4748878
  46.5420000  14.1480000   2.7930000  46.2355290  14.1040325   3.8381038
  46.9737799  15.1264187   2.5823766  45.6738291  13.9892334   2.1533337
  48.7180000  13.2570000   3.3710000  49.1019197  14.1198546   3.1986980
  47.9700000  10.6150000   2.3000000  48.0380000  10.3580000   1.0960000
  48.7170000   9.9840000   3.2000000  48.7537778  10.3011049   4.1582230
  49.5620000   8.8540000   2.8100000  50.2973219   9.1810676   2.0748621
  50.3040000   8.2880000   4.0270000  50.8719846   9.1123789   4.4581521
  49.5414604   7.9633800   4.7349938  51.2390000   7.1330000   3.7270000
  50.6322117   6.2518759   3.5183634  51.8214538   7.3901966   2.8422969
  52.1850000   6.8360000   4.8910000  52.8431251   7.6944466   5.0253125
  51.5867633   6.6931607   5.7908940  53.0270000   5.5830000   4.6340000
  52.3669242   4.7155957   4.6372004  53.4979066   5.6769617   3.6554719
  54.0950000   5.4080000   5.6930000  53.6588359   5.3204824   6.5997532
  54.6315070   4.5753385   5.4956802  54.7070035   6.2114558   5.6899113
  48.7100000   7.7760000   2.1300000  49.1260000   7.1820000   1.1340000
  47.4930000   7.5520000   2.6410000  47.1739813   8.0930342   3.4319541
  46.6380000   6.4670000   2.1510000  47.2256278   5.7466799   1.5818501
  46.0040000   5.7470000   3.3450000  45.3284289   6.4730408   3.7972915
  45.4356233   4.8750294   3.0214026  47.0380000   5.3250000   4.3570000
  47.3340000   6.1270000   5.4390000  46.7853106   7.0607789   5.5618671
  48.3080000   5.7670000   6.3620000  48.5079279   6.4059091   7.2221894
  49.0140000   4.5910000   6.1960000  50.0000000   4.2450000   7.1270000
  50.0965334   4.8924087   7.8292413  48.7480000   3.7830000   5.1110000
  49.2996266   2.8533171   4.9713640  47.7680000   4.1590000   4.1890000
  47.5673535   3.5315722   3.3205672  45.5810000   6.9430000   1.1590000
  44.9060000   6.1360000   0.5300000  45.4450000   8.2610000   1.0130000
  45.9734235   8.8865286   1.6042546  44.5160000   8.8410000   0.0470000
  44.3002534   8.1174512  -0.7391487  43.2100000   9.2220000   0.7290000
  42.9175145   8.5011148   1.4924631  43.3757363  10.1944276   1.1926982
  42.0210000   9.3800000  -0.1960000  41.9750000   9.1680000  -1.5460000
  42.9051142   8.8713624  -2.0307612  40.6970000   9.3880000  -2.0170000
  40.4073997   9.3297861  -2.9828376  39.8870000   9.7160000  -0.9620000
  38.5160000  10.0270000  -0.9350000  37.9575566  10.0204273  -1.8710536
  37.9610000  10.3240000   0.2920000  36.8983020  10.5554103   0.3642650
  38.7460000  10.3350000   1.4670000  38.3032252  10.5864050   2.4307663
  40.0930000  10.0290000   1.4320000  40.6467917  10.0502727   2.3705963
  40.6880000   9.7170000   0.2010000  45.1720000  10.0530000  -0.5910000
  44.9760000  11.1830000  -0.1470000  46.0120000   9.8050000  -1.5960000
  46.3690000   8.4760000  -2.1340000  45.6413519   8.1717827  -2.8863831
  46.3869376   7.7415724  -1.3287713  47.7350000   8.7220000  -2.7170000
  47.9513700   8.0002692  -3.5046470  48.4996049   8.6545792  -1.9430910
  47.6470000  10.1000000  -3.2550000  47.1862966  10.1208979  -4.2426308
  48.6361378  10.5550480  -3.3063547  46.7710000  10.8640000  -2.2550000
  47.3625032  11.3469407  -1.4771887  45.9400000  11.9150000  -2.9880000
  46.4050000  13.0460000  -3.1100000  44.7520000  11.5460000  -3.4720000
  44.5124900  10.5651208  -3.4967063  43.8010000  12.5100000  -4.0430000
  44.2897714  13.0947641  -4.8222642  42.5960000  11.7740000  -4.6620000
  42.2681071  11.0395387  -3.9263696  41.8140972  12.5202051  -4.8030888
  42.8780000  11.0700000  -5.9970000  41.9474548  11.0695720  -6.5646145
  43.6200877  11.6755400  -6.5173138  43.3930000   9.6380000  -5.8630000
  43.5180000   9.1310000  -4.7230000  43.6650000   9.0210000  -6.9250000
  43.3010000  13.5560000  -3.0240000  42.7060000  14.5610000  -3.4140000
  43.5260000  13.3160000  -1.7300000  43.9650900  12.4420691  -1.4779205
  43.1130000  14.2190000  -0.6570000  42.1770078  14.7114511  -0.9206468
  42.9010000  13.4240000   0.6410000  42.4720773  12.4814714   0.3007584
  43.8922330  13.2425131   1.0564752  42.0090000  14.0290000   1.7080000
  42.3597861  15.0332454   1.9457836  40.5870000  14.0990000   1.2040000
  40.2353370  13.0950118   0.9664295  39.9492754  14.5342082   1.9734166
  40.5486536  14.7183715   0.3078924  42.0920000  13.1680000   3.0130000
  43.1213988  13.1479494   3.3708205  41.4502919  13.6045316   3.7783444
  41.7621767  12.1512379   2.7996682  44.1570000  15.3360000  -0.4660000
  44.9600000  15.3150000   0.4560000  44.1080000  16.3290000  -1.3450000
  43.3253893  16.3843425  -1.9810480  45.1560000  17.3410000  -1.4470000
  46.0896237  16.9763265  -1.0186786  45.3920000  17.6740000  -2.9240000
  46.1136143  18.4884213  -2.9879612  45.9240000  16.4660000  -3.6770000
  45.2026690  15.6512631  -3.6138734  46.0826497  16.7299207  -4.7225980
  46.8688152  16.1491122  -3.2354041  44.1530000  18.0880000  -3.5020000
  44.2871702  18.2998830  -4.4286630  44.8690000  18.6590000  -0.7210000
  45.7710000  19.4930000  -0.5940000  43.6360000  18.8560000  -0.2500000
  42.9216807  18.1589358  -0.4047542  43.2520000  20.1120000   0.4020000
  43.4859127  20.9300353  -0.2793239  41.7490000  20.1270000   0.6860000
  41.5006576  19.3189885   1.3741449  41.4726737  21.0819885   1.1329240
  41.2011494  19.9907260  -0.2464100  44.0810000  20.3480000   1.6740000
  44.3330000  19.4210000   2.4620000  44.5350000  21.5870000   1.8550000
  44.2300291  22.3226232   1.2337508  45.5280000  21.9130000   2.8840000
  46.3958121  21.2617121   2.7799542  45.9910000  23.3780000   2.7410000
  46.8142677  23.5265634   3.4397550  46.3536570  23.5043562   1.7208951
  44.8890000  24.4080000   3.0230000  43.9634028  24.0631408   2.5620848
  44.7508244  24.4841288   4.1015240  45.2590000  25.7820000   2.4580000
  45.8970092  26.2892618   3.1816911  45.8104690  25.6332302   1.5296418
  44.0270000  26.6320000   2.1850000  43.3184784  26.0312339   1.6147564
  43.5830287  26.9052685   3.1422424  44.3580000  27.8670000   1.4210000
  44.7690114  27.6139972   0.5337802  43.5152347  28.4003761   1.2617623
  45.0141926  28.4240317   1.9494184  45.0650000  21.6810000   4.3230000
  45.9070000  21.5200000   5.2130000  43.7490000  21.6800000   4.5570000
  43.0999852  21.9529554   3.8328629  43.2170000  21.4030000   5.9050000
  43.7228974  22.0522071   6.6196307  41.6940000  21.6460000   6.0090000
  41.4651833  21.6636221   7.0745663  41.5182299  22.6341261   5.5837804
  40.7940000  20.6230000   5.3110000  41.2599358  19.6387788   5.3590972
  39.8504504  20.6047790   5.8564211  40.5100000  20.9510000   3.8690000
  41.2470000  21.7020000   3.2290000  39.4540000  20.3650000   3.3350000
  39.2131697  20.5463311   2.3710388  38.8920158  19.7381657   3.8929910
  43.5580000  20.0050000   6.4000000  43.4890000  19.7520000   7.5930000
  43.9320000  19.1070000   5.4900000  43.8387954  19.3229358   4.5077658
  44.3370000  17.7490000   5.8680000  43.7800324  17.4220097   6.7460454
  44.0490000  16.7860000   4.7220000  44.3904020  17.2414464   3.7924235
  44.4749312  15.7869243   4.8143604  42.5680000  16.6100000   4.5940000
  41.7210000  17.3170000   3.7890000  42.1714384  18.0659167   3.1375948
  40.4260000  16.9070000   3.9890000  39.6157781  17.2550191   3.4965340
  40.4140000  15.9300000   4.9530000  39.3380000  15.1970000   5.4850000
  38.3349024  15.4077586   5.1142242  39.6200000  14.2560000   6.4440000
  38.8120531  13.6713131   6.8838444  40.9400000  14.0280000   6.8750000
  41.1592105  13.2752946   7.6322852  42.0160000  14.7630000   6.3430000
  43.0226351  14.5430745   6.6985550  41.7470000  15.7250000   5.3620000
  45.7780000  17.6260000   6.3650000  46.1700000  16.5890000   6.9360000
  46.5790000  18.6680000   6.1540000  46.2789024  19.4637399   5.6091708
  47.9390000  18.6650000   6.6830000  48.4849244  17.8126948   6.2784735
  48.6830000  19.9500000   6.3000000  48.0562670  20.7977169   6.5769133
  49.6203080  19.9953197   6.8545268  48.9940000  20.0400000   4.8080000
  48.6240000  19.1680000   4.0160000  49.7000000  21.1120000   4.4180000
  49.9378111  21.2289627   3.4433896  49.9904967  21.7972295   5.1007687
  47.8890000  18.5220000   8.2010000  47.3190000  19.3620000   8.8840000
  48.4680000  17.4580000   8.7290000  48.9082872  16.7692426   8.1358224
  48.4910000  17.2420000  10.1860000  49.4381592  16.7566279  10.4213776
  48.4611100  18.2256821  10.6545887  47.3490000  16.3950000  10.7370000
  47.2920000  16.1390000  11.9510000  46.4360000  15.9750000   9.8680000
  46.4364190  16.3112553   8.9156180  45.3500000  15.0760000  10.2900000
  45.2212814  15.1352565  11.3707495  44.0030000  15.3820000   9.5930000
  44.1333313  15.3391910   8.5116668  42.9480000  14.3290000  10.0290000
  42.8167771  14.3715307  11.1102365  41.9976298  14.5418747   9.5395293
  43.2880878  13.3334947   9.7436779  43.5620000  16.8050000   9.9410000
  43.4946615  16.8629343  11.0273747  44.3442324  17.4778417   9.5895801
  42.2080000  17.2190000   9.3180000  41.4251401  16.5468494   9.6693457
  41.9687043  18.2405311   9.6134844  42.2747106  17.1617546   8.2315505
  45.7990000  13.6460000  10.0310000  46.0150000  13.2320000   8.8810000
  45.9880000  12.9080000  11.1180000  45.7310513  13.2819678  12.0203440
  46.5440000  11.5520000  11.0600000  47.0565822  11.3696222  10.1154911
  47.5380000  11.3020000  12.2180000  47.9311545  10.2894072  12.1275259
  48.6850000  12.2950000  12.1790000  48.2926372  13.3078619  12.2698950
  49.3677190  12.0949152  13.0048087  49.2196230  12.1964396  11.2342436
  46.8410000  11.3780000  13.4630000  47.4557904  11.2231507  14.1838709
  45.4480000  10.5000000  11.1800000  44.3070000  10.8240000  11.5180000
  45.8100000   9.2450000  10.9270000  46.7226187   9.0361038  10.5480688
  44.8690000   8.1400000  11.1200000  43.9740486   8.3133455  10.5224111
  45.4880000   6.8210000  10.6950000  46.4278919   6.8171556  11.2469852
  44.8582066   6.0032019  11.0452378  45.7740000   6.6410000   9.1960000
  46.5323332   7.3455547   8.8544824  46.2890000   5.2230000   9.0280000
  45.5309795   4.5178115   9.3689002  46.5097987   5.0382476   7.9767078
  47.1965562   5.0932637   9.6175852  44.5460000   6.9470000   8.2980000
  44.2315589   7.9793790   8.4510352  44.8148440   6.8008972   7.2518269
  43.7277997   6.2759700   8.5594691  44.3890000   8.0620000  12.5790000
  43.2290000   7.7500000  12.8150000  45.2540000   8.3960000  13.5420000
  46.2235609   8.5770288  13.3245614  44.8290000   8.4790000  14.9410000
  44.5125862   7.4878624  15.2660043  45.9490000   8.9750000  15.8860000
  46.7248712   8.2170350  15.7782402  46.3427066   9.9435692  15.5778300
  45.4990000   9.0480000  17.3730000  44.6622195   9.7441722  17.4299510
  45.0740000   7.6920000  17.9430000  45.9104605   6.9953829  17.8868107
  44.7719628   7.8131211  18.9832903  44.2365854   7.3007756  17.3652624
  46.5660000   9.6810000  18.2430000  46.7676462  10.6933399  17.8928483
  46.2194478   9.7166176  19.2758282  47.4795320   9.0890317  18.1870374
  43.6370000   9.4190000  15.0850000  42.6550000   9.0850000  15.7310000
  43.7280000  10.5960000  14.4670000  44.5556405  10.8389961  13.9415826
  42.6600000  11.5910000  14.5790000  42.4761972  11.8134851  15.6301023
  43.0450000  12.8860000  13.8660000  43.3253785  12.6820291  12.8326158
  42.2116918  13.5884066  13.8839560  44.2120000  13.5880000  14.4970000
  45.2810000  14.0590000  13.7690000  46.1500000  14.6260000  14.5890000
  47.0645647  15.0727750  14.1990480  45.6930000  14.5270000  15.8220000
  46.1528756  14.8567395  16.6585920  44.4700000  13.8930000  15.7900000
  43.9158688  13.7307630  16.7145101  41.3540000  11.0480000  14.0120000
  40.2800000  11.1710000  14.6140000  41.4530000  10.4240000  12.8550000
  42.3165356  10.4046337  12.3315208  40.2620000   9.8090000  12.2560000
  39.4822449  10.5611960  12.1364911  40.5840000   9.2240000  10.8940000
  41.4492001   8.5910840  11.0913457  39.7367506   8.6011646  10.6070427
  40.9130000  10.2000000   9.7510000  41.8116920  10.7692016   9.9886199
  41.1480000   9.3870000   8.4930000  40.2495227   8.8178430   8.2544677
  41.3836278  10.0565531   7.6657884  41.9800360   8.7012902   8.6530578
  39.8170000  11.2530000   9.5030000  39.6721946  11.8469370  10.4054243
  40.1181958  11.9056238   8.6835706  38.8837541  10.7528156   9.2442209
  39.6400000   8.7390000  13.1590000  38.4260000   8.7600000  13.4130000
  40.4750000   7.8460000  13.6790000  41.4591598   7.9124751  13.4619521
  40.0240000   6.7320000  14.4840000  39.3058466   6.1860518  13.8722030
  41.1950000   5.7990000  14.8150000  41.9182954   6.3287433  15.4349321
  40.8244455   4.9272674  15.3543255  41.6758402   5.4768306  13.8913665
  39.3240000   7.1420000  15.7760000  38.4570000   6.4120000  16.2430000
  39.7230000   8.2990000  16.3290000  40.3914297   8.8543535  15.8143315
  39.3290000   8.7490000  17.6630000  38.6825355   8.0172129  18.1474280
  40.5620000   8.9550000  18.5270000  40.2579199   9.3359643  19.5019368
  41.3040000   7.6250000  18.7070000  41.6088222   7.2436225  17.7324569
  42.1863628   7.7816948  19.3274690  40.6449445   6.9030316  19.1891908
  41.4270000   9.9230000  17.9120000  42.2047892  10.0509571  18.4599701
  38.4510000  10.0120000  17.6810000  38.2340000  10.5970000  18.7400000
  37.9500000  10.4170000  16.5090000  38.2548391   9.9361740  15.6747465
  37.0080000  11.5400000  16.3630000  36.6573482  11.5991570  15.3326394
  35.7930000  11.3390000  17.2850000  36.1402782  11.6951513  18.2548728
  34.9846024  11.9791075  16.9316506  35.2910000   9.9250000  17.4200000
  34.8150000   9.2130000  16.3240000  34.7980503   9.6902535  15.3441831
  34.3590000   7.8920000  16.4700000  34.0154316   7.3266716  15.6037054
  34.3320000   7.3170000  17.7240000  33.8900000   6.0280000  17.9250000
  33.6133032   5.5955544  17.1138099  34.7720000   8.0290000  18.8260000
  34.7526458   7.5751078  19.8168117  35.2360000   9.3170000  18.6670000
  35.5721581   9.8860784  19.5337455  37.6190000  12.9150000  16.6800000
  36.8970000  13.8470000  17.0390000  38.9440000  13.0330000  16.5360000
  39.4748250  12.2442683  16.1950799  39.6720000  14.2370000  16.9400000
  39.0106257  14.9951887  17.3593245  40.7340000  13.8750000  17.9920000
  41.3559984  14.7498442  18.1813828  40.0670000  13.4260000  19.3050000
  39.4451589  12.5508559  19.1164899  40.8354249  13.1744239  20.0359800
  39.4475313  14.2343932  19.6934064  41.5920000  12.8490000  17.4920000
  42.2503996  12.6308277  18.1557101  40.3170000  14.9950000  15.7790000
  41.2190000  15.8150000  15.9950000  39.8190000  14.7520000  14.5640000
  39.1129187  14.0370603  14.4619716  40.3210000  15.4190000  13.3460000
  41.4039866  15.2974031  13.3672928  39.7690000  14.7350000  12.0620000
  38.6865032  14.8562037  12.0218704  40.2185273  15.1957378  11.1823716
  40.0147409  13.6732334  12.0810334  40.0200000  16.9200000  13.3000000
  40.6700000  17.6450000  12.5500000  39.0250000  17.3560000  14.0750000
  38.5064978  16.6807843  14.6184505  38.6430000  18.7810000  14.1780000
  38.7155803  19.0562775  15.2301661  39.3732703  19.3502091  13.6028429
  37.2550000  19.1130000  13.6770000  37.0230000  20.2160000  13.1440000
  36.3170000  18.1860000  13.8730000  36.5704976  17.2840871  14.2503479
  34.9190000  18.4330000  13.5570000  34.3602907  18.0958170  14.4300697
  34.8293164  19.5153724  13.4646631  34.3370000  17.7820000  12.3170000
  33.3620000  18.2910000  11.7550000  34.8970000  16.6510000  11.8980000
  35.8139954  16.3785614  12.2220309  34.2240000  15.7950000  10.9240000
  34.1136327  16.3370261   9.9847844  35.0120000  14.5200000  10.6600000
  35.3033529  14.2195492  11.6664502  34.3507267  13.7658180  10.2333536
  36.2580000  14.6550000   9.7890000  36.8597180  15.4784580  10.1736470
  37.0850000  13.3780000   9.7930000  36.4840583  12.5541306   9.4080233
  37.9638591  13.5116954   9.1622599  37.4004233  13.1519743  10.8115877
  35.8850000  15.0820000   8.3440000  35.3717555  16.0432596   8.3696823
  36.7915500  15.1706201   7.7453225  35.2293985  14.3323891   7.9008644
  32.8280000  15.4670000  11.4560000  32.6590000  15.2330000  12.6420000
  31.8180000  15.5010000  10.5730000  31.9210000  15.7230000   9.1250000
  32.6514760  15.0344084   8.7003276  32.2354767  16.7489507   8.9336142
  30.5270000  15.4530000   8.6430000  30.4202328  14.3974558   8.3929476
  30.3173266  16.0578573   7.7607947  29.6620000  15.8260000   9.7430000
  28.6955088  15.3229086   9.7131207  29.5092334  16.9052268   9.7486228
  30.4330000  15.4000000  10.9990000  30.3185212  16.1192329  11.8099851
  29.9600000  14.0300000  11.4660000  30.4840000  12.9980000  11.0580000
  28.9280000  14.0500000  12.2960000  28.5760192  14.9323909  12.6389215
  28.3330000  12.8320000  12.8000000  29.0342301  12.3131816  13.4536077
  27.0710000  13.1670000  13.6030000  27.4381886  13.7710435  14.4327007
  26.4297835  13.7765912  12.9663368  26.2720000  11.9870000  14.1480000
  25.8758596  11.4088534  13.3131826  27.1640000  11.0950000  15.0060000
  27.5601695  11.6723683  15.8413409  26.5808381  10.2571882  15.3882230
  27.9892051  10.7172324  14.4023208  25.0860000  12.5300000  14.9530000
  24.4544855  13.1380428  14.3052555  24.5041899  11.6980498  15.3498085
  25.4547393  13.1405942  15.7771996  28.0340000  11.8540000  11.6710000
  28.3540000  10.6730000  11.7660000  27.4370000  12.3590000  10.5920000
  27.3283209  13.3603165  10.5168100  27.0140000  11.5330000   9.4710000
  27.1958624  10.4815343   9.6933626  25.5190000  11.7260000   9.2100000
  25.3592115  12.8038711   9.1824169  25.3336859  11.3063286   8.2212459
  24.5770000  11.1060000  10.2010000  24.6228731  10.0237888  10.0792812
  24.8663513  11.3692624  11.2183843  23.1370000  11.5630000   9.9690000
  22.5360000  11.2450000   8.9340000  22.5840000  12.3360000  10.9120000
  21.6344025  12.6616069  10.8008865  23.1189563  12.5899879  11.7301768
  27.7070000  11.9910000   8.2100000  27.8610000  13.1980000   7.9820000
  28.0790000  11.0350000   7.3680000  28.1538712  10.0751076   7.6731234
  28.3730000  11.3400000   5.9840000  29.0648976  12.1765130   5.8859038
  28.9600000  10.1250000   5.2380000  28.2550572   9.2955218   5.2938636
  29.2150000  10.4830000   3.7620000  29.9202559  11.3121571   3.7053122
  29.6295323   9.6180544   3.2441848  28.2759477  10.7725321   3.2903502
  30.2560000   9.6200000   5.9340000  30.0277413   9.3252706   6.9582727
  30.6511103   8.7625569   5.3892259  30.9986978  10.4177596   5.9429659
  27.0310000  11.7330000   5.3560000  26.0350000  11.0640000   5.5730000
  26.9880000  12.8360000   4.5950000  28.0370000  13.8150000   4.2890000
  28.6896915  13.4223751   3.5092950  28.6234264  14.0171989   5.1852805
  27.2500000  15.0170000   3.8340000  27.8401831  15.6047433   3.1309063
  26.9854281  15.6356499   4.6915403  26.0310000  14.4570000   3.1860000
  26.2247712  14.1877557   2.1477037  25.1990279  15.1598818   3.2293508
  25.6960000  13.1990000   3.9970000  25.0170319  13.4277158   4.8184559
  25.0780000  12.1050000   3.1120000  25.8010000  11.3990000   2.4020000
  23.7490000  11.9630000   3.1790000  23.2239714  12.5729179   3.7892823
  23.0130000  10.9500000   2.4020000  23.3258404   9.9535754   2.7140386
  21.4960000  11.0800000   2.6210000  21.2380783  12.1390362   2.6167550
  21.0107061  10.5850157   1.7798220  21.0230000  10.4480000   3.9230000
  21.7840000  10.4380000   4.9200000  19.8660000   9.9700000   3.9530000
  23.2580000  11.0620000   0.9080000  23.1680000  10.0690000   0.1900000
  23.5180000  12.2860000   0.4580000  23.4809633  13.0566431   1.1097951
  23.7380000  12.5860000  -0.9640000  23.0230264  12.0272955  -1.5679547
  23.5560000  14.0880000  -1.2500000  23.8420557  14.2360496  -2.2913226
  22.4917998  14.2929142  -1.1334323  24.3530000  15.0330000  -0.3670000
  25.3086831  14.5612501  -0.1384773  24.5254473  15.9398934  -0.9465735
  23.6360000  15.3900000   0.9370000  22.8740000  14.5490000   1.4680000
  23.8500000  16.5190000   1.4430000  25.0900000  12.0910000  -1.4840000
  25.2950000  12.0180000  -2.6960000  26.0020000  11.7470000  -0.5710000
  25.8091971  11.9065487   0.4075043  27.2930000  11.1810000  -0.9370000
  27.6913039  11.6168859  -1.8532187  28.3300000  11.3610000   0.1840000
  27.9296247  10.9377974   1.1052483  29.6490000  10.6540000  -0.1740000
  30.0502468  11.0770118  -1.0949576  30.3678923  10.7945511   0.6331801
  29.4645223   9.5889088  -0.3141796  28.5460000  12.8290000   0.4630000
  27.6044394  13.2830504   0.7718752  29.2822852  12.9436875   1.2585065
  28.9074353  13.3215889  -0.4396747  27.1280000   9.7020000  -1.2540000
  26.9720000   8.8750000  -0.3530000  27.1500000   9.3780000  -2.5430000
  27.2932056  10.1020748  -3.2324252  26.9170000   8.0070000  -3.0120000
  26.6448909   7.3682057  -2.1717633  25.7750000   7.9830000  -4.0360000
  25.7034523   8.9856127  -4.4576017  26.0624785   7.2802313  -4.8180309
  24.4210000   7.5760000  -3.4590000  23.8705908   7.0559066  -4.2429983
  24.6068249   6.8917588  -2.6311201  23.6080000   8.7510000  -2.9680000
  24.2015214   9.3224161  -2.2543369  23.3499880   9.3857003  -3.8157528
  22.3360000   8.2650000  -2.2940000  21.9599336   7.4218637  -2.8734789
  22.6044328   7.9265189  -1.2932635  21.2760000   9.3150000  -2.1970000
  21.0268138   9.6284723  -3.1242222  20.4610624   8.9295990  -1.7415411
  21.6241217  10.0961765  -1.6597165  28.1700000   7.3980000  -3.6190000
  28.6120000   6.3190000  -3.2030000  28.7480000   8.0930000  -4.5970000
  28.3674616   8.9882110  -4.8688217  29.9020000   7.5750000  -5.3370000
  29.8272893   6.4926093  -5.4416326  29.9410000   8.2000000  -6.7340000
  30.7059976   7.6844193  -7.3145639  28.9676333   8.0480089  -7.2004289
  30.2340000   9.5880000  -6.6930000  30.2486310   9.9384772  -7.5866171
  31.2420000   7.8210000  -4.6480000  31.3420000   8.5800000  -3.6800000
  32.2820000   7.1980000  -5.1820000  32.1430105   6.5037169  -5.9022446
  33.6460000   7.4480000  -4.7130000  33.7003708   7.2884789  -3.6361082
  34.6340000   6.4990000  -5.3990000  35.6286839   6.6641116  -4.9849453
  34.3275394   5.4705908  -5.2078028  34.6600000   6.7330000  -6.8040000
  35.2831176   6.1308451  -7.2171993  34.0610000   8.9110000  -4.9590000
  34.7800000   9.5100000  -4.1420000  33.6100000   9.4730000  -6.0840000
  33.0917095   8.9166423  -6.7487860  33.8930000  10.8690000  -6.4190000
  34.9622127  11.0574476  -6.3221969  33.4690000  11.1860000  -7.8530000
  33.8190556  12.1881585  -8.1004643  33.9406631  10.4624449  -8.5179075
  32.0610000  11.1250000  -8.0110000  31.8319613  11.3289121  -8.9207038
  33.1910000  11.8090000  -5.4410000  33.7650000  12.8100000  -5.0140000
  31.9470000  11.4740000  -5.0950000  31.5175951  10.6667007  -5.5239273
  31.1810000  12.2160000  -4.0850000  31.0325390  13.2374159  -4.4353827
  29.8060000  11.5850000  -3.8140000  30.0050099  10.5307608  -3.6214539
  29.3849365  12.0440069  -2.9195067  28.8120000  11.7130000  -4.9680000
  28.9070000  12.6280000  -5.8230000  27.8840000  10.8750000  -4.9780000
  31.9310000  12.2130000  -2.7510000  31.9860000  13.2380000  -2.0650000
  32.4670000  11.0510000  -2.3720000  32.3595279  10.2322852  -2.9535971
  33.2080000  10.9130000  -1.0910000  32.5564253  11.2206370  -0.2731314
  33.6690000   9.4800000  -0.8350000  33.4565344   9.0333556  -1.8063220
  34.7477200   9.5599976  -0.7005993  33.0790000   8.5960000   0.2750000
  32.1279522   8.1632328  -0.0353569  34.0900000   7.4780000   0.5230000
  35.0412314   7.9099980   0.8338622  33.7178239   6.8181310   1.3066827
  34.2333601   6.9069990  -0.3943364  32.7300000   9.2720000   1.5980000
  31.9881428  10.0513595   1.4237987  32.3241913   8.5326195   2.2884614
  33.6280486   9.7155209   2.0279963  34.4460000  11.8080000  -1.0500000
  34.6850000  12.5020000  -0.0630000  35.2450000  11.7580000  -2.1170000
  35.0623768  11.0868981  -2.8493731  36.4220000  12.6200000  -2.2430000
  37.1200142  12.4102827  -1.4325100  37.1340000  12.3720000  -3.5800000
  37.4641372  11.3359980  -3.5037868  36.4040709  12.4619397  -4.3844963
  38.3400000  13.2720000  -3.8810000  38.0037720  14.3086939  -3.8988115
  39.4320000  13.1090000  -2.8240000  39.7690808  12.0725887  -2.8059176
  40.2723987  13.7596891  -3.0657321  39.0343569  13.3783173  -1.8455070
  38.8850000  12.9690000  -5.2820000  38.1069755  13.1533818  -6.0227973
  39.7406229  13.6125444  -5.4866003  39.1953328  11.9253978  -5.3338363
  36.0300000  14.0970000  -2.1240000  36.6290000  14.8560000  -1.3740000
  35.0170000  14.4880000  -2.8810000  34.5795686  13.8331234  -3.5133684
  34.5410000  15.8540000  -2.8710000  35.3175014  16.5329375  -3.2234041
  33.3380000  15.9650000  -3.8010000  33.4942388  15.2365454  -4.5966397
  32.4656819  15.6789427  -3.2133501  33.1170000  17.2960000  -4.3910000
  32.4451380  17.8465065  -3.7324828  34.0792938  17.8059626  -4.4360647
  32.5030000  17.2250000  -5.8130000  31.9344424  18.1429890  -5.9617868
  33.3333587  17.1941482  -6.5184446  31.6240000  16.0810000  -6.0720000
  30.8603785  15.9601714  -5.4220907  31.7560000  15.2020000  -7.0730000
  32.7350000  15.2840000  -7.9710000  33.4116882  16.0312289  -7.9090156
  32.7967062  14.5986200  -8.7102876  30.8830000  14.2190000  -7.1860000
  30.1277645  14.1393882  -6.5201311  30.9740693  13.5507577  -7.9378359
  34.1800000  16.2860000  -1.4400000  34.6200000  17.3360000  -0.9600000
  33.4170000  15.4380000  -0.7530000  33.0672797  14.6096421  -1.2130198
  32.9940000  15.6980000   0.6250000  32.3932080  16.6061717   0.6737067
  32.1470000  14.5240000   1.1220000  31.1573763  14.5264377   0.6651213
  32.6631121  13.5990473   0.8647241  31.9340000  14.4980000   2.6080000
  31.1530000  15.4520000   3.2290000  30.6951024  16.2377239   2.6281110
  30.9470000  15.4190000   4.6060000  30.3443820  16.1908288   5.0847824
  31.5080000  14.4050000   5.3680000  31.3402044  14.3704913   6.4444542
  32.2870000  13.4300000   4.7540000  32.7343093  12.6321368   5.3468144
  32.4940000  13.4750000   3.3830000  33.0982396  12.7085872   2.8976076
  34.1740000  15.9620000   1.5780000  34.1750000  16.9610000   2.3060000
  35.1730000  15.0780000   1.5770000  35.1279228  14.2359414   1.0211181
  36.3060000  15.2470000   2.4920000  35.9303175  15.5794099   3.4597115
  37.0880000  13.9580000   2.6910000  37.3017002  13.5434464   1.7058215
  38.0231297  14.2279785   3.1816568  36.3600000  12.9250000   3.5260000
  36.2640000  13.0600000   4.9030000  36.7207430  13.9250844   5.3837434
  35.5940000  12.1070000   5.6720000  35.5403559  12.2195335   6.7548483
  34.9980000  11.0080000   5.0550000  34.3220000  10.0700000   5.8220000
  34.3281655  10.2771821   6.7593565  35.0750000  10.8550000   3.6820000
  34.6140688  10.0009067   3.1858473  35.7600000  11.8210000   2.9260000
  35.8310403  11.7160247   1.8433950  37.2380000  16.3950000   2.0640000
  37.8020000  17.0800000   2.9150000  37.3920000  16.5980000   0.7540000
  36.9962765  15.9427481   0.0951015  38.1590000  17.7370000   0.2290000
  39.1721158  17.7187711   0.6307005  38.2370000  17.6660000  -1.2990000
  37.2356781  17.4231148  -1.6546127  38.5141081  18.6611339  -1.6468787
  39.2290000  16.6450000  -1.8400000  39.1983213  15.7674238  -1.1942294
  38.9513720  16.3588402  -2.8544641  40.6380000  17.1800000  -1.8590000
  41.2800000  17.2740000  -0.8210000  41.1300000  17.5620000  -3.0520000
  42.0697432  17.9269104  -3.1138432  40.5572560  17.4820335  -3.8800526
  37.5470000  19.0840000   0.6360000  38.2690000  20.0270000   0.9720000
  36.2190000  19.1550000   0.6150000  35.6868489  18.3495239   0.3181452
  35.4980000  20.4020000   0.8890000  36.1131394  21.2626361   0.6263059
  34.2240000  20.4400000   0.0520000  33.6919569  19.5015340   0.2079195
  33.5949829  21.2710247   0.3711166  34.5150000  20.5930000  -1.4340000
  33.7300000  20.1740000  -2.3060000  35.6500000  21.1680000  -1.7270000
  35.9094565  21.3030014  -2.6937247  36.2632283  21.4751091  -0.9855583
  35.1970000  20.6610000   2.3660000  34.7940000  21.7740000   2.7450000
  35.4000000  19.6350000   3.1980000  35.7037688  18.7440363   2.8319297
  35.1620000  19.7480000   4.6300000  34.1511578  20.1125480   4.8127623
  35.3170000  18.3730000   5.3000000  34.4631435  17.7284791   5.0911432
  36.2301795  17.8890730   4.9535641  35.4230000  18.4720000   6.7770000
  34.4160000  18.7370000   7.6680000  33.4180163  18.8956140   7.2593804
  34.9200000  18.7440000   8.9560000  34.3857748  18.9009583   9.7986547
  36.2680000  18.4800000   8.9030000  37.2030000  18.3770000   9.9250000
  36.8696602  18.5259873  10.9520278  38.4920000  18.0930000   9.5740000
  39.2499398  18.0083035  10.3527513  38.8660000  17.9080000   8.2440000
  39.8954779  17.6706617   7.9757737  37.9360000  18.0210000   7.2210000
  38.2870043  17.9353224   6.1926245  36.6130000  18.2880000   7.5490000
  36.1190000  20.7420000   5.2980000  37.3370000  20.6280000   5.1620000
  35.5800000  21.6760000   6.0680000  34.5771272  21.7664783   6.1464807
  36.4250000  22.6330000   6.7960000  37.4626255  22.5159615   6.4833749
  35.9910000  24.0640000   6.5150000  34.9396350  24.1536851   6.7882900
  36.5872996  24.7235410   7.1455018  36.1700000  24.4560000   5.0640000
  35.5629447  23.7699771   4.4732740  35.8214033  25.4766561   4.9063818
  37.6130000  24.3570000   4.5930000  37.8900000  23.7720000   3.5430000
  38.5430000  24.8880000   5.3800000  39.5147126  24.8458558   5.1077871
  38.2737864  25.3312500   6.2466919  36.3700000  22.3660000   8.3000000
  35.2820000  22.3690000   8.8900000  37.5320000  22.1180000   8.9150000
  38.8720000  21.9790000   8.3090000  39.0571289  22.8250632   7.6471809
  38.9129934  21.0534294   7.7347721  39.7860000  21.9600000   9.4800000
  40.1519558  22.9702692   9.6631161  40.6282433  21.3025262   9.2644640
  39.0030000  21.4550000  10.6240000  39.3541374  21.9288608  11.5406556
  39.0696276  20.3719197  10.7269436  37.5480000  21.8670000  10.3470000
  36.8448044  21.0592477  10.5498556  37.1650000  23.0950000  11.1740000
  37.4950000  24.2360000  10.8050000  36.4540000  22.8460000  12.2650000
  36.0496145  21.9289759  12.3900543  36.1810000  23.8630000  13.2690000
  36.0047645  24.8122316  12.7630359  34.9300000  23.4970000  14.0720000
  35.0944709  22.5530892  14.5916939  34.7229545  24.2809595  14.8004504
  34.0806177  23.3959941  13.3963915  37.3670000  24.0550000  14.2040000
  37.5700000  25.1600000  14.7320000  38.1390000  22.9900000  14.4310000
  37.9387062  22.1301475  13.9404540  39.2320000  22.9940000  15.4100000
  39.4710867  24.0180977  15.6966370  38.8190000  22.2160000  16.6680000
  38.7871280  21.1348230  16.5333161  39.5211918  22.4618402  17.4646111
  37.4750000  22.6240000  17.1460000  37.1410000  23.8280000  17.6940000
  37.9505563  24.5439615  17.8358365  35.7890000  23.8730000  17.9590000
  35.2960870  24.6567053  18.3626611  35.2220000  22.6820000  17.5880000
  33.8970000  22.2520000  17.6720000  33.1511100  22.9327904  18.0822087
  33.6180000  20.9900000  17.2290000  32.5964044  20.6154577  17.2935016
  34.6170000  20.1580000  16.6900000  34.3782996  19.1552398  16.3356082
  35.9360000  20.5880000  16.5930000  36.6734890  19.9128615  16.1589508
  36.2560000  21.8680000  17.0600000  40.5070000  22.4080000  14.8140000
  40.4520000  21.6370000  13.8450000  41.6440000  22.7820000  15.3990000
  41.6349021  23.5101092  16.0989096  42.9240000  22.1890000  15.0360000
  43.0965646  22.2722383  13.9629706  44.0630000  22.8730000  15.7640000
  43.9090610  22.7901291  16.8398881  45.0054602  22.3962744  15.4945529
  44.0951342  23.9254221  15.4820880  42.8930000  20.7050000  15.3810000
  42.1600000  20.3090000  16.2900000  43.6900000  19.8860000  14.6710000
  44.6010000  20.2520000  13.5770000  45.4754419  20.7534179  13.9917671
  44.0863127  20.9267301  12.8929421  44.9320000  18.9680000  12.9520000
  45.9516955  19.0180177  12.5701383  44.2431686  18.7937604  12.1254087
  44.7940000  17.9260000  13.9780000  45.7473900  17.8209171  14.4957877
  44.4897762  16.9587270  13.5780869  43.7250000  18.4510000  14.9520000
  42.7276357  18.0498692  14.7718423  44.1450000  18.1430000  16.3870000
  45.0650000  18.7970000  16.9280000  43.4910000  17.1490000  16.9800000
  42.7043151  16.7367173  16.4991162  43.8500000  16.6270000  18.2820000
  43.2847112  15.7089588  18.4424622  44.9158703  16.3992660  18.2694629
  43.5640000  17.5880000  19.4200000  44.2870000  17.5960000  20.4100000
  42.5280000  18.4060000  19.2730000  42.0437178  18.4293439  18.3869835
  42.1160000  19.3520000  20.3160000  42.6821461  19.1897537  21.2331990
  42.3090000  20.8260000  19.8680000  42.0710861  21.4830295  20.7045462
  43.7580000  21.0720000  19.4200000  43.9965129  20.4156095  18.5831233
  43.8716585  22.1108344  19.1101549  44.4352211  20.8643161  20.2484562
  41.4020000  21.1530000  18.8020000  41.5347341  22.0663304  18.5377850
  40.6720000  19.1550000  20.8020000  40.3690000  19.4280000  21.9610000
  39.7830000  18.6990000  19.9260000  40.0318123  18.5748809  18.9550282
  38.3870000  18.4410000  20.3290000  38.3426494  18.3423913  21.4136237
  37.4480000  19.5710000  19.9020000  37.5785237  19.7262332  18.8310353
  36.4259533  19.2479426  20.0998750  37.7230000  20.8900000  20.6490000
  38.3718968  20.6774178  21.4986132  38.2367124  21.5589512  19.9585611
  36.4840000  21.5770000  21.1510000  35.5520000  20.9490000  21.6600000
  36.4700000  22.9090000  21.0180000  35.6687787  23.4365900  21.3339028
  37.2607231  23.3802787  20.6023623  37.8790000  17.1130000  19.7830000
  38.2000000  16.7340000  18.6630000  37.0810000  16.4420000  20.6060000
  36.8905164  16.8227297  21.5218932  36.4570000  15.1710000  20.2400000
  36.9894566  14.7223982  19.4013430  36.5030000  14.2070000  21.4170000
  37.5479264  14.1171545  21.7139105  35.9340855  14.6653116  22.2259418
  35.9380000  12.8210000  21.1200000  34.9261353  12.9156669  20.7259584
  36.5679577  12.3193530  20.3854215  35.9080000  12.0120000  22.3920000
  36.9324879  11.8424962  22.7233487  35.3691633  12.5762627  23.1531584
  35.2530000  10.7190000  22.2170000  35.8697100   9.9534109  21.9853939
  33.9500000  10.4690000  22.3480000  33.0680000  11.4310000  22.6120000
  33.3825208  12.3848125  22.7188567  32.0885257  11.2024551  22.7041792
  33.5150000   9.2230000  22.1950000  34.1709109   8.4848465  21.9828434
  32.5304015   9.0196696  22.2915470  35.0190000  15.4390000  19.8640000
  34.2650000  16.0900000  20.6210000  34.6530000  14.9780000  18.6740000
  35.3633341  14.6101617  18.0573803  33.2740000  15.0300000  18.1900000
  32.6015921  15.1652269  19.0371603  33.0610000  16.1910000  17.2030000
  33.3134187  17.0787551  17.7828922  33.7459674  16.1015321  16.3598421
  31.6160000  16.3130000  16.6800000  31.3307456  15.3618550  16.2304959
  30.6380000  16.6590000  17.8040000  30.9223553  17.6103146  18.2537125
  29.6295402  16.7367843  17.3977252  30.6641715  15.8768180  18.5626875
  31.5310000  17.3370000  15.5520000  32.1762689  17.0271985  14.7299595
  30.5018532  17.4054002  15.1994668  31.8540714  18.3109474  15.9196281
  32.9380000  13.6910000  17.5400000  33.3800000  13.3950000  16.4250000
  32.2160000  12.8720000  18.2870000  31.9600119  13.1453322  19.2250080
  31.8080000  11.5520000  17.8150000  32.6634738  10.8771795  17.7853171
  30.7680000  10.9780000  18.7690000  31.1706134  11.0520940  19.7792038
  29.8943532  11.6234675  18.6783736  30.3680000   9.5470000  18.4900000
  29.3230000   9.2440000  17.6350000  28.7759733  10.0573148  17.1581559
  28.9650000   7.9150000  17.3790000  28.1440790   7.6849666  16.6998276
  29.6650000   6.8930000  17.9860000  29.3210000   5.5940000  17.7770000
  28.5710725   5.4950029  17.1858927  30.7160000   7.1710000  18.8190000
  31.2803329   6.3620898  19.2829969  31.0610000   8.4910000  19.0710000
  31.8924316   8.7192160  19.7378876  31.2530000  11.6540000  16.3960000
  30.3650000  12.4520000  16.1230000  31.7720000  10.8270000  15.4980000
  32.4303301  10.1172185  15.7859428  31.4680000  10.9520000  14.0790000
  30.4230395  11.2506620  13.9955872  32.3310000  12.0390000  13.4770000
  33.3798678  11.7502621  13.5448736  32.0606313  12.1805302  12.4305917
  32.1751694  12.9704941  14.0211827  31.6490000   9.6580000  13.2870000
  32.7480000   9.0760000  13.2470000  30.5810000   9.2430000  12.6150000
  29.6785459   9.6630509  12.7859773  30.6610000   8.1350000  11.6640000
  31.0763398   7.2576382  12.1598107  29.2630000   7.7760000  11.1150000
  28.8144539   8.7127561  10.7842529  29.3438814   7.0937728  10.2687587
  28.3580000   7.1470000  12.1610000  28.8250000   6.6770000  13.2080000
  27.0600000   7.0800000  11.8620000  26.4134187   6.6713414  12.5215685
  26.7295471   7.4382276  10.9773675  31.6180000   8.4550000  10.4920000
  32.2790000   7.5700000   9.9840000  31.6680000   9.7140000  10.0650000
  31.0658596  10.4007406  10.4961770  32.4860000  10.1260000   8.9410000
  32.3619375   9.4185761   8.1210859  32.0830000  11.5200000   8.4500000
  32.5812225  11.7110283   7.4995360  31.0030282  11.5379838   8.3035840
  32.4500000  12.5220000   9.3860000  32.1860281  13.3828906   9.0531547
  33.9900000  10.0720000   9.2920000  34.8400000  10.0420000   8.4090000
  34.3120000  10.0810000  10.5820000  33.5787406  10.1570057  11.2724007
  35.6970000  10.0700000  11.0420000  36.3381575  10.5938846  10.3330845
  35.7830000  10.7850000  12.4060000  35.2798013  11.7474568  12.3134403
  35.2609687  10.1718174  13.1405682  37.1260000  10.9910000  12.8290000
  37.1288859  11.4371750  13.6790114  36.2380000   8.6310000  11.1060000
  37.1370000   8.2490000  10.3320000  35.6830000   7.8170000  12.0010000
  35.0573432   8.1724715  12.7097263  36.1080000   6.4160000  12.0880000
  37.1852066   6.2934277  11.9753001  35.6370000   5.7000000  13.3920000
  35.9460974   6.2929183  14.2528177  34.1260000   5.5460000  13.4000000
  33.8161669   4.9527596  12.5396687  33.8162113   5.0446508  14.3169409
  33.6597104   6.5299138  13.3491382  36.4000000   4.3670000  13.5970000
  36.0625137   3.6868021  12.8149932  37.4587613   4.5846557  13.4564655
  36.1950000   3.7270000  14.9390000  35.1364611   3.5086117  15.0800736
  36.7667378   2.8004635  14.9913938  36.5327069   4.4064668  15.7215464
  35.7360000   5.6240000  10.8440000  36.4220000   4.6740000  10.5280000
  34.6990000   6.0400000  10.1090000  34.1339022   6.8158127  10.4234494
  34.3490000   5.3940000   8.8370000  34.1287155   4.3415191   9.0154878
  33.4707305   5.8818761   8.4142484  35.4980000   5.4980000   7.8460000
  35.8700000   4.5220000   7.1960000  36.0590000   6.6950000   7.7170000
  35.6482420   7.5015863   8.1651024  37.2140000   6.8990000   6.8500000
  37.0071754   6.4734957   5.8680281  37.5310000   8.3800000   6.6820000
  36.6065239   8.8019676   6.2878090  37.7466325   8.8233607   7.6541286
  38.6830000   8.6820000   5.7160000  39.6031747   8.2801346   6.1401268
  38.4390000   8.0530000   4.3290000  37.5191759   8.4547535   3.9040099
  39.2755461   8.2876657   3.6708030  38.3495973   6.9714342   4.4306020
  38.9050000  10.1890000   5.5960000  39.1496803  10.5998680   6.5754991
  39.7265221  10.3819597   4.9060947  37.9973883  10.6617328   5.2206820
  38.4390000   6.1470000   7.3310000  39.1400000   5.5260000   6.5220000
  38.6920000   6.1880000   8.6410000  38.1680035   6.7937670   9.2562832
  39.7830000   5.3910000   9.2130000  40.7393146   5.7718976   8.8545608
  39.7710000   5.4600000  10.7300000  40.0832857   6.4556296  11.0451168
  38.7774273   5.2492330  11.1255889  40.7190000   4.4780000  11.3920000
  42.0930000   4.6670000  11.3440000  42.4911981   5.5324711  10.8143795
  42.9530000   3.7760000  11.9560000  44.0283913   3.9527766  11.9363994
  42.4470000   2.6570000  12.5950000  43.1130796   1.9293220  13.0585974
  41.0670000   2.4670000  12.6410000  40.6599596   1.6015041  13.1638147
  40.2300000   3.3530000  12.0390000  39.1531142   3.1856515  12.0592807
  39.6970000   3.9250000   8.7570000  40.7030000   3.3220000   8.3580000
  38.5020000   3.3460000   8.8620000  37.7043145   3.8851841   9.1670864
  38.3030000   1.9320000   8.5450000  38.9457222   1.3210353   9.1788214
  37.2611509   1.6616598   8.7169477  38.6480000   1.6680000   7.0920000
  39.3370000   0.6920000   6.7610000  38.1780000   2.5520000   6.2280000
  37.6260364   3.3336129   6.5512905  38.3860000   2.3970000   4.7820000
  38.0493802   1.4066476   4.4754247  37.5700000   3.4500000   4.0200000
  37.9018635   4.4470422   4.3096094  37.7146885   3.3166055   2.9479126
  36.5130716   3.3352954   4.2605089  39.8850000   2.5040000   4.4230000
  40.4040000   1.7320000   3.5950000  40.5870000   3.4310000   5.0640000
  40.1255899   4.0476539   5.7174049  42.0260000   3.6490000   4.7890000
  42.2114386   3.5626292   3.7183685  42.4670000   5.0520000   5.2540000
  42.2212654   5.0677968   6.3158212  43.5449947   5.1546122   5.1295082
  41.7550000   6.2200000   4.5450000  40.6864296   6.1618595   4.7520696
  42.3050000   7.5770000   5.0490000  43.3735025   7.6360729   4.8418489
  41.7907339   8.3906231   4.5374840  42.1384547   7.6608418   6.1229337
  41.8740000   6.1330000   3.0260000  41.4246071   5.2027313   2.6785152
  41.3565390   6.9778535   2.5715136  42.9259673   6.1561888   2.7415248
  42.8890000   2.5690000   5.4380000  43.8890000   2.1260000   4.8640000
  42.4670000   2.0860000   6.6030000  41.6080946   2.4250103   7.0122102
  43.2480000   1.1120000   7.3480000  44.2163146   1.5635901   7.5637139
  42.5550000   0.7830000   8.6740000  41.5877909   0.3217263   8.4744177
  43.1746092   0.0931977   9.2470249  42.4088092   1.6996500   9.2453844
  43.4980000  -0.1900000   6.5630000  44.5240000  -0.8460000   6.7620000
  42.5540000  -0.5650000   5.7100000  41.7086008  -0.0202604   5.6169504
  42.6630000  -1.8080000   4.9530000  43.3702690  -2.5052008   5.4022002
  41.2840000  -2.5310000   4.7880000  41.4076652  -3.3843387   4.1212023
  40.7750000  -3.0100000   6.1310000  40.6506368  -2.1571068   6.7982390
  39.8156681  -3.5103895   5.9991171  41.4917206  -3.7078515   6.5639163
  40.2600000  -1.6310000   4.0890000  40.6286515  -1.3607038   3.0994859
  39.3142759  -2.1639639   3.9907400  40.1074976  -0.7270991   4.6787516
  43.2930000  -1.6450000   3.5630000  43.4870000  -2.6330000   2.8610000
  43.6060000  -0.4130000   3.1680000  43.4437733   0.3770243   3.7759831
  44.1060000  -0.1570000   1.8150000  43.3883911  -0.5373911   1.0880617
  44.3090000   1.3390000   1.5650000  44.5694291   1.7892368   2.5228949
  45.1498215   1.4356212   0.8781350  43.1040000   2.0450000   0.9880000
  42.6923502   1.4412251   0.1792348  42.3540151   2.1638453   1.7699850
  43.4950000   3.4080000   0.4520000  43.7768963   4.0385201   1.2952543
  44.3523000   3.2818204  -0.2092222  42.3640000   4.0610000  -0.3090000
  41.9150149   3.3024020  -0.9501256  41.6283806   4.4020479   0.4194570
  42.8160000   5.2300000  -1.1530000  43.4973274   4.9141088  -1.8283558
  42.0210984   5.6239943  -1.6357006  43.2316836   5.9332349  -0.5590582
  45.3970000  -0.9120000   1.5070000  45.5090000  -1.5340000   0.4510000
  46.3910000  -0.8400000   2.4060000  46.5370000  -0.0810000   3.6610000
  46.0722304  -0.6284949   4.4809627  46.0617431   0.8948095   3.5608718
  48.0030000   0.0190000   3.8050000  48.2679746   0.1653391   4.8521258
  48.3816431   0.8535596   3.2148805  48.5130000  -1.2500000   3.2990000
  48.4219856  -2.0422812   4.0420383  49.5530206  -1.1660043   2.9837201
  47.6280000  -1.5630000   2.0960000  48.0312343  -1.1252933   1.1828115
  47.4500000  -3.0800000   1.9020000  48.1400000  -3.6850000   1.0590000
  46.5040000  -3.6760000   2.6290000  46.0068652  -3.1477991   3.3318230
  46.2010000  -5.0960000   2.4880000  47.1074997  -5.6808921   2.6437519
  45.1450000  -5.5380000   3.5230000  45.2425292  -6.6116792   3.6836244
  45.3333362  -5.0125044   4.4592072  43.8280000  -5.2440000   3.0710000
  43.1920642  -5.5282662   3.7315893  45.7160000  -5.4660000   1.0830000
  45.8850000  -6.6020000   0.6440000  45.0800000  -4.5240000   0.3970000
  45.0186240  -3.5910630   0.7790483  44.4560000  -4.7850000  -0.9070000
  44.3812416  -3.8381193  -1.4417217  45.1029786  -5.4647220  -1.4615233
  43.0730000  -5.4000000  -0.7960000  42.3460000  -5.5200000  -1.7950000
  42.6950000  -5.7610000   0.4330000  43.3238587  -5.6103761   1.2088534
  41.3960000  -6.3890000   0.7020000  41.1288486  -7.0551031  -0.1183877
  41.4590000  -7.2050000   1.9930000  41.6828648  -6.4438190   2.7403870
  40.4686279  -7.6190727   2.1822273  42.5000000  -8.3190000   2.0740000
  43.4641197  -7.9104743   1.7712115  42.6100000  -8.8890000   3.4870000
  41.6463184  -9.2981554   3.7903289  43.3608795  -9.6789473   3.5032438
  42.9014021  -8.0971907   4.1770893  42.1670000  -9.4150000   1.0610000
  42.1682311  -8.9938161   0.0556632  42.9131986 -10.2070793   1.1234447
  41.1818639  -9.8264642   1.2807797  40.3220000  -5.3230000   0.8300000
  40.5870000  -4.1990000   1.2770000  39.1040000  -5.6630000   0.4310000
  38.9328557  -6.5061205  -0.0981094  37.9780000  -4.7980000   0.7300000
  38.1932772  -3.7899385   0.3756458  36.7000000  -5.2910000   0.0530000
  35.9651491  -4.4863786   0.0790364  36.9328641  -5.5362935  -0.9831976
  36.1680000  -6.4410000   0.7050000  35.3682444  -6.7227301   0.2548678
  37.8150000  -4.7840000   2.2620000  38.3220000  -5.6780000   2.9730000
  37.1260000  -3.7720000   2.7710000  36.8192977  -2.9951043   2.2031390
  36.8950000  -3.7090000   4.2220000  37.8516601  -3.6974320   4.7442707
  36.1220000  -2.4520000   4.5950000  36.7057606  -1.5912230   4.2688318
  35.1345482  -2.4161295   4.1348346  35.9130000  -2.2940000   6.0730000
  36.9040000  -1.7400000   6.8690000  37.8305250  -1.3992152   6.4069209
  36.7260000  -1.6170000   8.2410000  37.5118360  -1.1717994   8.8512121
  35.5490000  -2.0600000   8.8370000  35.4103497  -1.9572111   9.9132483
  34.5600000  -2.6280000   8.0670000  33.6350403  -2.9784601   8.5249601
  34.7500000  -2.7550000   6.6760000  33.9792731  -3.2193552   6.0608137
  36.1960000  -4.9830000   4.7430000  36.6160000  -5.5660000   5.7420000
  35.1390000  -5.4070000   4.0560000  34.7852991  -4.8482062   3.2926230
  34.4170000  -6.6340000   4.4130000  34.0726903  -6.5712617   5.4452858
  33.1950000  -6.8300000   3.4980000  32.5556527  -5.9525469   3.5950063
  33.5507732  -6.9078903   2.4706449  32.3950000  -8.0870000   3.8580000
  33.0461892  -8.9514616   3.7285414  32.1165594  -7.9965091   4.9079435
  31.1490000  -8.2650000   3.0200000  31.1710000  -7.8430000   1.8380000
  30.1640000  -8.8380000   3.5470000  35.3070000  -7.8810000   4.3610000
  35.2570000  -8.7150000   5.2660000  36.1150000  -8.0270000   3.3070000
  36.0799824  -7.3805840   2.5317455  37.0150000  -9.1870000   3.2080000
  36.4362414 -10.0990037   3.3542427  37.7140000  -9.2620000   1.8370000
  37.9291483  -8.2423310   1.5174916  38.6494131  -9.8054639   1.9702264
  36.8790000  -9.9500000   0.7900000  35.8425795  -9.6395797   0.9225615
  37.2263441  -9.6429939  -0.1965097  36.9480000 -11.4840000   0.8800000
  37.8190000 -12.0480000   1.5380000  36.0280000 -12.1510000   0.2060000
  36.0233635 -13.1607576   0.2276694  35.3335889 -11.6480516  -0.3277953
  38.0500000  -9.1910000   4.3230000  38.3120000 -10.2200000   4.9250000
  38.6260000  -8.0310000   4.6070000  38.4336834  -7.2240845   4.0308047
  39.5870000  -7.8910000   5.6930000  40.4234220  -8.5709971   5.5314406
  40.1310000  -6.4310000   5.7240000  39.3062502  -5.7389442   5.8941365
  40.8600165  -6.3313457   6.5281792  40.6077754  -6.2000575   4.7713983
  38.9460000  -8.2760000   7.0410000  39.5020000  -9.0600000   7.8060000
  37.7660000  -7.7260000   7.3120000  37.3564570  -7.0696306   6.6627288
  37.0550000  -8.0000000   8.5650000  37.6877514  -7.7249836   9.4088548
  35.7540000  -7.2010000   8.6490000  35.9909999  -6.1635366   8.4132035
  35.0759606  -7.5988949   7.8939886  35.0870000  -7.2710000  10.0180000
  34.1226472  -6.7698029   9.9347780  34.9295813  -8.3246721  10.2484267
  36.0460000  -6.5030000  11.3580000  35.6570000  -4.7620000  11.0040000
  34.5798763  -4.6089610  11.0709523  36.1601315  -4.1220962  11.7289017
  35.9975242  -4.5100339   9.9996805  36.7610000  -9.4950000   8.7050000
  37.0090000 -10.0780000   9.7370000  36.2160000 -10.1000000   7.6500000
  35.9853329  -9.5430621   6.8396222  35.9230000 -11.5430000   7.6120000
  35.1570308 -11.7894191   8.3473013  35.4070000 -11.9370000   6.2110000
  36.1182376 -11.5349091   5.4894993  35.4206970 -13.0259737   6.1657375
  34.0140000 -11.4350000   5.8810000  33.3148244 -11.9451575   6.5435660
  33.9767673 -10.3622954   6.0707912  33.5910000 -11.6900000   4.4350000
  34.3980000 -11.6150000   3.5000000  32.3090000 -11.9810000   4.2500000
  31.9645000 -12.1605149   3.3176934  31.6840662 -12.0215380   5.0424114
  37.1440000 -12.3920000   7.9220000  37.1400000 -13.2470000   8.8170000
  38.2100000 -12.1600000   7.1650000  38.1973482 -11.4244280   6.4729934
  39.3690000 -13.0460000   7.2120000  39.0347670 -14.0684426   7.3880645
  40.1920000 -13.0110000   5.8810000  40.9679103 -13.7753419   5.9239532
  39.2950000 -13.2720000   4.6980000  38.5190599 -12.5077417   4.6541149
  39.8842103 -13.2438716   3.7814090  38.8321799 -14.2533858   4.8018273
  40.8110000 -11.7410000   5.7180000  41.3121355 -11.7320123   4.8992309
  40.2720000 -12.7910000   8.4220000  40.8770000 -13.7170000   8.9380000
  40.3220000 -11.5460000   8.9010000  39.7445654 -10.8295684   8.4845935
  41.2620000 -11.1560000   9.9450000  42.0210073 -11.9286463  10.0675756
  41.9550000  -9.8450000   9.5740000  41.1847055  -9.0778179   9.4954048
  42.6364457  -9.5930273  10.3865525  42.7270000  -9.9200000   8.2730000
  43.4982659 -10.6850519   8.3621367  42.0414592 -10.1878661   7.4690202
  43.3640000  -8.6050000   7.9660000  42.6095736  -7.9201745   7.5787612
  43.7956657  -8.1915294   8.8774857  44.4210000  -8.7470000   6.9710000
  44.5071575  -9.6525461   6.5320665  45.2450000  -7.7820000   6.5950000
  45.1540000  -6.5740000   7.1310000  44.4509309  -6.3874357   7.8317051
  45.7881057  -5.8451166   6.8364857  46.1900000  -8.0350000   5.6860000
  46.2709591  -8.9607816   5.2904318  46.8194426  -7.2994117   5.3982315
  40.6850000 -11.0380000  11.3460000  41.4500000 -11.0990000  12.3260000
  39.3640000 -10.8760000  11.4400000  38.8213723 -10.7258642  10.6014812
  38.6850000 -10.7680000  12.7370000  39.3534394 -10.9905059  13.5687326
  38.1120000  -9.3390000  12.9300000  37.4083759  -9.1263747  12.1251380
  37.3880000  -9.2290000  14.2880000  38.0911453  -9.4410541  15.0934320
  36.9916873  -8.2207667  14.4084258  36.5689493  -9.9473587  14.3229042
  39.2620000  -8.3140000  12.8200000  39.7267412  -8.3926582  11.8371824
  38.8662847  -7.3073395  12.9546981  40.0057653  -8.5175631  13.5903740
  37.6110000 -11.8470000  12.9680000  37.7230000 -12.6330000  13.9290000
  36.5940000 -11.8900000  12.1070000  36.5608835 -11.2544777  11.3227079
  35.4720000 -12.8290000  12.2940000  35.0373705 -12.6609231  13.2793662
  34.3790000 -12.6600000  11.2440000  34.8410836 -12.7763098  10.2636684
  33.5943498 -13.4066631  11.3661403  33.6910000 -11.3010000  11.2430000
  33.7610000 -10.4250000  12.3290000  34.3375536 -10.7022793  13.2114976
  33.0990000  -9.2040000  12.2870000  33.1647013  -8.5292276  13.1405024
  32.3530000  -8.8380000  11.1620000  31.8401128  -7.8765811  11.1351630
  32.2680000  -9.6850000  10.0990000  31.6959411  -9.4082233   9.2134248
  32.9270000 -10.9270000  10.1510000  32.8431635 -11.6237894   9.3170001
  35.9290000 -14.2860000  12.2620000  35.6830000 -15.0400000  13.2040000
  36.6220000 -14.6650000  11.1950000  36.8034149 -14.0207099  10.4386415
  37.0180000 -16.0640000  11.0250000  36.1376872 -16.6981390  11.1299582
  37.6420000 -16.3190000   9.6570000  38.2512838 -15.4500783   9.4083082
  38.2818216 -17.1967693   9.7478265  36.6290000 -16.5480000   8.5700000
  36.2332610 -17.5577769   8.6788211  35.8221992 -15.8263636   8.6981222
  37.1990000 -16.3970000   7.1640000  38.3930000 -16.6300000   6.9180000
  36.3340000 -16.0020000   6.2280000  36.6458774 -15.8820055   5.2748813
  35.3713185 -15.8248084   6.4768954  37.9290000 -16.5550000  12.1560000
  37.6500000 -17.5860000  12.7420000  39.0280000 -15.8270000  12.4620000
  39.5540000 -14.6210000  11.8110000  38.9828976 -13.7497121  12.1316239
  39.4808879 -14.7244204  10.7283838  40.9720000 -14.5850000  12.2860000
  41.3063803 -13.5485753  12.3319653  41.5972663 -15.1371844  11.5844048
  40.9910000 -15.1990000  13.5810000  40.7612277 -14.4793447  14.3667480
  41.9629730 -15.6518523  13.7766860  39.9110000 -16.2810000  13.5350000
  40.3220872 -17.2392170  13.2173119  39.2370000 -16.4430000  14.9070000
  39.5760000 -17.3600000  15.6680000  38.2620000 -15.5860000  15.1990000
  38.0438956 -14.8454302  14.5477810  37.5470000 -15.6250000  16.4610000
  38.1790939 -16.0498913  17.2407589  37.1510000 -14.1890000  16.8740000
  36.5662674 -13.8183095  16.0321119  36.5217243 -14.2292073  17.7630982
  38.3300000 -13.2510000  17.1270000  38.9585519 -13.2131301  16.2372870
  37.8170000 -11.8520000  17.4460000  37.1886997 -11.8889915  18.3359265
  38.6616768 -11.1868980  17.6256141  37.2331556 -11.4779940  16.6049615
  39.1960000 -13.8130000  18.2550000  39.5694167 -14.7969622  17.9713141
  40.0372889 -13.1439120  18.4357082  38.5994847 -13.8993078  19.1631957
  36.3070000 -16.5410000  16.4170000  35.5650000 -16.6110000  17.3910000
  36.1170000 -17.2390000  15.3020000  36.7640768 -17.0955218  14.5398944
  34.9490000 -18.1220000  15.0750000  34.9007042 -18.4128641  14.0256360
  35.0690000 -19.3750000  15.9200000  35.0733964 -19.0845288  16.9705743
  34.2048600 -20.0093381  15.7225731  36.3430000 -20.1410000  15.6010000
  36.2956937 -20.4695953  14.5627861  37.1903983 -19.4677057  15.7302010
  36.5130000 -21.3450000  16.5040000  36.6063577 -21.0044074  17.5352032
  35.6352279 -21.9845334  16.4111954  37.7480000 -22.1260000  16.1180000
  37.8658659 -22.9588021  16.8112884  37.6160924 -22.5114429  15.1069939
  38.9590000 -21.2670000  16.1660000  39.0816516 -20.9100847  17.1028393
  39.7685018 -21.8114276  15.9044555  38.8501663 -20.4954808  15.5233396
  33.6250000 -17.4120000  15.3060000  32.6890000 -17.9520000  15.9140000
  33.5620000 -16.1840000  14.8130000  34.3987745 -15.7278180  14.4786263
  32.3190000 -15.4420000  14.7880000  31.6757058 -15.7706570  15.6042453
  32.5880000 -13.9410000  14.9500000  33.1136929 -13.6760368  14.0326447
  31.6451330 -13.3962203  14.9981338  33.4540000 -13.5710000  16.1600000
  34.4245838 -14.0588936  16.0704024  33.6480000 -12.0640000  16.2170000
  32.6778154 -11.5754025  16.3070726  34.2641784 -11.8088206  17.0791533
  34.1412759 -11.7259207  15.3056924  32.8780000 -14.0990000  17.4760000
  32.8089574 -15.1859540  17.4328321  33.5294216 -13.8092894  18.3005113
  31.8848170 -13.6783270  17.6332285  31.6560000 -15.7910000  13.4520000
  31.7150000 -15.0440000  12.4760000  31.0510000 -16.9730000  13.4060000
  31.0062634 -17.5417464  14.2394420  30.5220000 -17.5290000  12.1550000
  31.0954350 -17.1592945  11.3049475  30.6270000 -19.0570000  12.1890000
  30.0678145 -19.4288140  13.0475833  30.1955726 -19.4601900  11.2728078
  32.0650000 -19.5370000  12.3010000  32.9740000 -18.9380000  11.7350000
  32.2720000 -20.6200000  13.0320000  33.2089287 -20.9815659  13.1393990
  31.4921524 -21.0802649  13.4793194  29.0850000 -17.1120000  11.8160000
  28.5410000 -17.5210000  10.7930000  28.4860000 -16.2820000  12.6720000
  28.9571989 -16.0721922  13.5403615  27.1690000 -15.7260000  12.4550000
  26.8833072 -15.8344792  11.4087156  26.1510000 -16.4610000  13.3160000
  26.3430117 -16.3620172  14.3843787  25.1634616 -16.0608924  13.0862570
  26.0970000 -17.9270000  13.0250000  26.8450000 -18.8500000  13.7250000
  26.6150000 -20.0590000  13.2360000  27.1130331 -20.9321713  13.6574663
  25.7500000 -19.9500000  12.2470000  25.3773847 -20.7114159  11.6979066
  25.4290000 -18.6220000  12.0760000  24.7468400 -18.3243606  11.2796522
  27.2170000 -14.2220000  12.7540000  26.3600000 -13.6640000  13.4250000
  28.2760000 -13.6090000  12.2500000  28.9831438 -14.1855630  11.8168463
  28.5010000 -12.1760000  12.3150000  27.5935189 -11.6810574  12.6608454
  29.6460000 -11.8500000  13.2980000  30.5469779 -12.3746893  12.9801316
  29.9140000 -10.3530000  13.3240000  29.0135494  -9.8276359  13.6422465
  30.7238690 -10.1404179  14.0218683  30.1969082 -10.0166346  12.3265423
  29.2740000 -12.2760000  14.6160000  29.9841794 -12.0745903  15.2297423
  28.8250000 -11.7010000  10.8990000  29.6790000 -12.3020000  10.2120000
  28.1390000 -10.6470000  10.4640000  27.6639737 -10.0558336  11.1310619
  28.0930000 -10.2710000   9.0410000  28.9512609 -10.6880167   8.5141371
  26.8050000 -10.8220000   8.3980000  25.9500469 -10.2720488   8.7913295
  26.8366682 -10.7162930   7.3136001  26.5520000 -12.2550000   8.6770000
  25.6640000 -12.7730000   9.5840000  25.0618748 -12.0629532  10.1509026
  25.7340000 -14.1330000   9.5760000  25.1919447 -14.7539747  10.1596660
  26.6650000 -14.5210000   8.6560000  27.0890000 -15.8010000   8.2920000
  26.6318475 -16.6607358   8.7818619  28.0620000 -15.8940000   7.3330000
  28.4178461 -16.8780491   7.0278429  28.6120000 -14.7600000   6.7340000
  29.3846738 -14.8480777   5.9702480  28.1890000 -13.4770000   7.0950000
  28.6480098 -12.6179662   6.6056416  27.1980000 -13.3560000   8.0750000
  28.0400000  -8.7850000   8.8360000  27.3830000  -8.0900000   9.5920000
  28.6730000  -8.3190000   7.7650000  29.2984427  -8.9295928   7.2589396
  28.5170000  -6.9450000   7.2960000  28.2703557  -6.2706282   8.1160540
  29.7870000  -6.4380000   6.5770000  30.0407441  -7.1360085   5.7791915
  29.5580000  -5.0360000   5.9790000  29.3046489  -4.3372918   6.7763210
  30.4664421  -4.7011920   5.4782633  28.7407315  -5.0766253   5.2589160
  30.9830000  -6.4440000   7.5300000  30.9912328  -7.4162343   8.0227408
  31.8780466  -6.3405506   6.9165758  30.9590000  -5.3640000   8.5610000
  30.0644100  -5.4670781   9.1751526  31.8438231  -5.4440824   9.1924857
  30.9512215  -4.3913939   8.0689870  27.3290000  -6.9140000   6.3410000
  26.5240000  -5.9880000   6.3580000  27.2200000  -7.9570000   5.5090000
  27.9806334  -8.6198245   5.4620979  26.0670000  -8.1770000   4.6670000
  25.3205721  -7.4037784   4.8488598  26.4700000  -8.1280000   3.2030000
  27.2779090  -8.8431599   3.0483115  25.6190180  -8.4014341   2.5791703
  26.9500000  -6.7640000   2.7900000  26.1650000  -5.8480000   2.6770000
  28.2410000  -6.6330000   2.5460000  28.6103109  -5.7357544   2.2655367
  28.8532478  -7.4306453   2.6409494  25.4780000  -9.5520000   5.0010000
  26.1760000 -10.5600000   4.8860000  24.2220000  -9.5680000   5.4270000
  23.6946908  -8.7072538   5.4610634  23.5760000 -10.7920000   5.8810000
  24.2250133 -11.3387722   6.5650476  22.2460000 -10.5170000   6.5840000
  21.5920502  -9.9777195   5.8987078  21.5700000 -11.8280000   7.0110000
  22.2231999 -12.3676550   7.6967138  20.6261005 -11.6054023   7.5085988
  21.3801748 -12.4428521   6.1312132  22.4440000  -9.5990000   7.8370000
  22.8749345  -8.6472315   7.5263004  21.4802337  -9.4222636   8.3145128
  23.1148597 -10.0875747   8.5436420  23.3550000 -11.6780000   4.6360000
  22.6840000 -11.2500000   3.7030000  23.9260000 -12.8830000   4.6200000
  24.7920000 -13.5100000   5.6300000  24.1775418 -13.8735369   6.4536397
  25.5000366 -12.7706680   6.0043946  25.4620000 -14.6120000   4.8870000
  25.4958455 -15.4801686   5.5452073  26.4779598 -14.2879501   4.6613484
  24.7140000 -14.9040000   3.6470000  24.1950945 -15.8543119   3.7724725
  25.3751721 -14.9630274   2.7824383  23.6950000 -13.7760000   3.4500000
  23.8741479 -13.1902079   2.5484170  22.2810000 -14.3610000   3.4050000
  21.6160000 -14.4700000   4.4400000  21.7990000 -14.7400000   2.2070000
  22.3930000 -14.5650000   0.8710000  23.2611834 -15.2155683   0.7655547
  22.6986825 -13.5274068   0.7366215  21.2530000 -14.9580000  -0.0550000
  21.6631179 -15.4034390  -0.9613589  20.6784204 -14.0691271  -0.3155085
  20.4430000 -15.8980000   0.6720000  20.8393214 -16.9120060   0.6188946
  19.4170952 -15.8896826   0.3038292  20.4830000 -15.3960000   2.1270000
  19.7432806 -14.6176951   2.3144965  20.2550000 -16.5610000   3.0970000
  19.1560000 -16.7220000   3.6140000  21.2890000 -17.3540000   3.3490000
  22.1560521 -17.1660912   2.8662887  21.2320000 -18.5060000   4.2500000
  20.5025020 -19.2196455   3.8670614  22.6050000 -19.1800000   4.2820000
  23.3446295 -18.4806666   4.6718475  22.5635933 -20.0597232   4.9242404
  22.8864181 -19.4805106   3.2727446  20.8100000 -18.1250000   5.6730000
  20.2210000 -18.9340000   6.4040000  21.1220000 -16.8870000   6.0430000
  21.5867395 -16.2754574   5.3871553  20.9240000 -16.4140000   7.4090000
  20.6713130 -17.2389997   8.0750510  22.2430000 -15.7780000   7.8910000
  22.2504287 -14.7507776   7.5265028  22.2134758 -15.7761433   8.9805985
  23.5550000 -16.5230000   7.3990000  23.3679214 -16.7095360   6.3414998
  24.4013566 -15.8441323   7.5034909  23.8760000 -17.8610000   8.1100000
  23.3750000 -18.0830000   9.2350000  24.6850000 -18.6800000   7.5710000
  19.7090000 -15.4620000   7.5370000  19.3430000 -15.0480000   8.6400000
  19.0420000 -15.1570000   6.4220000  19.3776504 -15.5081524   5.5364888
  17.8890000 -14.2240000   6.4170000  18.2018054 -13.2522241   6.7989733
  17.3460000 -14.0400000   4.9980000  17.2553159 -15.0289101   4.5486310
  16.3582190 -13.5863134   5.0789768  18.2140000 -13.1870000   4.1460000
  18.2987658 -12.2143882   4.6307080  19.1972599 -13.6548621   4.0969681
  17.6670000 -13.0050000   2.7340000  16.6820000 -13.6870000   2.3680000
  18.2290000 -12.1790000   1.9930000  16.7430000 -14.5910000   7.3630000
  16.1050000 -13.6960000   7.9410000  16.5040000 -15.8890000   7.5530000
  17.0302676 -16.5704817   7.0250565  15.4620000 -16.3710000   8.4680000
  14.5024007 -15.9264399   8.2041162  15.3370000 -17.8950000   8.3770000
  14.3660193 -18.1638965   8.7929210  15.3640755 -18.1577785   7.3194961
  16.4430000 -18.6590000   9.1230000  17.4019889 -18.2467533   8.8091628
  16.3053851 -18.4856552  10.1902937  16.4190000 -20.1560000   8.8450000
  15.4373348 -20.5417603   9.1199933  16.5841204 -20.3110798   7.7787988
  17.4890000 -20.8880000   9.6340000  17.4638994 -20.5214859  10.6602251
  17.2506534 -21.9515607   9.6226563  18.8650000 -20.6760000   9.0590000
  19.0862245 -19.6905851   9.0698172  19.5427611 -21.1793289   9.6134366
  18.8885925 -21.0159438   8.1082210  15.7290000 -15.9660000   9.9340000
  14.8000000 -15.9100000  10.7490000  16.9970000 -15.7140000  10.2480000
  17.7033325 -15.8360790   9.5364591  17.4270000 -15.3230000  11.5950000
  16.6928093 -15.6463204  12.3329208  18.7620000 -15.9780000  11.9180000
  19.4524808 -15.7929478  11.0951445  19.1592855 -15.5355063  12.8314898
  18.6390000 -17.4670000  12.1180000  17.6970000 -17.9410000  12.7470000
  19.5840000 -18.2090000  11.5880000  19.5511424 -19.2131423  11.6915297
  20.3392730 -17.7720876  11.0793046  17.5540000 -13.8150000  11.8130000
  17.7800000 -13.3640000  12.9320000  17.4240000 -13.0400000  10.7470000
  17.2437244 -13.4502224   9.8418384  17.6180000 -11.6070000  10.8250000
  18.4291699 -11.3652284  11.5117671  17.9840000 -11.0830000   9.4300000
  18.7510692 -11.7383359   9.0173999  17.0545500 -11.2194010   8.8771732
  18.4330000  -9.6470000   9.3120000  18.7280000  -8.8480000  10.4210000
  18.6212011  -9.2640654  11.4227899  19.1600000  -7.5160000  10.2530000
  19.3580811  -6.8830299  11.1179939  19.3430000  -7.0160000   8.9700000
  19.7740000  -5.7190000   8.7270000  19.9277812  -5.2179434   9.5312968
  19.0840000  -7.8140000   7.8870000  19.2365376  -7.4152429   6.8840915
  18.6380000  -9.1000000   8.0530000  18.4342245  -9.7228768   7.1820235
  16.3590000 -10.9470000  11.4000000  15.2970000 -10.9010000  10.7610000
  16.4680000 -10.4560000  12.6300000  17.3018639 -10.6276019  13.1734364
  15.3770000  -9.7160000  13.2530000  14.5025948 -10.3664724  13.2730074
  15.7550000  -9.3400000  14.7260000  16.6235324  -8.6814142  14.7219583
  14.9152861  -8.8301834  15.1983006  15.9895724 -10.2464053  15.2841258
  15.0010000  -8.4540000  12.4810000  15.8470000  -7.8190000  11.8540000
  13.7190000  -8.0950000  12.5220000  13.0206276  -8.7646433  12.8117469
  13.2790000  -6.7610000  12.1380000  13.8456580  -6.4303222  11.2675690
  11.7930000  -6.7440000  11.7880000  11.2943061  -7.4112611  12.4909696
  11.2944414  -5.7747091  11.7918043  11.5870000  -7.3250000  10.4280000
  11.1540000  -8.5890000  10.1320000  10.8815538  -9.2255847  10.9738033
  11.1590000  -8.7860000   8.7650000  10.8818026  -9.6339565   8.2914697
  11.6180000  -7.6470000   8.1550000  11.8080000  -7.3630000   6.7930000
  11.5612431  -8.1331032   6.0621438  12.2950000  -6.1270000   6.4670000
  12.4494559  -5.8725007   5.4184422  12.6010000  -5.1780000   7.4470000
  12.9901679  -4.1973571   7.1731618  12.4180000  -5.4560000   8.8060000
  12.6494330  -4.6749181   9.5301896  11.9190000  -6.7110000   9.1720000
  13.5460000  -5.8120000  13.2920000  13.4050000  -6.1900000  14.4560000
  13.9850000  -4.6020000  12.9600000  14.2957573  -4.4207225  12.0162481
  14.0340000  -3.5170000  13.9200000  14.2328298  -3.8913775  14.9241949
  14.7962494  -2.7871018  13.6473761  12.6790000  -2.8430000  13.9050000
  11.9420000  -2.9550000  12.9330000  12.3410000  -2.1850000  14.9910000
  12.9537382  -2.1786378  15.7938766  11.0390000  -1.5320000  15.1080000
  10.5602539  -1.4985593  14.1293361  10.1250000  -2.2900000  16.0740000
  10.6027981  -2.4566756  17.0394157   9.2516439  -1.6514839  16.2068395
   9.6970000  -3.6100000  15.4920000   8.6010000  -3.6920000  14.6340000
   8.0324201  -2.7859709  14.4244106   8.2290000  -4.8950000  14.0510000
   7.3598987  -4.9451890  13.3950687   8.9650000  -6.0350000  14.3110000
   8.6050000  -7.2240000  13.7430000   7.8284348  -7.1523750  13.1831643
  10.0710000  -5.9800000  15.1410000  10.6578151  -6.8774332  15.3368624
  10.4340000  -4.7660000  15.7290000  11.3045578  -4.7159676  16.3830076
  11.2090000  -0.0820000  15.5200000  11.7800000   0.2120000  16.5550000
  10.7000000   0.7960000  14.6630000  10.2889311   0.4609731  13.8034195
  10.7310000   2.2300000  14.8990000  11.0288752   2.4190001  15.9303334
  11.7220000   2.9300000  13.9680000  12.6731255   2.4044310  14.0530689
  11.3402746   2.8272294  12.9522127  11.9280000   4.4100000  14.2870000
  10.9669837   4.9176567  14.2043377  12.2961727   4.4944505  15.3094573
  12.9160000   5.0480000  13.3430000  13.9216531   4.7141138  13.5985013
  12.6817662   4.7458237  12.3222535  12.8730000   6.5060000  13.4210000
  13.5696403   6.9476579  14.0038636  11.9930000   7.2800000  12.7830000
  11.0530000   6.7530000  12.0040000  10.9995107   5.7509196  11.8896597
  10.3968293   7.3572166  11.5302258  12.0500000   8.5970000  12.9270000
  12.7586620   9.0070697  13.5183891  11.3844888   9.1839491  12.4446264
   9.3280000   2.7660000  14.6740000   8.7810000   2.6540000  13.5740000
   8.7550000   3.3280000  15.7370000   9.2665667   3.3608625  16.6072407
   7.3880000   3.8400000  15.7180000   7.0748530   4.0901504  16.7316385
   7.2940000   5.1100000  14.8450000   7.6532197   4.8397706  13.8520063
   6.2391916   5.3788642  14.7885089   8.0990000   6.3060000  15.3720000
   7.6610210   6.5929120  16.3280109   9.1232573   5.9678739  15.5290568
   8.0990000   7.5050000  14.4340000   7.6400000   7.3810000  13.2790000
   8.5680000   8.5800000  14.8610000   6.4400000   2.7510000  15.2200000
   5.5810000   3.0020000  14.3820000   6.6390000   1.5320000  15.7200000
   7.3825245   1.3960044  16.3899073   5.8250000   0.3740000  15.3410000
   6.0420740  -0.3862736  16.0913081   4.7914778   0.7036879  15.4470053
   6.0130000  -0.2290000  13.9560000   5.3290000  -1.1950000  13.6080000
   6.9350000   0.3140000  13.1660000   7.4821377   1.0963322  13.4956908
   7.1770000  -0.1780000  11.8170000   6.3472457  -0.8126467  11.5058240
   7.3040000   0.9720000  10.8330000   8.1292681   1.5989304  11.1706242
   7.5483857   0.5427791   9.8613287   6.0440000   1.8150000  10.7120000
   5.2270972   1.1786188  10.3717212   5.8004070   2.2250470  11.6921153
   6.2440000   2.9420000   9.7320000   5.4915077   3.7038620   9.9355202
   7.2371718   3.3599825   9.8963162   6.1210000   2.4820000   8.2900000
   6.8582888   1.6990706   8.1124407   5.1197297   2.0782834   8.1397674
   6.3510000   3.6050000   7.3390000   7.2789039   3.9789546   7.4777515
   6.2624042   3.2671154   6.3913267   5.6676483   4.3304018   7.5030787
   8.4490000  -0.9970000  11.7770000   9.4520000  -0.6210000  12.3910000
   8.3960000  -2.0960000  11.0340000   7.5193780  -2.3532721  10.6033677
   9.5610000  -2.9790000  10.8310000  10.0978105  -3.1328476  11.7670900
   9.1340000  -4.3220000  10.2940000   8.6029845  -4.1850827   9.3519935
  10.0136941  -4.9437209  10.1275617   8.4762606  -4.8092525  11.0137660
  10.5190000  -2.3050000   9.8590000  10.1190000  -1.8850000   8.7640000
  11.7790000  -2.2050000  10.2660000  12.0381343  -2.6190347  11.1500385
  12.7970000  -1.4920000   9.5150000  12.5956005  -1.5030693   8.4438255
  12.9400000  -0.0130000   9.9790000  13.7147233   0.4626908   9.3776504
  11.6290000   0.7570000   9.8220000  10.8538564   0.2821399  10.4234660
  11.7686165   1.7850956  10.1561065  11.3282892   0.7536502   8.7743057
  13.4380000   0.0830000  11.4340000  14.4126346  -0.3978570  11.5174619
  13.5248072   1.1310965  11.7204574  12.7293440  -0.4162364  12.0948105
  14.1480000  -2.1940000   9.6550000  14.4190000  -2.8490000  10.6630000
  14.9520000  -2.0820000   8.6030000  14.5715288  -1.6778580   7.7591930
  16.3320000  -2.4930000   8.6010000  16.6050433  -2.8398814   9.5976041
  16.5810000  -3.6270000   7.6030000  15.9687993  -3.4616383   6.7164533
  17.6323238  -3.6593942   7.3170475  16.2340000  -4.9910000   8.1150000
  15.7700000  -5.9880000   7.2830000  15.5460000  -7.0800000   7.9950000
  15.1556699  -7.9790654   7.5181113  15.8700000  -6.8370000   9.2520000
  15.8189908  -7.4924780  10.0187115  16.2940000  -5.5330000   9.3560000
  16.5960760  -5.1337066  10.3242025  17.1800000  -1.2910000   8.2000000
  16.7100000  -0.3830000   7.5320000  18.4360000  -1.3180000   8.5980000
  18.7449029  -2.0515888   9.2197121  19.3790000  -0.2610000   8.2540000
  19.0490403   0.7423915   8.5231306  20.7780000  -0.5230000   8.9150000
  20.6339955  -0.6224043   9.9908628  21.4370000  -1.7860000   8.3720000
  21.5817611  -1.6871482   7.2961871  22.4028590  -1.9294945   8.8563824
  20.7982058  -2.6456364   8.5746547  21.6810000   0.7030000   8.7790000
  21.2138942   1.5554454   9.2722049  22.6451616   0.4981656   9.2443331
  21.8287111   0.9307925   7.7233519  19.4960000  -0.0920000   6.7400000
  19.5540000  -1.0750000   6.0010000  19.5510000   1.1650000   6.2990000
  19.4653820   1.9337280   6.9484815  19.7100000   1.4740000   4.8700000
  19.2667629   0.6837702   4.2640488  19.0100000   2.7900000   4.5430000
  19.4402326   3.5821701   5.1557526  19.1650104   3.0216821   3.4892471
  17.6070000   2.6910000   4.8080000  17.1819250   3.5256246   4.5974937
  21.1870000   1.5790000   4.4840000  22.0060000   1.9950000   5.3020000
  21.5180000   1.2560000   3.2220000  20.6510000   0.7050000   2.1610000
  20.0755334   1.5077613   1.7000090  19.9696264  -0.0319160   2.5861869
  21.6210000   0.1030000   1.2360000  21.1944182   0.0415832   0.2348232
  21.8918979  -0.8962581   1.5768798  22.7860000   1.0040000   1.2700000
  22.5519702   1.8606377   0.6379391  23.7327847   0.5669153   0.9527379
  22.8790000   1.4460000   2.7310000  23.5593737   0.8496380   3.3388999
  23.2770000   2.8950000   2.8090000  22.4370000   3.7780000   2.6410000
  24.5500000   3.1330000   3.0980000  25.1753296   2.3620459   3.2842581
  25.0850000   4.4850000   3.1570000  24.6442832   5.0964090   2.3695694
  24.8676673   4.9313041   4.1274012  26.5840000   4.4370000   2.9620000
  27.2100000   3.3820000   3.1340000  27.1750000   5.5710000   2.6080000
  26.6452277   6.4129009   2.4329469  28.6310000   5.6150000   2.4280000
  28.9503266   4.8679522   1.7013299  29.0810000   7.0200000   1.9280000
  28.7763242   7.7778427   2.6497666  30.1654476   7.0374638   1.8195170
  28.6165568   7.2292215   0.9643516  29.3060000   5.2850000   3.7480000
  28.8770000   5.7550000   4.7870000  30.3480000   4.4680000   3.6840000
  30.5610021   4.0411445   2.7937619  31.1280000   4.0470000   4.8680000
  31.7984823   3.2307797   4.5990445  31.9690000   5.2190000   5.3980000
  31.2106414   5.9616496   5.6459174  32.5006524   4.9270553   6.3036567
  32.9600000   5.8170000   4.3950000  32.4132679   6.0626882   3.4846033
  33.6470000   7.0830000   4.9380000  34.1943527   6.8379890   5.8482052
  34.3400367   7.4697814   4.1908715  32.8937629   7.8389531   5.1599667
  33.9960000   4.7650000   3.9530000  33.4841627   3.9257790   3.4820115
  34.6887688   5.2133802   3.2408709  34.5488017   4.4107748   4.8230769
  30.2500000   3.4170000   5.9680000  30.5250000   3.5490000   7.1660000
  29.1910000   2.7230000   5.5530000  28.9398081   2.7115333   4.5748024
  28.2920000   2.0760000   6.5070000  28.1079026   2.7620007   7.3338073
  26.9350000   1.6850000   5.8780000  26.3938253   1.1002469   6.6218367
  26.4009364   2.6164137   5.6899986  27.0390000   0.8800000   4.5690000
  28.1270000   0.5260000   4.0630000  25.9410000   0.5950000   4.0440000
  28.9520000   0.8780000   7.1840000  28.8830000   0.7510000   8.4060000
  29.6150000   0.0340000   6.4050000  29.6440479   0.1924324   5.4079269
  30.2780000  -1.1750000   6.9430000  29.5227639  -1.8416452   7.3592953
  31.0200000  -1.9100000   5.8430000  31.7858664  -1.2583238   5.4224447
  31.4898066  -2.8031284   6.2549510  30.3182884  -2.1974704   5.0600180
  31.2400000  -0.8060000   8.0740000  31.3030000  -1.4620000   9.1040000
  31.9580000   0.2860000   7.8540000  31.7842453   0.7921691   6.9974362
  33.0160000   0.7560000   8.7280000  33.6489168  -0.0681337   9.0571189
  33.8740000   1.7450000   7.9340000  33.1951128   2.5130054   7.5633531
  34.5702023   2.1889049   8.6455833  34.6560000   1.1460000   6.7610000
  35.5398122   1.7726277   6.6413562  34.9595566   0.1457256   7.0698750
  33.9170000   1.0640000   5.4490000  32.7100000   1.3740000   5.3730000
  34.5620000   0.6670000   4.4530000  32.5480000   1.4050000  10.0420000
  33.2650000   1.3690000  11.0450000  31.3710000   2.0200000  10.0270000
  30.8133000   2.0004523   9.1851639  30.8980000   2.8130000  11.1480000
  31.7192413   2.8709208  11.8623579  30.5510000   4.2330000  10.6840000
  29.7240962   4.1922359   9.9750088  30.2617847   4.8364462  11.5444112
  31.4201478   4.6809748  10.2023364  29.7240000   2.1670000  11.8700000
  29.5630000   2.3190000  13.0840000  28.8730000   1.4420000  11.1420000
  29.0059188   1.2635627  10.1568137  27.6450000   0.9640000  11.7730000
  27.8436143   0.6291562  12.7911017  26.6310000   2.1110000  11.8240000
  25.7199668   1.7262668  12.2823647  27.0825855   2.8534591  12.4819704
  26.2930000   2.7560000  10.4890000  25.3360000   2.2010000   9.6320000
  24.8458099   1.2749001   9.9322534  25.0060000   2.8010000   8.4250000
  24.2508846   2.3537396   7.7785786  25.6230000   3.9640000   8.0530000
  25.3080000   4.5490000   6.8490000  24.6472320   4.0581701   6.3549642
  26.5820000   4.5520000   8.8890000  27.0742979   5.4793670   8.5961967
  26.9040000   3.9460000  10.0970000  27.6446586   4.4010166  10.7546358
  26.9960000  -0.2650000  11.1370000  25.8150000  -0.5340000  11.4010000
  27.7540000  -1.0200000  10.3470000  28.7583734  -0.9150118  10.3293691
  27.1480000  -2.0260000   9.4800000  26.1208689  -1.6896399   9.3387105
  27.6894815  -1.9440975   8.5375621  27.1360000  -3.4790000   9.9180000
  26.6790000  -4.3270000   9.1580000  27.5840000  -3.7930000  11.1310000
  27.9142769  -3.0859242  11.7721399  27.6960000  -5.1980000  11.5290000
  27.8196170  -5.8555281  10.6684915  28.8660000  -5.4220000  12.4870000
  28.7309837  -4.7856726  13.3616184  28.9360000  -6.8840000  12.9270000
  29.0714843  -7.5209491  12.0529057  29.7761662  -7.0191493  13.6081431
  28.0103400  -7.1560469  13.4341940  30.1740000  -4.9680000  11.7990000
  30.1038169  -3.9100862  11.5460280  31.0141953  -5.1242992  12.4755663
  30.3274581  -5.5490812  10.8896617  26.3860000  -5.7120000  12.1460000
  25.7230000  -4.9800000  12.8900000  26.0290000  -6.9420000  11.7820000
  26.5453701  -7.3804331  11.0328420  24.9120000  -7.6730000  12.3730000
  24.4461780  -7.0607334  13.1451649  23.8510000  -8.0210000  11.3150000
  24.3197512  -8.6897017  10.5930515  23.0438750  -8.5464620  11.8254301
  23.2800000  -6.7920000  10.5810000  22.2330920  -6.9914945  10.3523376
  23.3479936  -5.9359845  11.2523541  24.0310000  -6.4870000   9.2930000
  25.0952788  -6.4141430   9.5168335  23.8633694  -7.3015730   8.5883936
  23.5570000  -5.1950000   8.6870000  22.5283391  -5.3424369   8.3580323
  23.5827793  -4.4350067   9.4679256  24.3760000  -4.7560000   7.5500000
  24.3518984  -5.4598957   6.8260872  24.0102599  -3.8872591   7.1872006
  25.3291304  -4.6189123   7.8547104  25.4680000  -8.9340000  13.0240000
  26.3550000  -9.5920000  12.4750000  24.9630000  -9.2710000  14.2040000
  24.2204893  -8.7265903  14.6192052  25.4910000 -10.4110000  14.9550000
  25.7978377 -11.2039917  14.2730074  26.7070000  -9.9670000  15.7660000
  27.3074403  -9.3109390  15.1357979  26.3465489  -9.4094807  16.6304925
  27.5000000 -11.0560000  16.2040000  28.2480359 -10.7253279  16.7066908
  24.4490000 -11.0170000  15.8870000  23.4070000 -10.4170000  16.1510000
  24.7720000 -12.2040000  16.3800000  25.6393465 -12.6192532  16.0711728
  23.9460000 -12.9490000  17.3370000  22.9096172 -12.6114436  17.3289014
  23.9730000 -14.4740000  17.0520000  23.2569658 -14.9701681  17.7071431
  23.6040000 -14.7540000  15.5830000  24.3199103 -14.2585021  14.9272151
  23.6277857 -15.8283131  15.4002852  22.6028076 -14.3736077  15.3804756
  25.2700000 -15.0340000  17.3780000  25.2667327 -15.9764292  17.1951973
  24.4690000 -12.7050000  18.7460000  25.6120000 -12.2580000  18.9350000
  23.6440000 -13.0470000  19.7300000  22.6905099 -13.3077668  19.5227400
  24.0370000 -12.9250000  21.1220000  24.4906344 -11.9588906  21.3432411
  22.8150000 -13.1560000  22.0700000  21.9750755 -12.5726383  21.6927516
  22.4140000 -14.6500000  22.1430000  23.2533259 -15.2339777  22.5206278
  21.5613475 -14.7655958  22.8121204  22.1446780 -15.0034924  21.1477071
  23.1230000 -12.5860000  23.4430000  22.2992220 -12.8628332  24.1009163
  24.0407650 -13.0594041  23.7918487  23.2980000 -11.0560000  23.4560000
  22.3804139 -10.5818519  23.1076910  23.5156675 -10.7232841  24.4708991
  24.1219561 -10.7784226  22.7986211  25.2290000 -13.8490000  21.4530000
  26.1020000 -13.4900000  22.2570000  25.2990000 -15.0200000  20.8030000
  24.5373787 -15.3064094  20.2046673  26.3960000 -15.9400000  21.0040000
  26.5528086 -16.0912922  22.0719986  26.1030000 -17.3030000  20.3520000
  25.8576401 -17.1296842  19.3042121  27.0064798 -17.9092367  20.4175854
  24.9690000 -18.0230000  21.0180000  25.2106788 -18.0962038  22.0783459
  24.0791720 -17.4065371  20.8904118  24.7050000 -19.4190000  20.4590000
  25.2540000 -19.7570000  19.3920000  23.9490000 -20.1650000  21.0990000
  27.7180000 -15.3710000  20.4970000  28.7310000 -15.3830000  21.2080000
  27.7030000 -14.8700000  19.2630000  26.8816342 -14.9199067  18.6773662
  28.9210000 -14.3090000  18.6970000  29.7317633 -15.0290005  18.8081814
  28.7580000 -13.9810000  17.2090000  27.7421986 -13.6062461  17.0832772
  29.4688473 -13.2000735  16.9389076  28.9670000 -15.1890000  16.3100000
  29.0320000 -16.3430000  16.8230000  29.0940000 -14.9600000  15.0880000
  29.3570000 -13.0720000  19.4790000  30.5540000 -12.8490000  19.6690000
  28.3930000 -12.2830000  19.9440000  27.4203866 -12.4592449  19.7364905
  28.7360000 -11.0650000  20.6820000  29.5392966 -10.5394704  20.1656355
  27.5390000 -10.1380000  20.7870000  26.6896865 -10.7323781  21.1238687
  27.7721750  -9.3812916  21.5360807  27.1880000  -9.4510000  19.4570000
  26.8230327 -10.2213346  18.7776736  26.3893498  -8.7371699  19.6587586
  28.5750000  -8.5880000  18.6860000  28.8130000  -7.2450000  19.8560000
  29.0426494  -7.6554781  20.8392944  29.6383296  -6.6151628  19.5239806
  27.9025870  -6.6485782  19.9154189  29.3130000 -11.4110000  22.0490000
  30.2390000 -10.7440000  22.5400000  28.8000000 -12.4720000  22.6620000
  27.9567006 -12.9173822  22.3294642  29.4000000 -12.9620000  23.9020000
  29.4284884 -12.1421614  24.6197411  28.5670000 -14.1230000  24.5080000
  28.5369594 -14.9550576  23.8045245  29.0261619 -14.4523416  25.4400970
  27.5520559 -13.7780965  24.7055585  30.8500000 -13.3730000  23.6470000
  31.7530000 -13.0430000  24.4310000  31.0810000 -14.0760000  22.5400000
  30.3044902 -14.3955811  21.9787515  32.4310000 -14.4880000  22.1550000
  32.9216440 -14.9938231  22.9865712  32.3580000 -15.4440000  20.9820000
  31.5647464 -16.1588054  21.2008635  32.0845572 -14.8554346  20.1062604
  33.6390000 -16.1850000  20.7080000  34.3525761 -15.4903689  20.2648323
  34.0333763 -16.5558785  21.6540542  33.4140000 -17.3510000  19.7620000
  32.7148819 -18.0569889  20.2102327  33.0060501 -16.9850739  18.8197822
  34.6700000 -18.0450000  19.4900000  35.1740415 -17.7350172  18.6714939
  35.1900000 -19.0310000  20.2220000  34.5640000 -19.4980000  21.3050000
  33.6774855 -19.1014700  21.5824096  34.9798609 -20.2456392  21.8418379
  36.3590000 -19.5610000  19.8620000  36.8370316 -19.2129510  19.0431913
  36.7613046 -20.3081760  20.4097023  33.3420000 -13.2730000  21.8440000
  34.5230000 -13.2700000  22.1820000  32.7760000 -12.2420000  21.2200000
  31.8586562 -12.3436403  20.8098185  33.4830000 -10.9670000  21.0380000
  34.4108087 -11.1158922  20.4856401  32.5870000 -10.0220000  20.2410000
  32.3538207 -10.5058782  19.2925336  31.6637757  -9.8344934  20.7892683
  33.1690000  -8.6770000  19.9060000  32.6230000  -7.4560000  20.2000000
  31.6799146  -7.4562383  20.7465250  33.4280000  -6.4480000  19.7150000
  33.2260107  -5.4601559  19.7738551  34.5170000  -7.0010000  19.0980000
  35.5860000  -6.3830000  18.4260000  35.5879311  -5.2958774  18.3468843
  36.5690000  -7.1940000  17.9070000  37.4414628  -6.7491255  17.4284656
  36.4720000  -8.5970000  17.9810000  37.2344444  -9.2347084  17.5336678
  35.3890000  -9.2190000  18.6340000  35.3723507 -10.3074074  18.6905047
  34.3880000  -8.4090000  19.1930000  33.9110000 -10.3340000  22.3720000
  35.0520000  -9.9090000  22.5260000  33.0150000 -10.3190000  23.3540000
  32.0610741 -10.6022399  23.1810845  33.3590000  -9.8190000  24.6830000
  33.8035578  -8.8255034  24.6244167  32.1310000  -9.7570000  25.6250000
  31.6018219 -10.7089757  25.5824318  32.5790000  -9.4830000  27.0740000
  33.1078857  -8.5309008  27.1174511  31.7046910  -9.4423411  27.7236393
  33.2417154 -10.2817024  27.4071430  31.1630000  -8.6860000  25.1400000
  30.8306481  -8.9263345  24.1301072  30.3009261  -8.6462582  25.8058445
  31.6636153  -7.7177684  25.1364223  34.4680000 -10.6740000  25.3110000
  35.4590000 -10.1230000  25.8330000  34.3160000 -12.0010000  25.2410000
  33.4774101 -12.4075922  24.8517070  35.3480000 -12.9040000  25.7680000
  35.4428410 -12.7479494  26.8425942  35.0040000 -14.3780000  25.5150000
  34.7665614 -14.4517282  24.4537336  35.9159917 -14.9377516  25.7224833
  33.8650000 -14.9520000  26.3270000  34.1548789 -14.9812379  27.3773410
  32.9922664 -14.3096854  26.2092289  33.4910000 -16.3770000  25.8800000
  33.2950000 -16.6460000  24.6800000  33.3970000 -17.2920000  26.8500000
  33.1548130 -18.2450075  26.6192976  33.5685966 -17.0261406  27.8091531
  36.7160000 -12.5960000  25.1410000  37.7450000 -12.5840000  25.8310000
  36.7340000 -12.3600000  23.8290000  35.8766754 -12.3727078  23.2952094
  37.9960000 -12.1180000  23.1150000  38.7068146 -12.9144682  23.3351825
  37.7520000 -12.0860000  21.6170000  37.1004986 -11.2433268  21.3855979
  38.7074155 -11.9562362  21.1086276  37.1390000 -13.2960000  21.1750000
  36.9943693 -13.2536630  20.2269022  38.6470000 -10.8080000  23.5560000
  39.8690000 -10.7220000  23.6530000  37.8200000  -9.7940000  23.8070000
  36.8347880  -9.8996441  23.6113066  38.3060000  -8.4780000  24.2480000
  39.2541075  -8.2506810  23.7606424  37.2960000  -7.3890000  23.8840000
  36.2848095  -7.7301690  24.1058036  37.5244194  -6.5125751  24.4904684
  37.3650000  -6.9980000  22.4240000  38.0890000  -6.0720000  22.0660000
  36.6410000  -7.7130000  21.5600000  36.6610407  -7.4824090  20.5768795
  36.0764789  -8.4813049  21.8933531  38.6570000  -8.4520000  25.7410000
  39.4870000  -7.6480000  26.1710000  38.0160000  -9.3320000  26.5140000
  37.3000354  -9.9052824  26.0911037  38.3050000  -9.5190000  27.9480000
  38.2709065  -8.5542573  28.4541703  37.2710000 -10.4600000  28.6080000
  36.9387265 -11.0440203  27.7497379  37.8241360 -11.1032697  29.2923571
  36.0590000  -9.8780000  29.3260000  35.5658982  -9.1627137  28.6677318
  35.0830000 -10.9800000  29.6970000  35.5752787 -11.6954754  30.3556771
  34.2233204 -10.5475216  30.2088733  34.7486327 -11.4893698  28.7932072
  36.4410000  -9.0640000  30.5730000  37.0860830  -8.2347433  30.2826541
  35.5384217  -8.6740373  31.0435133  36.9697190  -9.7052726  31.2782125
  39.6750000 -10.1380000  28.1600000  40.3890000  -9.7770000  29.0910000
  40.0130000 -11.0940000  27.3020000  39.4067182 -11.2559021  26.5106029
  41.2110000 -11.9330000  27.4450000  41.9131141 -11.4745349  28.1413797
  40.8070000 -13.3160000  27.9920000  39.7659506 -13.4739523  27.7102795
  41.4349327 -14.0498806  27.4868072  40.9530000 -13.4730000  29.4870000
  41.7934007 -12.8666201  29.8248328  40.0387457 -13.1265606  29.9688929
  41.2010000 -14.9420000  29.8570000  40.2662891 -15.4882867  29.7305670
  41.9509978 -15.3436469  29.1756172  41.6860000 -15.0930000  31.2900000
  42.6493121 -14.5910482  31.3804150  40.9630437 -14.6121009  31.9489153
  41.8340000 -16.5240000  31.6760000  42.5041873 -16.9696891  31.0658280
  42.1567694 -16.5833763  32.6311934  40.9413926 -16.9892010  31.5926989
  41.9200000 -12.1170000  26.1050000  41.9060000 -13.2060000  25.5440000
  42.5250000 -11.0480000  25.5660000  42.5860000  -9.6860000  26.1120000
  42.9145820  -9.7284123  27.1504293  41.5956188  -9.2334007  26.0630319
  43.5740000  -8.9950000  25.2240000  44.5470910  -9.0037857  25.7150355
  43.2496690  -7.9644106  25.0797908  43.6120000  -9.7160000  23.9460000
  44.6100171  -9.7073425  23.5078379  42.9057706  -9.2650533  23.2488725
  43.1920000 -11.1570000  24.2570000  42.4356091 -11.5161398  23.5591535
  44.4170000 -12.0810000  24.2030000  44.7910000 -12.5510000  23.1310000
  45.0420000 -12.3290000  25.3460000  44.7783011 -11.8519700  26.1962968
  46.2280000 -13.1970000  25.3730000  46.9135807 -12.9165687  24.5733522
  46.9560000 -13.0530000  26.7160000  46.1194977 -12.8072978  27.3702121
  47.3735223 -14.0167932  27.0073380  48.0480000 -11.9580000  26.8400000
  48.9959507 -12.4816458  26.9636341  48.1490000 -11.0010000  25.6700000
  47.2015064 -10.4766108  25.5460211  48.9420464 -10.2775260  25.8591124
  48.3762209 -11.5593084  24.7618355  47.8730000 -11.1940000  28.1370000
  47.9584228 -11.8814205  28.9785792  48.6442156 -10.4276583  28.2147696
  46.8903105 -10.7226198  28.1518684  45.8880000 -14.6710000  25.0330000
  46.7690000 -15.4390000  24.6210000  44.6160000 -15.0480000  25.1790000
  43.9709972 -14.4255712  25.6444601  44.1180000 -16.3640000  24.7290000
  44.8025242 -17.1478885  25.0531057  42.7320000 -16.6470000  25.3230000
  42.1413493 -15.7361295  25.2252974  42.2757337 -17.4405102  24.7311701
  42.7780000 -17.0710000  26.7980000  43.8890000 -17.1890000  27.3770000
  41.6850000 -17.2870000  27.3740000  44.0260000 -16.5080000  23.1990000
  43.8690000 -17.6160000  22.6850000  44.0780000 -15.3930000  22.4750000
  44.1844496 -14.5031774  22.9408149  43.9510000 -15.4020000  21.0260000
  43.2467520 -16.1620369  20.6876542  43.5080000 -14.0220000  20.5020000
  44.2200513 -13.2756048  20.8541044  43.4500000 -13.9900000  18.9630000
  42.7377609 -14.7358620  18.6101459  43.1338843 -13.0009903  18.6312900
  44.4372549 -14.2104738  18.5570218  42.1650000 -13.6550000  21.1140000
  41.4359723 -14.4035371  20.8036588  42.2698203 -13.6784787  22.1986939
  41.6930000 -12.2810000  20.6820000  41.5874938 -12.2568888  19.5973863
  40.7302439 -12.0647630  21.1450783  42.4213435 -11.5318304  20.9924197
  45.2770000 -15.7920000  20.3890000  46.3080000 -15.1800000  20.6430000
  45.2380000 -16.8020000  19.5380000  44.3599705 -17.2456862  19.3092949
  46.4620000 -17.3700000  18.9900000  47.2577015 -17.3405044  19.7343711
  46.2190000 -18.8240000  18.5930000  45.3927610 -18.8852448  17.8847081
  47.1285708 -19.1975044  18.1226008  45.8980000 -19.6980000  19.7880000
  46.6840000 -19.7860000  20.7450000  44.7270000 -20.3290000  19.7570000
  44.4580116 -20.9260124  20.5259741  44.1124779 -20.2080707  18.9646367
  47.0440000 -16.5790000  17.8200000  48.2610000 -16.6170000  17.5920000
  46.1880000 -15.8660000  17.0840000  45.1951916 -15.9316965  17.2575363
  46.6480000 -15.0010000  15.9890000  47.3974085 -15.5311151  15.4012382
  45.4960000 -14.6050000  15.0680000  44.6986622 -14.2102637  15.6977101
  45.8629565 -13.8168303  14.4105569  44.9610000 -15.7470000  14.2350000
  44.3842679 -15.3282899  13.4102802  45.8354809 -16.2643262  13.8403407
  44.1020000 -16.7250000  15.0050000  43.5950000 -16.3890000  16.1080000
  43.9060000 -17.8490000  14.4780000  47.2870000 -13.7690000  16.5990000
  46.6090000 -12.9760000  17.2400000  48.5980000 -13.6280000  16.4150000
  49.0793004 -14.2198483  15.7530598  49.3860000 -12.6520000  17.1770000
  49.2197117 -12.7892859  18.2454568  50.8790000 -12.8430000  16.8850000
  51.0237558 -12.6522588  15.8216267  51.4166891 -12.0926921  17.4646797
  51.4130000 -14.2310000  17.2300000  51.5450767 -14.2902928  18.3103430
  50.6781724 -14.9710967  16.9131602  52.7450000 -14.5090000  16.5390000
  52.6407992 -14.2712555  15.4803600  53.5047146 -13.8652796  16.9823477
  53.1610000 -15.9640000  16.6930000  52.3441263 -16.5918937  16.3372368
  54.0438605 -16.1335057  16.0766199  53.4700000 -16.3070000  18.1050000
  52.6519210 -16.1504114  18.6762500  53.7409550 -17.2781879  18.1639700
  54.2271945 -15.7255861  18.4347172  49.0030000 -11.2050000  16.8610000
  48.9010000 -10.3620000  17.7590000  48.8300000 -10.9140000  15.5820000
  49.0250911 -11.5996410  14.8665035  48.4750000  -9.5490000  15.1620000
  49.1211833  -8.8196109  15.6504033  48.5670000  -9.3450000  13.6350000
  48.2790696  -8.3216352  13.3943327  49.9960000  -9.6000000  13.1500000
  50.2844905 -10.6233829  13.3899174  50.0458719  -9.4524187  12.0711897
  50.6768296  -8.9060700  13.6429835  47.6560000 -10.1970000  12.9360000
  47.7376124 -10.0463069  11.9914200  47.0850000  -9.1510000  15.6970000
  46.8600000  -7.9900000  16.0290000  46.1740000 -10.1200000  15.7760000
  46.3990489 -11.0502155  15.4532749  44.8050000  -9.8640000  16.2820000
  44.4024845  -8.9593844  15.8262028  43.8910000 -11.0320000  15.9350000
  43.9662024 -11.1024950  14.8498851  44.2979216 -11.9368337  16.3864319
  42.4230000 -10.8790000  16.3350000  42.3553728 -10.8958336  17.4227702
  41.8340000  -9.5560000  15.8040000  41.9008576  -9.5386308  14.7161916
  40.7893141  -9.4762308  16.1046142  42.3950150  -8.7168976  16.2154241
  41.6140000 -12.0690000  15.8350000  42.0084641 -12.9864586  16.2717691
  40.5706525 -11.9478649  16.1262962  41.6831965 -12.1253693  14.7486606
  44.8150000  -9.6320000  17.7910000  44.2090000  -8.7030000  18.2830000
  45.5230000 -10.4960000  18.5140000  45.8922600 -11.3216985  18.0645911
  45.7900000 -10.3040000  19.9440000  44.8762195 -10.4405027  20.5223351
  46.8250000 -11.3370000  20.4110000  46.3145269 -12.3000653  20.4156505
  47.6099653 -11.3460884  19.6547944  47.4360000 -11.0860000  21.7660000
  48.0034605 -10.1563498  21.7231059  46.6488552 -10.9963757  22.5146472
  48.3780000 -12.2140000  22.1810000  49.4900000 -11.9590000  22.6670000
  47.9500000 -13.4630000  21.9790000  48.5375373 -14.2428738  22.2372600
  47.0407749 -13.6218823  21.5689176  46.3350000  -8.8880000  20.2000000
  45.8400000  -8.1740000  21.0810000  47.3670000  -8.5020000  19.4510000
  47.8361793  -9.1451723  18.8294700  47.9260000  -7.1460000  19.6060000
  48.1063485  -6.9699908  20.6664689  49.2410000  -6.9340000  18.8430000
  50.0209340  -7.5418392  19.3016215  49.1046068  -7.2408213  17.8060055
  49.6600000  -5.4250000  18.8900000  49.1492927  -4.8688054  18.1039170
  49.2542278  -5.1376847  19.8600005  51.1540000  -5.0640000  18.8560000
  51.8390000  -5.2250000  17.8440000  51.6200000  -4.4400000  19.9480000
  52.5926550  -4.1722372  19.9964438  50.9961295  -4.2407192  20.7168785
  46.9000000  -6.0600000  19.2150000  46.7820000  -5.0310000  19.8860000
  46.1690000  -6.2870000  18.1270000  46.3110844  -7.1278763  17.5858545
  45.1440000  -5.3370000  17.6800000  45.6395199  -4.4022039  17.4178635
  44.6602163  -5.7516087  16.7956062  44.0820000  -5.0560000  18.7420000
  43.6800000  -3.9050000  18.9690000  43.6370000  -6.1100000  19.4100000
  43.9082634  -7.0395119  19.1227315  42.6830000  -5.9750000  20.5110000
  41.7954928  -5.4421663  20.1696521  42.2730000  -7.3640000  21.0540000
  43.1733563  -7.9541467  21.2248385  41.5030000  -7.2300000  22.3530000
  40.6022056  -6.6403241  22.1828458  41.2255879  -8.2198877  22.7153059
  42.1267895  -6.7333042  23.0961549  41.4120000  -8.0760000  20.0020000
  40.4593703  -7.5486157  19.9523691  41.9274864  -7.9846996  19.0459469
  41.1630000  -9.5420000  20.3040000  40.6470948  -9.6340820  21.2597523
  40.5475705  -9.9763606  19.5161697  42.1152117 -10.0701657  20.3533324
  43.2700000  -5.0840000  21.6190000  42.6060000  -4.1850000  22.1410000
  44.5340000  -5.3150000  21.9540000  45.0494300  -6.0746900  21.5329271
  45.1910000  -4.5230000  22.9890000  44.5777446  -4.5149330  23.8900838
  46.5580000  -5.1120000  23.3340000  47.1420709  -5.1372103  22.4140408
  47.0319765  -4.4366564  24.0462902  46.4900000  -6.5090000  23.9290000
  46.0713518  -6.4320031  24.9324471  45.8429045  -7.1332502  23.3128172
  47.8710000  -7.1760000  24.0230000  48.5280000  -7.4460000  23.0100000
  48.3020000  -7.4540000  25.2420000  49.2028893  -7.8929061  25.3679416
  47.7282777  -7.2261181  26.0413835  45.3310000  -3.0650000  22.5600000
  45.1380000  -2.1570000  23.3660000  45.6310000  -2.8380000  21.2840000
  45.8140414  -3.6038379  20.6514752  45.7850000  -1.4710000  20.7820000
  46.4491268  -0.9114582  21.4407472  46.3750000  -1.4730000  19.3890000
  45.7675130  -2.1870383  18.8329351  46.2476489  -0.4782508  18.9619686
  47.8540000  -1.8820000  19.3020000  47.9868179  -2.8472706  19.7905825
  48.2790000  -1.9850000  17.8710000  48.1468980  -1.0199233  17.3818427
  49.3285194  -2.2753779  17.8231418  47.6716132  -2.7348359  17.3641196
  48.7370000  -0.8910000  20.0410000  48.4453683  -0.8561393  21.0906833
  49.7783557  -1.2036384  19.9639490  48.6217247   0.0988267  19.5993511
  44.4480000  -0.7260000  20.8100000  44.3900000   0.4790000  21.0790000
  43.3610000  -1.4560000  20.5700000  43.4352628  -2.4331629  20.3255884
  42.0440000  -0.8430000  20.5650000  42.1024870   0.0257161  19.9092480
  41.0080000  -1.8180000  19.9950000  40.9314967  -2.6890778  20.6457464
  40.0382228  -1.3240723  19.9344367  41.3164126  -2.1352727  18.9988479
  41.6030000  -0.3450000  21.9520000  40.7430000   0.5340000  22.0490000
  42.1460000  -0.9400000  23.0170000  42.8019316  -1.6931684  22.8666992
  41.8060000  -0.5840000  24.3870000  40.8773093  -0.0135087  24.4001347
  41.6200000  -1.8370000  25.2350000  42.3355679  -2.5787135  24.8801439
  41.8550815  -1.5699482  26.2653009  40.2430000  -2.4050000  25.1710000
  39.5426500  -1.7008346  25.6201790  39.9874196  -2.5513709  24.1215448
  40.1200000  -3.7450000  25.8950000  40.3150000  -3.8230000  27.1080000
  39.7810000  -4.7920000  25.1510000  39.6856274  -5.7019527  25.5787751
  39.6201851  -4.6732753  24.1609776  42.8740000   0.3060000  25.0310000
  42.7980000   0.6080000  26.2180000  43.8630000   0.7100000  24.2540000
  44.0027052   0.3130234  23.3358544  44.8120000   1.7210000  24.7250000
  45.2047333   1.4329641  25.7001385  45.9730000   1.8540000  23.7540000
  45.5883176   2.0107345  22.7462535  46.5926577   2.7032337  24.0419698
  46.7430000   0.6830000  23.7830000  47.4765472   0.7671128  23.1694583
  44.1050000   3.0650000  24.8880000  43.0980000   3.3230000  24.2300000
  44.6090000   3.9060000  25.7900000  45.3995164   3.6160205  26.3477590
  43.9940000   5.1930000  26.0810000  42.9751810   5.2226218  25.6946976
  43.9490000   5.4010000  27.5870000  44.9695490   5.3966463  27.9698315
  43.4889196   6.3677573  27.7914658  43.1480000   4.3050000  28.2690000
  42.0897098   4.4832516  28.0783458  43.4382518   3.3473722  27.8367906
  43.3890000   4.2800000  29.7320000  44.3924925   3.8926472  29.9082376
  43.3228040   5.3007634  30.1085099  42.4280000   3.4460000  30.4630000
  42.0317919   2.6518491  29.9808767  42.0790000   3.6590000  31.7250000
  42.5700000   4.7030000  32.3800000  43.2083954   5.3324357  31.9148527
  42.3031462   4.8635583  33.3407860  41.2160000   2.8550000  32.3280000
  40.8206624   2.0742132  31.8238372  40.9573277   3.0264910  33.2891338
  44.7140000   6.3280000  25.3490000  45.8440000   6.6880000  25.6980000
  44.0580000   6.8750000  24.3240000  43.1331802   6.5318700  24.1070450
  44.6560000   7.8740000  23.4320000  45.7435905   7.8115801  23.4687413
  44.1940000   7.6090000  21.9780000  43.1053138   7.6476354  21.9410006
  44.6066436   8.3946012  21.3450261  44.6640000   6.2710000  21.4850000
  45.9090000   6.1170000  20.9060000  46.5502886   6.9926733  20.8057770
  46.3450000   4.8900000  20.4600000  47.3179525   4.8129814  19.9746822
  45.5500000   3.7680000  20.5960000  46.0160000   2.5280000  20.1790000
  46.9021650   2.5644774  19.8116028  44.3100000   3.8900000  21.1740000
  43.6757599   3.0117897  21.2947746  43.8640000   5.1340000  21.6050000
  42.8724822   5.2345551  22.0464536  44.3780000   9.3330000  23.8410000
  45.2230000  10.2300000  23.6460000  43.1800000   9.5510000  24.3910000
  42.6123911   8.7411419  24.5960592  42.6650000  10.8600000  24.7470000
  43.5041995  11.5346826  24.9162534  41.7690000  11.4560000  23.6470000
  40.8630612  10.8531567  23.5841187  41.5032827  12.4869250  23.8808546
  42.3620000  11.4690000  22.2960000  42.1930000  10.5280000  21.3210000
  41.5443840   9.6865926  21.5647842  42.9050000  10.8620000  20.2050000
  42.9432750  10.3278941  19.3486324  43.5710000  12.0360000  20.4410000
  44.4310000  12.7620000  19.6160000  44.6421476  12.3754921  18.6189408
  44.9570000  13.9180000  20.1130000  45.6287667  14.5160645  19.4972498
  44.6500000  14.3580000  21.4100000  45.0692055  15.2879817  21.7940577
  43.8080000  13.6290000  22.2420000  43.6067595  14.0124730  23.2422757
  43.2520000  12.4460000  21.7560000  41.8100000  10.7090000  25.9820000
  41.1760000   9.6690000  26.2000000  41.7520000  11.7700000  26.7740000
  42.3746369  12.5500968  26.6194954  40.8240000  11.8390000  27.8930000
  40.1883046  10.9536319  27.9036665  41.5910000  11.9050000  29.2120000
  42.2312989  11.0240887  29.2579553  42.2095750  12.8019629  29.1816272
  40.6960000  11.9470000  30.4450000  40.0668362  12.8353019  30.3886655
  40.0669943  11.0568431  30.4536350  41.4980000  11.9950000  31.7570000
  42.7180000  12.0660000  31.7400000  40.8000000  11.9530000  32.8830000
  41.2788895  11.9816529  33.7717887  39.7924524  11.8925387  32.8470330
  39.9250000  13.0590000  27.7670000  40.3910000  14.1390000  27.3850000
  38.6470000  12.8630000  28.0620000  38.2980190  11.9153324  28.0774161
  37.6940000  13.9560000  28.2520000  38.2194782  14.8592433  28.5620377
  36.9130000  14.2600000  26.9590000  37.6296794  14.5456837  26.1890287
  36.1130000  13.0730000  26.4850000  35.3957357  12.7870045  27.2543102
  35.5797405  13.3351013  25.5711968  36.7843992  12.2376156  26.2863631
  36.0200000  15.3620000  27.1900000  35.5324599  15.5528753  26.3853438
  36.7660000  13.6360000  29.4420000  36.1150000  12.6000000  29.4900000
  36.7290000  14.5280000  30.4190000  37.1420076  15.4422082  30.3017504
  36.0910000  14.2160000  31.6920000  36.2434294  15.0298274  32.4009072
  35.0225181  14.0540141  31.5498510  36.7170000  12.9400000  32.2570000
  37.9320000  12.8090000  32.3100000  35.8850000  11.9810000  32.6440000
  34.8848641  12.1201474  32.6224247  36.3980000  10.7200000  33.1770000
  37.4329668  10.8462769  33.4948004  35.5710000  10.2750000  34.3770000
  36.0249329   9.3548182  34.7448445  35.6279686  11.0417375  35.1496372
  34.1240000  10.0180000  34.0290000  33.7070000  10.2840000  32.8680000
  33.3930000   9.5700000  34.9410000  36.4330000   9.5960000  32.1360000
  36.6120000   8.4310000  32.5000000  36.2780000   9.9210000  30.8600000
  35.9766034  10.8406768  30.5711159  36.3700000   8.8680000  29.8430000
  36.5170151   7.9076154  30.3371125  35.1010000   8.7880000  28.9830000
  35.1872463   7.8723375  28.3980017  34.2671374   8.6966821  29.6790131
  34.8600000   9.9440000  28.0660000  33.7824743  10.0708043  27.9613106
  35.2868582  10.8341042  28.5281780  35.5880000   9.7160000  26.4410000
  34.2960000   8.7360000  25.6770000  33.3639424   9.3011211  25.6745992
  34.5783871   8.4975880  24.6515645  34.1589388   7.8125417  26.2396190
  37.6310000   8.9520000  28.9950000  38.2150000  10.0310000  28.7750000
  38.0570000   7.7760000  28.5420000  37.5387509   6.9502399  28.8058892
  39.2250000   7.6140000  27.7040000  39.6979457   8.5823538  27.5405609
  40.2320000   6.6870000  28.3630000  39.7671296   5.7073757  28.4740452
  41.0848955   6.6095265  27.6887099  40.7010000   7.1780000  29.7140000
  41.8210000   7.9960000  29.8140000  42.3619807   8.2644568  28.9066025
  42.2570000   8.4740000  31.0570000  43.1216445   9.1339962  31.1269772
  41.5680000   8.1140000  32.2000000  42.0140000   8.5610000  33.4320000
  42.8010492   9.1072217  33.3703964  40.4460000   7.2960000  32.1190000
  39.9005517   7.0148621  33.0198596  40.0220000   6.8370000  30.8790000
  39.1423860   6.1974027  30.8062361  38.7660000   7.0310000  26.3720000
  37.9230000   6.1250000  26.3340000  39.3010000   7.5770000  25.2970000
  39.9257033   8.3634934  25.4031757  38.9910000   7.1190000  23.9510000
  38.0065086   6.6513791  23.9366265  38.9870000   8.2920000  22.9790000
  38.3435342   9.0591598  23.4097166  40.0101089   8.6642486  22.9262826
  38.5080000   7.9550000  21.6030000  38.5145806   8.8564698  20.9902931
  39.1919784   7.2213407  21.1763624  37.1150000   7.3770000  21.5950000
  36.1760000   8.0160000  22.0400000  36.9740000   6.1730000  21.0770000
  36.0607290   5.7426199  21.0485305  37.7798953   5.6865056  20.7109982
  39.9890000   6.0690000  23.4940000  41.2000000   6.3310000  23.4430000
  39.4740000   4.8920000  23.1280000  38.4977695   4.7029228  23.3049833
  40.2690000   3.8620000  22.4790000  41.3277207   4.0417517  22.6658129
  39.9927462   2.8827396  22.8699378  40.0210000   3.8840000  20.9820000
  39.5570000   4.8890000  20.4120000  40.3210000   2.7710000  20.3250000
  40.8506537   2.0300971  20.7616110  39.9300000   2.6110000  18.9440000
  39.7956296   3.5958898  18.4967464  40.9800000   1.8440000  18.1330000
  40.8927927   0.8252979  18.5108096  40.7000664   1.8655601  17.0797800
  42.4240000   2.3220000  18.2860000  42.7349889   2.2594395  19.3288197
  43.3060000   1.4170000  17.4390000  42.9958919   1.4793850  16.3959085
  44.3449431   1.7343863  17.5282403  43.2100089   0.3878801  17.7851191
  42.5220000   3.7920000  17.8980000  41.8753000   4.3833091  18.5462531
  43.5525653   4.1294767  18.0082088  42.2083488   3.9164343  16.8615455
  38.5930000   1.8780000  18.9310000  38.5300000   0.6540000  19.1420000
  37.5150000   2.6350000  18.7170000  37.6262145   3.6104364  18.4798198
  36.1580000   2.0950000  18.8150000  35.4756486   2.7466894  18.2692925
  36.1390123   1.0985936  18.3735105  35.7010000   2.0030000  20.2690000
  34.7210000   2.6240000  20.6560000  36.3920000   1.2140000  21.0800000
  37.1275383   0.6289418  20.7101492  36.0970000   1.1360000  22.5110000
  35.0468651   0.8777691  22.6475014  36.9550000   0.0780000  23.2070000
  38.0143995   0.2544166  23.0208572  36.7647990   0.1104381  24.2797867
  36.6700000  -1.3220000  22.7640000  37.5000000  -2.1220000  22.0710000
  38.4749516  -1.7101203  21.8103771  36.9020000  -3.3390000  21.8360000
  37.3054930  -4.0956767  21.3023959  35.6650000  -3.3460000  22.4090000
  34.6950000  -4.3310000  22.4290000  34.9113056  -5.2768273  21.9322896
  33.5220000  -4.0570000  23.0720000  32.7382204  -4.8136680  23.1072556
  33.2980000  -2.8080000  23.6970000  32.3656734  -2.5927397  24.2190436
  34.2640000  -1.8210000  23.6610000  34.0419898  -0.8663540  24.1379311
  35.4750000  -2.0840000  23.0070000  36.3190000   2.4780000  23.2340000
  37.2180000   3.2730000  22.8750000  35.4920000   2.6980000  24.2570000
  34.6838286   2.1000355  24.3539373  35.6690000   3.7850000  25.2180000
  36.5580022   4.3618220  24.9629497  34.4640000   4.7150000  25.2000000
  33.5829857   4.1359850  25.4768658  34.6288556   5.5000433  25.9379903
  34.2460000   5.3490000  23.8190000  35.0188981   6.1113943  23.7216128
  34.4023276   4.5757242  23.0668662  32.8800000   5.9840000  23.6160000
  32.1250000   6.1840000  24.5900000  32.5510000   6.2600000  22.4520000
  35.8720000   3.1280000  26.5870000  35.3480000   2.0190000  26.8610000
  36.6660000   3.7710000  27.4370000  37.0620350   4.6679732  27.1947302
  37.0150000   3.1870000  28.7260000  36.3070859   2.3922727  28.9612985
  38.4300000   2.5970000  28.7210000  39.1091896   3.4107261  28.4667353
  38.6333517   2.2587550  29.7370406  38.6390000   1.4300000  27.7410000
  39.5103363   0.8802928  28.0969436  37.7542683   0.7982625  27.8201174
  38.8910000   1.8870000  26.0070000  40.2840000   3.0260000  26.1540000
  41.1340884   2.5060557  26.5957087  40.5580670   3.3950892  25.1656878
  40.0020672   3.8655096  26.7894832  36.9240000   4.2240000  29.8400000
  37.1410000   5.4100000  29.6010000  36.6030000   3.7450000  31.0370000
  36.2543588   2.7986886  31.0921678  36.7240000   4.5200000  32.2870000
  37.3204089   5.4111641  32.0914954  35.3650000   4.9530000  32.8410000
  34.8490022   4.0127320  33.0352720  35.5490154   5.4674766  33.7841608
  34.5000000   5.8310000  31.9440000  35.1453520   6.5456810  31.4332626
  33.7510000   5.0070000  30.9200000  33.1050448   4.2923525  31.4300193
  33.1442465   5.6643951  30.2972781  34.4632722   4.4696982  30.2938407
  33.5200000   6.6250000  32.7950000  34.0715223   7.2546792  33.4931596
  32.9032287   7.2515464  32.1506911  32.8821919   5.9383946  33.3516621
  37.4130000   3.6650000  33.3230000  37.4050000   2.4460000  33.2290000
  38.0280000   4.3030000  34.3120000  38.1220853   5.3086020  34.3154625
  38.6200000   3.5510000  35.4080000  39.2897681   2.7889906  35.0094382
  39.4210000   4.4720000  36.3300000  38.7696139   5.3104307  36.5766360
  39.6764743   3.9308163  37.2410177  40.6800000   4.9880000  35.6830000
  41.3410000   4.2250000  34.9630000  41.0260000   6.1560000  35.9200000
  37.5560000   2.8340000  36.2200000  36.4840000   3.3820000  36.4940000
  37.8640000   1.5940000  36.5940000  38.7205604   1.1711607  36.2659594
  36.9940000   0.8100000  37.4520000  35.9990030   1.2550488  37.4554349
  36.8790000  -0.6520000  36.9680000  36.4288116  -0.7810324  35.9837336
  37.8865233  -1.0679044  36.9634865  36.0700000  -1.4910000  37.9260000
  36.5570000  -2.2340000  38.9710000  37.6402198  -2.2577365  39.0900427
  35.5290000  -2.8090000  39.6670000  35.6273190  -3.4216708  40.4639111
  34.3420000  -2.4350000  39.0920000  33.0330000  -2.7760000  39.4320000
  32.8718970  -3.4443825  40.2778187  32.0250000  -2.2440000  38.6740000
  30.9881864  -2.4781825  38.9154045  32.2960000  -1.4000000  37.5880000
  31.4850097  -0.9868007  36.9882829  33.5970000  -1.0650000  37.2430000
  33.7514897  -0.3928473  36.3989358  34.6460000  -1.5960000  37.9930000
  37.6080000   0.8700000  38.8560000  38.8130000   0.6750000  38.9930000
  36.7870000   1.1190000  39.8920000  37.3420000   1.1990000  41.2600000
  38.1813081   1.8943962  41.2692923  37.6854066   0.2117047  41.5688996
  36.1970000   1.6780000  42.0700000  36.2243173   2.7660291  42.1295445
  36.2613825   1.2579772  43.0737615  34.9750000   1.2040000  41.3750000
  34.1290099   1.8561092  41.5921481  34.7158437   0.1764274  41.6300139
  35.3360000   1.2980000  39.8950000  34.9070167   0.4834316  39.3114334
  34.8810000   2.6320000  39.3150000  35.5550000   3.6510000  39.4650000
  33.7470000   2.5990000  38.6350000  33.2253860   1.7368339  38.5665328
  33.2120000   3.7790000  37.9860000  33.9802005   4.5293394  37.7990295
  32.4940000   3.4540000  36.6390000  32.0076289   4.3599306  36.2772927
  33.4730000   2.9600000  35.6010000  33.9594651   2.0537668  35.9618242
  32.9418790   2.7423406  34.6743742  34.2253876   3.7267759  35.4164214
  31.3690000   2.4570000  36.8640000  30.6432426   2.8782281  37.5596616
  30.8787421   2.2412600  35.9146828  31.7770992   1.5355178  37.2792427
  32.1960000   4.4350000  38.8870000  31.6160000   3.8010000  39.7630000
  31.9840000   5.7190000  38.6660000  32.6265321   6.2607499  38.1058581
  30.8200000   6.3850000  39.2130000  30.6270280   6.0204271  40.2219339
  31.0440000   7.8920000  39.2740000  31.8758592   8.1091849  39.9440301
  31.2875664   8.2376242  38.2693511  29.8190000   8.6440000  39.7620000
  28.7800000   8.0480000  40.0690000  29.9400000   9.9640000  39.8550000
  29.1583699  10.5184668  40.1739370  30.8130452  10.4067792  39.6063245
  29.6540000   6.0640000  38.2740000  29.6540000   6.5300000  37.1470000
  28.6570000   5.2880000  38.7420000  28.4790000   4.7540000  40.1050000
  28.6861793   5.5413992  40.8296927  29.1713106   3.9265624  40.2604095
  27.0540000   4.3150000  40.1280000  26.4581701   5.1028824  40.5887897
  26.9822448   3.4078620  40.7280444  26.6300000   4.0620000  38.7390000
  25.6028428   4.4014180  38.6054242  26.6994525   3.0053495  38.4806095
  27.5750000   4.8860000  37.8420000  28.0094275   4.2721095  37.0530073
  26.8470000   6.0760000  37.2180000  26.5170000   6.0480000  36.0400000
  26.6290000   7.1270000  37.9990000  26.8412802   7.0845650  38.9855271
  26.0370000   8.3490000  37.4720000  25.0197909   8.1496117  37.1349108
  25.9910000   9.4350000  38.5510000  26.9718272   9.4676237  39.0253553
  25.7896032  10.3911518  38.0679750  24.9410000   9.1690000  39.5910000
  24.2200000   8.1540000  39.4700000  24.8210000   9.9820000  40.5360000
  26.7930000   8.8690000  36.2710000  26.1870000   9.3340000  35.3030000
  28.1170000   8.7840000  36.3320000  28.5637143   8.4180635  37.1606351
  28.9580000   9.2880000  35.2630000  28.6577237  10.3080768  35.0234656
  30.4320000   9.2930000  35.6540000  30.5671343   9.8309965  36.5922951
  30.7912845   8.2701661  35.7672498  31.1620000   9.9370000  34.6340000
  32.0935803   9.9483709  34.8655788  28.7860000   8.5270000  33.9590000
  28.6530000   9.1510000  32.9150000  28.8020000   7.1930000  34.0130000
  29.0446482   6.7068506  34.8643988  28.6110000   6.4000000  32.7860000
  29.0867980   6.8873716  31.9350098  29.1040000   4.9210000  32.8810000
  28.6945610   4.3529785  32.0456487  30.6000000   4.8720000  32.8320000
  31.0101890   5.4394567  33.6673673  30.9325056   3.8361171  32.8989874
  30.9476883   5.3047130  31.8939320  28.5610000   4.1870000  34.1220000
  29.0842038   4.5678055  34.9991235  27.4971779   4.4075629  34.2099429
  28.7600000   2.6840000  34.0270000  29.8236885   2.4626196  33.9394937
  28.3626408   2.2070143  34.9229294  28.2366640   2.3023772  33.1503111
  27.1740000   6.4470000  32.3010000  26.9330000   6.4950000  31.0880000
  26.2190000   6.4350000  33.2370000  26.4534193   6.3251281  34.2132556
  24.8180000   6.4670000  32.8660000  24.6493282   5.7352634  32.0759300
  23.8830000   6.1610000  34.0600000  24.1394531   6.8164028  34.8923337
  22.4320000   6.3910000  33.6620000  22.1746564   5.7355694  32.8299629
  21.7830718   6.1725451  34.5100981  22.2976896   7.4298288  33.3605126
  24.0660000   4.7100000  34.5120000  23.6195354   4.0834016  33.7398960
  25.1399605   4.5278308  34.5510220  23.4380000   4.3690000  35.8760000
  22.3639016   4.5504895  35.8376071  23.6206054   3.3198698  36.1085519
  23.8843254   4.9949208  36.6487332  24.4820000   7.8190000  32.2120000
  24.0090000   7.8760000  31.0650000  24.7410000   8.9160000  32.9250000
  25.0951793   8.8645315  33.8694614  24.4400000  10.2390000  32.3660000
  23.4080417  10.2600725  32.0156899  24.6220000  11.3370000  33.4200000
  25.6494739  11.2888123  33.7806585  24.4413609  12.3124801  32.9684382
  23.6870000  11.1690000  34.5990000  22.6190000  10.5740000  34.4770000
  24.0750000  11.7150000  35.7490000  23.4884002  11.6323622  36.5670290
  24.9542778  12.2094967  35.7984413  25.3030000  10.5360000  31.1370000
  24.8300000  11.1040000  30.1560000  26.5650000  10.1430000  31.2020000
  26.9035259   9.6906756  32.0391990  27.4950000  10.3400000  30.1000000
  27.5479360  11.4126042  29.9134063  28.4684907   9.9814371  30.4344366
  27.1240000   9.6310000  28.8080000  27.5230000  10.0740000  27.7280000
  26.3570000   8.5430000  28.9170000  26.1112455   8.2006421  29.8348753
  25.9220000   7.7720000  27.7480000  26.7576694   7.6563833  27.0577909
  25.4220000   6.3650000  28.1600000  25.3853007   5.7419035  27.2664099
  26.1365871   5.9436202  28.8670391  24.1380000   6.4100000  28.7570000
  23.8653692   5.5213532  28.9969566  24.8520000   8.5080000  26.9630000
  24.6350000   8.2470000  25.7840000  24.1640000   9.4370000  27.6210000
  24.3423425   9.6102362  28.5999191  23.1290000  10.1990000  26.9700000
  22.3596987   9.5256896  26.5919420  22.4810000  11.1810000  27.9510000
  22.2748942  10.6307814  28.8690845  23.1844016  11.9867344  28.1610433
  21.1930000  11.7640000  27.4130000  20.1680000  11.6430000  28.1170000
  21.1930000  12.3220000  26.2870000  23.7460000  10.9480000  25.7960000
  24.8030000  11.5670000  25.9140000  23.0880000  10.8820000  24.6560000
  22.1818416  10.4395180  24.5995560  23.6180000  11.5280000  23.4600000
  24.6274805  11.1753718  23.2485725  22.7170000  11.1790000  22.2680000
  21.6806637  11.2437874  22.5995253  22.8886799  11.9019391  21.4705133
  22.9630000   9.7960000  21.7250000  24.0210000   9.2130000  21.9490000
  21.9930000   9.2700000  20.9980000  22.1031266   8.3448192  20.6081123
  21.1459494   9.7955708  20.8355763  23.6370000  13.0500000  23.4280000
  24.4770000  13.6230000  22.7360000  22.8910000  13.7120000  24.3020000
  21.9165248  13.4564786  24.3741544  23.3320000  15.0100000  24.9080000
  23.4052239  15.7788496  24.1388396  22.3090000  15.4640000  25.9600000
  22.3034201  14.7281116  26.7640749  22.6341691  16.4275739  26.3522888
  20.8730000  15.6010000  25.3720000  20.8357423  16.4940930  24.7482231
  20.6612779  14.7230712  24.7616584  19.8410000  15.7110000  26.4710000
  20.0232703  14.9121531  27.1898325  19.9679235  16.6761943  26.9612957
  18.4320000  15.5980000  25.9400000  18.2728874  16.3709662  25.1881310
  18.3019725  14.6163861  25.4843397  17.4440000  15.7680000  27.0440000
  17.5640326  16.6776935  27.4660778  16.5078646  15.6898481  26.6729975
  17.5909894  15.0515899  27.7405987  24.7640000  15.2790000  25.3340000
  25.2580000  16.4080000  25.1860000  25.4200000  14.2650000  25.8630000
  24.9324339  13.4061356  26.0744962  26.8200000  14.3640000  26.2160000
  27.1757385  15.3929358  26.1627044  27.0380000  13.8220000  27.6300000
  26.5479588  12.8512286  27.7045849  28.5310000  13.6680000  27.9570000
  29.0216598  14.6385092  27.8830711  28.6436246  13.2807115  28.9696322
  28.9886206  12.9753506  27.2506577  26.3540000  14.7560000  28.6410000
  27.0194913  15.6047976  28.7983682  25.4263397  15.1019381  28.1850695
  26.0470000  14.0980000  29.9780000  26.9742918  13.7521952  30.4347809
  25.5653116  14.8203891  30.6369609  25.3811415  13.2493338  29.8214816
  27.6790000  13.6100000  25.1860000  28.6960000  14.1360000  24.7180000
  27.2510000  12.3900000  24.8320000  26.3758385  12.0413922  25.1962310
  28.0620000  11.4960000  23.9910000  29.0244642  11.3955200  24.4926628
  27.4090000  10.1070000  23.8980000  26.4482875  10.1898875  23.3898060
  28.0594835   9.4359629  23.3370360  27.2556761   9.7091258  24.9011386
  28.3240000  12.0390000  22.5880000  29.3430000  11.7260000  21.9990000
  27.3940000  12.8230000  22.0560000  26.5316321  12.9759438  22.5590201
  27.5290000  13.4040000  20.7050000  28.2801009  12.8596431  20.1326170
  26.1930000  13.3070000  19.9730000  25.5181559  13.8642352  20.6227489
  26.2812861  13.8205485  19.0156215  25.6340000  11.8930000  19.7460000
  25.4169867  11.4348797  20.7109517  24.3640000  11.9600000  18.9220000
  24.5803269  12.4176151  17.9566555  23.9769670  10.9528102  18.7674847
  23.6199036  12.5578372  19.4483190  26.6440000  10.9600000  19.0910000
  27.5245184  10.8724024  19.7274853  26.1953766   9.9759747  18.9548658
  26.9359701  11.3629444  18.1212123  28.0560000  14.8670000  20.6910000
  28.2080000  15.4740000  19.6330000  28.3730000  15.3960000  21.8680000
  28.3019652  14.8152285  22.6912605  28.7930000  16.7950000  22.0360000
  28.2343904  17.4464677  21.3639551  28.5350000  17.2360000  23.4640000
  29.0949190  16.5986899  24.1484170  28.8542111  18.2707415  23.5885575
  27.4701850  17.1559606  23.6827738  30.2770000  16.9470000  21.6970000
  31.0640000  16.0180000  21.8990000  30.6650000  18.1110000  21.1760000
  29.9800970  18.7986555  20.8964699  32.0840000  18.4340000  21.0040000
  32.6403098  17.6083194  20.5602994  32.2640000  19.6670000  20.1300000
  31.7200716  20.5047972  20.5662772  33.3232271  19.9160492  20.0658695
  31.8777912  19.4644238  19.1310481  32.6680000  18.7110000  22.3760000
  32.1060000  19.5020000  23.1330000  33.7740000  18.0590000  22.7040000
  34.1826210  17.4033281  22.0534444  34.4180000  18.2380000  24.0040000
  34.0723826  19.1664140  24.4586374  34.0810000  17.0770000  24.9450000
  34.3302756  16.1636468  24.4048640  34.7406889  17.1805563  25.8065026
  32.6400000  17.0080000  25.4170000  31.9937285  17.0170032  24.5393025
  32.5037749  16.0717490  25.9582752  32.2720000  18.1980000  26.3420000
  32.9358406  18.1945457  27.2065246  32.3994709  19.1294450  25.7904016
  30.8820000  18.1170000  26.8150000  30.1890416  18.5785374  26.2432559
  30.4760000  17.4810000  27.9250000  31.3380000  16.8580000  28.7180000
  32.3215697  16.8578404  28.4884555  31.0067098  16.3867313  29.5476097
  29.1820000  17.4720000  28.2560000  28.5103252  17.9451368  27.6685525
  28.8811225  16.9921010  29.0922227  35.9340000  18.3310000  23.8530000
  36.5270000  17.6010000  23.0600000  36.5840000  19.2250000  24.6330000
  36.0070000  20.2080000  25.5660000  35.6053770  19.6897124  26.4367337
  35.2062894  20.7546757  25.0678963  37.1660000  21.0810000  25.9040000
  37.1024223  21.3088068  26.9680305  37.0599377  22.0009287  25.3290362
  38.3970000  20.4150000  25.5830000  38.7631447  19.9706515  26.5085223
  39.1660825  21.0629294  25.1625249  38.0350000  19.3020000  24.5730000
  38.3306982  19.5031855  23.5433470  38.6710000  18.0120000  25.0360000
  38.1700000  17.3970000  25.9740000  39.7650000  17.6190000  24.4030000
  40.0845938  18.1190172  23.5857228  40.4960000  16.4310000  24.8140000
  40.0813270  15.9575905  25.7039601  40.5960000  15.3700000  23.6900000
  41.3266381  14.6150082  23.9802666  39.2430000  14.7050000  23.4580000
  38.5118990  15.4593503  23.1672289  39.3335848  13.9628189  22.6648657
  38.9152908  14.2169486  24.3758857  41.1770000  15.9510000  22.4080000
  42.1782392  16.3348932  22.6035713  41.2291531  15.1726478  21.6467198
  40.5400969  16.7619514  22.0547109  41.9050000  16.7440000  25.3040000
  42.5670000  17.6570000  24.7940000  42.3270000  15.9740000  26.2990000
  41.6524560  15.3825970  26.7630390  43.7150000  15.9290000  26.7520000
  44.2146699  16.8654770  26.5041290  43.7780000  15.7280000  28.2620000
  43.1805683  16.5192323  28.7149084  43.3213792  14.7614565  28.4750520
  45.1870000  15.7620000  28.8400000  45.7987304  15.0389686  28.3004517
  45.5951731  16.7622789  28.6952969  45.1910000  15.4220000  30.3260000
  44.3999951  15.9910484  30.8144609  44.9936709  14.3559569  30.4387508
  46.5390000  15.7630000  30.9720000  47.3325266  15.4812612  30.2798733
  46.5741654  16.8384602  31.1459195  46.7320000  15.0330000  32.2850000
  46.6998784  14.0364328  32.1239974  47.6277667  15.2815579  32.6798683
  45.9970450  15.2942521  32.9266288  44.3960000  14.7580000  26.0580000
  43.9230000  13.6120000  26.1710000  45.4910000  15.0450000  25.3540000
  45.7765288  16.0069297  25.2388310  46.2990000  14.0040000  24.7280000
  45.6845512  13.3380000  24.1221981  47.3690000  14.6030000  23.8510000
  47.9981405  15.2654091  24.4455556  47.9800836  13.8062448  23.4269030
  46.9034952  15.1710445  23.0455622  46.9450000  13.1760000  25.8180000
  47.4370000  13.7310000  26.8080000  46.9270000  11.8600000  25.6460000
  46.3538489  11.4573345  24.9183616  47.6680000  10.9560000  26.5250000
  47.9793994  11.4829677  27.4269061  46.8430000   9.7270000  26.9120000
  46.6004043   9.1641215  26.0106590  47.6400000   8.8250000  27.8840000
  47.8825755   9.3870845  28.7858419  47.0386967   7.9554035  28.1492113
  48.5610401   8.4961202  27.4027283  45.5190000  10.1680000  27.5450000
  45.7695654  10.7381931  28.4395376  45.0252273  10.8207555  26.8251401
  44.5880000   9.0290000  27.9160000  45.0809416   8.3760276  28.6362329
  43.6766209   9.4328969  28.3568568  44.3366053   8.4585883  27.0218350
  48.9400000  10.5890000  25.7710000  48.9140000   9.7870000  24.8390000
  50.0470000  11.2160000  26.1820000  50.0255003  11.7118116  27.0616636
  51.2920000  11.2020000  25.4280000  51.1664058  10.6695913  24.4852030
  51.7520000  12.6530000  25.1210000  52.0856044  13.1187444  26.0483028
  52.8920000  12.6600000  24.1110000  52.5589835  12.1948000  23.1832131
  53.1961620  13.6877557  23.9127508  53.7378661  12.1024586  24.5131923
  50.6600000  13.4240000  24.6010000  50.9585839  14.3174462  24.4160625
  52.4010000  10.5270000  26.2200000  52.9350000  11.1560000  27.1160000
  52.7200000   9.2580000  25.9140000  53.7960000   8.5640000  26.6410000
  53.5294147   8.5027679  27.6961223  54.7206683   9.1308881  26.5327164
  53.8710000   7.2250000  25.9910000  53.3672324   6.5000772  26.6303780
  54.9200104   6.9483784  25.8853634  53.2230000   7.3250000  24.6830000
  52.7705518   6.3601049  24.4541614  53.8571224   7.6345404  23.8522334
  52.1260000   8.3720000  24.9230000  51.8477774   8.9645501  24.0514641
  50.8940000   7.6700000  25.4720000  50.6480000   7.7210000  26.6770000
  50.1210000   7.0090000  24.5920000  50.2740000   6.8990000  23.1330000
  51.0349763   6.1554837  22.8959373  50.5673147   7.8633550  22.7181688
  48.8820000   6.4740000  22.6860000  48.9383940   5.9124885  21.7534639
  48.2461108   7.3480474  22.5453318  48.3850000   5.6340000  23.7910000
  48.8072045   4.6329917  23.7025427  47.2978366   5.5669127  23.8319216
  48.9160000   6.3140000  25.0610000  48.2441198   7.0644215  25.4775846
  49.2070000   5.2460000  26.1200000  50.1980000   4.5300000  26.0010000
  48.3200000   5.1170000  27.1000000  47.5376938   5.7550737  27.1309566
  48.4240000   4.0920000  28.1460000  49.4440418   3.9434094  28.5003089
  47.5430000   4.4650000  29.3370000  46.4999684   4.3998190  29.0272633
  47.7840000   3.5190000  30.5470000  48.8267810   3.5839898  30.8576182
  47.1397256   3.8155625  31.3746837  47.5547002   2.4932631  30.2582337
  47.7920000   5.8280000  29.6610000  47.2471563   6.0838119  30.4088676
  47.9710000   2.7630000  27.5700000  46.9090000   2.7080000  26.9300000
  48.7760000   1.6850000  27.7590000  50.0920000   1.5890000  28.4160000
  49.9639029   1.5178431  29.4961056  50.6908319   2.4683416  28.1788128
  50.6590000   0.3300000  27.8170000  51.4118377  -0.0993908  28.4780280
  51.1065102   0.5401312  26.8455676  49.4970000  -0.5590000  27.6780000
  49.3146657  -0.9649082  28.6730335  49.5769942  -1.3766573  26.9616641
  48.3400000   0.3840000  27.2750000  48.1616844   0.4273207  26.2005582
  47.0580000   0.0120000  27.9830000  46.7780000   0.5460000  29.0690000
  46.2930000  -0.8980000  27.3780000  46.5679808  -1.2358745  26.4667779
  45.0230000  -1.3690000  27.9400000  44.2838243  -0.5875454  27.7637980
  44.5670000  -2.6510000  27.2150000  45.2925948  -3.4454281  27.3896314
  43.5935097  -2.9583601  27.5970296  44.4920571  -2.4568438  26.1450532
  45.0890000  -1.6040000  29.4500000  45.8750000  -2.4240000  29.9230000
  44.2540000  -0.8850000  30.1930000  43.6800527  -0.1846127  29.7456282
  44.1760000  -1.0200000  31.6490000  45.0879306  -1.4068171  32.1038123
  43.8420000   0.3290000  32.2930000  42.9391645   0.7242274  31.8274008
  43.6120000   0.1770000  33.8200000  44.5146262  -0.2177721  34.2863924
  43.3766645   1.1500523  34.2511461  42.7829125  -0.5082089  33.9966472
  44.9430000   1.3430000  31.9660000  45.0147773   1.4663396  30.8853810
  44.7027417   2.3017947  32.4254434  45.8958966   0.9832930  32.3542007
  43.1540000  -2.0680000  32.0680000  41.9700000  -1.9780000  31.7050000
  43.5960000  -3.0530000  32.8510000  44.5719937  -3.1025352  33.1061115
  42.7110000  -4.1500000  33.2660000  42.1875809  -4.5469080  32.3961749
  43.5160000  -5.2870000  33.9160000  44.2361731  -4.8369643  34.5993139
  42.8199062  -5.9079711  34.4798690  44.2480000  -6.1420000  32.9030000
  43.5065809  -6.6383231  32.2768516  44.8639927  -5.4874629  32.2863670
  45.1310000  -7.1890000  33.5710000  45.5667163  -7.8298923  32.8045097
  45.9276167  -6.6864740  34.1196062  44.3740000  -8.0220000  34.5030000
  44.5529360  -7.8852090  35.4875656  43.4810000  -8.9420000  34.1410000
  43.2120000  -9.1630000  32.8570000  43.6888897  -8.6284391  32.1450162
  42.5321222  -9.8643254  32.6000788  42.8430000  -9.6450000  35.0690000
  43.0373739  -9.4793564  36.0461802  42.1661810 -10.3422434  34.7935614
  41.5730000  -3.7030000  34.1840000  40.4340000  -4.1410000  34.0180000
  41.8620000  -2.8040000  35.1250000  42.8258424  -2.5698143  35.3154317
  40.8230000  -2.1930000  35.9540000  40.0771792  -2.9531623  36.1863872
  41.4160000  -1.6730000  37.2650000  42.1581498  -0.9044352  37.0490791
  40.6225671  -1.2485692  37.8801609  41.8903605  -2.4950000  37.8010945
  40.1020000  -1.0660000  35.1930000  40.2330000   0.1240000  35.5340000
  39.3470000  -1.4590000  34.1640000  39.2989413  -2.4451612  33.9512188
  38.5660000  -0.5390000  33.3510000  38.5685873   0.4479983  33.8135222
  39.1490000  -0.4200000  31.9420000  39.1983910  -1.4187168  31.5081514
  38.4791688   0.2011608  31.3473694  40.4310000   0.1500000  31.9500000
  40.7612966   0.2073661  31.0504373  37.1600000  -1.0440000  33.2100000
  36.9400000  -2.2580000  33.1930000  36.2150000  -0.1130000  33.0700000
  36.4023718   0.8251839  33.3937316  34.9290000  -0.3850000  32.4580000
  34.6571576  -1.4303321  32.6045664  33.8600000   0.4890000  33.0950000
  33.8027022   0.2119037  34.1476319  34.1400121   1.5390628  33.0109677
  32.4810000   0.3710000  32.5480000  31.9790000   0.9690000  31.4330000
  32.6669467   1.5809349  30.8495920  30.6470000   0.6510000  31.2840000
  30.0321932   1.0163147  30.5707978  30.2790000  -0.1980000  32.2910000
  29.0450000  -0.7850000  32.5630000  28.2156571  -0.5889824  31.8833926
  28.9520000  -1.5780000  33.6770000  28.0043834  -2.0592662  33.9188794
  30.0540000  -1.7860000  34.5180000  29.9709120  -2.4141354  35.4049283
  31.2900000  -1.1960000  34.2460000  32.1273798  -1.4148674  34.9085653
  31.4040000  -0.3760000  33.1220000  35.1130000  -0.0340000  30.9740000
  35.3400000   1.1320000  30.6300000  35.0520000  -1.0490000  30.1230000
  34.8550710  -1.9782231  30.4663114  35.2540000  -0.8710000  28.6980000
  35.5754865   0.1372302  28.4368151  36.2670000  -1.8770000  28.1170000
  35.8716741  -2.8855109  28.2383358  36.5100000  -1.6040000  26.6480000
  36.9057957  -0.5957647  26.5259003  37.2279679  -2.3253462  26.2577664
  35.5714554  -1.6940341  26.1010726  37.5950000  -1.8740000  28.9500000
  37.3779668  -2.1506235  29.9817355  38.2948708  -2.5914398  28.5215602
  38.0368536  -0.8778450  28.9267285  33.8970000  -1.0870000  28.0640000
  33.2390000  -2.0830000  28.3560000  33.4710000  -0.1670000  27.2040000
  34.0255836   0.6451478  26.9738861  32.1120000  -0.2470000  26.6810000
  31.8734511  -1.2722421  26.3980297  31.1220000   0.2060000  27.7680000
  30.1041339  -0.0787074  27.5015614  31.3948453  -0.2644464  28.7126352
  31.1030000   1.6910000  28.0160000  30.0440000   2.3210000  28.6340000
  30.2880000   3.6190000  28.7090000  29.5657587   4.2934463  29.1689876
  31.4690000   3.8550000  28.1590000  31.9161997   4.7566606  28.0746176
  31.9990000   2.6680000  27.7150000  32.9729859   2.6551490  27.2258298
  31.8650000   0.4910000  25.3640000  32.6990000   1.2600000  24.8840000
  30.7010000   0.2200000  24.7850000  30.1219284  -0.5111184  25.1726097
  30.2380000   0.9050000  23.5760000  30.4603241   1.9689943  23.6571620
  30.9270000   0.3540000  22.3180000  31.9968691   0.3235479  22.5242812
  30.5576144  -0.6603147  22.1669370  30.6760000   1.1770000  21.0630000
  31.0306083   0.5982420  20.2101266  29.6002664   1.3296467  20.9758326
  31.3930000   2.5530000  21.0880000  31.0914314   3.0802214  21.9930928
  32.4687068   2.3785821  21.1110791  31.0400000   3.4000000  19.8630000
  31.8078485   4.1677926  19.7681120  31.0747314   2.7428101  18.9940959
  29.6930000   4.0490000  19.9440000  29.6607520   4.6583409  20.7488375
  29.5284219   4.5886904  19.1062958  28.9813156   3.3376996  20.0314995
  28.7230000   0.7530000  23.4610000  28.1880000  -0.3500000  23.5660000
  28.0410000   1.8780000  23.2870000  28.5209674   2.7611817  23.3855937
  26.6310000   1.8950000  22.9100000  26.1227899   1.0067891  23.2853706
  25.9100000   3.1450000  23.4590000  24.8952104   3.1598821  23.0614062
  25.8580000   3.1390000  24.9950000  26.8724996   3.1245875  25.3933498
  25.3434113   4.0338196  25.3451362  25.3211583   2.2543293  25.3374315
  26.5880000   4.3220000  22.9980000  26.1423934   5.1016121  23.3374701
  26.5250000   1.9570000  21.3810000  27.3990000   2.4580000  20.7030000
  25.4220000   1.4880000  20.8300000  24.6900262   1.0516857  21.3721656
  25.2430000   1.5970000  19.3970000  25.5608822   2.5861073  19.0672776
  25.8454330   0.8374640  18.8987240  23.7930000   1.3970000  19.0240000
  23.0750000   0.6720000  19.6970000  23.3840000   2.0350000  17.9380000
  24.0326159   2.6049405  17.4140108  22.0050000   1.9720000  17.4890000
  21.5876453   1.0096359  17.7852594  21.1710000   3.0960000  18.1470000
  21.5712464   4.0661014  17.8523713  20.1336856   3.0174790  17.8215564
  21.2194435   2.9977233  19.2314787  21.8920000   2.0890000  15.9960000
  22.7680000   2.6230000  15.3140000  20.7800000   1.5740000  15.5010000
  20.2696049   0.8820975  16.0309690  20.2780000   1.9450000  14.1900000
  20.8622106   2.7675780  13.7774923  20.3220000   0.7670000  13.2020000
  19.9368025   1.1053228  12.2400952  21.7610000   0.2410000  13.0230000
  22.1467300  -0.0979567  13.9844678  21.7592804  -0.5911557  12.3190020
  22.3952711   1.0399002  12.6388658  19.4740000  -0.2820000  13.6740000
  19.5012907  -1.0173797  13.0575000  18.8340000   2.4420000  14.3990000
  18.3270000   2.4750000  15.5190000  18.1710000   2.8030000  13.3130000
  18.6299751   2.7712345  12.4138715  16.7810000   3.2520000  13.3660000
  16.7655652   4.2491413  13.8059660  16.4033158   3.3001952  12.3446620
  15.8850000   2.3390000  14.1810000  15.0620000   2.8090000  14.9510000
  16.1120000   1.0310000  14.0610000  16.9100054   0.7276181  13.5213278
  15.2740000   0.0270000  14.6640000  14.4202676   0.5621059  15.0798147
  14.9389122  -0.6114657  13.8465790  15.8870000  -0.8370000  15.7440000
  15.2240000  -1.7410000  16.2130000  17.1390000  -0.5700000  16.1310000
  17.6168975   0.2354149  15.7528200  17.8530000  -1.4110000  17.1080000
  17.1401293  -2.0317137  17.6507973  18.8540000  -2.3220000  16.4010000
  19.5389518  -1.7799539  15.7489829  19.4200344  -2.8196920  17.1884057
  18.2260000  -3.4200000  15.5560000  17.7700000  -3.1440000  14.2810000
  17.8423993  -2.1231727  13.9058069  17.2130000  -4.1660000  13.4610000
  16.8324505  -3.9313194  12.4669136  17.1570000  -5.4610000  13.9330000
  16.7401837  -6.2489991  13.3057668  17.6330000  -5.7640000  15.2120000
  17.5819550  -6.7848505  15.5906275  18.1830000  -4.7380000  16.0160000
  18.5782022  -4.9728125  17.0043209  18.6330000  -0.5690000  18.1130000
  19.0220000   0.5650000  17.8220000  18.8760000  -1.1540000  19.2820000
  18.4601303  -2.0571705  19.4592983  19.7050000  -0.5650000  20.3140000
  20.3792467   0.1685276  19.8719278  19.0762464  -0.0772626  21.0589030
  20.5190000  -1.6350000  20.9860000  19.9830000  -2.6430000  21.4830000
  21.8220000  -1.4180000  20.9940000  22.1824157  -0.5753156  20.5696383
  22.7740000  -2.3750000  21.5490000  22.2444258  -3.1637669  22.0833193
  23.5920000  -3.0130000  20.4170000  24.3175224  -3.6915112  20.8657083
  22.9085500  -3.5793410  19.7843437  24.2740000  -2.0430000  19.6290000
  24.7704050  -2.4850576  18.9363478  23.7050000  -1.7110000  22.5630000
  23.9320000  -0.4920000  22.5110000  24.2500000  -2.5250000  23.4620000
  23.9374022  -3.4849198  23.4925939  25.2240000  -2.0920000  24.4330000
  25.8504833  -1.3115134  24.0011915  24.5350000  -1.5320000  25.6810000
  23.8542971  -0.7506369  25.3430437  23.9621014  -2.3418535  26.1326908
  25.4920000  -0.9590000  26.7050000  26.3370000   0.0960000  26.3740000
  26.2809410   0.5014536  25.3637702  27.2330000   0.6320000  27.2880000
  27.9055819   1.4390647  26.9975143  27.2760000   0.1280000  28.5660000
  28.1500000   0.6750000  29.4900000  28.6731225   1.3953540  29.1307889
  26.4250000  -0.9290000  28.9280000  26.4448276  -1.3215859  29.9446532
  25.5580000  -1.4740000  27.9900000  24.9204565  -2.3154471  28.2613026
  26.1200000  -3.2710000  24.7710000  25.6350000  -4.3980000  24.9170000
  27.4270000  -3.0170000  24.8340000  27.7676565  -2.1277917  24.4973087
  28.3940000  -3.9880000  25.3120000  27.9182452  -4.8214314  25.8288643
  29.2410000  -4.5460000  24.1550000  29.6785147  -3.7119939  23.6062615
  30.3600000  -5.4530000  24.6840000  29.9232128  -6.2875472  25.2324969
  30.9447821  -5.8351205  23.8472716  31.0080021  -4.8815226  25.3485363
  28.3270000  -5.3090000  23.1440000  27.5783007  -4.6257562  22.7430894
  28.9345757  -5.7007160  22.3282121  27.8293810  -6.1337417  23.6541739
  29.2720000  -3.3140000  26.3750000  29.6710000  -2.1640000  26.2000000
  29.5540000  -4.0260000  27.4660000  29.1347337  -4.9353468  27.5979225
  30.4380000  -3.5070000  28.5190000  31.1914650  -2.8450184  28.0921860
  29.6310000  -2.7160000  29.5940000  28.8784789  -3.3683577  30.0369914
  30.3088326  -2.3637085  30.3715178  29.1408991  -1.8623436  29.1258429
  31.1740000  -4.6820000  29.1590000  30.6180000  -5.7850000  29.3070000
  32.4040000  -4.4410000  29.5840000  32.8756982  -3.5739774  29.3698225
  33.1490000  -5.4770000  30.2730000  32.4838290  -5.9912604  30.9666735
  33.7370000  -6.5110000  29.2980000  34.2997344  -7.2445244  29.8753831
  32.9436988  -7.0149978  28.7459498  34.6810000  -5.9530000  28.2780000
  34.2060000  -5.4940000  27.0580000  33.1360958  -5.5262552  26.8521738
  35.0790000  -4.9980000  26.1060000  34.6874317  -4.6328615  25.1565534
  36.4170000  -4.9640000  26.3480000  37.0948592  -4.5696495  25.5909699
  36.9170000  -5.4270000  27.5480000  37.9898336  -5.4141831  27.7402600
  36.0430000  -5.9120000  28.5150000  36.4294597  -6.2647333  29.4712050
  34.2330000  -4.9000000  31.1680000  34.6430000  -3.7630000  31.0020000
  34.6440000  -5.7100000  32.1370000  34.2486792  -6.6372258  32.2008203
  35.6360000  -5.3130000  33.1260000  36.0878053  -4.3711492  32.8147314
  35.0350000  -5.1530000  34.5450000  34.6443667  -6.1125078  34.8838965
  36.1300000  -4.6710000  35.5190000  36.5208183  -3.7112538  35.1809927
  35.7057619  -4.5589016  36.5167759  36.9381813  -5.4018071  35.5483786
  33.8750000  -4.1660000  34.5750000  34.3058241  -3.1648778  34.5906741
  33.3120466  -4.3043101  33.6519327  32.9330000  -4.3380000  35.7810000
  33.4951831  -4.1993633  36.7044879  32.1346918  -3.5977613  35.7276160
  32.5014072  -5.3387971  35.7657476  36.7200000  -6.3930000  33.1530000
  36.5500000  -7.4060000  33.8260000  37.8290000  -6.1820000  32.4250000
  38.1770000  -4.9680000  31.6470000  38.5386750  -4.1934931  32.3233361
  37.2931129  -4.6067827  31.1212960  39.2360000  -5.4540000  30.7130000
  39.8843347  -4.6373722  30.3953835  38.7971342  -5.9307433  29.8365218
  39.9830000  -6.4540000  31.5500000  40.6470217  -5.9634639  32.2617222
  40.5558300  -7.1553229  30.9432780  38.8720000  -7.1980000  32.3010000
  38.4697545  -8.0045243  31.6879622  39.3410000  -7.7640000  33.6440000
  39.3910000  -8.9970000  33.8180000  39.6250000  -6.8630000  34.5800000
  39.5812254  -5.8882572  34.3191175  40.0070000  -7.1990000  35.9600000
  41.0394597  -7.5459875  36.0015444  39.8790000  -5.9380000  36.8220000
  40.4842937  -5.1776211  36.3284995  38.8283113  -5.6515860  36.7759526
  40.3060000  -6.0610000  38.2720000  39.7542217  -5.3057751  38.8317114
  40.0567417  -7.0505916  38.6549855  41.7750000  -5.8220000  38.4270000
  42.1340000  -4.8530000  39.1300000  42.5650000  -6.5840000  37.8120000
  39.1410000  -8.3000000  36.5850000  39.6540000  -9.1560000  37.3330000
  37.8420000  -8.2700000  36.2860000  37.5121008  -7.6074077  35.5988047
  36.8650000  -9.1240000  36.9460000  37.3071201  -9.5888165  37.8272347
  35.6600000  -8.2890000  37.3860000  35.2079908  -7.9019203  36.4727880
  34.9693234  -8.9812722  37.8674822  35.9600000  -7.1420000  38.3250000
  36.7360935  -6.5210562  37.8775533  35.0524605  -6.5520867  38.4533602
  36.4320000  -7.6450000  39.6780000  35.6835998  -8.3309979  40.0747406
  37.3746966  -8.1752072  39.5427122  36.6320000  -6.5000000  40.6490000
  37.0442792  -5.6508027  40.1040317  35.6634009  -6.2267828  41.0676493
  37.5570000  -6.8790000  41.7480000  38.4547173  -7.1317915  41.3603148
  37.6701576  -6.0972594  42.3774259  37.1749520  -7.6655984  42.2533724
  36.3650000 -10.2850000  36.0890000  35.5160000 -11.0410000  36.5450000
  36.8690000 -10.4260000  34.8670000  37.5742401  -9.7794428  34.5434269
  36.3920000 -11.4680000  33.9330000  36.8280592 -11.3067888  32.9471184
  36.7990000 -12.8620000  34.4270000  36.2307117 -13.0610299  35.3355894
  36.5101216 -13.5750608  33.6548643  38.2720000 -13.0030000  34.7150000
  38.8047121 -12.8566716  33.7753689  38.5519509 -12.2174828  35.4169183
  38.6400000 -14.3650000  35.3020000  37.8890000 -15.3600000  35.1130000
  39.6940000 -14.4320000  35.9640000  34.8640000 -11.4040000  33.7450000
  34.1880000 -12.4420000  33.6200000  34.3460000 -10.1750000  33.7110000
  34.9800903  -9.3916245  33.6450330  32.9240000  -9.9040000  33.7800000
  32.3536339 -10.8323010  33.7477667  32.6240000  -9.1940000  35.0930000
  33.1052500  -9.8522291  35.8163478  33.1594946  -8.2454434  35.0531756
  31.1870000  -8.9460000  35.5130000  30.7171241  -8.2952635  34.7755317
  30.3980000 -10.2630000  35.6110000  30.8670404 -10.9141168  36.3486632
  29.3725811 -10.0511569  35.9138850  30.3945480 -10.7581984  34.6399866
  31.1340000  -8.1840000  36.8690000  31.6415801  -7.2247607  36.7674039
  30.0947535  -8.0164061  37.1518077  31.6284950  -8.7763982  37.6388299
  32.4900000  -9.0260000  32.5950000  33.1490000  -8.0450000  32.2730000
  31.3890000  -9.3880000  31.9480000  30.8791381 -10.2205170  32.2069512
  30.8850000  -8.5850000  30.8380000  31.0161722  -7.5341950  31.0962670
  31.4809520  -8.8189200  29.9558311  29.4330000  -8.8360000  30.5290000
  28.8110000  -9.7710000  31.0670000  28.8940000  -7.9770000  29.6710000
  29.4527456  -7.2217080  29.3002755  27.5020000  -8.0490000  29.2920000
  27.1405608  -9.0755753  29.2319667  26.6000000  -7.2410000  30.2520000
  26.7830383  -7.5747851  31.2733642  26.9010000  -5.7400000  30.1430000
  26.7177347  -5.4053618  29.1219556  26.2554531  -5.1888549  30.8268195
  27.9438895  -5.5582410  30.4027003  25.1110000  -7.5570000  30.0060000
  24.8448215  -7.1324328  29.0380163  25.0118104  -8.6417417  29.9660447
  24.1850000  -7.0040000  31.0720000  24.2832972  -5.9191871  31.1122302
  23.1548791  -7.2662664  30.8308226  24.4502880  -7.4284946  32.0402595
  27.3330000  -7.5500000  27.8510000  28.0460000  -6.6430000  27.3910000
  26.3770000  -8.1780000  27.1750000  25.9380781  -8.9703390  27.6218174
  25.8910000  -7.7670000  25.8820000  26.2840257  -6.7931928  25.5898879
  26.2350000  -8.7970000  24.7670000  25.7525715  -9.7458876  25.0014658
  25.7420000  -8.2950000  23.3910000  26.2243761  -7.3463115  23.1556188
  25.9919971  -9.0290355  22.6249754  24.6614196  -8.1550894  23.4205399
  27.7190000  -9.0940000  24.7380000  28.0265120  -9.5057564  25.6992466
  27.9301430  -9.8164340  23.9495792  28.2704763  -8.1739775  24.5442648
  24.3800000  -7.7020000  25.9670000  23.7180000  -8.6570000  26.4090000
  23.8360000  -6.5800000  25.5320000  24.4342138  -5.8274177  25.2223882
  22.3960000  -6.3770000  25.4930000  21.8843266  -7.3032536  25.7544263
  21.9860000  -5.2990000  26.4840000  22.4820123  -4.3811771  26.1682909
  20.9069085  -5.1804093  26.3860310  22.3300000  -5.5860000  27.9190000
  21.5845419  -6.2765636  28.3133539  23.3115727  -6.0593402  27.9427932
  22.3630000  -4.0930000  28.9480000  20.7010000  -3.4710000  28.7290000
  19.9849731  -4.2165468  29.0747808  20.5768002  -2.5540713  29.3051223
  20.5266205  -3.2626672  27.6734004  22.0040000  -5.9610000  24.0720000
  22.4120000  -4.8930000  23.6060000  21.2210000  -6.7950000  23.3880000
  20.8951690  -7.6375645  23.8396841  20.7930000  -6.5350000  22.0020000
  21.2211223  -5.5946278  21.6548537  21.2630000  -7.6620000  21.0700000
  20.6398157  -8.5013646  21.3785572  20.9887279  -7.3586358  20.0596312
  22.7260000  -8.0810000  21.0940000  22.9879246  -8.4111818  22.0992245
  22.9610000  -9.2250000  20.1040000  22.6997165  -8.8954028  19.0984179
  24.0106988  -9.5176213  20.1286168  22.3401269 -10.0775918  20.3791440
  23.6260000  -6.8690000  20.7630000  23.4651183  -6.0838231  21.5017244
  24.6716144  -7.1762963  20.7819947  23.3769245  -6.4908613  19.7715004
  19.2810000  -6.4730000  21.9550000  18.6110000  -7.3680000  22.4680000
  18.7470000  -5.4200000  21.3570000  19.3593956  -4.7345091  20.9384631
  17.3030000  -5.2000000  21.2780000  16.7602843  -6.1285254  21.4551988
  16.8780000  -4.1900000  22.3100000  17.4062500  -3.2518234  22.1400687
  15.8039872  -4.0207818  22.2327861  17.1155675  -4.5649754  23.3055171
  16.9230000  -4.6870000  19.9010000  17.6970000  -3.9580000  19.2910000
  15.7270000  -5.0500000  19.4360000  15.2317821  -5.7903499  19.9121729
  15.1930000  -4.5650000  18.1660000  15.9929624  -4.0761127  17.6099887
  14.6180000  -5.7020000  17.3030000  14.2810557  -5.2716211  16.3599508
  15.4030650  -6.4326845  17.1083900  13.4440000  -6.4130000  17.9600000
  13.1690000  -6.2030000  19.1450000  12.7510000  -7.2760000  17.1850000
  11.9621551  -7.7749348  17.5708596  13.0249585  -7.4182568  16.2233293
  14.2190000  -3.3870000  18.3550000  13.1790000  -3.2820000  17.6820000
  14.6050000  -2.5100000  19.2840000  15.2940569  -2.8263713  19.9512399
  14.1230000  -1.1320000  19.3850000  13.7205832  -0.8180210  18.4218920
  13.0300000  -1.0040000  20.4330000  12.2981701  -1.7920945  20.2557109
  13.4843418  -1.1447310  21.4137489  12.3450000   0.3370000  20.3850000
  13.1037095   1.1086008  20.5157395  11.8828442   0.4451658  19.4037690
  11.2880000   0.4820000  21.4590000  10.4214656  -0.1265548  21.2003919
  11.6930201   0.1490384  22.4146122  10.8680000   1.9440000  21.5670000
  11.7020781   2.5006915  21.9942105  10.6660317   2.3090065  20.5599855
   9.6690000   2.1320000  22.4080000   9.8560808   1.7942342  23.3412817
   9.4349257   3.1137713  22.4458734   8.8958968   1.6165829  22.0120760
  15.2970000  -0.2520000  19.8060000  16.0740000  -0.6380000  20.6770000
  15.3960000   0.9260000  19.2000000  14.7862380   1.1280174  18.4205908
  16.3640000   1.9420000  19.6030000  17.3034842   1.4687669  19.8885153
  16.6330000   2.9020000  18.4440000  16.9792117   2.3229215  17.5879014
  15.7008895   3.4058209  18.1881980  17.6830000   3.9580000  18.7750000
  18.1990000   4.0270000  19.9030000  18.0060000   4.7880000  17.7930000
  18.6954629   5.5088626  17.9514227  17.5611250   4.6956425  16.8909706
  15.7690000   2.6840000  20.7980000  14.9520000   3.5980000  20.6240000
  16.1370000   2.2560000  21.9950000  16.7051640   1.4225700  22.0468021
  15.6810000   2.8740000  23.2600000  14.9209110   3.6222538  23.0353220
  15.0800000   1.8370000  24.2290000  14.6609100   2.4065616  25.0584953
  14.2756461   1.3381589  23.6883778  16.0540000   0.7920000  24.7700000
  16.5680000   0.8920000  26.0520000  16.2673246   1.7399168  26.6674111
  17.4430000  -0.0520000  26.5560000  17.8080782   0.0318118  27.5796188
  17.8540000  -1.1250000  25.7500000  18.7480000  -2.0540000  26.2430000
  19.0219495  -1.8693730  27.1443680  17.3730000  -1.2420000  24.4720000
  17.6940305  -2.0646937  23.8330830  16.4610000  -0.2930000  23.9880000
  16.0534550  -0.3923907  22.9819539  16.8460000   3.6370000  23.8870000
  18.0050000   3.3690000  23.5780000  16.5680000   4.5800000  24.8000000
  15.2920000   4.8900000  25.4720000  15.1422359   4.2077981  26.3088223
  14.4691273   4.7833150  24.7651777  15.4860000   6.3130000  25.9150000
  14.8571424   6.5206674  26.7807433  15.2231756   6.9925390  25.1042895
  16.9320000   6.4240000  26.2540000  17.1619455   6.0882184  27.2651750
  17.2648584   7.4544247  26.1293808  17.6400000   5.5120000  25.2230000
  17.9216360   6.0689937  24.3293908  18.8810000   4.8830000  25.8400000
  18.7900000   3.9580000  26.6730000  20.0490000   5.3990000  25.4520000
  20.0727167   6.0753273  24.7022546  21.3200000   4.9330000  26.0060000
  21.5192352   3.9194964  25.6578405  22.4810000   5.8410000  25.5660000
  22.1651056   6.8766267  25.6916480  23.3436219   5.6449950  26.2028402
  22.8910000   5.6290000  24.1100000  22.6580000   4.5680000  23.5400000
  23.5240000   6.6570000  23.5050000  23.8168865   6.5694730  22.5423701
  23.7016958   7.5087614  24.0178621  21.3820000   4.7620000  27.5260000
  21.8340000   3.7260000  28.0220000  20.9570000   5.7890000  28.2840000
  20.3690000   7.0870000  27.9230000  19.2881996   6.9951404  27.8156105
  20.7970883   7.4484034  26.9879989  20.7620000   7.9360000  29.0990000
  20.1202328   8.8134486  29.1784853  21.8019233   8.2530101  29.0204788
  20.5750000   7.0300000  30.2390000  19.5245555   6.9380607  30.5150662
  21.1512350   7.3521048  31.1063530  21.1030000   5.6760000  29.7310000
  22.1678651   5.5578818  29.9315212  20.3390000   4.5240000  30.3610000
  20.7830000   4.0200000  31.3570000  19.2070000   4.1320000  29.7820000
  18.8270406   4.6813913  29.0244385  18.4550000   2.9610000  30.2350000
  18.2359470   3.0547227  31.2986405  17.1330000   2.8530000  29.4710000
  17.3361561   2.7494029  28.4051223  16.5804084   1.9812544  29.8214319
  16.5397107   3.7513271  29.6416324  19.2940000   1.6870000  30.0530000
  19.2810000   0.7970000  30.9150000  20.0400000   1.6180000  28.9460000
  19.9862611   2.3531714  28.2555404  20.9300000   0.4750000  28.6810000
  20.3536444  -0.4490673  28.7258663  21.5850000   0.5810000  27.2860000
  22.3326183   1.3722582  27.3414671  22.0781667  -0.3709908  27.0895309
  20.6170000   0.8830000  26.1740000  19.8460551   0.1124754  26.1800573
  20.1624551   1.8526340  26.3772262  21.2910000   0.9150000  24.8100000
  22.2657239   1.3967076  24.8872671  21.4167217  -0.0998348  24.4326356
  20.4790000   1.6600000  23.8740000  19.5372741   1.8889979  24.1582739
  20.8880000   2.0410000  22.6670000  22.1130000   1.7370000  22.2580000
  22.7303812   1.2171737  22.8652241  22.4225035   2.0268092  21.3413115
  20.0850000   2.7370000  21.8840000  19.1583037   2.9797709  22.2039943
  20.4009808   3.0235639  20.9685023  22.0190000   0.3760000  29.7120000
  22.2610000  -0.6840000  30.2980000  22.7030000   1.4950000  29.9290000
  22.4503596   2.3408570  29.4382882  23.8640000   1.5190000  30.7740000
  24.5185822   0.6736506  30.5618547  24.6700000   2.8300000  30.5830000
  24.0395066   3.6785111  30.8487184  25.9080000   2.8210000  31.4690000
  26.5392544   1.9729725  31.2035413  26.4649579   3.7468889  31.3253753
  25.6074221   2.7366838  32.5133397  25.0600000   2.9730000  29.1040000
  24.1588810   3.0056648  28.4916115  25.6269839   3.8934287  28.9645732
  25.6712445   2.1215105  28.8049236  23.4760000   1.3080000  32.2440000
  24.1850000   0.6360000  32.9840000  22.3480000   1.8810000  32.6420000
  21.8522208   2.5015161  32.0180913  21.8180000   1.6860000  33.9930000
  22.5458318   2.0275834  34.7289897  20.5280000   2.4800000  34.1780000
  20.7651033   3.5436450  34.1547479  19.8868687   2.2326181  33.3319191
  19.8000000   2.1480000  35.4840000  20.1040000   2.7670000  36.5360000
  18.9100000   1.2870000  35.4400000  21.5790000   0.1990000  34.2580000
  21.9890000  -0.3310000  35.2830000  20.9010000  -0.4630000  33.3230000
  20.4833611   0.0521574  32.5612324  20.6360000  -1.8980000  33.4170000
  20.1015292  -2.0672211  34.3517750  19.7070000  -2.3420000  32.2160000
  20.2319454  -2.1870293  31.2733885  19.4550258  -3.3971910  32.3217416
  18.7930181  -1.7481402  32.2241773  21.9170000  -2.7260000  33.4920000
  22.0920000  -3.5990000  34.3640000  22.8550000  -2.4220000  32.5980000
  22.6499812  -1.7518432  31.8707061  24.1430000  -3.0750000  32.5840000
  23.9744444  -4.1412727  32.4331669  24.9790000  -2.5480000  31.4310000
  25.1638978  -1.4831643  31.5725547  25.9297352  -3.0800806  31.3979382
  24.4442879  -2.7019439  30.4937255  24.8950000  -2.9130000  33.9050000
  25.4690000  -3.8750000  34.3870000  24.9090000  -1.6940000  34.4590000
  24.4497793  -0.9436637  33.9628034  25.5690000  -1.3840000  35.7360000
  26.6332348  -1.6098397  35.6689187  25.4030000   0.1110000  36.0720000
  26.1572932   0.7390611  35.5979955  24.4118411   0.4239486  35.7437208
  25.4760000   0.3920000  37.5540000  24.4320000   0.6320000  38.4050000
  23.4327475   0.6401716  37.9696525  24.8990000   0.8190000  39.6850000
  24.3344407   1.0183550  40.4984064  26.2620000   0.6810000  39.6770000
  27.1760000   0.7720000  40.7160000  26.8139989   0.9871801  41.7213613
  28.4930000   0.5820000  40.4020000  29.2447059   0.6456273  41.1887591
  28.9060000   0.3050000  39.0830000  29.9604702   0.1578702  38.8494513
  28.0080000   0.2130000  38.0660000  28.3830915   0.0156905  37.0617709
  26.6530000   0.3990000  38.3490000  24.9810000  -2.2170000  36.8710000
  25.6880000  -2.8320000  37.6750000  23.6650000  -2.2160000  36.9370000
  23.1192086  -1.6647148  36.2902421  22.9640000  -2.9430000  37.9880000
  23.2757089  -2.5737976  38.9650498  21.4550000  -2.7500000  37.8520000
  21.2023467  -2.9094507  36.8037438  20.9753762  -3.5159780  38.4613757
  20.9620000  -1.3630000  38.2920000  21.5766625  -0.6171312  37.7880451
  19.9270920  -1.2610252  37.9653983  21.0270000  -1.1070000  39.8260000
  21.4200000  -1.9690000  40.6260000  20.6400000   0.0790000  40.2150000
  20.6556076   0.3151026  41.1968928  20.3270954   0.7540000  39.5319428
  23.3360000  -4.4190000  37.9600000  23.6480000  -5.0230000  39.0010000
  23.3210000  -4.9970000  36.7550000  22.9612266  -4.4901236  35.9589229
  23.6710000  -6.3930000  36.5800000  23.1360298  -7.0056054  37.3056863
  23.3410000  -6.8900000  35.1350000  23.7540190  -6.1768660  34.4215888
  23.9330000  -8.2780000  34.8700000  23.5200726  -8.9918208  35.5827774
  23.6841908  -8.5922107  33.8563598  25.0165180  -8.2388769  34.9820598
  21.8210000  -6.9230000  34.9390000  21.4495072  -7.7449275  35.5509878
  21.4398041  -5.9792153  35.3289483  21.3390000  -7.1100000  33.4730000
  21.7194443  -8.0538592  33.0824981  20.2493591  -7.1193023  33.4466312
  21.7097435  -6.2881476  32.8604579  25.1190000  -6.6670000  36.9750000
  25.3670000  -7.5170000  37.8260000  26.0720000  -5.9250000  36.4080000
  25.8280673  -5.1897600  35.7599118  27.4820000  -6.2040000  36.6360000
  27.6582951  -7.2757096  36.5440346  28.3640000  -5.4750000  35.6220000
  28.0359986  -4.4390731  35.7078474  29.3991534  -5.5564709  35.9535418
  28.2590000  -5.9250000  34.1580000  27.3146227  -5.5646976  33.7500361
  29.4270000  -5.3690000  33.3180000  30.3717580  -5.7292710  33.7251068
  29.3250904  -5.7047002  32.2860017  29.4107477  -4.2795457  33.3484228
  28.2090000  -7.4380000  34.0510000  27.3404299  -7.8125597  34.5926552
  28.1347691  -7.7263504  33.0024557  29.1158377  -7.8633298  34.4809289
  27.9080000  -5.8460000  38.0740000  28.7230000  -6.5440000  38.6740000
  27.3400000  -4.7820000  38.6140000  26.7224841  -4.1838101  38.0839601
  27.6570000  -4.4050000  39.9930000  28.7390809  -4.3339936  40.1032645
  27.0410000  -3.0670000  40.3720000  27.3748569  -2.3158913  39.6561267
  25.9539395  -3.1404769  40.3403685  27.4580000  -2.6280000  41.7670000
  28.6430000  -2.4640000  42.0480000  26.4970000  -2.4550000  42.6310000
  26.7154297  -2.1636558  43.5730758  25.5386384  -2.6131400  42.3541688
  27.2010000  -5.4850000  40.9820000  27.8800000  -5.7500000  41.9730000
  26.0550000  -6.1020000  40.7040000  25.5162557  -5.8103900  39.9009947
  25.5030000  -7.1500000  41.5680000  25.5352878  -6.7993816  42.5995636
  24.0410000  -7.4320000  41.1910000  23.9932681  -7.7926299  40.1634944
  23.6320814  -8.1887557  41.8604823  23.4586440  -6.5150250  41.2810978
  26.3360000  -8.4270000  41.4980000  26.3440000  -9.2290000  42.4280000
  27.0300000  -8.6210000  40.3770000  26.9847970  -7.9244250  39.6470416
  27.8240000  -9.8300000  40.1360000  27.4784154 -10.6432727  40.7741678
  27.6710000 -10.2580000  38.6700000  27.8910043  -9.3567548  38.0977636
  28.4332484 -11.0106959  38.4686883  26.3030000 -10.7980000  38.2620000
  25.5392325 -10.0632576  38.5167815  26.2670000 -11.0710000  36.7470000
  27.0302364 -11.8060457  36.4915067  25.2855427 -11.4557391  36.4698390
  26.4597022 -10.1447392  36.2056987  25.9770000 -12.0760000  39.0290000
  25.9678392 -11.8661355  40.0985665  24.9977232 -12.4441650  38.7231036
  26.7322083 -12.8320173  38.8140643  29.3090000  -9.6590000  40.4550000
  30.0550000 -10.6430000  40.5120000  29.7330000  -8.4110000  40.6270000
  29.0671296  -7.6524800  40.5900754  31.1540000  -8.0820000  40.7840000
  31.7401439  -8.6580519  40.0679702  31.4130000  -6.5780000  40.5380000
  31.8258863  -6.5133356  39.5313011  30.4311259  -6.1051335  40.5585055
  32.3540000  -5.8540000  41.5280000  32.9140116  -6.6090838  42.0796668
  33.0456555  -5.2340044  40.9576316  31.6160000  -4.9690000  42.5260000
  32.1200000  -4.6970000  43.6170000  30.4240000  -4.5210000  42.1630000
  29.8969046  -3.9310908  42.7909164  30.0473845  -4.7712574  41.2598758
  31.6170000  -8.5130000  42.1500000  30.8480000  -8.4220000  43.1110000
  32.7590000  -8.9680000  42.2990000
