Cpptraj Generated Restart                                                       
 4136
  55.2960000  -1.0340000   3.2850000  55.8330000  -0.2420000   4.4140000
  57.2530000  -0.4770000   4.6420000  57.6890000  -1.0810000   3.2720000
  56.4710000  -2.0090000   3.0250000  55.5700000   1.1020000   4.4040000
  56.6110000   1.8210000   4.9030000  57.7960000   0.9710000   4.8250000
  54.4360000   1.5700000   4.0050000  54.0370000   2.9210000   4.0260000
  52.6670000   3.2300000   4.2220000  52.2450000   4.5770000   4.1710000
  53.1800000   5.6170000   3.9750000  54.5350000   5.3020000   3.7900000
  54.9540000   3.9660000   3.7920000  51.6340000   2.1240000   4.4790000
  50.5240000   4.9510000   4.3070000  58.9050000  -1.8120000   3.3550000
  52.7660000   6.9920000   3.9340000  52.4220000   8.1040000   3.8920000
  58.6770000   1.1440000   6.0910000  59.7840000   0.3700000   6.0430000
  58.0070000   0.8030000   7.2170000  59.0940000   2.4200000   6.2400000
  55.1130000  -0.4130000   2.3990000  54.3640000  -1.5500000   3.5510000
  57.4420000  -1.1450000   5.4910000  57.7500000  -0.3180000   2.4870000
  56.4390000  -2.4260000   2.0130000  56.4580000  -2.8500000   3.7270000
  58.3850000   1.2920000   3.9560000  55.2680000   6.0880000   3.6300000
  56.0020000   3.7520000   3.6010000  52.0920000   1.1840000   4.8080000
  51.0480000   1.9030000   3.5790000  50.9360000   2.4080000   5.2750000
  59.6130000  -1.1450000   3.3410000  37.9690000  29.1580000  22.9820000
  38.1350000  30.1200000  22.7220000  38.8380000  28.6530000  22.8870000
  37.7010000  29.1430000  23.9560000  36.8900000  28.5630000  22.1380000
  36.7000000  27.5450000  22.4770000  35.5730000  29.3630000  22.3410000
  35.3240000  29.3780000  23.4020000  35.7440000  30.3980000  22.0430000
  34.3340000  28.8650000  21.5740000  33.5660000  29.6360000  21.6390000
  34.5600000  28.7280000  20.5160000  33.7700000  27.5640000  22.1390000
  34.4280000  26.5340000  22.1680000  32.5440000  27.5560000  22.6160000
  31.9910000  28.4020000  22.6190000  32.1770000  26.6910000  22.9870000
  37.3070000  28.5120000  20.6500000  37.2800000  29.5610000  20.0010000
  37.6960000  27.3470000  20.0730000  37.5950000  27.1640000  18.6250000
  38.5650000  27.3380000  18.1590000  36.8550000  27.8340000  18.1880000
  37.1600000  25.7140000  18.3910000  37.9090000  25.2010000  17.7890000
  36.1900000  25.6730000  17.8960000  37.0760000  25.0940000  19.7900000
  37.4360000  24.0650000  19.8000000  36.0400000  25.1270000  20.1290000
  37.9210000  26.0220000  20.6730000  37.5510000  25.9540000  21.6950000
  39.4210000  25.6300000  20.6440000  39.9770000  25.3040000  19.5940000
  40.0930000  25.6720000  21.8050000  39.5680000  25.8610000  22.6470000
  41.5570000  25.4720000  21.9460000  42.0560000  26.2910000  21.4270000
  41.9910000  25.5490000  23.4340000  41.3620000  24.8730000  24.0130000
  43.4600000  25.1200000  23.6300000  44.1160000  25.7410000  23.0200000
  43.7540000  25.2130000  24.6750000  43.6000000  24.0740000  23.3560000
  41.7950000  26.9890000  23.9640000  42.5320000  27.6490000  23.5060000
  40.8070000  27.3510000  23.6800000  41.8920000  27.1120000  25.4900000
  42.9080000  26.9110000  25.8290000  41.6250000  28.1260000  25.7860000
  41.2030000  26.4130000  25.9640000  42.0450000  24.1830000  21.2680000
  42.9980000  24.2160000  20.4940000  41.3890000  23.0530000  21.5450000
  40.6120000  23.1060000  22.1880000  41.7850000  21.7300000  21.0470000
  42.7570000  21.4780000  21.4700000  40.7650000  20.7060000  21.5610000
  40.7620000  20.7370000  22.6510000  39.7690000  20.9950000  21.2280000
  41.0280000  19.2810000  21.1260000  41.9010000  18.4690000  21.8730000
  42.3980000  18.8670000  22.7460000  42.0960000  17.1270000  21.5090000
  42.7380000  16.4980000  22.1080000  41.4330000  16.5990000  20.3870000
  41.5670000  15.5640000  20.1100000  40.5880000  17.4170000  19.6200000
  40.0900000  17.0100000  18.7520000  40.3800000  18.7560000  19.9910000
  39.7110000  19.3760000  19.4140000  41.9320000  21.6810000  19.5160000
  42.9960000  21.3300000  19.0040000  40.8920000  22.0930000  18.7780000
  40.0630000  22.4130000  19.2580000  40.9340000  22.1700000  17.3120000
  41.2940000  21.2160000  16.9270000  39.5280000  22.4320000  16.7490000
  39.0960000  23.2830000  17.2750000  39.6240000  22.7100000  15.7000000
  38.5620000  21.2380000  16.8400000  38.4510000  20.9280000  17.8790000
  37.1950000  21.6750000  16.3180000  37.2870000  22.0480000  15.2980000
  36.5000000  20.8350000  16.3330000  36.7970000  22.4680000  16.9510000
  39.0480000  20.0440000  16.0120000  39.9050000  19.5760000  16.4970000
  38.2570000  19.2980000  15.9330000  39.3340000  20.3690000  15.0120000
  41.9250000  23.2260000  16.8040000  42.6440000  22.9570000  15.8410000
  42.0150000  24.3880000  17.4620000  41.3830000  24.5620000  18.2300000
  43.0000000  25.4190000  17.1140000  42.8400000  25.7050000  16.0750000
  42.8030000  26.6720000  17.9880000  42.8160000  26.3900000  19.0410000
  43.6370000  27.3530000  17.8180000  41.5240000  27.4470000  17.6990000
  40.8420000  27.2610000  16.7000000  41.1790000  28.3840000  18.5550000
  41.7560000  28.5760000  19.3620000  40.3480000  28.9250000  18.3640000
  44.4460000  24.8900000  17.1940000  45.2560000  25.1930000  16.3150000
  44.7640000  24.0660000  18.2030000  44.0720000  23.9050000  18.9210000
  46.0530000  23.3610000  18.3020000  46.8430000  24.0880000  18.1170000
  46.3040000  22.7850000  19.7110000  45.4790000  22.1310000  19.9920000
  47.6110000  21.9830000  19.7670000  48.4340000  22.5780000  19.3700000
  47.8450000  21.7200000  20.7990000  47.5210000  21.0630000  19.1900000
  46.4260000  23.9070000  20.7510000  45.5240000  24.5190000  20.7620000
  46.5580000  23.4760000  21.7440000  47.2790000  24.5430000  20.5190000
  46.1950000  22.2950000  17.2110000  47.1610000  22.3650000  16.4540000
  45.2600000  21.3380000  17.0850000  44.4740000  21.3450000  17.7190000
  45.3530000  20.2550000  16.0860000  46.2350000  19.6570000  16.3140000
  44.1260000  19.3200000  16.1280000  43.2200000  19.9180000  16.0250000
  44.1910000  18.6780000  15.2500000  43.9780000  18.4020000  17.3590000
  43.6740000  18.9880000  18.2260000  42.9000000  17.3560000  17.0650000
  43.2010000  16.7310000  16.2240000  42.7600000  16.7190000  17.9390000
  41.9570000  17.8500000  16.8350000  45.2570000  17.6410000  17.7110000
  46.0120000  18.3370000  18.0780000  45.0510000  16.9210000  18.5030000
  45.6370000  17.1120000  16.8370000  45.5670000  20.7740000  14.6510000
  46.4490000  20.2830000  13.9470000  44.8030000  21.7830000  14.2260000
  44.0910000  22.1430000  14.8460000  44.9400000  22.4030000  12.9000000
  44.8880000  21.6190000  12.1440000  43.7760000  23.3770000  12.6450000
  43.7060000  24.0780000  13.4770000  43.9870000  23.9400000  11.7360000
  42.4330000  22.6460000  12.4610000  42.5120000  22.0120000  11.5780000
  42.2540000  21.9990000  13.3190000  41.2210000  23.5880000  12.2860000
  41.3910000  24.8150000  12.0730000  40.0690000  23.0880000  12.3250000
  46.2960000  23.1120000  12.6930000  46.8010000  23.1480000  11.5680000
  46.9030000  23.6590000  13.7550000  46.4560000  23.5790000  14.6570000
  48.2230000  24.2900000  13.7120000  48.2850000  24.9000000  12.8110000
  48.3570000  25.2340000  14.9140000  49.3170000  25.7490000  14.8680000
  47.5590000  25.9770000  14.8910000  48.3000000  24.6750000  15.8470000
  49.3870000  23.2760000  13.6570000  50.3040000  23.4370000  12.8460000
  49.3730000  22.2470000  14.5150000  48.6020000  22.1860000  15.1650000
  50.4630000  21.2550000  14.6280000  51.4040000  21.8040000  14.5880000
  50.4460000  20.5270000  15.9920000  51.3380000  19.9010000  16.0260000
  50.5540000  21.5310000  17.1540000  49.6770000  22.1760000  17.1920000
  50.6350000  21.0020000  18.1040000  51.4430000  22.1480000  17.0260000
  49.2260000  19.5970000  16.1500000  48.3290000  20.2010000  16.2870000
  49.0890000  19.0030000  15.2460000  49.3370000  18.6170000  17.3170000
  49.3100000  19.1470000  18.2690000  48.4890000  17.9340000  17.2640000
  50.2600000  18.0430000  17.2380000  50.5240000  20.2430000  13.4670000
  51.5590000  19.6020000  13.2780000  49.4310000  20.0560000  12.7190000
  48.5980000  20.5740000  12.9620000  49.3270000  19.0820000  11.6220000
  49.3650000  18.0910000  12.0740000  47.9430000  19.2360000  10.9610000
  47.1700000  19.0800000  11.7130000  47.8450000  20.2580000  10.5960000
  47.6640000  18.2860000   9.7860000  46.6840000  18.5360000   9.3800000
  48.3950000  18.4760000   8.9990000  47.6790000  16.7880000  10.1520000
  47.7460000  16.4280000  11.3520000  47.6280000  15.9440000   9.2270000
  50.4670000  19.2190000  10.5760000  50.6890000  20.3280000  10.0710000
  51.1730000  18.1260000  10.2030000  51.1730000  16.8260000  10.8620000
  50.3570000  16.2180000  10.4700000  51.0920000  16.9200000  11.9450000
  52.5110000  16.1770000  10.5110000  52.4520000  15.0890000  10.5260000
  53.2860000  16.5330000  11.1880000  52.7650000  16.7170000   9.1080000
  52.1810000  16.1430000   8.3880000  53.8220000  16.6960000   8.8430000
  52.2370000  18.1520000   9.1950000  53.0340000  18.7930000   9.5710000
  51.8070000  18.6520000   7.8060000  50.6790000  18.4220000   7.3570000
  52.7410000  19.3070000   7.1070000  53.6370000  19.4630000   7.5450000
  52.6020000  19.6920000   5.6960000  53.3070000  20.4950000   5.4820000
  51.5960000  20.0730000   5.5190000  52.8620000  18.5390000   4.7130000
  52.8080000  17.3580000   5.0700000  53.1500000  18.8860000   3.4550000
  53.1870000  19.8710000   3.2380000  53.4680000  17.9290000   2.3750000
  52.6780000  17.1790000   2.3420000  53.4920000  18.6430000   1.0060000
  54.2070000  19.4650000   1.0440000  53.8970000  17.7080000  -0.1390000
  53.2280000  16.8480000  -0.1770000  53.8440000  18.2470000  -1.0850000
  54.9240000  17.3670000  -0.0120000  52.1110000  19.2170000   0.6620000
  51.8070000  19.9520000   1.4080000  52.1490000  19.7150000  -0.3070000
  51.3710000  18.4180000   0.6250000  54.8000000  17.2090000   2.6390000
  55.8120000  17.8550000   2.9240000  54.8120000  15.8750000   2.5050000
  53.9410000  15.4150000   2.2800000  56.0120000  15.0220000   2.6390000
  56.8820000  15.6550000   2.8180000  55.9050000  14.0640000   3.8510000
  55.1320000  13.3190000   3.6630000  57.2380000  13.3410000   4.0950000
  58.0180000  14.0650000   4.3310000  57.1350000  12.6430000   4.9260000
  57.5340000  12.7780000   3.2100000  55.5390000  14.7990000   5.1460000
  54.5320000  15.2090000   5.0700000  55.5580000  14.1090000   5.9880000
  56.2420000  15.6130000   5.3230000  56.2630000  14.2590000   1.3320000
  55.7110000  13.1810000   1.1180000  57.0700000  14.8270000   0.4300000
  57.4550000  15.7380000   0.6330000  57.5210000  14.1520000  -0.7970000
  56.6480000  13.7940000  -1.3430000  58.2390000  15.1700000  -1.6950000
  59.1000000  15.5880000  -1.1720000  58.5890000  14.6730000  -2.6000000
  57.0880000  16.5000000  -2.1590000  57.9320000  17.1790000  -2.9410000
  58.4060000  12.9260000  -0.4860000  59.1710000  12.9410000   0.4820000
  58.3480000  11.8830000  -1.3160000  57.7430000  11.9580000  -2.1210000
  59.0710000  10.6170000  -1.1330000  59.2070000  10.4360000  -0.0670000
  58.1860000   9.5010000  -1.6920000  58.6540000   8.5350000  -1.5020000
  57.2070000   9.5240000  -1.2150000  58.0660000   9.6350000  -2.7670000
  60.4640000  10.5560000  -1.7960000  61.3090000   9.7640000  -1.3760000
  60.7180000  11.3710000  -2.8260000  59.9700000  11.9610000  -3.1630000
  61.9660000  11.3820000  -3.6060000  62.8160000  11.2640000  -2.9340000
  62.0610000  12.3550000  -4.0890000  62.0750000  10.3100000  -4.7050000
  63.1490000  10.1420000  -5.2860000  60.9930000   9.5770000  -4.9980000
  60.1350000   9.7950000  -4.5110000  60.9320000   8.5850000  -6.0830000
  61.7440000   7.8730000  -5.9360000  59.6070000   7.8160000  -5.9800000
  59.5250000   7.4110000  -4.9710000  58.7810000   8.5120000  -6.1280000
  59.4620000   6.6800000  -6.9680000  58.8860000   6.7470000  -8.2180000
  58.4100000   7.5410000  -8.6220000  59.0110000   5.5420000  -8.8010000
  58.6530000   5.2960000  -9.7900000  59.6430000   4.6830000  -7.9820000
  59.9330000   5.4010000  -6.8140000  60.4560000   5.0180000  -5.9510000
  61.1030000   9.2220000  -7.4750000  60.5240000  10.2720000  -7.7670000
  61.8680000   8.5710000  -8.3580000  62.3020000   7.7040000  -8.0740000
  62.0860000   9.0220000  -9.7360000  62.0250000  10.1100000  -9.7650000
  63.5040000   8.6510000 -10.1970000  64.2180000   9.1060000  -9.5100000
  63.6270000   7.5690000 -10.1450000  63.8250000   9.1360000 -11.6230000
  64.9070000   8.7700000 -12.1430000  63.0190000   9.8980000 -12.2120000
  61.0080000   8.4610000 -10.6830000  60.9990000   7.2730000 -11.0150000
  60.1010000   9.3350000 -11.1290000  60.1720000  10.2900000 -10.8090000
  58.9970000   9.0010000 -12.0380000  58.7370000   7.9520000 -11.8980000
  57.7680000   9.8360000 -11.6300000  57.9810000  10.8960000 -11.7710000
  56.9220000   9.5760000 -12.2670000  57.3600000   9.5710000 -10.1910000
  57.0950000   8.4440000  -9.7990000  57.3260000  10.5660000  -9.3420000
  57.5640000  11.5050000  -9.6300000  57.1190000  10.3360000  -8.3810000
  59.3620000   9.1490000 -13.5340000  58.4970000   8.9860000 -14.3980000
  60.6350000   9.4140000 -13.8560000  61.3010000   9.5250000 -13.1050000
  61.1550000   9.5770000 -15.2240000  60.3300000   9.8090000 -15.8970000
  62.1290000  10.7730000 -15.2570000  63.0570000  10.4990000 -14.7540000
  62.3780000  11.0050000 -16.2930000  61.5790000  12.0320000 -14.6100000
  60.9210000  12.8530000 -15.2380000  61.8380000  12.2230000 -13.3370000
  62.3520000  11.5070000 -12.8430000  61.5030000  13.0620000 -12.8850000
  61.8260000   8.2850000 -15.7570000  62.5340000   8.3130000 -16.7680000
  61.5830000   7.1490000 -15.0940000  60.9680000   7.2070000 -14.2950000
  62.0700000   5.8050000 -15.4390000  62.3120000   5.7860000 -16.5010000
  63.3570000   5.5070000 -14.6410000  63.7470000   4.5410000 -14.9640000
  64.1050000   6.2620000 -14.8810000  63.1580000   5.4680000 -13.1130000
  62.8760000   6.4610000 -12.7630000  62.3530000   4.7770000 -12.8640000
  64.3980000   5.0230000 -12.3370000  65.4860000   4.8140000 -12.8640000
  64.2760000   4.8430000 -11.0380000  63.3860000   5.0020000 -10.5880000
  65.0870000   4.5460000 -10.5130000  60.9740000   4.7440000 -15.1700000
  60.0360000   5.0290000 -14.4140000  61.0620000   3.5290000 -15.7510000
  62.0040000   3.1120000 -16.7810000  62.9390000   2.7970000 -16.3160000
  62.1890000   3.8990000 -17.5120000  61.3480000   1.9170000 -17.4680000
  62.0860000   1.2450000 -17.9070000  60.6440000   2.2660000 -18.2230000
  60.5880000   1.2540000 -16.3220000  61.2760000   0.6340000 -15.7470000
  59.7500000   0.6590000 -16.6840000  60.1150000   2.4450000 -15.4800000
  59.1320000   2.7550000 -15.8340000  60.0340000   2.0780000 -13.9890000
  61.0560000   1.9410000 -13.3090000  58.8120000   1.8990000 -13.4800000
  58.0190000   2.0350000 -14.0890000  58.5610000   1.4120000 -12.1160000
  59.0630000   2.0850000 -11.4220000  57.0580000   1.4430000 -11.8030000
  56.5350000   0.8210000 -12.5300000  56.9050000   1.0010000 -10.8190000
  56.4420000   2.8530000 -11.7890000  55.2190000   2.9740000 -12.0250000
  57.1330000   3.8470000 -11.4670000  59.1210000  -0.0030000 -11.8720000
  59.0860000  -0.8660000 -12.7560000  59.5810000  -0.2630000 -10.6430000
  59.5960000   0.4810000  -9.9610000  60.0600000  -1.5800000 -10.1970000
  59.5120000  -2.3540000 -10.7350000  61.5550000  -1.7460000 -10.5240000
  61.8310000  -2.7940000 -10.4140000  61.7260000  -1.4550000 -11.5600000
  62.3780000  -0.9660000  -9.6700000  63.2420000  -0.8960000 -10.0850000
  59.8130000  -1.7850000  -8.7010000  59.7060000  -0.8210000  -7.9410000
  59.7420000  -3.0470000  -8.2660000  59.8010000  -3.7950000  -8.9420000
  59.5970000  -3.4100000  -6.8520000  58.6360000  -3.0460000  -6.4900000
  59.6060000  -4.9410000  -6.7390000  58.7610000  -5.3400000  -7.2990000
  60.5140000  -5.3290000  -7.2010000  59.5260000  -5.4550000  -5.3170000
  58.2950000  -5.4370000  -4.6400000  57.4110000  -5.0590000  -5.1330000
  58.2110000  -5.9080000  -3.3200000  57.2660000  -5.8920000  -2.7960000
  59.3540000  -6.4010000  -2.6750000  59.2790000  -6.7640000  -1.6610000
  60.5880000  -6.4120000  -3.3450000  61.4710000  -6.7800000  -2.8430000
  60.6770000  -5.9390000  -4.6660000  61.6290000  -5.9480000  -5.1750000
  60.6920000  -2.7670000  -5.9830000  60.3900000  -2.0950000  -4.9980000
  61.9560000  -2.9050000  -6.4000000  62.1270000  -3.4590000  -7.2270000
  63.1120000  -2.3070000  -5.7330000  63.2160000  -2.7590000  -4.7470000
  64.3650000  -2.6550000  -6.5460000  65.2420000  -2.2030000  -6.0820000
  64.4990000  -3.7360000  -6.5710000  64.2730000  -2.2800000  -7.5660000
  62.9620000  -0.7870000  -5.5310000  63.1150000  -0.2990000  -4.4080000
  62.6330000  -0.0430000  -6.5950000  62.4910000  -0.5030000  -7.4830000
  62.4420000   1.4060000  -6.5440000  63.3420000   1.8580000  -6.1260000
  62.2750000   1.9320000  -7.9740000  62.1670000   3.0160000  -7.9560000
  63.1530000   1.6760000  -8.5660000  61.3910000   1.4950000  -8.4390000
  61.2650000   1.8100000  -5.6360000  61.4540000   2.5690000  -4.6810000
  60.0660000   1.2740000  -5.9020000  60.0030000   0.6070000  -6.6580000
  58.8380000   1.6120000  -5.1750000  58.6370000   2.6750000  -5.3080000
  57.6480000   0.8050000  -5.7370000  57.9080000  -0.2520000  -5.6940000
  56.7850000   0.9530000  -5.0880000  57.2360000   1.1570000  -7.1820000
  58.1150000   1.1770000  -7.8280000  56.2700000   0.0930000  -7.7090000
  55.3810000   0.0440000  -7.0810000  55.9740000   0.3330000  -8.7300000
  56.7670000  -0.8770000  -7.7080000  56.5380000   2.5120000  -7.2910000
  57.1900000   3.3020000  -6.9190000  56.3080000   2.7220000  -8.3350000
  55.6110000   2.4990000  -6.7170000  58.9900000   1.3770000  -3.6640000
  58.7130000   2.2750000  -2.8670000  59.4590000   0.1900000  -3.2620000
  59.6880000  -0.5060000  -3.9570000  59.6050000  -0.1620000  -1.8490000
  58.6870000   0.1270000  -1.3390000  59.7860000  -1.6810000  -1.6860000
  60.4630000  -2.0530000  -2.4550000  60.2690000  -1.8670000  -0.7260000
  58.4920000  -2.5160000  -1.7100000  58.7810000  -3.5670000  -1.6800000
  57.6320000  -2.2430000  -0.4770000  57.2430000  -1.2240000  -0.4800000
  56.7890000  -2.9330000  -0.4760000  58.2230000  -2.3980000   0.4250000
  57.6120000  -2.3090000  -2.9410000  58.1850000  -2.5240000  -3.8430000
  56.7790000  -3.0090000  -2.8840000  57.2190000  -1.2930000  -2.9760000
  60.7230000   0.6220000  -1.1530000  60.5360000   1.0490000  -0.0140000
  61.8540000   0.8770000  -1.8200000  61.9600000   0.5290000  -2.7630000
  62.9160000   1.7190000  -1.2460000  63.2030000   1.2950000  -0.2830000
  64.1720000   1.7370000  -2.1230000  63.9450000   2.2030000  -3.0820000
  64.9420000   2.3240000  -1.6220000  64.6530000   0.4190000  -2.3380000
  64.1830000   0.0740000  -3.1000000  62.4210000   3.1480000  -0.9780000
  62.6710000   3.6980000   0.0950000  61.6550000   3.7420000  -1.9030000
  61.5040000   3.2830000  -2.7900000  61.0150000   5.0470000  -1.6830000
  61.7710000   5.7310000  -1.2980000  60.5010000   5.6390000  -2.9950000
  59.8020000   4.9420000  -3.4590000  59.9840000   6.5770000  -2.7930000
  61.5850000   5.8830000  -3.8750000  62.1500000   6.5620000  -3.4990000
  59.8940000   5.0130000  -0.6380000  59.7630000   5.9790000   0.1100000
  59.1330000   3.9180000  -0.5020000  59.2190000   3.1760000  -1.1830000
  58.2300000   3.7270000   0.6450000  57.5770000   4.5970000   0.7060000
  57.3500000   2.4710000   0.4810000  57.9780000   1.6420000   0.1570000
  56.9400000   2.2020000   1.4550000  56.1740000   2.6380000  -0.5000000
  56.5280000   3.0890000  -1.4270000  55.5700000   1.2740000  -0.8330000
  55.3050000   0.7430000   0.0810000  54.6720000   1.4050000  -1.4370000
  56.2880000   0.6880000  -1.4060000  55.0620000   3.5110000   0.0880000
  55.4340000   4.5100000   0.3160000  54.2520000   3.6070000  -0.6350000
  54.6680000   3.0570000   0.9980000  58.9920000   3.6800000   1.9800000
  58.5190000   4.2580000   2.9550000  60.1690000   3.0500000   2.0430000
  60.4770000   2.5240000   1.2380000  61.0060000   3.0540000   3.2470000
  60.3920000   2.7490000   4.0930000  62.1490000   2.0340000   3.1040000
  62.7830000   2.3030000   2.2590000  62.7590000   2.0680000   4.0080000
  61.6900000   0.5980000   2.9360000  60.5840000   0.2180000   3.2810000
  62.5440000  -0.2590000   2.4400000  63.4610000   0.0570000   2.1570000
  62.3020000  -1.2390000   2.4640000  61.5450000   4.4580000   3.5870000
  61.4590000   4.8890000   4.7370000  62.0600000   5.1940000   2.5970000
  62.1570000   4.7700000   1.6850000  62.4670000   6.5970000   2.7630000
  63.2290000   6.6400000   3.5410000  63.0800000   7.1190000   1.4540000
  63.9420000   6.5040000   1.1960000  62.3450000   7.0090000   0.6570000
  63.5120000   8.5950000   1.4970000  63.9380000   8.8480000   0.5260000
  62.6240000   9.2140000   1.6290000  64.5470000   8.9330000   2.5930000
  64.6030000  10.1160000   3.0130000  65.3400000   8.0500000   2.9990000
  61.3020000   7.4850000   3.2310000  61.4260000   8.2040000   4.2250000
  60.1550000   7.4140000   2.5440000  60.1160000   6.8180000   1.7290000
  58.9340000   8.1180000   2.9340000  59.1550000   9.1850000   2.9430000
  57.8250000   7.8510000   1.9010000  58.1640000   8.1870000   0.9210000
  57.6600000   6.7750000   1.8480000  56.4820000   8.5300000   2.2320000
  56.1390000   8.2070000   3.2160000  56.5690000  10.0550000   2.2260000
  56.9490000  10.4100000   1.2680000  55.5790000  10.4800000   2.3920000
  57.2250000  10.3940000   3.0270000  55.4270000   8.1040000   1.2190000
  55.3620000   7.0160000   1.1850000  54.4610000   8.5040000   1.5250000
  55.6780000   8.4850000   0.2290000  58.4840000   7.7340000   4.3490000
  58.0960000   8.6170000   5.1060000  58.5540000   6.4510000   4.7140000
  58.8340000   5.7720000   4.0210000  58.2760000   5.9560000   6.0610000
  58.4990000   4.8900000   6.1050000  57.2180000   6.0970000   6.2830000
  59.1010000   6.6640000   7.1380000  58.5370000   7.1050000   8.1400000
  60.4090000   6.8380000   6.9180000  60.8150000   6.4270000   6.0900000
  61.2680000   7.6220000   7.8120000  61.1500000   7.2250000   8.8210000
  62.7550000   7.4830000   7.4350000  63.0350000   6.4310000   7.4750000
  62.9150000   7.8460000   6.4190000  63.6440000   8.2880000   8.3970000
  63.4050000   9.3480000   8.3110000  63.4200000   7.9800000   9.4180000
  65.1450000   8.0830000   8.1260000  65.6600000   6.9610000   8.3440000
  65.8280000   9.0590000   7.7280000  60.8420000   9.0930000   7.8810000
  60.6600000   9.6290000   8.9770000  60.6640000   9.7600000   6.7320000
  60.8260000   9.2690000   5.8640000  60.2910000  11.1870000   6.7060000
  60.9900000  11.7220000   7.3480000  60.4380000  11.7710000   5.2850000
  59.7770000  11.2550000   4.5890000  60.1550000  12.8230000   5.3210000
  61.8990000  11.6550000   4.7990000  62.5610000  11.7250000   5.6620000
  62.0590000  10.6810000   4.3380000  62.3350000  12.7540000   3.8230000
  62.0470000  13.7230000   4.2310000  63.4240000  12.7450000   3.7760000
  61.7660000  12.6140000   2.4640000  60.7890000  12.8460000   2.3520000
  62.4730000  12.5130000   1.3510000  61.9430000  12.8420000   0.2100000
  60.9740000  13.1280000   0.1950000  62.4930000  12.8410000  -0.6370000
  63.7060000  12.1030000   1.3350000  64.0500000  11.6070000   2.1450000
  64.2320000  12.0620000   0.4740000  58.9190000  11.4360000   7.3440000
  58.7750000  12.3470000   8.1590000  57.9360000  10.5760000   7.0720000
  58.1280000   9.8420000   6.4050000  56.6650000  10.5340000   7.8010000
  56.2010000  11.5150000   7.7040000  55.7070000   9.4800000   7.2130000
  56.2840000   8.6020000   6.9200000  55.0080000   9.1450000   7.9800000
  54.9020000   9.9890000   5.9990000  55.5580000  10.5670000   5.3480000
  54.5660000   9.1160000   5.4390000  53.6590000  10.8310000   6.3290000
  52.8280000  11.1050000   5.4730000  53.4380000  11.2750000   7.5520000
  54.0610000  11.0700000   8.3200000  52.6030000  11.8220000   7.7070000
  56.8620000  10.3000000   9.3030000  56.2540000  11.0330000  10.0750000
  57.6910000   9.3430000   9.7400000  58.1490000   8.7400000   9.0710000
  57.9680000   9.1290000  11.1670000  57.0140000   8.9120000  11.6460000
  58.8830000   7.9080000  11.3880000  58.4090000   7.0230000  10.9620000
  59.8210000   8.0670000  10.8570000  59.2120000   7.6350000  12.8710000
  59.7690000   8.4780000  13.2790000  57.9760000   7.3940000  13.7440000
  57.4040000   6.5540000  13.3490000  58.2850000   7.1670000  14.7640000
  57.3460000   8.2830000  13.7720000  60.0900000   6.3940000  12.9860000
  60.9900000   6.5260000  12.3860000  60.3840000   6.2540000  14.0260000
  59.5470000   5.5150000  12.6380000  58.5320000  10.3870000  11.8430000
  58.0350000  10.7690000  12.8970000  59.5180000  11.0600000  11.2400000
  59.9030000  10.6680000  10.3920000  60.0440000  12.3530000  11.7220000
  60.4970000  12.1880000  12.6990000  61.1500000  12.8920000  10.7900000
  60.7880000  12.8930000   9.7610000  61.5830000  14.3200000  11.1450000
  61.8870000  14.3710000  12.1900000  62.4210000  14.6170000  10.5150000
  60.7670000  15.0200000  10.9670000  62.3990000  12.0040000  10.8690000
  62.1540000  10.9740000  10.6080000  63.1510000  12.3640000  10.1680000
  62.8110000  12.0240000  11.8780000  58.9200000  13.3740000  11.9430000
  58.7860000  13.9180000  13.0410000  58.0740000  13.6110000  10.9350000
  58.2300000  13.1520000  10.0490000  56.9180000  14.5070000  11.0740000
  57.2820000  15.4630000  11.4480000  56.2880000  14.7690000   9.6990000
  56.1260000  13.8230000   9.1810000  55.3160000  15.2390000   9.8470000
  57.1220000  15.6900000   8.8380000  57.3760000  17.0220000   9.0880000
  57.0030000  17.5760000   9.8460000  58.1930000  17.4830000   8.1260000
  58.5550000  18.4990000   8.0600000  58.4920000  16.5030000   7.2550000
  57.8160000  15.3600000   7.7050000  57.8290000  14.3900000   7.2310000
  55.8810000  14.0230000  12.1070000  55.3460000  14.8420000  12.8510000
  55.6330000  12.7130000  12.2190000  56.0870000  12.0920000  11.5650000
  54.7370000  12.1170000  13.2300000  53.7850000  12.6470000  13.1960000
  54.4400000  10.6340000  12.9130000  55.3690000  10.1290000  12.6500000
  53.8040000   9.8720000  14.0810000  52.9110000  10.3940000  14.4260000
  53.5360000   8.8630000  13.7680000  54.5120000   9.7920000  14.9060000
  53.4630000  10.5300000  11.7340000  53.8350000  11.0960000  10.8800000
  53.3500000   9.4870000  11.4380000  52.4890000  10.9280000  12.0170000
  55.2790000  12.3100000  14.6500000  54.5180000  12.7090000  15.5240000
  56.5770000  12.0950000  14.8900000  57.1430000  11.7440000  14.1310000
  57.2560000  12.4390000  16.1550000  56.7960000  11.8610000  16.9560000
  58.7570000  12.0710000  16.1130000  59.1950000  12.4660000  15.1970000
  59.5460000  12.6380000  17.3020000  59.0870000  12.3290000  18.2410000
  60.5730000  12.2740000  17.2700000  59.5780000  13.7260000  17.2540000
  58.9660000  10.5510000  16.1310000  58.3570000  10.0700000  15.3660000
  60.0130000  10.3240000  15.9300000  58.7020000  10.1450000  17.1080000
  57.0380000  13.9130000  16.5080000  56.5350000  14.2140000  17.5900000
  57.3680000  14.8360000  15.5940000  57.7730000  14.5170000  14.7250000
  57.2190000  16.2900000  15.8070000  57.8010000  16.5780000  16.6820000
  57.7720000  17.0520000  14.5900000  57.3380000  16.6470000  13.6750000
  57.4870000  18.1020000  14.6680000  59.3050000  16.9710000  14.5200000
  59.7230000  17.4510000  15.4050000  59.6240000  15.9290000  14.5110000
  59.8460000  17.6690000  13.2650000  59.4610000  17.1690000  12.3770000
  59.5150000  18.7080000  13.2630000  61.3800000  17.6200000  13.2620000
  61.7430000  18.0600000  14.1910000  61.6990000  16.5770000  13.2430000
  61.9540000  18.3530000  12.1020000  61.6890000  19.3280000  12.1170000
  62.9630000  18.3190000  12.1150000  61.6480000  17.9620000  11.2220000
  55.7690000  16.6960000  16.1140000  55.5250000  17.4420000  17.0620000
  54.8080000  16.1670000  15.3550000  55.0920000  15.6000000  14.5690000
  53.3700000  16.3060000  15.6140000  53.1080000  17.3640000  15.5960000
  52.6000000  15.6180000  14.4790000  52.7360000  16.2030000  13.5690000
  53.0430000  14.6380000  14.3020000  51.1360000  15.4010000  14.6960000
  50.1690000  16.3290000  14.5300000  50.3450000  17.3480000  14.2170000
  48.9350000  15.7730000  14.8110000  48.0690000  16.2890000  14.7430000
  49.0490000  14.4470000  15.1710000  48.1100000  13.4570000  15.5000000
  47.0570000  13.6930000  15.5270000  48.5650000  12.1610000  15.8090000
  47.8660000  11.3770000  16.0600000  49.9420000  11.8800000  15.8000000
  50.2880000  10.8890000  16.0540000  50.8730000  12.8790000  15.4610000
  51.9270000  12.6450000  15.4450000  50.4510000  14.1850000  15.1290000
  52.9660000  15.7740000  16.9990000  52.3780000  16.5100000  17.7910000
  53.3330000  14.5310000  17.3280000  53.8240000  13.9770000  16.6410000
  53.0140000  13.8930000  18.6030000  51.9280000  13.8670000  18.6900000
  53.5140000  12.4470000  18.5860000  53.2820000  11.9700000  19.5380000
  53.0220000  11.8940000  17.7860000  54.5920000  12.4250000  18.4260000
  53.5510000  14.6780000  19.8120000  52.7960000  14.9710000  20.7380000
  54.8180000  15.1160000  19.7620000  55.3690000  14.8360000  18.9630000
  55.4710000  15.9560000  20.7880000  55.5290000  15.4020000  21.7250000
  56.9010000  16.2930000  20.3210000  56.8540000  16.6600000  19.2960000
  57.3050000  17.1010000  20.9320000  57.8790000  15.1050000  20.3670000
  57.3750000  14.1890000  20.0580000  58.6840000  15.3050000  19.6610000
  58.4980000  14.8980000  21.7570000  58.9970000  15.8180000  22.0600000
  57.7170000  14.6610000  22.4800000  59.5230000  13.7550000  21.7040000
  58.9990000  12.8200000  21.5070000  60.2020000  13.9350000  20.8710000
  60.3040000  13.6540000  22.9690000  59.7080000  13.4820000  23.7660000
  60.9770000  12.9020000  22.9220000  60.8220000  14.5020000  23.1480000
  54.6910000  17.2480000  21.0930000  54.7290000  17.7350000  22.2250000
  53.9920000  17.7940000  20.0940000  54.0230000  17.3280000  19.1990000
  53.1800000  19.0070000  20.1860000  53.6130000  19.6550000  20.9470000
  53.3020000  19.7430000  18.8450000  52.8430000  20.7280000  18.9270000
  54.3520000  19.8730000  18.5850000  52.8030000  19.1780000  18.0570000
  51.6960000  18.7860000  20.5830000  51.0010000  19.7690000  20.8580000
  51.1890000  17.5440000  20.6310000  51.7960000  16.7650000  20.4180000
  49.8000000  17.2490000  21.0280000  49.1500000  17.7990000  20.3480000
  49.4960000  15.7450000  20.8830000  50.3220000  15.1900000  21.3270000
  48.6070000  15.5030000  21.4650000  49.2730000  15.2520000  19.4440000
  50.0710000  15.6240000  18.8010000  49.2850000  13.7280000  19.4210000
  48.4390000  13.3330000  19.9840000  49.2310000  13.3770000  18.3910000
  50.2050000  13.3640000  19.8780000  47.9170000  15.6820000  18.8800000
  47.7700000  16.7540000  19.0160000  47.8780000  15.4480000  17.8160000
  47.1110000  15.1500000  19.3850000  49.4890000  17.6860000  22.4810000
  50.3020000  17.4270000  23.3790000  48.3040000  18.2770000  22.7510000
  47.3630000  18.8090000  21.7760000  46.8180000  17.9920000  21.3030000
  47.8740000  19.4030000  21.0180000  46.3950000  19.6920000  22.5630000
  45.4060000  19.7160000  22.1050000  46.8020000  20.6990000  22.6550000
  46.3750000  19.0260000  23.9360000  45.6880000  18.1800000  23.9110000
  46.0880000  19.7280000  24.7190000  47.8200000  18.5410000  24.1080000
  48.4150000  19.3510000  24.5300000  47.8990000  17.3100000  25.0300000
  47.4080000  16.2300000  24.7030000  48.5300000  17.4710000  26.1970000
  48.9210000  18.3790000  26.4060000  48.6050000  16.4440000  27.2470000
  47.6210000  15.9930000  27.3760000  48.8730000  16.9220000  28.1890000
  49.6110000  15.3100000  26.9940000  49.8650000  14.5140000  27.8960000
  50.2410000  15.2350000  25.8160000  50.0050000  15.9100000  25.1040000
  51.1500000  14.1350000  25.4530000  50.6100000  13.1940000  25.5640000
  51.5380000  14.2770000  23.9770000  50.6260000  14.2440000  23.3810000
  52.0030000  15.2510000  23.8220000  52.4740000  13.1970000  23.4720000
  51.9890000  11.8940000  23.2590000  50.9510000  11.6670000  23.4550000
  52.8500000  10.8860000  22.7950000  52.4770000   9.8840000  22.6370000
  54.1960000  11.1850000  22.5310000  54.8550000  10.4100000  22.1670000
  54.6860000  12.4870000  22.7340000  55.7190000  12.7150000  22.5140000
  53.8260000  13.4910000  23.2150000  54.1940000  14.4950000  23.3610000
  52.3830000  14.0330000  26.3670000  52.8420000  12.9360000  26.6840000
  52.8820000  15.1740000  26.8630000  52.4520000  16.0370000  26.5630000
  54.0090000  15.2490000  27.8140000  54.7620000  14.5220000  27.5110000
  54.6650000  16.6420000  27.7410000  53.9340000  17.4100000  27.9950000
  55.4780000  16.6870000  28.4660000  55.2460000  16.9130000  26.3400000
  55.8530000  16.0580000  26.0410000  54.4370000  17.0270000  25.6180000
  56.1450000  18.1540000  26.2930000  56.9390000  18.0360000  27.0300000
  56.6180000  18.2160000  25.3140000  55.4060000  19.3980000  26.5780000
  55.4510000  19.7360000  27.5290000  54.7580000  20.1660000  25.7200000
  54.2340000  21.2870000  26.1220000  54.3310000  21.5750000  27.0850000
  53.7420000  21.8870000  25.4740000  54.6110000  19.8550000  24.4610000
  54.9710000  18.9820000  24.1050000  54.1190000  20.4790000  23.8370000
  53.6550000  14.8310000  29.2520000  54.5490000  14.7410000  30.0920000
  52.3800000  14.5360000  29.5440000  51.6820000  14.6520000  28.8240000
  51.9730000  13.8820000  30.7970000  52.4660000  14.3780000  31.6330000
  50.4460000  13.9960000  31.0030000  49.9380000  13.4110000  30.2360000
  50.2040000  13.5480000  31.9670000  49.8470000  15.4010000  31.0050000
  48.6530000  15.5800000  30.8100000  50.6130000  16.4490000  31.2300000
  51.6010000  16.3420000  31.4060000  50.1780000  17.3600000  31.2410000
  52.4120000  12.4020000  30.8520000  52.6480000  11.8840000  31.9430000
  52.5450000  11.7240000  29.7010000  52.3660000  12.2120000  28.8350000
  53.1350000  10.3790000  29.6140000  52.5530000   9.7020000  30.2400000
  53.0990000   9.8750000  28.1590000  53.7000000  10.5600000  27.5620000
  53.5800000   8.8970000  28.1240000  51.7190000   9.7610000  27.4920000
  51.2400000  10.7400000  27.4620000  51.8990000   9.2590000  26.0590000
  52.3760000   8.2790000  26.0560000  50.9290000   9.1890000  25.5660000
  52.5200000   9.9640000  25.5050000  50.8060000   8.7850000  28.2300000
  50.5530000   9.1810000  29.2130000  49.8860000   8.6590000  27.6600000
  51.2990000   7.8190000  28.3390000  54.5910000  10.3580000  30.1210000
  55.3400000  11.3230000  29.9340000  55.0100000   9.2380000  30.7210000
  54.3590000   8.4730000  30.8280000  56.4180000   8.9880000  31.0490000
  56.7600000   9.8050000  31.6850000  56.5320000   7.6890000  31.8620000
  55.9230000   7.7720000  32.7630000  56.1440000   6.8620000  31.2670000
  57.9460000   7.3620000  32.2670000  58.7300000   8.0720000  33.1500000
  58.4300000   8.8280000  33.7490000  59.9640000   7.5410000  33.1330000
  60.7900000   7.8860000  33.7380000  60.0220000   6.5190000  32.2600000
  58.7410000   6.3990000  31.7070000  58.4360000   5.6990000  30.9430000
  57.3130000   8.9770000  29.7870000  56.8660000   8.6100000  28.6980000
  58.5820000   9.3780000  29.9360000  58.8800000   9.6280000  30.8680000
  59.5620000   9.5650000  28.8440000  59.2300000  10.4150000  28.2480000
  60.9520000   9.9220000  29.4100000  61.2860000   9.1190000  30.0660000
  62.0000000  10.1130000  28.3070000  61.6670000  10.8770000  27.6050000
  62.9490000  10.4190000  28.7470000  62.1630000   9.1760000  27.7740000
  60.9020000  11.2240000  30.2240000  60.2480000  11.1130000  31.0890000
  61.8990000  11.4720000  30.5870000  60.5370000  12.0400000  29.6010000
  59.6420000   8.3700000  27.8790000  59.5190000   8.5550000  26.6660000
  59.8300000   7.1500000  28.3970000  59.9940000   7.0700000  29.3910000
  59.8470000   5.9220000  27.5790000  60.6570000   6.0010000  26.8540000
  60.0990000   4.6710000  28.4410000  59.2800000   4.5700000  29.1530000
  60.0630000   3.8020000  27.7840000  61.4310000   4.6230000  29.2080000
  62.3540000   5.4310000  28.9420000  61.5650000   3.7140000  30.0640000
  58.5390000   5.7100000  26.7920000  58.5610000   5.3920000  25.5990000
  57.3990000   5.8830000  27.4710000  57.4640000   6.2110000  28.4240000
  56.0610000   5.6410000  26.9250000  56.0170000   4.6020000  26.5980000
  54.9730000   5.8350000  27.9930000  54.9950000   6.8640000  28.3500000
  54.0020000   5.6730000  27.5240000  55.0920000   4.8780000  29.1870000
  55.6940000   3.7870000  29.0450000  54.5170000   5.1970000  30.2540000
  55.7590000   6.5020000  25.6990000  55.2310000   5.9800000  24.7220000
  56.1180000   7.7910000  25.7190000  56.5480000   8.1450000  26.5620000
  55.9410000   8.7020000  24.5800000  54.8760000   8.8890000  24.4430000
  56.6430000  10.0400000  24.8700000  57.6800000   9.8570000  25.1500000
  56.6440000  10.6400000  23.9600000  55.9590000  10.8470000  25.9770000
  54.9200000  11.0220000  25.6950000  55.9820000  10.2910000  26.9140000
  56.6570000  12.1840000  26.1840000  57.7000000  12.2920000  26.8150000
  56.1320000  13.2520000  25.6230000  55.2660000  13.1700000  25.1090000
  56.6180000  14.1310000  25.7270000  56.4730000   8.1100000  23.2620000
  55.7200000   7.9440000  22.3000000  57.7670000   7.7740000  23.2130000
  58.3300000   7.8950000  24.0430000  58.3940000   7.2330000  22.0040000
  58.1280000   7.8890000  21.1760000  59.9230000   7.2690000  22.1460000
  60.2360000   8.2880000  22.3730000  60.2230000   6.6290000  22.9750000
  60.6470000   6.7990000  20.8770000  61.7200000   6.9000000  21.0380000
  60.4390000   5.7380000  20.7410000  60.2160000   7.6600000  19.3300000
  60.8110000   9.3360000  19.6860000  61.8680000   9.3040000  19.9510000
  60.6840000   9.9620000  18.8030000  60.2420000   9.7660000  20.5110000
  57.8650000   5.8380000  21.6410000  57.6090000   5.5710000  20.4680000
  57.6400000   4.9660000  22.6310000  57.8590000   5.2360000  23.5790000
  57.0460000   3.6470000  22.4090000  57.6920000   3.0900000  21.7300000
  57.0050000   2.9000000  23.7470000  56.6300000   1.8890000  23.5890000
  58.0090000   2.8380000  24.1680000  56.3540000   3.4170000  24.4520000
  55.6560000   3.7420000  21.7450000  55.4330000   3.1620000  20.6820000
  54.7430000   4.5230000  22.3350000  55.0120000   4.9820000  23.1940000
  53.4150000   4.8540000  21.7930000  52.8300000   3.9350000  21.7520000
  52.6770000   5.8270000  22.7370000  53.3410000   6.6520000  22.9940000
  51.4070000   6.4290000  22.1360000  50.7210000   5.6280000  21.8610000
  50.9250000   7.0840000  22.8620000  51.6470000   7.0220000  21.2540000
  52.2450000   5.0980000  24.0200000  53.0980000   4.6130000  24.4960000
  51.8220000   5.8140000  24.7250000  51.5000000   4.3370000  23.7890000
  53.4970000   5.3700000  20.3490000  52.8090000   4.8310000  19.4800000
  54.3540000   6.3650000  20.0640000  54.8810000   6.7790000  20.8190000
  54.6200000   6.8210000  18.6850000  53.6900000   7.2220000  18.2810000
  55.6690000   7.9600000  18.6380000  56.5570000   7.6440000  19.1860000
  56.0740000   8.2500000  17.1790000  55.1830000   8.3490000  16.5580000
  56.6470000   9.1750000  17.1070000  56.6980000   7.4470000  16.7870000
  55.1280000   9.2590000  19.2780000  54.4570000   9.7540000  18.5770000
  54.5510000   9.0190000  20.1710000  56.2450000  10.2310000  19.6950000
  56.8530000  10.5220000  18.8390000  55.8040000  11.1320000  20.1220000
  56.8840000   9.7630000  20.4440000  55.0120000   5.6510000  17.7640000
  54.3580000   5.4280000  16.7460000  56.0620000   4.8990000  18.1090000
  56.5370000   5.1130000  18.9750000  56.5930000   3.8020000  17.2920000
  56.8840000   4.2130000  16.3260000  57.8540000   3.2200000  17.9520000
  57.6410000   3.0140000  19.0010000  58.1160000   2.2800000  17.4650000
  59.0530000   4.1820000  17.8290000  59.3730000   4.2060000  16.7870000
  58.7520000   5.1930000  18.1030000  60.2460000   3.8020000  18.7070000
  60.1510000   3.0680000  19.6820000  61.4300000   4.2840000  18.3960000
  61.5410000   4.9200000  17.6200000  62.2150000   4.0320000  18.9800000
  55.5560000   2.7010000  16.9950000  55.4800000   2.2370000  15.8560000
  54.7450000   2.2880000  17.9770000  54.8780000   2.6570000  18.9080000
  53.6770000   1.3040000  17.7590000  54.1060000   0.4640000  17.2130000
  53.1540000   0.7690000  19.1020000  52.4050000   0.0060000  18.8930000
  52.6570000   1.5850000  19.6270000  54.1980000   0.1510000  20.0230000
  55.1920000  -0.7100000  19.5100000  55.2210000  -0.9540000  18.4580000
  56.1670000  -1.2570000  20.3630000  56.9250000  -1.9150000  19.9660000
  56.1460000  -0.9600000  21.7410000  57.1270000  -1.4460000  22.5450000
  57.9200000  -1.6210000  22.0330000  55.1220000  -0.1440000  22.2680000
  55.1000000   0.0660000  23.3270000  54.1540000   0.4140000  21.4080000
  53.3860000   1.0570000  21.8110000  52.5250000   1.8280000  16.8780000
  52.0260000   1.0900000  16.0250000  52.1150000   3.0920000  17.0430000
  52.5120000   3.6300000  17.7990000  50.9890000   3.6910000  16.2990000
  50.2330000   2.9250000  16.1250000  50.3330000   4.7850000  17.1480000
  51.0620000   5.5710000  17.3440000  49.4880000   5.2070000  16.6050000
  49.8810000   4.2360000  18.3700000  49.6630000   4.9420000  18.9820000
  51.3590000   4.2730000  14.9250000  50.4710000   4.5200000  14.1100000
  52.6510000   4.4630000  14.6430000  53.3050000   4.3040000  15.3970000
  53.2060000   5.0760000  13.4250000  53.0030000   6.1470000  13.4470000
  54.7320000   4.8950000  13.4620000  55.1530000   5.6360000  14.1410000
  54.9490000   3.9140000  13.8840000  55.4770000   4.9740000  12.1640000
  55.4370000   5.9910000  11.2710000  54.8480000   6.8900000  11.3770000
  56.2600000   5.6930000  10.2010000  56.3920000   6.3000000   9.4040000
  56.8780000   4.4720000  10.3570000  57.7790000   3.7490000   9.5650000
  58.1130000   4.1500000   8.6200000  58.2470000   2.5050000  10.0230000
  58.9510000   1.9410000   9.4280000  57.8020000   1.9980000  11.2560000
  58.1600000   1.0390000  11.6010000  56.8880000   2.7300000  12.0400000
  56.5510000   2.3280000  12.9840000  56.4030000   3.9870000  11.6100000
  52.5940000   4.5490000  12.1180000  52.0950000   5.3450000  11.3240000
  52.5720000   3.2300000  11.9000000  53.0160000   2.6210000  12.5720000
  51.9850000   2.6450000  10.6860000  52.5010000   3.0790000   9.8290000
  52.2350000   1.1300000  10.6640000  53.3070000   0.9490000  10.7460000
  51.7420000   0.6800000  11.5250000  51.7110000   0.4430000   9.3960000
  51.9230000  -0.6240000   9.4720000  50.6280000   0.5580000   9.3570000
  52.3990000   1.0540000   7.8290000  54.1340000   0.5490000   7.9840000
  54.1900000  -0.5230000   8.1750000  54.6610000   0.7770000   7.0580000
  54.6080000   1.0890000   8.8040000  50.4960000   2.9880000  10.5290000
  50.0790000   3.4370000   9.4650000  49.6950000   2.8420000  11.5920000
  50.0970000   2.5090000  12.4570000  48.2750000   3.2230000  11.5860000
  47.8350000   3.0040000  12.5590000  47.7510000   2.6350000  10.8320000
  48.0530000   4.7080000  11.2820000  47.1840000   5.0550000  10.4820000
  48.8690000   5.5840000  11.8770000  49.5490000   5.2220000  12.5290000
  48.8800000   7.0230000  11.5930000  47.8790000   7.4150000  11.7750000
  49.8650000   7.7300000  12.5450000  50.8390000   7.2470000  12.4640000
  49.9910000   8.7660000  12.2290000  49.4200000   7.7130000  14.0200000
  49.0560000   6.7240000  14.2990000  50.5940000   8.0630000  14.9300000
  50.9700000   9.0560000  14.6820000  50.2650000   8.0480000  15.9690000
  51.3940000   7.3340000  14.8060000  48.3120000   8.7310000  14.2710000
  47.4180000   8.4600000  13.7080000  48.0570000   8.7440000  15.3300000
  48.6390000   9.7270000  13.9750000  49.1950000   7.3200000  10.1160000
  48.4380000   8.0510000   9.4760000  50.2550000   6.7210000   9.5540000
  50.8370000   6.1360000  10.1360000  50.5690000   6.8230000   8.1200000
  50.7500000   7.8700000   7.8760000  51.8240000   6.0190000   7.7430000
  51.7210000   4.9830000   8.0670000  51.9010000   6.0250000   6.6560000
  53.1300000   6.5960000   8.2900000  53.0750000   7.6840000   8.2440000
  53.2480000   6.3050000   9.3340000  54.5990000   6.0790000   7.3560000
  54.5380000   4.2760000   7.5710000  53.6520000   3.8720000   7.0820000
  55.4240000   3.8260000   7.1230000  54.5100000   4.0320000   8.6330000
  49.4010000   6.3560000   7.2440000  48.9590000   7.1040000   6.3750000
  48.8860000   5.1460000   7.4840000  49.3130000   4.5950000   8.2140000
  47.7290000   4.5630000   6.7850000  48.0020000   4.3790000   5.7460000
  47.3530000   3.2100000   7.4230000  47.3620000   3.3100000   8.5090000
  45.9730000   2.6860000   7.0160000  45.8880000   2.6530000   5.9290000
  45.8190000   1.6870000   7.4240000  45.1980000   3.3340000   7.4270000
  48.3680000   2.1390000   7.0240000  49.3840000   2.4650000   7.2480000
  48.1670000   1.2270000   7.5860000  48.2940000   1.9370000   5.9560000
  46.5400000   5.5220000   6.7600000  46.0140000   5.8280000   5.6900000
  46.1170000   6.0110000   7.9270000  46.5890000   5.7210000   8.7720000
  44.9640000   6.8990000   8.0570000  44.1140000   6.4240000   7.5670000
  44.6380000   7.0330000   9.5470000  44.6670000   6.0390000   9.9950000
  45.4120000   7.6260000  10.0340000  43.2750000   7.6150000   9.8580000
  42.1220000   6.8350000   9.6520000  42.2030000   5.8550000   9.2050000
  40.8610000   7.3200000  10.0370000  39.9800000   6.7160000   9.8780000
  40.7470000   8.5910000  10.6220000  39.7760000   8.9600000  10.9170000
  41.8940000   9.3810000  10.8110000  41.8070000  10.3640000  11.2500000
  43.1570000   8.8950000  10.4270000  44.0390000   9.4980000  10.5850000
  45.1790000   8.2560000   7.3640000  44.3250000   8.6980000   6.5940000
  46.3430000   8.8860000   7.5650000  47.0160000   8.4710000   8.1940000
  46.7200000  10.1290000   6.8880000  45.9720000  10.8890000   7.1170000
  48.0710000  10.6000000   7.4380000  48.3410000  11.5520000   6.9810000
  48.0060000  10.7330000   8.5180000  48.8460000   9.8660000   7.2180000
  46.7640000   9.9790000   5.3580000  46.2060000  10.7980000   4.6300000
  47.4060000   8.9220000   4.8570000  47.8560000   8.2890000   5.5030000
  47.4790000   8.6090000   3.4300000  47.8730000   9.4830000   2.9100000
  48.4730000   7.4590000   3.2320000  49.4220000   7.7570000   3.6780000
  48.1150000   6.5720000   3.7540000  48.7400000   7.1260000   1.7620000
  48.8440000   8.0630000   1.2150000  49.6930000   6.5990000   1.7080000
  47.5130000   6.1030000   0.9100000  47.7590000   4.5350000   1.7780000
  47.4030000   4.6130000   2.8050000  47.2050000   3.7480000   1.2650000
  48.8180000   4.2740000   1.7800000  46.0990000   8.3100000   2.8300000
  45.7880000   8.7980000   1.7440000  45.2350000   7.5800000   3.5420000
  45.5550000   7.1550000   4.4010000  43.8330000   7.3890000   3.1620000
  43.3340000   6.7830000   3.9180000  43.7900000   6.8570000   2.2110000
  43.0770000   8.7150000   3.0190000  42.4020000   8.9340000   2.0130000
  43.2330000   9.6240000   3.9860000  43.7630000   9.3730000   4.8080000
  42.6710000  10.9750000   3.9190000  41.5930000  10.8880000   3.7800000
  42.9020000  11.7020000   5.2430000  42.3840000  11.1470000   6.0260000
  43.9660000  11.6920000   5.4800000  42.4250000  13.1210000   5.2810000
  43.2100000  14.2200000   5.2140000  44.2870000  14.2050000   5.1350000
  42.4290000  15.3570000   5.2890000  42.8100000  16.2920000   5.2790000
  41.0910000  15.0440000   5.4070000  39.9300000  15.8250000   5.5160000
  40.0010000  16.9030000   5.5220000  38.6820000  15.1850000   5.6050000
  37.7760000  15.7690000   5.6840000  38.6120000  13.7800000   5.5860000
  37.6500000  13.2930000   5.6510000  39.7840000  13.0070000   5.4800000
  39.7240000  11.9290000   5.4690000  41.0540000  13.6170000   5.3890000
  43.2070000  11.7830000   2.7270000  42.4110000  12.3120000   1.9520000
  44.5340000  11.8160000   2.5090000  45.1350000  11.3850000   3.1970000
  45.1420000  12.4360000   1.3120000  44.8800000  13.4940000   1.2900000
  46.6760000  12.3120000   1.3160000  46.9710000  11.2760000   1.4850000
  47.0270000  12.6050000   0.3270000  47.3540000  13.2250000   2.3480000
  46.8770000  14.2040000   2.3140000  47.2290000  12.8180000   3.3520000
  48.8480000  13.4270000   2.0490000  48.9480000  13.8000000   1.0290000
  49.2340000  14.2070000   2.7050000  49.6560000  12.1920000   2.1880000
  49.7100000  11.5910000   1.3780000  50.4230000  11.8600000   3.2140000
  51.2760000  10.8920000   3.1230000  51.5190000  10.4990000   2.2250000
  51.8730000  10.6920000   3.9130000  50.3980000  12.4730000   4.3620000
  49.7550000  13.2360000   4.5170000  51.0690000  12.2090000   5.0680000
  44.5820000  11.8550000   0.0120000  44.2340000  12.5890000  -0.9060000
  44.4530000  10.5320000  -0.0620000  44.7730000   9.9940000   0.7300000
  43.8590000   9.8280000  -1.2070000  44.4460000  10.0510000  -2.0980000
  43.9060000   8.3140000  -0.9910000  43.2590000   8.0390000  -0.1580000
  43.5540000   7.8190000  -1.8960000  45.2230000   7.8870000  -0.7100000
  45.4460000   8.1310000   0.1910000  42.4220000  10.2930000  -1.4850000
  42.0780000  10.5920000  -2.6290000  41.5880000  10.4030000  -0.4490000
  41.9100000  10.1100000   0.4630000  40.2580000  11.0070000  -0.5320000
  39.6820000  10.4590000  -1.2770000  39.5410000  10.8290000   0.8150000
  39.3370000   9.7680000   0.9620000  40.2050000  11.1390000   1.6210000
  38.2380000  11.5930000   0.9450000  37.1860000  11.3570000   0.0390000
  37.2950000  10.6150000  -0.7370000  35.9980000  12.1030000   0.1340000
  35.1980000  11.9330000  -0.5720000  35.8460000  13.0630000   1.1510000
  34.9300000  13.6300000   1.2260000  36.8890000  13.2860000   2.0670000
  36.7750000  14.0230000   2.8490000  38.0860000  12.5580000   1.9600000
  38.8880000  12.7450000   2.6580000  40.2750000  12.4760000  -1.0080000
  39.5830000  12.8060000  -1.9740000  41.0550000  13.3610000  -0.3790000
  41.6130000  13.0490000   0.4030000  41.0120000  14.8110000  -0.6570000
  39.9670000  15.0900000  -0.7920000  41.5280000  15.6430000   0.5280000
  41.4510000  16.6970000   0.2630000  40.7100000  15.4170000   1.8000000
  40.8140000  14.3900000   2.1490000  41.0530000  16.0950000   2.5810000
  39.6580000  15.6190000   1.6000000  42.8790000  15.3540000   0.8080000
  43.1270000  15.8700000   1.5790000  41.7340000  15.2410000  -1.9430000
  41.2210000  16.1050000  -2.6590000  42.8950000  14.6610000  -2.2720000
  43.2880000  13.9950000  -1.6220000  43.7050000  15.0470000  -3.4370000
  43.5910000  16.1200000  -3.5910000  45.1980000  14.7730000  -3.1560000
  45.3500000  13.7150000  -2.9400000  45.7730000  15.0070000  -4.0520000
  45.7700000  15.6030000  -2.0140000  46.1800000  15.1060000  -0.9750000
  45.8280000  16.9090000  -2.1710000  45.5270000  17.3400000  -3.0340000
  46.2120000  17.4630000  -1.4190000  43.2690000  14.3830000  -4.7590000
  43.3850000  15.0120000  -5.8130000  42.7680000  13.1370000  -4.7230000
  42.7340000  12.6730000  -3.8260000  42.4760000  12.3240000  -5.9310000
  42.3190000  12.9960000  -6.7750000  43.6830000  11.4220000  -6.3030000
  43.4150000  10.8200000  -7.1710000  44.9200000  12.2300000  -6.7110000
  45.3120000  12.7910000  -5.8630000  45.6940000  11.5560000  -7.0780000
  44.6580000  12.9240000  -7.5100000  44.0910000  10.4670000  -5.1750000
  43.2540000   9.8230000  -4.9070000  44.9180000   9.8390000  -5.5070000
  44.4110000  11.0280000  -4.2970000  41.1700000  11.5120000  -5.8320000
  40.9920000  10.5220000  -6.5420000  40.2380000  11.9180000  -4.9580000
  40.4510000  12.7300000  -4.3960000  38.8660000  11.3840000  -4.8510000
  38.4230000  11.8060000  -3.9500000  38.0500000  11.8940000  -6.0600000
  38.2450000  12.9580000  -6.1970000  38.3680000  11.3700000  -6.9610000
  36.5440000  11.7270000  -5.9020000  35.8730000  11.1020000  -6.7120000
  35.9520000  12.2870000  -4.8660000  36.4750000  12.8530000  -4.2140000
  34.9520000  12.1800000  -4.7740000  38.8240000   9.8480000  -4.6510000
  37.9220000   9.1610000  -5.1320000  39.8400000   9.3100000  -3.9640000
  40.5300000   9.9520000  -3.6000000  40.0420000   7.8820000  -3.6580000
  40.9500000   7.8180000  -3.0580000  38.8910000   7.3310000  -2.7950000
  37.9580000   7.3570000  -3.3560000  39.1030000   6.2960000  -2.5250000
  38.7520000   8.0870000  -1.6060000  39.4520000   7.8200000  -1.0060000
  40.3000000   6.9850000  -4.8870000  40.2670000   5.7590000  -4.7660000
  40.6280000   7.5650000  -6.0540000  40.6190000   8.5740000  -6.0980000
  40.9270000   6.8280000  -7.3010000  40.1750000   6.0480000  -7.4170000
  40.8110000   7.8170000  -8.4810000  39.8780000   8.3720000  -8.3800000
  41.6280000   8.5360000  -8.4180000  40.8310000   7.1880000  -9.8840000
  40.7600000   7.9950000 -10.6140000  41.7760000   6.6710000 -10.0500000
  39.6690000   6.2110000 -10.1130000  39.8190000   5.3300000  -9.4900000
  38.7320000   6.6770000  -9.8070000  39.5930000   5.7830000 -11.5240000
  40.0760000   4.9280000 -11.7600000  38.9490000   6.3800000 -12.5120000
  38.9510000   5.8610000 -13.7060000  39.4420000   4.9970000 -13.8840000
  38.4550000   6.3150000 -14.4600000  38.2930000   7.4950000 -12.3490000
  38.2730000   7.9290000 -11.4380000  37.8090000   7.9250000 -13.1240000
  42.2920000   6.1190000  -7.2830000  42.4650000   5.0900000  -7.9320000
  43.2460000   6.6720000  -6.5310000  42.9940000   7.5060000  -6.0210000
  44.6400000   6.2200000  -6.3940000  44.7100000   5.1540000  -6.6100000
  45.5420000   6.9950000  -7.3710000  45.4650000   8.0620000  -7.1610000
  46.5760000   6.6930000  -7.2060000  45.2020000   6.7480000  -8.8460000
  45.2020000   5.6730000  -9.0220000  44.2000000   7.1230000  -9.0550000
  46.3510000   7.5150000 -10.0210000  45.8580000   9.2550000  -9.8670000
  46.0040000   9.5990000  -8.8430000  46.4650000   9.8650000 -10.5360000
  44.8080000   9.3660000 -10.1370000  45.1280000   6.4580000  -4.9580000
  44.6570000   7.3840000  -4.2960000  46.0530000   5.6330000  -4.4570000
  46.4590000   4.9380000  -5.0670000  46.6790000   5.8670000  -3.1480000
  45.9090000   6.2010000  -2.4520000  47.2730000   4.5700000  -2.5840000
  48.0170000   4.1990000  -3.2900000  47.7890000   4.8040000  -1.6540000
  46.2660000   3.4420000  -2.3150000  45.8010000   3.1350000  -3.2520000
  47.0260000   2.2520000  -1.7370000  47.5040000   2.5330000  -0.7980000
  46.3290000   1.4330000  -1.5600000  47.7880000   1.9200000  -2.4420000
  45.1590000   3.8310000  -1.3350000  44.5240000   4.6020000  -1.7710000
  44.5390000   2.9570000  -1.1300000  45.5870000   4.2000000  -0.4030000
  47.7260000   6.9880000  -3.2250000  48.6840000   6.9040000  -3.9920000
  47.5500000   8.0340000  -2.4200000  46.7440000   8.0160000  -1.8120000
  48.3590000   9.2570000  -2.4350000  48.9120000   9.3030000  -3.3730000
  47.4090000  10.4680000  -2.4150000  47.0440000  10.6350000  -1.4010000
  46.5390000  10.2280000  -3.0260000  47.9940000  11.7580000  -2.9650000
  47.7850000  12.0880000  -4.3180000  47.2430000  11.4110000  -4.9620000
  48.2750000  13.3020000  -4.8380000  48.1060000  13.5520000  -5.8750000
  48.9790000  14.1930000  -4.0000000  49.4330000  15.3780000  -4.4880000
  49.1890000  15.5020000  -5.4080000  49.2050000  13.8550000  -2.6490000
  49.7410000  14.5420000  -2.0110000  48.7110000  12.6410000  -2.1340000
  48.8720000  12.3990000  -1.0940000  49.3980000   9.2380000  -1.2960000
  49.3540000  10.0460000  -0.3630000  50.3380000   8.2840000  -1.3520000
  50.3060000   7.6200000  -2.1120000  51.4430000   8.1850000  -0.3830000
  51.0290000   8.0190000   0.6110000  52.3610000   6.9980000  -0.7050000
  52.8020000   7.1320000  -1.6930000  53.1860000   7.0090000   0.0070000
  51.7120000   5.6300000  -0.6310000  51.1250000   5.0470000  -1.7700000
  51.1190000   5.5750000  -2.7120000  50.5660000   3.7590000  -1.6860000
  50.1220000   3.3020000  -2.5580000  50.6010000   3.0460000  -0.4770000
  50.1870000   2.0500000  -0.4260000  51.1930000   3.6240000   0.6580000
  51.2330000   3.0730000   1.5850000  51.7410000   4.9150000   0.5800000
  52.2080000   5.3520000   1.4510000  52.2400000   9.4930000  -0.3120000
  52.4770000  10.0070000   0.7800000  52.5520000  10.0790000  -1.4680000
  52.3000000   9.6020000  -2.3220000  53.1230000  11.4160000  -1.6170000
  52.6740000  12.0760000  -0.8750000  54.6330000  11.3180000  -1.3590000
  55.0790000  12.3110000  -1.4090000  54.8210000  10.9050000  -0.3680000
  55.1080000  10.6870000  -2.1100000  52.8140000  11.9660000  -3.0290000
  52.4560000  11.1720000  -3.9050000  52.9930000  13.2750000  -3.3050000
  53.3180000  14.3340000  -2.3570000  54.3980000  14.3920000  -2.2290000
  52.8290000  14.1890000  -1.3940000  52.8120000  15.6220000  -3.0020000
  53.3870000  16.4900000  -2.6800000  51.7530000  15.7560000  -2.7820000
  53.0020000  15.3530000  -4.4910000  54.0360000  15.5700000  -4.7620000
  52.3190000  15.9480000  -5.0970000  52.7220000  13.8530000  -4.6290000
  51.6680000  13.7070000  -4.8640000  53.5690000  13.2440000  -5.7590000
  53.1360000  13.1860000  -6.9110000  54.7690000  12.7650000  -5.4220000
  55.0730000  12.8700000  -4.4650000  55.7150000  12.0640000  -6.2960000
  55.4600000  12.2600000  -7.3370000  57.1270000  12.6300000  -6.0470000
  57.8340000  12.1240000  -6.7040000  57.1210000  13.6820000  -6.3330000
  57.6320000  12.5360000  -4.5940000  58.8400000  12.7820000  -4.3760000
  56.8460000  12.2400000  -3.6630000  55.6940000  10.5280000  -6.1070000
  56.5040000   9.8280000  -6.7160000  54.7500000   9.9880000  -5.3230000
  54.0990000  10.6220000  -4.8810000  54.5690000   8.5520000  -5.0570000
  55.0150000   7.9980000  -5.8830000  55.3250000   8.1700000  -3.7640000
  56.2990000   8.6600000  -3.7740000  54.7650000   8.5570000  -2.9120000
  55.5520000   6.6560000  -3.5610000  54.6200000   6.1090000  -3.7050000
  56.6040000   6.1040000  -4.5240000  57.5360000   6.6530000  -4.3950000
  56.7860000   5.0500000  -4.3160000  56.2680000   6.2020000  -5.5560000
  56.0490000   6.3750000  -2.1450000  55.3050000   6.7110000  -1.4230000
  56.1920000   5.3020000  -2.0190000  56.9960000   6.8850000  -1.9630000
  53.0720000   8.1760000  -5.0420000  52.5780000   7.5100000  -4.1340000
  52.3250000   8.6230000  -6.0540000  52.7610000   9.2090000  -6.7510000
  50.9230000   8.2160000  -6.2520000  50.4380000   8.1760000  -5.2770000
  50.1470000   9.2440000  -7.0980000  50.5810000   9.2940000  -8.0970000
  48.6690000   8.8560000  -7.2270000  48.2180000   8.7440000  -6.2410000
  48.1350000   9.6310000  -7.7760000  48.5740000   7.9230000  -7.7830000
  50.2150000  10.6400000  -6.4660000  51.2390000  11.0140000  -6.4860000
  49.5900000  11.3360000  -7.0240000  49.8770000  10.6000000  -5.4300000
  50.8790000   6.8100000  -6.8610000  51.5480000   6.5510000  -7.8660000
  50.1310000   5.8870000  -6.2510000  49.6320000   6.1590000  -5.4170000
  49.9640000   4.5060000  -6.7240000  50.7350000   4.2720000  -7.4580000
  50.1150000   3.4910000  -5.5770000  49.5580000   3.8630000  -4.7180000
  49.6360000   2.5640000  -5.8930000  51.5130000   3.1150000  -5.1060000
  52.6400000   3.9270000  -5.3460000  52.5520000   4.8640000  -5.8760000
  53.9080000   3.5270000  -4.8930000  54.7700000   4.1440000  -5.0970000
  54.0620000   2.3290000  -4.1770000  55.0370000   2.0370000  -3.8150000
  52.9440000   1.5190000  -3.9280000  53.0560000   0.6050000  -3.3640000
  51.6770000   1.9060000  -4.3990000  50.8220000   1.2770000  -4.1990000
  48.6020000   4.3260000  -7.4080000  47.5600000   4.2570000  -6.7520000
  48.6300000   4.2160000  -8.7370000  49.5190000   4.3500000  -9.1980000
  47.5860000   3.5500000  -9.5190000  46.6190000   3.9310000  -9.1890000
  47.7620000   3.9210000 -11.0090000  46.9460000   3.4970000 -11.5940000
  47.6930000   5.0050000 -11.1010000  49.0740000   3.4780000 -11.6440000
  49.7980000   2.6350000 -11.1400000  49.4300000   4.0400000 -12.7730000
  48.8430000   4.7380000 -13.2070000  50.3030000   3.7520000 -13.1920000
  47.5700000   2.0220000  -9.2720000  48.4770000   1.4620000  -8.6560000
  46.5450000   1.3360000  -9.7820000  45.8220000   1.8530000 -10.2600000
  46.3840000  -0.1290000  -9.6960000  46.1980000  -0.3990000  -8.6570000
  45.1690000  -0.5620000 -10.5340000  45.3390000  -0.2710000 -11.5710000
  45.0860000  -1.6480000 -10.5090000  43.8360000   0.0560000 -10.0740000
  43.9060000   1.1430000 -10.1100000  43.0650000  -0.2390000 -10.7860000
  43.4020000  -0.4020000  -8.6690000  42.8900000   0.4200000  -7.8720000
  43.4960000  -1.6100000  -8.3580000  47.6440000  -0.9020000 -10.1380000
  48.0620000  -1.8480000  -9.4670000  48.2740000  -0.4920000 -11.2480000
  47.8780000   0.2830000 -11.7600000  49.5350000  -1.0720000 -11.7320000
  49.3620000  -2.1270000 -11.9440000  49.9460000  -0.3970000 -13.0480000
  50.0430000   0.6770000 -12.8900000  49.1530000  -0.5480000 -13.7800000
  51.2460000  -0.9240000 -13.6280000  51.2350000  -2.0900000 -14.4180000
  50.3050000  -2.6030000 -14.6120000  52.4360000  -2.5870000 -14.9620000
  52.4240000  -3.4790000 -15.5710000  53.6530000  -1.9200000 -14.7090000
  54.8130000  -2.3940000 -15.2380000  54.6480000  -2.9430000 -16.0080000
  53.6650000  -0.7580000 -13.9070000  54.6000000  -0.2520000 -13.7160000
  52.4620000  -0.2600000 -13.3700000  52.4760000   0.6340000 -12.7630000
  50.6630000  -1.0050000 -10.6870000  51.3020000  -2.0220000 -10.4080000
  50.8820000   0.1550000 -10.0500000  50.3270000   0.9540000 -10.3210000
  51.8540000   0.3150000  -8.9490000  52.8270000  -0.0400000  -9.2880000
  52.0010000   1.7970000  -8.5720000  51.0190000   2.2680000  -8.5370000
  52.4630000   1.8720000  -7.5880000  52.9030000   2.5240000  -9.5770000
  53.8920000   2.0660000  -9.5470000  52.5010000   2.4210000 -10.5860000
  53.0340000   4.0110000  -9.2410000  52.1050000   4.5190000  -9.4970000
  53.2250000   4.1190000  -8.1730000  54.1520000   4.5980000  -9.9880000
  54.5870000   4.0150000 -10.6890000  54.7050000   5.7770000  -9.8150000
  55.8210000   6.0290000 -10.4180000  56.2780000   5.2740000 -10.9090000
  56.2960000   6.9080000 -10.2690000  54.1830000   6.7040000  -9.0580000
  53.2700000   6.5530000  -8.6540000  54.6430000   7.5990000  -8.9700000
  51.5160000  -0.5410000  -7.7270000  52.4180000  -1.1590000  -7.1700000
  50.2350000  -0.6600000  -7.3630000  49.5510000  -0.1180000  -7.8710000
  49.7860000  -1.5730000  -6.2940000  50.3070000  -1.3030000  -5.3760000
  48.2730000  -1.4450000  -6.0430000  47.7320000  -1.7620000  -6.9340000
  48.0000000  -2.1220000  -5.2330000  47.7970000  -0.0390000  -5.6700000
  48.2970000   0.2910000  -4.7590000  48.0700000   0.6510000  -6.4690000
  46.0000000   0.0460000  -5.4330000  45.7160000   1.7820000  -5.8610000
  45.9080000   1.9330000  -6.9240000  44.6810000   2.0480000  -5.6440000
  46.3880000   2.4160000  -5.2840000  50.1280000  -3.0480000  -6.5900000
  50.4570000  -3.8030000  -5.6750000  50.0510000  -3.4730000  -7.8570000
  49.6840000  -2.8420000  -8.5560000  50.5160000  -4.7940000  -8.2930000
  50.1440000  -5.5370000  -7.5880000  49.8930000  -5.1180000  -9.6600000
  48.8090000  -5.0400000  -9.5800000  50.2250000  -4.3870000 -10.3980000
  50.2370000  -6.4950000 -10.1670000  51.3640000  -6.8520000 -10.8750000
  52.0880000  -6.2310000 -11.2100000  51.3250000  -8.1790000 -11.0850000
  52.0760000  -8.7390000 -11.6230000  50.2170000  -8.7090000 -10.5330000
  49.5230000  -7.6430000  -9.9420000  48.5970000  -7.7100000  -9.3900000
  52.0570000  -4.9090000  -8.2910000  52.6040000  -5.8590000  -7.7280000
  52.7740000  -3.9140000  -8.8390000  52.2600000  -3.1740000  -9.2950000
  54.2520000  -3.8710000  -8.9100000  54.5950000  -4.7960000  -9.3740000
  54.7060000  -2.6770000  -9.7780000  53.9430000  -1.8990000  -9.7540000
  55.6130000  -2.2400000  -9.3600000  54.9910000  -3.0450000 -11.2430000
  54.1750000  -3.6540000 -11.6340000  55.0420000  -2.1220000 -11.8200000
  56.3380000  -3.7790000 -11.3890000  57.1120000  -3.1600000 -10.9360000
  56.3130000  -4.7290000 -10.8550000  56.7430000  -4.0220000 -12.8520000
  56.6410000  -3.0900000 -13.4090000  57.7970000  -4.2970000 -12.8690000
  55.9460000  -5.1030000 -13.4970000  54.9650000  -4.8690000 -13.5450000
  56.2660000  -5.2630000 -14.4420000  56.0420000  -5.9780000 -13.0020000
  54.9410000  -3.8340000  -7.5390000  56.0310000  -4.3850000  -7.3980000
  54.3130000  -3.2390000  -6.5240000  53.4580000  -2.7350000  -6.7140000
  54.8020000  -3.2580000  -5.1370000  55.8760000  -3.0740000  -5.1450000
  54.1490000  -2.1240000  -4.3380000  54.6280000  -2.0490000  -3.3620000
  54.2850000  -1.1810000  -4.8670000  52.7690000  -2.3780000  -4.1590000
  52.4130000  -1.6950000  -3.5860000  54.5680000  -4.5980000  -4.4160000
  55.0840000  -4.7890000  -3.3170000  53.8040000  -5.5340000  -5.0080000
  53.4240000  -5.3080000  -5.9160000  53.4970000  -6.8810000  -4.4700000
  52.8640000  -7.3920000  -5.1960000  54.7790000  -7.7350000  -4.3140000
  55.3870000  -7.3390000  -3.5010000  54.4920000  -8.7510000  -4.0420000
  55.6320000  -7.8110000  -5.5920000  55.0490000  -8.2660000  -6.3930000
  55.9320000  -6.8090000  -5.8990000  56.8980000  -8.6390000  -5.3470000
  57.4130000  -8.2310000  -4.4770000  56.6160000  -9.6700000  -5.1350000
  57.7960000  -8.6040000  -6.5190000  57.3830000  -8.3410000  -7.4020000
  59.0820000  -8.9090000  -6.5380000  59.7560000  -8.8530000  -7.6500000
  59.2980000  -8.5900000  -8.5110000  60.7350000  -9.1000000  -7.6680000
  59.7240000  -9.2790000  -5.4660000  59.2290000  -9.3070000  -4.5860000
  60.7060000  -9.5120000  -5.5050000  52.6620000  -6.8230000  -3.1720000
  52.6450000  -7.7730000  -2.3890000  51.9210000  -5.7250000  -2.9830000
  52.0000000  -5.0020000  -3.6840000  51.1140000  -5.4140000  -1.7900000
  51.1770000  -6.2260000  -1.0660000  51.6600000  -4.1330000  -1.1260000
  51.6430000  -3.3270000  -1.8600000  51.0070000  -3.8480000  -0.3010000
  53.0740000  -4.2530000  -0.5550000  53.0420000  -4.8650000   0.3470000
  53.7110000  -4.7630000  -1.2770000  53.8420000  -2.6510000  -0.1680000
  52.7340000  -2.0670000   1.1420000  52.7550000  -2.7750000   1.9700000
  53.0620000  -1.0870000   1.4910000  51.7160000  -1.9750000   0.7620000
  49.6270000  -5.2290000  -2.1420000  48.9100000  -4.4940000  -1.4640000
  49.1450000  -5.8490000  -3.2280000  49.7630000  -6.4530000  -3.7510000
  47.8430000  -5.5120000  -3.8170000  47.8900000  -4.4650000  -4.1170000
  47.5990000  -6.3370000  -5.0890000  47.4310000  -7.3790000  -4.8190000
  48.4890000  -6.2950000  -5.7180000  46.4220000  -5.8190000  -5.8960000
  46.5820000  -4.6620000  -6.6820000  47.5510000  -4.1910000  -6.7540000
  45.4810000  -4.1020000  -7.3550000  45.6000000  -3.2010000  -7.9380000
  44.2130000  -4.7130000  -7.2590000  43.1390000  -4.1510000  -7.8720000
  43.3190000  -3.2340000  -8.0900000  44.0630000  -5.9020000  -6.5090000
  43.0920000  -6.3700000  -6.4430000  45.1640000  -6.4480000  -5.8190000
  45.0370000  -7.3360000  -5.2180000  46.6740000  -5.6320000  -2.8230000
  45.8370000  -4.7340000  -2.7570000  46.6450000  -6.6810000  -1.9930000
  47.3850000  -7.3660000  -2.0550000  45.6430000  -6.8480000  -0.9270000
  44.6580000  -6.8040000  -1.3920000  45.7640000  -8.2340000  -0.2830000
  45.0030000  -8.3390000   0.4910000  45.5880000  -8.9930000  -1.0460000
  47.0480000  -8.4290000   0.2810000  47.0990000  -9.3310000   0.6050000
  45.6860000  -5.7170000   0.1150000  44.6550000  -5.0810000   0.3470000
  46.8540000  -5.4000000   0.6990000  47.6640000  -5.9600000   0.4780000
  47.0300000  -4.2270000   1.5760000  46.4150000  -4.3660000   2.4660000
  48.4950000  -4.0440000   2.0270000  49.1530000  -3.9580000   1.1620000
  48.5420000  -3.0920000   2.5550000  49.0390000  -5.1060000   2.9980000
  49.8420000  -4.6520000   3.5780000  48.2540000  -5.3860000   3.7010000
  49.6180000  -6.3620000   2.3460000  49.5680000  -6.5720000   1.1420000
  50.2090000  -7.2420000   3.1270000  50.3010000  -7.0780000   4.1200000
  50.5910000  -8.0730000   2.6980000  46.5510000  -2.9340000   0.8970000
  45.7690000  -2.1810000   1.4760000  46.9910000  -2.6760000  -0.3360000
  47.6550000  -3.3150000  -0.7490000  46.6070000  -1.4920000  -1.1040000
  46.8550000  -0.6110000  -0.5120000  47.4430000  -1.4320000  -2.3860000
  47.3080000  -2.3530000  -2.9530000  47.1070000  -0.5870000  -2.9870000
  49.2010000  -1.2030000  -1.9740000  49.7030000  -1.7210000  -3.0980000
  45.0970000  -1.4010000  -1.3920000  44.5240000  -0.3240000  -1.2500000
  44.4120000  -2.5100000  -1.6920000  44.9270000  -3.3650000  -1.8460000
  42.9430000  -2.5410000  -1.8400000  42.6500000  -1.7400000  -2.5200000
  42.4750000  -3.8710000  -2.4690000  42.9690000  -4.7040000  -1.9680000
  40.9590000  -4.0880000  -2.3850000  40.4320000  -3.2310000  -2.8060000
  40.6810000  -4.9850000  -2.9370000  40.6510000  -4.2270000  -1.3480000
  42.8410000  -3.8940000  -3.9570000  43.9140000  -3.7610000  -4.0940000
  42.5510000  -4.8510000  -4.3910000  42.3230000  -3.0900000  -4.4810000
  42.2390000  -2.2460000  -0.5120000  41.2880000  -1.4660000  -0.4880000
  42.7350000  -2.7770000   0.6140000  43.5040000  -3.4270000   0.5350000
  42.2080000  -2.4540000   1.9570000  41.1270000  -2.5930000   1.9460000
  42.7880000  -3.4250000   3.0050000  43.8750000  -3.3400000   3.0250000
  42.4080000  -3.1310000   3.9830000  42.3950000  -4.8930000   2.7270000
  41.8200000  -4.9500000   1.8030000  43.2960000  -5.4910000   2.5890000
  41.5410000  -5.5170000   3.8370000  40.8150000  -4.7800000   4.1820000
  40.9910000  -6.3550000   3.4090000  42.3600000  -6.0300000   4.9560000
  43.2940000  -6.3450000   4.7350000  41.9460000  -6.3010000   6.1800000
  42.7220000  -6.9450000   6.9980000  43.5830000  -7.3390000   6.6480000
  42.3910000  -7.2260000   7.9100000  40.7650000  -5.9560000   6.6140000
  40.1330000  -5.4700000   5.9930000  40.4620000  -6.1940000   7.5470000
  42.4230000  -0.9790000   2.3250000  41.5080000  -0.3290000   2.8250000
  43.5770000  -0.4040000   1.9790000  44.3090000  -1.0030000   1.6250000
  43.8140000   1.0480000   2.0590000  43.5590000   1.3730000   3.0680000
  45.3010000   1.3800000   1.8400000  45.6520000   0.9390000   0.9070000
  45.4060000   2.4630000   1.7750000  46.1640000   0.8860000   3.0100000
  45.7210000   1.2640000   3.9320000  46.1340000  -0.2030000   3.0510000
  47.9000000   1.4170000   3.0000000  48.5620000   0.4540000   1.6140000
  48.1270000   0.8040000   0.6790000  49.6440000   0.5820000   1.5700000
  48.3320000  -0.6020000   1.7540000  42.9040000   1.8580000   1.1170000
  42.4150000   2.9110000   1.5190000  42.5930000   1.3690000  -0.0950000
  43.0870000   0.5490000  -0.4160000  41.6110000   2.0030000  -1.0050000
  41.8960000   3.0490000  -1.1150000  41.6480000   1.3530000  -2.4090000
  42.6730000   1.0870000  -2.6670000  41.0570000   0.4370000  -2.3970000
  41.1220000   2.3100000  -3.5020000  40.4900000   3.0740000  -3.0490000
  41.9670000   2.8200000  -3.9650000  40.2830000   1.6260000  -4.5930000
  39.3950000   1.2010000  -4.1260000  39.9420000   2.3960000  -5.2860000
  41.0260000   0.6030000  -5.3640000  41.7930000   0.9210000  -5.9370000
  40.6960000  -0.6630000  -5.5470000  41.3790000  -1.3850000  -6.3760000
  42.1050000  -0.9420000  -6.9210000  41.1450000  -2.3510000  -6.5570000
  39.6950000  -1.2390000  -4.9380000  39.1150000  -0.7020000  -4.3100000
  39.4430000  -2.1930000  -5.1520000  40.1940000   1.9840000  -0.4140000
  39.4790000   2.9740000  -0.5110000  39.8010000   0.8970000   0.2500000
  40.4040000   0.0870000   0.2230000  38.5500000   0.8190000   1.0150000
  37.7250000   1.0410000   0.3380000  38.3450000  -0.6170000   1.5210000
  38.4970000  -1.3060000   0.6900000  39.0860000  -0.8530000   2.2850000
  36.9730000  -0.8690000   2.0960000  36.5150000  -0.4880000   3.3400000
  37.0440000  -0.0270000   4.0660000  35.2320000  -0.8760000   3.4490000
  34.6160000  -0.7240000   4.3230000  34.8290000  -1.4910000   2.3210000
  35.9300000  -1.4800000   1.4530000  35.9580000  -1.8810000   0.4510000
  38.5000000   1.8740000   2.1370000  37.5750000   2.6810000   2.1750000
  39.5320000   1.9470000   2.9910000  40.2490000   1.2380000   2.9350000
  39.6600000   2.9860000   4.0290000  38.8150000   2.8840000   4.7100000
  40.9580000   2.7420000   4.8230000  40.9110000   1.7560000   5.2850000
  41.7940000   2.7420000   4.1230000  41.2480000   3.7950000   5.9120000
  41.2490000   4.7930000   5.4740000  40.2240000   3.7490000   7.0440000
  40.2150000   2.7630000   7.5080000  40.4690000   4.4990000   7.7960000
  39.2320000   3.9730000   6.6520000  42.6330000   3.5500000   6.4990000
  43.3810000   3.6090000   5.7080000  42.8560000   4.3150000   7.2420000
  42.6760000   2.5650000   6.9640000  39.6050000   4.4160000   3.4500000
  38.8940000   5.2740000   3.9680000  40.3340000   4.6620000   2.3570000
  40.9400000   3.9230000   2.0310000  40.2810000   5.9020000   1.5710000
  40.6700000   6.7210000   2.1770000  41.2080000   5.7570000   0.3640000
  42.2420000   5.7240000   0.7090000  40.9860000   4.8210000  -0.1480000
  41.0530000   6.8100000  -0.5630000  41.6240000   6.6050000  -1.3070000
  38.8440000   6.2680000   1.1600000  38.3770000   7.3660000   1.4650000
  38.1150000   5.3500000   0.5130000  38.5350000   4.4570000   0.3000000
  36.7180000   5.5720000   0.1140000  36.6760000   6.4900000  -0.4730000
  36.2270000   4.4240000  -0.7770000  36.4010000   3.4720000  -0.2760000
  35.1530000   4.5500000  -0.9190000  36.8790000   4.4210000  -2.1690000
  36.6630000   5.3690000  -2.6620000  37.9600000   4.3190000  -2.0730000
  36.3640000   3.2840000  -3.0480000  35.6850000   3.4890000  -4.0450000
  36.6580000   2.0420000  -2.7170000  37.2040000   1.8550000  -1.8880000
  36.2800000   1.2970000  -3.2840000  35.7570000   5.7790000   1.3030000
  34.8200000   6.5730000   1.1910000  35.9940000   5.1380000   2.4540000
  36.7400000   4.4580000   2.4780000  35.1680000   5.3060000   3.6610000
  34.1440000   5.0250000   3.4130000  35.6310000   4.3880000   4.8040000
  36.7050000   4.5080000   4.9440000  35.1530000   4.7080000   5.7310000
  35.3250000   2.8990000   4.5890000  35.3450000   2.6600000   3.5260000
  36.1170000   2.3250000   5.0700000  33.9640000   2.4730000   5.1820000
  32.9620000   3.2170000   5.0510000  33.8910000   1.3700000   5.7770000
  35.1040000   6.7620000   4.1580000  34.0420000   7.1900000   4.6120000
  36.1810000   7.5550000   4.0380000  37.0340000   7.1660000   3.6630000
  36.1350000   8.9940000   4.3490000  35.8860000   9.1020000   5.4040000
  37.4990000   9.6580000   4.1150000  37.8140000   9.4770000   3.0880000
  37.3750000  10.7350000   4.2250000  38.5980000   9.2290000   5.0680000
  38.5900000   9.6930000   6.3970000  37.7920000  10.3350000   6.7390000
  39.6390000   9.3600000   7.2700000  39.6370000   9.7320000   8.2840000
  40.6960000   8.5530000   6.8190000  41.5150000   8.3150000   7.4820000
  40.6930000   8.0610000   5.5040000  41.4980000   7.4240000   5.1690000
  39.6530000   8.4120000   4.6250000  39.6680000   8.0610000   3.6040000
  35.0490000   9.7410000   3.5520000  34.3360000  10.5750000   4.1180000
  34.8900000   9.4210000   2.2620000  35.4900000   8.7070000   1.8720000
  33.8160000   9.9480000   1.4170000  34.0370000   9.7230000   0.3740000
  33.7690000  11.0310000   1.5280000  32.4370000   9.3680000   1.7500000
  31.4760000  10.1210000   1.9110000  32.3370000   8.0440000   1.9080000
  33.1610000   7.4830000   1.7470000  31.0780000   7.3420000   2.2070000
  30.3460000   7.6000000   1.4410000  31.3150000   5.8250000   2.1440000
  32.0610000   5.5610000   2.8940000  30.3870000   5.3280000   2.4290000
  31.7390000   5.2460000   0.8210000  31.4730000   5.7610000  -0.4040000
  30.9380000   6.6800000  -0.5890000  31.9640000   4.9210000  -1.3850000
  31.8680000   5.1070000  -2.3730000  32.5620000   3.8040000  -0.8440000
  33.1840000   2.6800000  -1.4100000  33.2460000   2.5740000  -2.4830000
  33.7380000   1.7050000  -0.5620000  34.2250000   0.8360000  -0.9780000
  33.6540000   1.8640000   0.8330000  34.0800000   1.1150000   1.4830000
  33.0110000   2.9880000   1.3880000  32.9410000   3.0900000   2.4610000
  32.4500000   3.9910000   0.5680000  30.4530000   7.7450000   3.5560000
  29.2280000   7.8330000   3.6650000  31.2810000   8.0340000   4.5670000
  32.2660000   7.8660000   4.4230000  30.8670000   8.5090000   5.8970000
  29.8440000   8.1850000   6.0910000  31.7790000   7.8660000   6.9640000
  32.7970000   8.2150000   6.7930000  31.4710000   8.2170000   7.9490000
  31.7910000   6.3230000   6.9760000  32.0520000   5.9430000   5.9880000
  32.8440000   5.8250000   7.9660000  32.6280000   6.1900000   8.9700000
  32.8600000   4.7360000   7.9700000  33.8240000   6.1820000   7.6480000
  30.4360000   5.7390000   7.3780000  29.6850000   5.9950000   6.6300000
  30.5070000   4.6530000   7.4300000  30.1310000   6.1280000   8.3500000
  30.8550000  10.0500000   6.0200000  30.4780000  10.5810000   7.0690000
  31.2460000  10.7730000   4.9610000  31.5160000  10.2670000   4.1300000
  31.2580000  12.2430000   4.8740000  31.7900000  12.5070000   3.9600000
  29.8240000  12.7940000   4.7280000  29.2360000  12.5270000   5.6060000
  29.8790000  13.8810000   4.6700000  29.1120000  12.2720000   3.4660000
  29.6720000  12.5940000   2.5880000  29.0890000  11.1820000   3.4780000
  27.6750000  12.7790000   3.3320000  26.7330000  12.0160000   3.1480000
  27.4280000  14.0700000   3.4340000  28.1820000  14.7260000   3.5820000
  26.4720000  14.3840000   3.3490000  32.0600000  12.8880000   6.0270000
  31.5720000  13.7670000   6.7450000  33.2890000  12.4080000   6.2340000
  33.6340000  11.7160000   5.5840000  34.1710000  12.8060000   7.3430000
  33.5930000  12.7790000   8.2660000  35.3320000  11.7940000   7.4800000
  35.8770000  11.7840000   6.5360000  36.3290000  12.2140000   8.5730000
  35.8070000  12.4120000   9.5090000  37.0710000  11.4310000   8.7330000
  36.8610000  13.1130000   8.2630000  34.8400000  10.3490000   7.7320000
  34.2990000   9.9990000   6.8530000  35.7060000   9.6990000   7.8510000
  33.9310000  10.1620000   8.9530000  32.9770000  10.6650000   8.7970000
  33.7430000   9.0990000   9.1020000  34.4120000  10.5640000   9.8450000
  34.6800000  14.2480000   7.1680000  35.2260000  14.5940000   6.1160000
  34.4990000  15.0990000   8.1840000  34.0450000  14.7550000   9.0180000
  35.0480000  16.4710000   8.2060000  34.9120000  16.8860000   7.2080000
  34.2990000  17.4030000   9.1810000  34.5730000  18.4300000   8.9420000
  32.7770000  17.2960000   9.0810000  32.4390000  16.3060000   9.3880000
  32.3130000  18.0440000   9.7240000  32.4650000  17.4780000   8.0530000
  34.6690000  17.1660000  10.5200000  34.1090000  17.7230000  11.0660000
  36.5550000  16.4880000   8.5310000  37.0630000  15.5450000   9.1460000
  37.2930000  17.5700000   8.2040000  36.9020000  18.6730000   7.3380000
  36.3430000  19.4120000   7.9120000  36.3180000  18.3340000   6.4830000
  38.2120000  19.2860000   6.8510000  38.0990000  20.3430000   6.6100000
  38.5750000  18.7310000   5.9860000  39.1490000  19.0690000   8.0370000
  38.9950000  19.8640000   8.7660000  40.1930000  19.0380000   7.7240000
  38.6920000  17.7230000   8.6100000  39.2770000  16.9260000   8.1500000
  38.8830000  17.6620000  10.1320000  39.8250000  17.0400000  10.6130000
  37.9810000  18.2820000  10.9000000  37.2370000  18.7840000  10.4380000
  37.9910000  18.2800000  12.3680000  38.9620000  18.6370000  12.7110000
  36.9110000  19.2400000  12.9010000  35.9420000  18.9820000  12.4750000
  36.8390000  19.1050000  13.9810000  37.2190000  20.7260000  12.6370000
  36.4970000  21.3310000  13.1870000  38.2100000  20.9570000  13.0270000
  37.1450000  21.1540000  11.1700000  36.3540000  20.6540000  10.3780000
  37.9720000  22.0810000  10.7450000  38.6660000  22.4650000  11.3700000
  37.9170000  22.3790000   9.7820000  37.8080000  16.8660000  12.9480000
  38.5610000  16.4550000  13.8330000  36.8360000  16.1060000  12.4310000
  36.2570000  16.4950000  11.7000000  36.6580000  14.6830000  12.7470000
  36.4800000  14.5730000  13.8170000  35.4430000  14.1150000  12.0000000
  35.5480000  14.3700000  10.9450000  35.4410000  13.0290000  12.0920000
  34.0970000  14.6300000  12.5300000  33.9260000  14.1890000  13.5120000
  34.1390000  15.7110000  12.6580000  32.9220000  14.2800000  11.5920000
  33.1370000  13.8800000  10.4250000  31.7490000  14.3770000  12.0300000
  37.9150000  13.8640000  12.4140000  38.4170000  13.1520000  13.2830000
  38.4510000  13.9860000  11.1920000  37.9850000  14.5830000  10.5230000
  39.7030000  13.3420000  10.7750000  39.5650000  12.2620000  10.8070000
  40.0430000  13.7180000   9.3210000  39.4140000  13.1370000   8.6460000
  39.8080000  14.7700000   9.1580000  41.5020000  13.4940000   8.9600000
  41.9980000  12.1880000   8.7840000  41.3290000  11.3420000   8.8420000
  43.3670000  11.9780000   8.5370000  43.7370000  10.9740000   8.3910000
  44.2420000  13.0750000   8.4530000  45.2890000  12.9200000   8.2400000
  43.7520000  14.3810000   8.6320000  44.4230000  15.2240000   8.5660000
  42.3840000  14.5890000   8.8820000  42.0110000  15.5940000   9.0180000
  40.8750000  13.6550000  11.7220000  41.5090000  12.7280000  12.2260000
  41.1490000  14.9340000  12.0030000  40.5980000  15.6460000  11.5450000
  42.2280000  15.3620000  12.8990000  43.1750000  15.0100000  12.4920000
  42.2590000  16.9010000  12.9840000  41.2430000  17.2570000  13.1590000
  42.8600000  17.1990000  13.8440000  42.8310000  17.5950000  11.7340000
  42.3900000  17.1700000  10.8320000  42.5050000  19.0870000  11.7800000
  42.9430000  19.5400000  12.6690000  42.9020000  19.5770000  10.8900000
  41.4250000  19.2280000  11.7980000  44.3510000  17.4530000  11.6430000
  44.6280000  16.4030000  11.5480000  44.7120000  17.9820000  10.7610000
  44.8260000  17.8740000  12.5300000  42.0940000  14.7380000  14.2950000
  43.0550000  14.1530000  14.8000000  40.9110000  14.8260000  14.9130000
  40.1530000  15.3090000  14.4520000  40.6720000  14.2130000  16.2170000
  41.4320000  14.5750000  16.9100000  39.3080000  14.6630000  16.7420000
  39.2710000  15.7530000  16.7330000  38.5120000  14.2700000  16.1110000
  39.1200000  14.0580000  18.4440000  37.9870000  14.7010000  18.7410000
  40.8020000  12.6810000  16.1810000  41.4650000  12.1040000  17.0430000
  40.2570000  12.0130000  15.1570000  39.7300000  12.5260000  14.4650000
  40.4300000  10.5710000  14.9680000  40.0670000  10.0660000  15.8630000
  39.6190000  10.0700000  13.7670000  39.7420000  10.7490000  12.9230000
  39.9990000   9.0920000  13.4710000  38.1350000   9.9150000  14.1130000
  38.0540000   9.3430000  15.0370000  37.6940000  10.8960000  14.2900000
  37.1740000   9.0420000  12.8500000  37.1240000  10.3060000  11.5510000
  38.1330000  10.5360000  11.2090000  36.5370000   9.9410000  10.7070000
  36.6600000  11.2100000  11.9440000  41.9020000  10.1770000  14.8190000
  42.3450000   9.2430000  15.4860000  42.6870000  10.8970000  14.0070000
  42.2630000  11.6450000  13.4770000  44.1260000  10.6480000  13.8490000
  44.2480000   9.6040000  13.5630000  44.6980000  11.5270000  12.7220000
  44.0560000  11.4410000  11.8460000  44.7080000  12.5710000  13.0350000
  46.1210000  11.0720000  12.3490000  46.8090000  11.3340000  13.1530000
  46.1260000   9.9870000  12.2420000  46.6280000  11.6630000  11.0250000
  47.6160000  11.2540000  10.8160000  45.9630000  11.3300000  10.2270000
  46.6940000  13.1990000  10.9910000  46.8660000  13.5080000   9.9600000
  45.7300000  13.6110000  11.2880000  47.7840000  13.7480000  11.8440000
  48.6890000  13.4070000  11.5540000  47.8070000  14.7520000  11.7400000
  47.6540000  13.5430000  12.8240000  44.8730000  10.8260000  15.1730000
  45.6810000   9.9760000  15.5380000  44.5580000  11.8770000  15.9300000
  43.8950000  12.5510000  15.5740000  45.0690000  12.0500000  17.2870000
  46.1580000  12.0800000  17.2410000  44.6120000  13.4030000  17.8310000
  45.1470000  13.5920000  18.7620000  44.8560000  14.1960000  17.1250000
  43.5390000  13.3990000  18.0190000  44.6990000  10.8660000  18.2070000
  45.5640000  10.3480000  18.9090000  43.4540000  10.3770000  18.1590000
  42.7790000  10.8580000  17.5800000  43.0080000   9.1840000  18.8890000
  43.2110000   9.3610000  19.9450000  41.4830000   9.0120000  18.7090000
  41.0600000   9.9600000  18.3760000  41.2760000   8.2760000  17.9320000
  40.7430000   8.6290000  20.0040000  41.0260000   9.3210000  20.7970000
  39.2360000   8.7590000  19.7870000  38.9070000   8.0800000  19.0010000
  38.7070000   8.5250000  20.7110000  38.9950000   9.7840000  19.5060000
  41.0510000   7.2080000  20.4750000  42.1000000   7.1300000  20.7590000
  40.4550000   6.9760000  21.3580000  40.8320000   6.4910000  19.6840000
  43.7940000   7.9170000  18.4840000  44.1940000   7.1510000  19.3590000
  44.0840000   7.7120000  17.1900000  43.7030000   8.3620000  16.5170000
  44.8640000   6.5640000  16.6950000  44.3560000   5.6530000  17.0130000
  44.9560000   6.5590000  15.1580000  45.3100000   7.5350000  14.8280000
  45.7050000   5.8260000  14.8570000  43.6480000   6.2240000  14.4230000
  42.8580000   6.8970000  14.7570000  43.8520000   6.4220000  12.9250000
  44.6070000   5.7320000  12.5500000  42.9080000   6.2510000  12.4070000
  44.1710000   7.4450000  12.7270000  43.1930000   4.7800000  14.6400000
  42.9250000   4.6170000  15.6840000  42.3160000   4.5740000  14.0270000
  43.9880000   4.0900000  14.3590000  46.2780000   6.4760000  17.2900000
  46.7650000   5.3620000  17.4920000  46.9220000   7.6030000  17.6270000
  46.4740000   8.4890000  17.4430000  48.1900000   7.5850000  18.3720000
  48.9300000   7.0740000  17.7570000  48.6920000   9.0190000  18.6270000
  48.8460000   9.5200000  17.6710000  47.9180000   9.5590000  19.1730000
  49.9860000   9.1150000  19.4650000  49.8320000   8.6410000  20.4350000
  51.1990000   8.4800000  18.7850000  51.3770000   8.9450000  17.8150000
  52.0790000   8.6250000  19.4110000  51.0420000   7.4080000  18.6640000
  50.3320000  10.5760000  19.7160000  49.5010000  11.0510000  20.2380000
  51.2210000  10.6480000  20.3420000  50.5090000  11.0880000  18.7700000
  48.0590000   6.7890000  19.6840000  48.9960000   6.0980000  20.0740000
  46.8870000   6.8280000  20.3190000  46.1440000   7.3620000  19.8910000
  46.5750000   6.1930000  21.5990000  47.5130000   5.9360000  22.0910000
  45.8590000   7.2180000  22.5000000  44.8520000   7.3840000  22.1180000
  45.7660000   6.8040000  23.5040000  46.5830000   8.5500000  22.6000000
  47.8280000   8.6270000  23.2510000  48.2460000   7.7520000  23.7270000
  48.5430000   9.8370000  23.2700000  49.5040000   9.8840000  23.7610000
  48.0090000  10.9800000  22.6490000  48.5550000  11.9120000  22.6610000
  46.7640000  10.9070000  22.0030000  46.3580000  11.7780000  21.5110000
  46.0500000   9.6970000  21.9830000  45.1000000   9.6480000  21.4710000
  45.7820000   4.8770000  21.4580000  45.1290000   4.4650000  22.4160000
  45.7930000   4.2080000  20.2950000  46.2880000   4.6210000  19.5180000
  45.0180000   2.9700000  20.0400000  44.3430000   2.7970000  20.8780000
  44.1150000   3.1490000  18.8060000  44.7100000   3.5040000  17.9650000
  43.6560000   2.1980000  18.5350000  43.0750000   4.0700000  19.1010000
  42.5710000   4.2180000  18.2980000  45.8420000   1.6710000  19.9530000
  45.3470000   0.6830000  19.4170000  47.0420000   1.6020000  20.5440000
  47.4170000   2.4420000  20.9610000  47.8690000   0.3740000  20.6250000
  47.2020000  -0.4390000  20.9110000  48.4630000  -0.0030000  19.2360000
  47.6310000  -0.3120000  18.6020000  49.1550000   1.1700000  18.5250000
  49.9830000   1.5460000  19.1270000  49.5380000   0.8600000  17.5530000
  48.4440000   1.9780000  18.3530000  49.4380000  -1.1950000  19.3330000
  50.3950000  -0.8470000  19.7240000  49.0390000  -1.9260000  20.0360000
  49.6750000  -1.9250000  18.0040000  50.2060000  -1.2840000  17.3020000
  50.2790000  -2.8150000  18.1850000  48.7230000  -2.2320000  17.5710000
  48.9310000   0.4700000  21.7420000  49.6770000   1.4470000  21.8050000
  48.9770000  -0.5330000  22.6390000  48.3610000  -1.3220000  22.5010000
  49.8260000  -0.5510000  23.8580000  50.7060000   0.0570000  23.6520000
  49.0920000   0.0680000  25.0780000  49.7420000  -0.0440000  25.9450000
  48.9010000   1.5770000  24.8910000  48.1440000   1.7760000  24.1320000
  48.5990000   2.0370000  25.8320000  49.8390000   2.0370000  24.5810000
  47.7740000  -0.6700000  25.4110000  47.0700000  -0.5600000  24.5860000
  47.9810000  -1.7340000  25.5330000  47.1070000  -0.1940000  26.7060000
  46.7900000   0.8450000  26.6170000  46.2280000  -0.8080000  26.9060000
  47.8040000  -0.2970000  27.5370000  50.3150000  -1.9640000  24.2380000
  49.6760000  -2.9500000  23.8540000  51.4250000  -2.0910000  24.9950000
  52.3910000  -1.0390000  25.3000000  51.9940000  -0.3920000  26.0820000
  52.6500000  -0.4560000  24.4160000  53.6340000  -1.7560000  25.8200000
  54.2110000  -1.1280000  26.4990000  54.2480000  -2.0860000  24.9820000
  53.0350000  -2.9640000  26.5310000  52.6820000  -2.6640000  27.5170000
  53.7550000  -3.7790000  26.6110000  51.8540000  -3.3400000  25.6310000
  52.2260000  -4.0070000  24.8540000  50.7450000  -4.0540000  26.4210000
  49.9620000  -3.4180000  27.1290000  50.6930000  -5.3860000  26.3260000
  51.3940000  -5.8400000  25.7570000  49.6790000  -6.2410000  26.9810000
  48.6980000  -5.8420000  26.7220000  49.7540000  -7.6770000  26.4180000
  49.7620000  -7.6050000  25.3300000  51.0130000  -8.4400000  26.8500000
  50.9890000  -8.6470000  27.9200000  51.0650000  -9.3870000  26.3120000
  51.9080000  -7.8620000  26.6200000  48.5340000  -8.5180000  26.8080000
  47.6170000  -8.0060000  26.5180000  48.5740000  -9.4780000  26.2930000
  48.5190000  -8.6970000  27.8830000  49.7700000  -6.2070000  28.5160000
  48.7600000  -6.3530000  29.2050000  50.9630000  -5.9430000  29.0540000
  51.7490000  -5.8230000  28.4310000  51.2520000  -5.7650000  30.4820000
  50.4460000  -6.2050000  31.0690000  52.5400000  -6.5310000  30.8380000
  52.7100000  -6.4470000  31.9120000  52.3710000  -7.5870000  30.6260000
  53.8170000  -6.0920000  30.0890000  53.7440000  -5.3790000  29.0590000
  54.9200000  -6.5000000  30.5300000  51.3400000  -4.2760000  30.9030000
  51.7100000  -3.9720000  32.0410000  50.9430000  -3.3490000  30.0200000
  50.6330000  -3.6690000  29.1140000  50.8400000  -1.9110000  30.2910000
  50.4700000  -1.7590000  31.3050000  50.1030000  -1.4910000  29.6070000
  52.1480000  -1.1140000  30.1410000  53.2590000  -1.6250000  30.3080000
  51.9870000   0.1720000  29.8240000  51.0380000   0.4930000  29.6970000
  53.0380000   1.1990000  29.7750000  53.8440000   0.8510000  29.1290000
  52.3990000   2.4560000  29.1590000  51.5160000   2.7130000  29.7440000
  53.0880000   3.2960000  29.2470000  52.0000000   2.3150000  27.6780000
  51.3910000   1.4220000  27.5370000  51.1650000   3.5230000  27.2740000
  51.7220000   4.4450000  27.4440000  50.8930000   3.4550000  26.2210000
  50.2510000   3.5340000  27.8670000  53.2100000   2.2400000  26.7440000
  53.8120000   1.3610000  26.9730000  52.8740000   2.1690000  25.7090000
  53.8260000   3.1320000  26.8580000  53.6730000   1.4870000  31.1590000
  53.1010000   1.1290000  32.1950000  54.8440000   2.1500000  31.1960000
  55.1970000   2.5370000  30.3320000  55.5880000   2.4770000  32.4340000
  55.8390000   1.5470000  32.9440000  56.8920000   3.2410000  32.1240000
  56.6420000   4.1520000  31.5790000  57.3440000   3.5500000  33.0660000
  57.9540000   2.4730000  31.3180000  57.5360000   2.1560000  30.3620000
  58.7760000   3.1610000  31.1170000  58.5070000   1.2470000  32.0600000
  58.8110000   1.5270000  33.0680000  57.7150000   0.5010000  32.1380000
  59.6940000   0.6040000  31.3240000  59.8470000  -0.3900000  31.7430000
  59.4370000   0.4800000  30.2720000  60.9520000   1.3870000  31.4630000
  61.1740000   1.5660000  32.4320000  61.7320000   0.8850000  31.0640000
  60.9190000   2.2760000  30.9830000  54.7420000   3.2850000  33.4250000
  54.7530000   2.9790000  34.6200000  53.9630000   4.2550000  32.9370000
  54.0790000   4.4970000  31.9640000  52.7860000   4.7730000  33.6400000
  52.6120000   4.1580000  34.5230000  53.0270000   6.2040000  34.1520000
  54.0020000   6.2490000  34.6350000  53.0240000   6.9120000  33.3230000
  51.9500000   6.6000000  35.1570000  50.7570000   6.4750000  34.9180000
  52.3290000   7.0290000  36.3380000  53.3090000   7.1490000  36.5530000
  51.6110000   7.3170000  36.9870000  51.5300000   4.6360000  32.7600000
  51.1650000   5.5320000  31.9940000  50.8490000   3.4950000  32.8950000
  51.2330000   2.7690000  33.4830000  49.5970000   3.2160000  32.1890000
  49.7830000   3.3560000  31.1240000  49.2160000   1.7420000  32.4220000
  50.0640000   1.1110000  32.1550000  49.0040000   1.5900000  33.4800000
  47.9960000   1.2820000  31.6090000  47.8160000   0.2250000  31.8080000
  47.1130000   1.8310000  31.9340000  48.1890000   1.4580000  30.1040000
  49.2110000   1.0920000  29.5360000  47.2330000   2.0240000  29.4090000
  46.4070000   2.3670000  29.8790000  47.3690000   2.1470000  28.4150000
  48.4590000   4.1820000  32.5700000  47.6460000   4.5290000  31.7180000
  48.3900000   4.6530000  33.8240000  49.1180000   4.3980000  34.4770000
  47.2610000   5.4780000  34.3020000  46.3430000   4.9850000  33.9840000
  47.2480000   5.5760000  35.8400000  48.0630000   6.2260000  36.1590000
  46.3180000   6.0510000  36.1530000  47.3950000   4.2380000  36.5900000
  48.4270000   3.9040000  36.4770000  47.2420000   4.4260000  37.6530000
  46.4820000   3.0730000  36.1640000  46.5940000   2.8640000  35.1000000
  46.8420000   2.1900000  36.6920000  44.9960000   3.2310000  36.5280000
  44.5880000   2.2300000  36.6650000  44.9120000   3.7470000  37.4840000
  44.2020000   3.9240000  35.4780000  44.3580000   3.5130000  34.5690000
  43.2140000   3.8460000  35.6730000  44.4150000   4.9100000  35.4320000
  47.2180000   6.8680000  33.6540000  46.1360000   7.3380000  33.3030000
  48.3770000   7.4890000  33.4200000  49.2210000   7.0740000  33.7880000
  48.4820000   8.7160000  32.6190000  47.8350000   9.4790000  33.0510000
  49.9280000   9.2440000  32.6280000  50.5700000   8.4810000  32.1890000
  49.9710000  10.1140000  31.9740000  50.5250000   9.6580000  33.9700000
  49.7210000  10.0030000  35.0790000  48.6440000   9.9630000  35.0160000
  50.3140000  10.4120000  36.2870000  49.6930000  10.6740000  37.1310000
  51.7120000  10.4930000  36.3970000  52.1650000  10.8130000  37.3230000
  52.5190000  10.1600000  35.2960000  53.5940000  10.2260000  35.3760000
  51.9270000   9.7430000  34.0900000  52.5560000   9.4990000  33.2470000
  47.9910000   8.5030000  31.1760000  47.2520000   9.3360000  30.6500000
  48.3540000   7.3790000  30.5470000  48.9700000   6.7340000  31.0210000
  47.8480000   7.0090000  29.2210000  48.0490000   7.8360000  28.5390000
  48.6040000   5.7840000  28.6960000  49.6730000   5.9960000  28.7080000
  48.4370000   4.9380000  29.3630000  48.1990000   5.3650000  27.2970000
  48.9850000   5.7410000  26.1910000  49.8730000   6.3390000  26.3340000
  48.6380000   5.3050000  24.9020000  49.2580000   5.5630000  24.0560000
  47.4870000   4.5220000  24.7130000  47.2350000   4.1630000  23.7260000
  46.6790000   4.1770000  25.8080000  45.7870000   3.5870000  25.6600000
  47.0440000   4.5840000  27.1010000  46.4270000   4.3020000  27.9410000
  46.3270000   6.7950000  29.1960000  45.6580000   7.3250000  28.3100000
  45.7710000   6.0590000  30.1660000  46.3870000   5.5930000  30.8170000
  44.3220000   5.8570000  30.3120000  43.9610000   5.2940000  29.4510000
  43.9910000   5.0580000  31.5840000  44.3200000   5.6300000  32.4510000
  42.9060000   4.9710000  31.6510000  44.5820000   3.6410000  31.6790000
  44.9000000   3.0120000  30.6400000  44.6630000   3.1420000  32.8290000
  43.5600000   7.1940000  30.3480000  42.6120000   7.3980000  29.5850000
  43.9910000   8.1160000  31.2160000  44.7630000   7.8740000  31.8210000
  43.4560000   9.4770000  31.2970000  42.3940000   9.4100000  31.5310000
  44.1410000  10.2300000  32.4480000  43.9540000   9.6840000  33.3730000
  45.2170000  10.2600000  32.2740000  43.6110000  11.6610000  32.6050000
  43.9490000  12.2630000  31.7610000  42.5220000  11.6300000  32.5830000
  44.0780000  12.3230000  33.9170000  45.2490000  12.1420000  34.3310000
  43.2710000  13.0550000  34.5430000  43.5710000  10.2340000  29.9610000
  42.5790000  10.7780000  29.4740000  44.7600000  10.2490000  29.3480000
  45.5370000   9.7870000  29.7980000  45.0070000  10.9220000  28.0720000
  44.7520000  11.9730000  28.2100000  46.5080000  10.8300000  27.7470000
  47.0720000  11.2130000  28.5970000  46.7730000   9.7810000  27.6170000
  46.9410000  11.6020000  26.4880000  46.4210000  11.2090000  25.6140000
  46.6670000  13.1020000  26.6080000  47.0840000  13.4830000  27.5400000
  47.1260000  13.6290000  25.7720000  45.5940000  13.2900000  26.5840000
  48.4440000  11.4180000  26.2870000  48.6730000  10.3560000  26.2020000
  48.7490000  11.9160000  25.3670000  48.9910000  11.8420000  27.1300000
  44.1110000  10.3920000  26.9360000  43.4380000  11.1800000  26.2670000
  44.0350000   9.0660000  26.7490000  44.6030000   8.4770000  27.3410000
  43.1210000   8.4190000  25.7890000  43.3570000   8.7860000  24.7900000
  43.3290000   6.8910000  25.8060000  44.3710000   6.6680000  25.5740000
  43.1110000   6.5060000  26.8020000  42.4230000   6.1840000  24.7810000
  41.3810000   6.3940000  25.0200000  42.6340000   6.5680000  23.7830000
  42.6010000   4.6610000  24.7860000  43.5870000   4.4030000  24.4010000
  42.5440000   4.3060000  25.8140000  41.5300000   4.0040000  24.0020000
  40.7530000   3.6410000  24.5370000  41.4460000   3.8750000  22.6890000
  40.3920000   3.3440000  22.1430000  39.6070000   3.0540000  22.7070000
  40.3460000   3.2000000  21.1440000  42.4040000   4.2620000  21.9040000
  43.2810000   4.5510000  22.3130000  42.3440000   4.1860000  20.8990000
  41.6640000   8.8020000  26.0600000  40.9510000   9.1760000  25.1300000
  41.2260000   8.7550000  27.3220000  41.8610000   8.4300000  28.0370000
  39.8860000   9.1950000  27.7230000  39.1590000   8.5890000  27.1830000
  39.6690000   8.9450000  29.2240000  39.8020000   7.8830000  29.4300000
  40.4110000   9.5010000  29.7960000  38.2680000   9.3640000  29.6920000
  38.1200000  10.4260000  29.4970000  37.5340000   8.8090000  29.1080000
  37.9330000   9.0610000  31.4500000  39.0210000  10.2940000  32.2220000
  38.7740000  11.2890000  31.8540000  38.8850000  10.2710000  33.3030000
  40.0640000  10.0700000  31.9940000  39.6260000  10.6570000  27.3320000
  38.5930000  10.9410000  26.7310000  40.5580000  11.5790000  27.5970000
  41.3860000  11.2960000  28.1010000  40.4340000  12.9790000  27.1780000
  39.5370000  13.3980000  27.6340000  41.6520000  13.8000000  27.6520000
  42.5500000  13.4330000  27.1560000  41.5030000  14.8330000  27.3380000
  41.9240000  13.8280000  29.1540000  43.0520000  14.0270000  29.5830000
  40.9360000  13.6670000  30.0100000  39.9880000  13.5140000  29.6950000
  41.1590000  13.6890000  30.9940000  40.2350000  13.1080000  25.6540000
  39.3170000  13.8030000  25.2230000  41.0120000  12.3870000  24.8360000
  41.7620000  11.8410000  25.2350000  40.8160000  12.3640000  23.3790000
  40.8140000  13.3970000  23.0310000  41.9900000  11.6570000  22.6870000
  41.6460000  11.2610000  21.7320000  42.3400000  10.8180000  23.2890000
  43.1270000  12.6140000  22.4000000  43.0610000  13.4150000  21.2450000
  42.2460000  13.2900000  20.5470000  44.0290000  14.4100000  21.0220000
  43.9580000  15.0500000  20.1550000  45.0740000  14.5950000  21.9500000
  45.9760000  15.5900000  21.7580000  45.7030000  16.1740000  21.0470000
  45.1620000  13.7690000  23.0870000  45.9720000  13.9160000  23.7870000
  44.1870000  12.7790000  23.3120000  44.2470000  12.1600000  24.1950000
  39.4560000  11.7850000  22.9480000  38.8370000  12.3160000  22.0250000
  38.9440000  10.7570000  23.6330000  39.5090000  10.3420000  24.3600000
  37.5840000  10.2320000  23.4110000  37.4790000  10.0100000  22.3490000
  37.3750000   8.9050000  24.1800000  37.6940000   9.0490000  25.2120000
  35.8970000   8.4750000  24.1990000  35.5220000   8.3710000  23.1810000
  35.7820000   7.5220000  24.7170000  35.2890000   9.2070000  24.7310000
  38.2350000   7.7850000  23.5450000  37.7740000   7.4620000  22.6110000
  39.2260000   8.1710000  23.3070000  38.4360000   6.5610000  24.4470000
  37.4880000   6.0550000  24.6280000  39.1110000   5.8620000  23.9520000
  38.8750000   6.8660000  25.3970000  36.5180000  11.3000000  23.7300000
  35.6190000  11.5300000  22.9180000  36.6280000  12.0040000  24.8670000
  37.3770000  11.7700000  25.5020000  35.6990000  13.0940000  25.2290000
  34.6810000  12.7250000  25.1070000  35.8800000  13.5190000  26.6980000
  36.8860000  13.9160000  26.8350000  35.1770000  14.3260000  26.9060000
  35.6440000  12.4050000  27.7370000  36.4450000  11.6700000  27.6700000
  35.6900000  12.8530000  28.7290000  34.3020000  11.6730000  27.5850000
  33.4870000  12.3930000  27.6530000  34.2660000  11.1770000  26.6150000
  34.1510000  10.6090000  28.6790000  34.9960000   9.9230000  28.6190000
  34.1830000  11.0970000  29.6530000  32.8770000   9.8550000  28.5280000
  32.8270000   9.3910000  27.6320000  32.7870000   9.1480000  29.2440000
  32.0770000  10.4670000  28.6020000  35.7850000  14.3000000  24.2840000
  34.7610000  14.9070000  23.9770000  36.9640000  14.6370000  23.7680000
  37.7920000  14.1670000  24.1060000  37.0960000  15.6280000  22.6940000
  36.5220000  16.5110000  22.9770000  38.5580000  16.0630000  22.5150000
  39.1910000  15.1840000  22.3920000  38.6320000  16.6610000  21.6070000
  39.0670000  16.9070000  23.6950000  39.1210000  16.2770000  24.5830000
  40.0830000  17.2390000  23.4830000  38.1770000  18.1340000  23.9890000
  37.8630000  18.3750000  25.1800000  37.7630000  18.8530000  23.0490000
  36.4640000  15.1700000  21.3690000  35.8050000  15.9750000  20.7100000
  36.5720000  13.8890000  20.9930000  37.1580000  13.2650000  21.5290000
  35.8140000  13.3440000  19.8610000  36.0600000  13.9610000  18.9960000
  36.2510000  11.8990000  19.5470000  37.3350000  11.8670000  19.4390000
  35.9810000  11.2570000  20.3850000  35.6050000  11.3260000  18.2690000
  34.5190000  11.3660000  18.3570000  36.0360000  12.0880000  17.0110000
  37.1240000  12.1190000  16.9470000  35.6450000  11.5890000  16.1250000
  35.6380000  13.1030000  17.0280000  36.0090000   9.8640000  18.0800000
  35.7330000   9.2860000  18.9620000  35.4920000   9.4470000  17.2150000
  37.0850000   9.7890000  17.9230000  34.2930000  13.4770000  20.0670000
  33.6080000  13.9600000  19.1660000  33.7730000  13.1270000  21.2490000
  34.3860000  12.6910000  21.9240000  32.3710000  13.3660000  21.6310000
  31.7350000  12.7700000  20.9750000  32.0890000  12.9120000  23.0740000
  32.7440000  13.4500000  23.7590000  31.0660000  13.1980000  23.3220000
  32.2270000  11.4000000  23.3260000  32.3890000  11.0150000  24.5100000
  32.0870000  10.5930000  22.3760000  31.9500000  14.8380000  21.4550000
  30.9380000  15.1290000  20.8120000  32.7430000  15.7790000  21.9880000
  33.5420000  15.4640000  22.5200000  32.5220000  17.2310000  21.8490000
  31.5370000  17.4780000  22.2440000  33.5820000  17.9920000  22.6700000
  34.5690000  17.5790000  22.4600000  33.5860000  19.0420000  22.3780000
  33.2950000  17.9100000  24.1780000  32.4300000  18.5340000  24.4010000
  33.0590000  16.8830000  24.4580000  34.4900000  18.3740000  25.0190000
  35.3170000  17.6840000  24.8490000  34.7920000  19.3730000  24.7020000
  34.1340000  18.4000000  26.4510000  33.1560000  18.5260000  26.6680000
  34.9430000  18.2670000  27.4860000  34.4520000  18.2640000  28.6920000
  33.4590000  18.3840000  28.8350000  35.0580000  18.1630000  29.4940000
  36.2310000  18.1380000  27.3640000  36.6600000  18.2230000  26.4530000
  36.8250000  18.0380000  28.1740000  32.5110000  17.6870000  20.3830000
  31.6860000  18.5230000  20.0100000  33.3760000  17.1150000  19.5430000
  34.0400000  16.4620000  19.9340000  33.4690000  17.4230000  18.1080000
  33.4420000  18.5070000  17.9940000  34.8270000  16.9400000  17.5460000
  35.0440000  15.9540000  17.9570000  34.8470000  16.8230000  16.0080000
  34.5890000  17.7790000  15.5520000  35.8340000  16.5190000  15.6580000
  34.1410000  16.0620000  15.6740000  35.9070000  17.9370000  18.0210000
  35.8200000  18.8650000  17.4550000  35.7520000  18.1790000  19.0730000
  37.3330000  17.4060000  17.8930000  37.5740000  17.2050000  16.8490000
  38.0240000  18.1600000  18.2720000  37.4390000  16.4950000  18.4830000
  32.2540000  16.9010000  17.3290000  31.6590000  17.6690000  16.5730000
  31.8280000  15.6460000  17.5220000  32.3410000  15.0450000  18.1510000
  30.6530000  15.1080000  16.8040000  30.7840000  15.3560000  15.7500000
  30.5630000  13.5670000  16.8750000  29.7260000  13.2700000  16.2430000
  31.8260000  12.9290000  16.2710000  32.6950000  13.1110000  16.9040000
  31.6890000  11.8520000  16.1710000  32.0140000  13.3430000  15.2810000
  30.2640000  13.0500000  18.2970000  31.0850000  13.3310000  18.9560000
  29.3500000  13.5140000  18.6680000  30.0770000  11.5340000  18.3900000
  31.0230000  11.0230000  18.2110000  29.7310000  11.2800000  19.3920000
  29.3370000  11.2060000  17.6610000  29.3360000  15.7830000  17.2260000
  28.4090000  15.8580000  16.4200000  29.2530000  16.3070000  18.4510000
  30.0240000  16.1500000  19.0840000  28.0580000  16.9510000  19.0020000
  27.1770000  16.4510000  18.6020000  28.0690000  16.7210000  20.5190000
  27.1530000  17.1160000  20.9590000  28.1260000  15.6530000  20.7320000
  28.9250000  17.2250000  20.9670000  27.9070000  18.4550000  18.6710000
  26.8800000  19.0440000  19.0130000  28.8890000  19.0950000  18.0170000
  29.6930000  18.5550000  17.7300000  29.0230000  20.5630000  17.9730000
  29.0960000  20.9080000  19.0050000  30.3490000  20.9160000  17.2840000
  30.5440000  21.9810000  17.4130000  31.1610000  20.3620000  17.7550000
  30.2850000  20.5280000  15.5070000  31.5540000  20.8420000  15.2310000
  27.8400000  21.3410000  17.3470000  27.6100000  22.4960000  17.7200000
  27.0550000  20.7060000  16.4590000  27.3930000  19.8130000  16.1310000
  25.7810000  21.2390000  15.9140000  25.3690000  21.9310000  16.6490000
  26.0690000  22.0720000  14.6370000  25.3130000  22.8560000  14.5870000
  27.0270000  22.5790000  14.7520000  26.0520000  21.3610000  13.2670000
  25.0380000  21.0240000  13.0520000  26.3030000  22.1080000  12.5130000
  27.0120000  20.1700000  13.1080000  28.0440000  20.5170000  13.1700000
  26.8410000  19.4550000  13.9130000  26.7810000  19.4330000  11.7760000
  27.3690000  18.5150000  11.7840000  25.7310000  19.1460000  11.7150000
  27.1540000  20.2510000  10.5880000  28.1270000  20.5210000  10.6140000
  27.0080000  19.7340000   9.7320000  26.5980000  21.0920000  10.5220000
  24.6860000  20.1730000  15.7180000  23.6440000  20.4290000  15.1120000
  24.9260000  18.9560000  16.2210000  25.6970000  18.8800000  16.8700000
  24.2140000  17.7180000  15.8600000  23.7910000  17.8350000  14.8620000
  25.2550000  16.5830000  15.7620000  26.0240000  16.9060000  15.0600000
  25.7280000  16.4300000  16.7320000  24.6750000  15.2470000  15.2710000
  24.1570000  14.7610000  16.0980000  23.9550000  15.4260000  14.4730000
  25.7640000  14.2970000  14.7550000  26.6300000  14.3200000  15.4170000
  25.3660000  13.2830000  14.7830000  26.1230000  14.6030000  13.3520000
  25.4560000  14.2870000  12.6630000  27.2020000  15.1920000  12.8690000
  28.1470000  15.6680000  13.6250000  28.0470000  15.6530000  14.6300000
  28.9780000  16.0730000  13.2190000  27.3590000  15.2980000  11.5820000
  26.6480000  14.9540000  10.9530000  28.1950000  15.7120000  11.1940000
  23.0310000  17.4430000  16.8020000  23.1100000  16.5870000  17.6800000
  21.9340000  18.1790000  16.5700000  22.0460000  18.9060000  15.8780000
  20.5640000  17.9900000  17.1010000  20.2610000  18.9660000  17.4810000
  19.5660000  17.6940000  15.9560000  18.6200000  17.3550000  16.3770000
  19.3650000  18.6430000  15.4570000  20.0370000  16.7030000  14.8720000
  20.9270000  17.1010000  14.3860000  20.2790000  15.7410000  15.3240000
  18.9400000  16.5210000  13.8070000  18.1260000  15.9240000  14.2170000
  18.5370000  17.5020000  13.5550000  19.4440000  15.8960000  12.4960000
  18.6360000  15.9530000  11.7660000  20.2660000  16.4990000  12.1120000
  19.8710000  14.4770000  12.6430000  19.1270000  13.9080000  13.0210000
  20.1120000  14.0900000  11.7420000  20.6870000  14.3900000  13.2320000
  20.4320000  17.1000000  18.3550000  20.6590000  17.5930000  19.4630000
  19.9990000  15.8430000  18.2030000  19.9020000  15.4930000  17.2600000
  19.5940000  14.9560000  19.3040000  19.5560000  15.5510000  20.2170000
  18.1690000  14.4420000  19.0210000  18.1720000  13.8700000  18.0930000
  17.8480000  13.7750000  19.8210000  17.1450000  15.5650000  18.9260000
  17.1020000  16.4770000  19.7400000  16.2900000  15.5450000  17.9280000
  16.2970000  14.7870000  17.2610000  15.6050000  16.2850000  17.8700000
  20.5840000  13.7870000  19.5290000  21.2100000  13.3310000  18.5660000
  20.7110000  13.2550000  20.7670000  19.9860000  13.6720000  21.9680000
  19.0080000  13.1920000  21.9850000  19.8750000  14.7540000  22.0410000
  20.8170000  13.1900000  23.1530000  20.1960000  12.9860000  24.0250000
  21.5840000  13.9280000  23.3880000  21.4680000  11.9250000  22.6090000
  20.7540000  11.1030000  22.6640000  22.3810000  11.6770000  23.1510000
  21.7520000  12.2900000  21.1490000  22.7130000  12.8030000  21.1060000
  21.8480000  11.0330000  20.2780000  22.9520000  10.5790000  19.9950000
  20.7220000  10.4900000  19.8000000  19.8430000  10.8840000  20.1050000
  20.6970000   9.3160000  18.8990000  21.1310000   8.4770000  19.4440000
  19.2460000   8.9200000  18.5600000  18.7100000   8.7630000  19.4960000
  18.4830000   9.9580000  17.7320000  18.9260000  10.0630000  16.7420000
  17.4460000   9.6400000  17.6180000  18.4880000  10.9250000  18.2350000
  19.2260000   7.7160000  17.8290000  18.3070000   7.4590000  17.7270000
  21.5550000   9.5040000  17.6330000  22.2500000   8.5800000  17.2030000
  21.5950000  10.7240000  17.0770000  21.0620000  11.4610000  17.5160000
  22.4530000  11.0730000  15.9320000  22.3010000  10.3250000  15.1550000
  22.0170000  12.4270000  15.3610000  20.9550000  12.3850000  15.1200000
  22.1770000  13.2020000  16.1110000  22.7410000  12.7600000  14.1910000
  22.5670000  12.0990000  13.5160000  23.9440000  11.0560000  16.3010000
  24.7590000  10.4830000  15.5750000  24.3050000  11.6090000  17.4650000
  23.5980000  12.0630000  18.0260000  25.6600000  11.5030000  18.0200000
  26.3640000  11.8900000  17.2830000  25.7840000  12.3660000  19.2850000
  25.0900000  12.0130000  20.0470000  26.7970000  12.2870000  19.6800000
  25.4340000  14.1030000  18.8920000  25.5270000  14.5700000  20.1400000
  26.0670000  10.0450000  18.3010000  27.1840000   9.6640000  17.9660000
  25.1680000   9.2050000  18.8280000  24.2930000   9.5890000  19.1560000
  25.4100000   7.7660000  19.0350000  26.2970000   7.6550000  19.6580000
  24.2440000   7.0980000  19.7770000  23.3250000   7.2100000  19.2020000
  24.4570000   6.0340000  19.8880000  24.0760000   7.6750000  21.0610000
  23.3660000   7.2090000  21.5100000  25.6850000   7.0260000  17.7220000
  26.6800000   6.3030000  17.6230000  24.8520000   7.2450000  16.6900000
  24.0370000   7.8180000  16.8540000  25.0660000   6.7140000  15.3300000
  25.0610000   5.6250000  15.3760000  23.9160000   7.1650000  14.4070000
  22.9740000   6.7780000  14.7950000  23.8610000   8.2540000  14.3950000
  24.1090000   6.6620000  12.9670000  25.0430000   7.0580000  12.5700000
  24.1600000   5.5730000  12.9690000  22.9830000   7.1100000  12.0350000
  22.0460000   6.6610000  12.3650000  22.8950000   8.1960000  12.0830000
  23.2770000   6.7000000  10.6480000  24.1550000   6.2250000  10.4940000
  22.5220000   6.9080000   9.5850000  22.8990000   6.4760000   8.4160000
  23.7670000   5.9680000   8.3230000  22.3210000   6.6320000   7.6030000
  21.3870000   7.5450000   9.6510000  21.0680000   7.8940000  10.5440000
  20.8290000   7.6940000   8.8220000  26.4340000   7.1160000  14.7780000
  27.2020000   6.2550000  14.3500000  26.7590000   8.4150000  14.8080000
  26.0710000   9.0720000  15.1460000  28.0570000   8.9120000  14.3260000
  28.1950000   8.5340000  13.3130000  28.0550000  10.4460000  14.2370000
  27.2410000  10.7460000  13.5780000  27.8770000  10.8850000  15.2190000
  29.3970000  10.9570000  13.6800000  30.0700000  11.1500000  14.5160000
  29.8570000  10.2020000  13.0430000  29.2500000  12.2330000  12.8510000
  28.5930000  12.9280000  13.3730000  30.2390000  12.6870000  12.7790000
  28.7190000  11.9260000  11.5020000  27.7830000  11.5480000  11.4620000
  29.3830000  11.9620000  10.3560000  28.8880000  11.4070000   9.2880000
  27.9810000  10.9650000   9.3090000  29.4530000  11.3210000   8.4550000
  30.5420000  12.5280000  10.2300000  30.9290000  13.0860000  10.9770000
  31.0070000  12.5630000   9.3330000  29.2240000   8.3470000  15.1360000
  30.1600000   7.8450000  14.5280000  29.1560000   8.3460000  16.4670000
  28.3550000   8.7730000  16.9090000  30.1840000   7.7430000  17.3220000
  31.1130000   8.2960000  17.1780000  29.8060000   7.8390000  18.8060000
  29.6300000   8.8820000  19.0680000  28.8750000   7.2980000  18.9750000
  30.8810000   7.2860000  19.7250000  32.0630000   8.0210000  19.9460000
  32.1930000   8.9890000  19.4860000  33.0750000   7.5020000  20.7740000
  33.9770000   8.0720000  20.9450000  32.9090000   6.2490000  21.3880000
  33.6870000   5.8520000  22.0230000  31.7330000   5.5100000  21.1670000
  31.6080000   4.5440000  21.6340000  30.7210000   6.0250000  20.3350000
  29.8230000   5.4500000  20.1650000  30.4610000   6.2880000  16.9310000
  31.6120000   5.9550000  16.6630000  29.4160000   5.4570000  16.8110000
  28.4960000   5.8020000  17.0460000  29.5290000   4.0710000  16.3500000
  30.1300000   3.5200000  17.0740000  28.1360000   3.4270000  16.3090000
  27.5130000   3.9540000  15.5860000  27.6670000   3.5450000  17.2860000
  28.1470000   1.9520000  15.9510000  28.1510000   0.9850000  16.9760000
  28.1350000   1.2940000  18.0100000  28.1790000  -0.3860000  16.6550000
  28.1830000  -1.1260000  17.4420000  28.2150000  -0.7940000  15.3050000
  28.2600000  -2.1180000  14.9950000  27.8770000  -2.6490000  15.6970000
  28.2050000   0.1740000  14.2770000  28.2210000  -0.1430000  13.2450000
  28.1620000   1.5440000  14.6010000  28.1470000   2.2800000  13.8110000
  30.2370000   3.9650000  14.9870000  31.1880000   3.1990000  14.8340000
  29.8090000   4.7570000  13.9940000  29.0200000   5.3630000  14.1710000
  30.4480000   4.8030000  12.6730000  30.4360000   3.7950000  12.2580000
  29.6430000   5.7050000  11.7200000  29.4780000   6.6710000  12.1990000
  30.2270000   5.8640000  10.8130000  28.2870000   5.0730000  11.3290000
  28.4840000   4.2010000  10.7060000  27.7720000   4.7320000  12.2270000
  27.3220000   5.9900000  10.5650000  26.1280000   5.7280000  10.4640000
  27.7590000   7.0960000   9.9940000  28.7350000   7.3520000  10.0320000
  27.0930000   7.6480000   9.4730000  31.9340000   5.2160000  12.7510000
  32.7830000   4.5660000  12.1360000  32.2740000   6.2560000  13.5230000
  31.5410000   6.7480000  14.0140000  33.6640000   6.6830000  13.7300000
  34.1280000   6.7880000  12.7490000  33.7520000   8.0560000  14.4280000
  33.3170000   7.9780000  15.4240000  34.8120000   8.2760000  14.5580000
  33.1020000   9.2560000  13.7070000  32.0280000   9.2550000  13.8910000
  33.6690000  10.5550000  14.2770000  34.7280000  10.6400000  14.0340000
  33.1370000  11.4090000  13.8570000  33.5480000  10.5600000  15.3610000
  33.3180000   9.2860000  12.1950000  32.8020000   8.4490000  11.7250000
  32.9080000  10.2090000  11.7850000  34.3830000   9.2290000  11.9680000
  34.5120000   5.6380000  14.4780000  35.6530000   5.4090000  14.0850000
  33.9950000   4.9600000  15.5070000  33.0620000   5.1760000  15.8280000
  34.7260000   3.8750000  16.1840000  35.7290000   4.2360000  16.4080000
  34.1140000   3.4750000  17.5320000  34.6750000   2.6180000  17.9040000
  34.2450000   4.6000000  18.5610000  33.6800000   5.4770000  18.2450000
  33.8630000   4.2530000  19.5210000  35.2920000   4.8740000  18.6830000
  32.7620000   3.0910000  17.4480000  32.7370000   2.2030000  17.0830000
  34.9210000   2.6490000  15.2910000  35.9900000   2.0370000  15.3470000
  33.9740000   2.3470000  14.3890000  33.0900000   2.8320000  14.4500000
  34.1550000   1.3540000  13.3160000  34.4290000   0.4080000  13.7820000
  32.8380000   1.1750000  12.5280000  31.9940000   1.5570000  13.1040000
  32.8810000   1.7580000  11.6070000  32.5310000  -0.2840000  12.1640000
  31.7650000  -0.2870000  11.3890000  33.4260000  -0.7630000  11.7670000
  31.9970000  -1.0720000  13.3710000  32.7610000  -1.1250000  14.1470000
  31.1220000  -0.5600000  13.7710000  31.6060000  -2.4920000  12.9460000
  30.9270000  -2.4280000  12.0970000  32.5030000  -3.0180000  12.6180000
  30.9520000  -3.2350000  14.0570000  30.0850000  -2.7950000  14.3290000
  30.7350000  -4.1810000  13.7770000  31.5500000  -3.2880000  14.8690000
  35.3140000   1.7440000  12.3860000  36.2040000   0.9300000  12.1340000
  35.3230000   2.9970000  11.9160000  34.5340000   3.5840000  12.1460000
  36.3770000   3.5650000  11.0670000  36.4610000   2.9310000  10.1850000
  35.9440000   4.9750000  10.6160000  34.9670000   4.9110000  10.1360000
  35.8390000   5.6020000  11.5010000  36.9240000   5.6740000   9.6540000
  37.9190000   5.7010000  10.0990000  36.9960000   4.9610000   8.3050000
  35.9930000   4.8510000   7.8920000  37.6100000   5.5390000   7.6140000
  37.4460000   3.9760000   8.4300000  36.4800000   7.1150000   9.4080000
  36.4150000   7.6420000  10.3600000  37.2080000   7.6240000   8.7750000
  35.5040000   7.1360000   8.9240000  37.7620000   3.5720000  11.7490000
  38.7550000   3.2070000  11.1220000  37.8360000   3.9630000  13.0270000
  36.9930000   4.3130000  13.4590000  39.0470000   3.8820000  13.8530000
  39.8340000   4.4640000  13.3720000  38.7710000   4.4760000  15.2500000
  37.8380000   4.0550000  15.6250000  39.5600000   4.1590000  15.9330000
  38.6840000   6.0140000  15.2780000  38.0890000   6.3770000  14.4390000
  38.0360000   6.4980000  16.5750000  38.6380000   6.1930000  17.4310000
  37.9520000   7.5840000  16.5660000  37.0330000   6.0800000  16.6690000
  40.0770000   6.6370000  15.2040000  40.5100000   6.4610000  14.2200000
  40.0080000   7.7130000  15.3660000  40.7240000   6.2150000  15.9730000
  39.5710000   2.4390000  13.9640000  40.7410000   2.1840000  13.6750000
  38.7140000   1.4900000  14.3550000  37.7730000   1.7560000  14.6080000
  39.0840000   0.0780000  14.4900000  39.9170000   0.0150000  15.1910000
  37.9280000  -0.7510000  15.0740000  36.9980000  -0.4800000  14.5740000
  38.1190000  -1.8010000  14.8560000  37.7580000  -0.6140000  16.6010000
  38.5150000   0.1320000  17.2630000  36.9040000  -1.3380000  17.1610000
  39.6000000  -0.5490000  13.1870000  40.6050000  -1.2590000  13.2260000
  38.9770000  -0.2800000  12.0330000  38.1600000   0.3140000  12.0440000
  39.3620000  -0.9050000  10.7550000  39.4050000  -1.9820000  10.9230000
  38.2860000  -0.6770000   9.6850000  38.5150000  -1.2960000   8.8180000
  37.3190000  -0.9850000  10.0810000  38.2230000   0.6780000   9.2800000
  37.5260000   0.7600000   8.6250000  40.7550000  -0.4960000  10.2380000
  41.3200000  -1.2000000   9.3980000  41.3710000   0.5640000  10.7820000
  40.8500000   1.1150000  11.4490000  42.7940000   0.8950000  10.5520000
  42.9740000   0.9330000   9.4780000  43.1620000   2.2740000  11.1460000
  43.0050000   2.2520000  12.2250000  44.6270000   2.6580000  10.8890000
  44.8450000   2.6170000   9.8220000  44.8160000   3.6690000  11.2510000
  45.2980000   1.9840000  11.4220000  42.2970000   3.3860000  10.5530000
  41.2460000   3.2040000  10.7780000  42.5740000   4.3410000  10.9990000
  42.4300000   3.4290000   9.4720000  43.7320000  -0.1650000  11.1370000
  44.7540000  -0.4830000  10.5320000  43.4150000  -0.7180000  12.3110000
  42.5120000  -0.5130000  12.7150000  44.3330000  -1.5790000  13.0680000
  45.2830000  -1.0460000  13.1150000  43.8520000  -1.7400000  14.5250000
  42.9060000  -2.2820000  14.5420000  44.5770000  -2.3460000  15.0700000
  43.6280000  -0.4070000  15.2740000  42.8500000   0.1640000  14.7670000
  43.2480000  -0.6400000  16.2690000  44.8640000   0.4850000  15.4360000
  44.7770000   1.7020000  15.4190000  46.0630000  -0.0490000  15.5800000
  46.2030000  -1.0490000  15.6130000  46.8410000   0.5860000  15.6900000
  44.6630000  -2.9170000  12.3630000  45.8510000  -3.2420000  12.2710000
  43.6970000  -3.6570000  11.7700000  42.2590000  -3.5770000  11.9800000
  41.8300000  -2.8260000  11.3160000  42.0110000  -3.3560000  13.0180000
  41.7080000  -4.9540000  11.6270000  40.6670000  -4.9050000  11.3100000
  41.8240000  -5.6260000  12.4770000  42.6330000  -5.3890000  10.4960000
  42.2940000  -4.9380000   9.5630000  42.6700000  -6.4750000  10.4060000
  43.9900000  -4.8110000  10.9170000  44.5150000  -5.5560000  11.5150000
  44.8530000  -4.4550000   9.7040000  45.8020000  -5.1730000   9.4080000
  44.5710000  -3.3330000   9.0270000  43.7830000  -2.7800000   9.3340000
  45.3670000  -2.8350000   7.8870000  45.4050000  -3.6230000   7.1350000
  44.6960000  -1.6020000   7.2310000  44.5540000  -0.8310000   7.9880000
  45.5800000  -1.0160000   6.1130000  45.7450000  -1.7580000   5.3320000
  45.1060000  -0.1360000   5.6790000  46.5420000  -0.6920000   6.5080000
  43.3130000  -1.9990000   6.6660000  43.4560000  -2.7430000   5.8820000
  42.7160000  -2.4640000   7.4500000  42.4880000  -0.8280000   6.1120000
  42.9560000  -0.4140000   5.2180000  41.4930000  -1.1840000   5.8460000
  42.3940000  -0.0480000   6.8690000  46.8200000  -2.5710000   8.3080000
  47.7490000  -3.0470000   7.6550000  47.0280000  -1.8630000   9.4230000
  46.2260000  -1.4740000   9.8980000  48.3520000  -1.6320000   9.9990000
  48.9420000  -1.0800000   9.2680000  48.2110000  -0.7490000  11.2470000
  49.2000000  -0.5030000  11.6350000  47.6940000   0.1750000  10.9900000
  47.6470000  -1.2700000  12.0210000  49.1070000  -2.9460000  10.2830000
  50.2730000  -3.0650000   9.9120000  48.4520000  -3.9600000  10.8740000
  47.5080000  -3.7940000  11.1920000  49.0400000  -5.3040000  11.0630000
  49.9920000  -5.1820000  11.5800000  48.1290000  -6.1590000  11.9630000
  47.8760000  -5.5930000  12.8600000  47.2070000  -6.4010000  11.4340000
  48.8430000  -7.4550000  12.3800000  49.1240000  -8.0180000  11.4900000
  49.7500000  -7.2030000  12.9300000  47.9620000  -8.3580000  13.2480000
  47.6600000  -7.8260000  14.1510000  47.0590000  -8.6050000  12.6900000
  48.6750000  -9.6090000  13.5780000  48.6100000 -10.3470000  12.8910000
  49.4640000  -9.8460000  14.6110000  50.0840000 -10.9860000  14.7060000
  49.9400000 -11.6950000  14.0010000  50.7150000 -11.1790000  15.4700000
  49.6610000  -8.9570000  15.5450000  49.1510000  -8.0860000  15.5040000
  50.3010000  -9.1130000  16.3110000  49.3610000  -6.0100000   9.7350000
  50.4380000  -6.5830000   9.5920000  48.4620000  -5.9330000   8.7570000
  47.5870000  -5.4760000   8.9720000  48.6210000  -6.5090000   7.4110000
  48.7390000  -7.5880000   7.5090000  47.3550000  -6.2200000   6.5780000
  46.4750000  -6.2180000   7.2220000  47.4400000  -5.2240000   6.1430000
  47.1130000  -7.2250000   5.4470000  46.6060000  -6.7050000   4.6340000
  48.0620000  -7.5970000   5.0620000  46.2110000  -8.3800000   5.9130000
  44.9760000  -8.1710000   6.0020000  46.7280000  -9.4900000   6.1860000
  49.8710000  -5.9580000   6.6980000  50.5870000  -6.6940000   6.0140000
  50.1320000  -4.6570000   6.8680000  49.4450000  -4.1100000   7.3670000
  51.3750000  -3.9890000   6.4710000  51.6120000  -4.2790000   5.4480000
  51.1590000  -2.4670000   6.4990000  50.7780000  -2.1870000   7.4810000
  52.1130000  -1.9570000   6.3630000  50.1740000  -1.9940000   5.4130000
  49.3690000  -2.7170000   5.2840000  49.5390000  -0.6750000   5.8220000
  50.3090000   0.0840000   5.9580000  48.8330000  -0.3550000   5.0560000
  49.0020000  -0.8120000   6.7610000  50.8800000  -1.8050000   4.0710000
  51.2950000  -2.7570000   3.7380000  50.1700000  -1.4460000   3.3260000
  51.6890000  -1.0810000   4.1690000  52.5800000  -4.4160000   7.3270000
  53.5790000  -4.8430000   6.7610000  52.4980000  -4.3780000   8.6640000
  51.6590000  -3.9970000   9.0790000  53.5950000  -4.7740000   9.5670000
  54.4220000  -4.0780000   9.4260000  53.1410000  -4.6950000  11.0370000
  52.1720000  -5.1830000  11.1430000  53.8460000  -5.2620000  11.6460000
  53.0720000  -3.3080000  11.6310000  52.1870000  -2.8890000  12.6010000
  51.3880000  -3.4030000  12.9450000  52.5670000  -1.6720000  13.0230000
  52.0590000  -1.0930000  13.7800000  53.6860000  -1.2850000  12.3890000
  54.0170000  -2.3220000  11.5080000  54.9030000  -2.3670000  10.8930000
  54.1550000  -6.1770000   9.2720000  55.3740000  -6.3420000   9.2160000
  53.2860000  -7.1710000   9.0540000  52.3010000  -6.9630000   9.1440000
  53.6750000  -8.5300000   8.6460000  54.2750000  -8.9770000   9.4390000
  52.4120000  -9.3910000   8.4490000  51.7160000  -8.8510000   7.8080000
  52.6910000 -10.3220000   7.9560000  51.7260000  -9.7360000   9.7870000
  52.3850000 -10.4020000  10.3440000  51.5910000  -8.8220000  10.3660000
  50.3530000 -10.4090000   9.6790000  49.6740000 -10.6210000  10.6770000
  49.8700000 -10.7790000   8.5090000  50.3980000 -10.6440000   7.6590000
  48.9570000 -11.2100000   8.4880000  54.5470000  -8.5200000   7.3730000
  55.6770000  -9.0140000   7.3840000  54.0420000  -7.9080000   6.2940000
  53.1260000  -7.4900000   6.3640000  54.7680000  -7.7460000   5.0300000
  55.0130000  -8.7350000   4.6410000  53.8470000  -7.0560000   4.0130000
  52.9540000  -7.6670000   3.8830000  53.5280000  -6.0920000   4.4100000
  54.4830000  -6.8270000   2.6570000  55.2320000  -5.6600000   2.4210000
  55.3420000  -4.9180000   3.1990000  55.8440000  -5.4590000   1.1730000
  56.4240000  -4.5640000   0.9980000  55.6960000  -6.4110000   0.1510000
  56.1540000  -6.2450000  -0.8130000  54.9390000  -7.5730000   0.3800000
  54.8180000  -8.3020000  -0.4070000  54.3390000  -7.7840000   1.6340000
  53.7640000  -8.6820000   1.8080000  56.0970000  -6.9870000   5.2070000
  57.1410000  -7.4500000   4.7520000  56.0720000  -5.8470000   5.9010000
  55.1710000  -5.5000000   6.1960000  57.2350000  -5.0080000   6.2220000
  57.6480000  -4.6170000   5.2920000  56.7850000  -3.8110000   7.0710000
  56.2380000  -4.1690000   7.9430000  57.9300000  -2.9240000   7.5430000
  58.5850000  -2.6830000   6.7060000  57.5380000  -2.0060000   7.9800000
  58.5020000  -3.4500000   8.3080000  55.9340000  -3.0130000   6.2880000
  55.5410000  -2.3320000   6.8390000  58.3510000  -5.7830000   6.9250000
  59.5020000  -5.7360000   6.4880000  58.0280000  -6.4990000   8.0080000
  57.0670000  -6.5060000   8.3190000  58.9810000  -7.3530000   8.7170000
  59.8060000  -6.7340000   9.0690000  58.3030000  -7.9750000   9.9420000
  58.0110000  -7.1800000  10.6270000  57.3950000  -8.4860000   9.6200000
  59.1860000  -8.9610000  10.6830000  60.3040000  -8.5000000  11.4030000
  60.5190000  -7.4420000  11.4470000  61.1490000  -9.4120000  12.0590000
  62.0080000  -9.0540000  12.6080000  60.8770000 -10.7900000  11.9990000
  61.5260000 -11.4920000  12.5010000  59.7610000 -11.2540000  11.2800000
  59.5540000 -12.3130000  11.2290000  58.9180000 -10.3420000  10.6220000
  58.0690000 -10.7060000  10.0620000  59.5950000  -8.4280000   7.8040000
  60.8210000  -8.5210000   7.7050000  58.7640000  -9.1960000   7.0910000
  57.7680000  -9.0750000   7.2110000  59.2270000 -10.1960000   6.1200000
  59.8060000 -10.9500000   6.6540000  58.0370000 -10.9010000   5.4470000
  57.4020000 -10.1530000   4.9730000  58.4290000 -11.5440000   4.6580000
  57.1790000 -11.7770000   6.3820000  57.6300000 -12.1520000   7.4920000
  56.0600000 -12.1620000   5.9640000  60.1610000  -9.5910000   5.0560000
  61.2140000 -10.1580000   4.7510000  59.8000000  -8.4260000   4.5060000
  58.9130000  -8.0260000   4.7780000  60.5960000  -7.7110000   3.5140000
  60.8310000  -8.4320000   2.7310000  59.7530000  -6.5970000   2.8700000
  58.8330000  -7.0370000   2.4860000  59.4830000  -5.8680000   3.6330000
  60.4680000  -5.8690000   1.7140000  61.3310000  -5.3240000   2.0970000
  60.9430000  -6.8240000   0.6170000  60.1270000  -7.4800000   0.3150000
  61.2930000  -6.2530000  -0.2430000  61.7790000  -7.4250000   0.9770000
  59.5150000  -4.8670000   1.0750000  59.1450000  -4.1790000   1.8350000
  60.0400000  -4.2980000   0.3080000  58.6760000  -5.3920000   0.6190000
  61.9450000  -7.2120000   4.0580000  62.9350000  -7.2950000   3.3350000
  62.0310000  -6.7550000   5.3140000  61.1860000  -6.6750000   5.8620000
  63.3230000  -6.4400000   5.9390000  63.8090000  -5.6890000   5.3160000
  63.1340000  -5.8340000   7.3460000  62.5530000  -4.9160000   7.2620000
  62.5710000  -6.5370000   7.9590000  64.4740000  -5.5250000   8.0560000
  65.1200000  -6.4030000   8.0300000  65.2070000  -4.3570000   7.3940000
  64.5730000  -3.4710000   7.3930000  66.1270000  -4.1430000   7.9370000
  65.4680000  -4.6120000   6.3670000  64.2650000  -5.1800000   9.5270000
  63.7470000  -5.9960000  10.0320000  65.2300000  -5.0290000  10.0110000
  63.6820000  -4.2630000   9.6110000  64.2470000  -7.6700000   5.9620000
  65.3970000  -7.5760000   5.5290000  63.7460000  -8.8190000   6.4330000
  62.7810000  -8.8230000   6.7330000  64.5040000 -10.0790000   6.5150000
  65.3370000  -9.9160000   7.1990000  63.6260000 -11.2180000   7.0910000
  62.7180000 -11.2730000   6.4910000  64.3120000 -12.5920000   6.9900000
  65.3000000 -12.5590000   7.4470000  63.7110000 -13.3430000   7.5020000
  64.4090000 -12.8960000   5.9480000  63.1840000 -10.9700000   8.5530000
  62.6180000 -10.0390000   8.6060000  62.5040000 -11.7700000   8.8470000
  64.3050000 -10.8970000   9.5990000  64.9880000 -10.0790000   9.3710000
  63.8630000 -10.7160000  10.5780000  64.8530000 -11.8390000   9.6370000
  65.1400000 -10.4560000   5.1660000  66.3390000 -10.7380000   5.1070000
  64.3550000 -10.4350000   4.0770000  63.3770000 -10.2270000   4.2170000
  64.8170000 -10.8020000   2.7190000  65.6480000 -11.4990000   2.8320000
  63.7130000 -11.5820000   1.9820000  64.1530000 -12.0470000   1.1010000
  63.3560000 -12.3790000   2.6350000  62.5190000 -10.7260000   1.5360000
  62.2040000 -10.0880000   2.3620000  62.8180000 -10.0950000   0.6980000
  61.3430000 -11.6170000   1.1080000  61.6660000 -12.2600000   0.2900000
  61.0420000 -12.2400000   1.9500000  60.1480000 -10.7700000   0.6440000
  59.8060000 -10.1570000   1.4780000  60.4840000 -10.1030000  -0.1490000
  59.0300000 -11.6240000   0.1460000  58.7000000 -12.2580000   0.8600000
  58.2430000 -11.0640000  -0.1450000  59.3140000 -12.1810000  -0.6470000
  65.3920000  -9.6490000   1.8780000  65.8200000  -9.8770000   0.7490000
  65.4280000  -8.4260000   2.4120000  65.0120000  -8.3290000   3.3270000
  65.7740000  -7.1720000   1.7090000  64.9220000  -6.8850000   1.0930000
  66.0000000  -6.0520000   2.7340000  66.2930000  -5.1440000   2.2070000
  65.0660000  -5.8530000   3.2590000  67.0000000  -6.3910000   3.6820000
  66.5670000  -6.8450000   4.4090000  66.9940000  -7.2710000   0.7800000
  66.9240000  -6.8520000  -0.3770000  68.0830000  -7.8760000   1.2630000
  68.0590000  -8.1310000   2.2400000  69.3500000  -8.0680000   0.5530000
  69.7460000  -7.0830000   0.3040000  70.3590000  -8.7490000   1.4950000
  71.3030000  -8.8760000   0.9650000  70.5490000  -8.0840000   2.3370000
  69.9240000 -10.0920000   2.0380000  69.1830000 -10.3200000   3.1800000
  68.9170000  -9.6380000   3.8760000  68.9690000 -11.6430000   3.2860000
  68.4350000 -12.1150000   4.0970000  69.5380000 -12.2950000   2.2550000
  70.1480000 -11.3140000   1.4590000  70.6870000 -11.4830000   0.5380000
  69.2300000  -8.8470000  -0.7730000  69.9250000  -8.5080000  -1.7330000
  68.3600000  -9.8670000  -0.8580000  67.7990000 -10.0900000  -0.0480000
  68.1950000 -10.6910000  -2.0730000  69.1500000 -10.6960000  -2.5990000
  67.9130000 -12.1610000  -1.7040000  68.1870000 -12.7790000  -2.5590000
  68.5560000 -12.4530000  -0.8730000  66.4600000 -12.4950000  -1.3490000
  66.1500000 -11.9080000  -0.4840000  65.8190000 -12.2330000  -2.1910000
  66.2050000 -14.2500000  -0.9870000  64.3980000 -14.3340000  -1.1330000
  63.9320000 -13.7240000  -0.3600000  64.0740000 -15.3680000  -1.0200000
  64.0910000 -13.9700000  -2.1140000  67.1650000 -10.1280000  -3.0740000
  67.0930000 -10.6040000  -4.2090000  66.3920000  -9.1060000  -2.6750000
  66.4900000  -8.8000000  -1.7180000  65.3610000  -8.4420000  -3.5080000
  65.3220000  -8.9310000  -4.4820000  63.9590000  -8.6080000  -2.8810000
  63.2280000  -8.1900000  -3.5740000  63.5890000 -10.0820000  -2.6750000
  64.2000000 -10.5240000  -1.8880000  62.5410000 -10.1580000  -2.3850000
  63.7380000 -10.6330000  -3.6040000  63.8030000  -7.8900000  -1.5350000
  63.9830000  -6.8210000  -1.6470000  62.7880000  -8.0380000  -1.1660000
  64.5010000  -8.3000000  -0.8050000  65.6650000  -6.9590000  -3.8000000
  64.8480000  -6.2660000  -4.4070000  66.8490000  -6.4740000  -3.4050000
  67.4690000  -7.1140000  -2.9290000  67.3950000  -5.1320000  -3.6940000
  68.3410000  -5.0430000  -3.1600000  67.7170000  -4.9870000  -5.1930000
  66.7930000  -5.0190000  -5.7710000  68.2030000  -4.0260000  -5.3640000
  68.5860000  -6.0240000  -5.6280000  68.7680000  -5.8860000  -6.5610000
  66.5160000  -3.9690000  -3.1890000  66.4880000  -2.8910000  -3.7890000
  65.8230000  -4.1640000  -2.0600000  65.9440000  -5.0520000  -1.5950000
  65.0740000  -3.1100000  -1.3490000  64.8280000  -2.3140000  -2.0510000
  63.7380000  -3.6450000  -0.7970000  63.9190000  -4.5510000  -0.2190000
  63.0280000  -2.6270000   0.1050000  62.8550000  -1.6970000  -0.4350000
  62.0750000  -3.0340000   0.4420000  63.6350000  -2.4220000   0.9870000
  62.7890000  -3.9700000  -1.9570000  63.2260000  -4.7310000  -2.6030000
  61.8400000  -4.3430000  -1.5730000  62.6020000  -3.0730000  -2.5480000
  65.9430000  -2.4900000  -0.2520000  66.4400000  -3.2010000   0.6230000
  66.1080000  -1.1670000  -0.2740000  65.6610000  -0.6340000  -1.0060000
  66.9230000  -0.4310000   0.6990000  67.7120000  -1.0850000   1.0710000
  67.6040000   0.7710000   0.0230000  66.8350000   1.4280000  -0.3830000
  68.1460000   1.3280000   0.7870000  68.5970000   0.4050000  -1.0970000
  69.1370000  -0.7290000  -1.1220000  68.8910000   1.2880000  -1.9390000
  66.0850000   0.0330000   1.9020000  65.0810000   0.7310000   1.7410000
  66.5040000  -0.3380000   3.1160000  67.3330000  -0.9120000   3.1770000
  65.9170000   0.1160000   4.3840000  64.9700000   0.6210000   4.1930000
  65.5950000  -1.0890000   5.2840000  66.4470000  -1.7690000   5.3050000
  65.4510000  -0.7280000   6.3020000  64.3500000  -1.8580000   4.8840000
  64.4130000  -2.8590000   3.8970000  65.3520000  -3.0780000   3.4100000
  63.2540000  -3.5740000   3.5430000  63.3070000  -4.3450000   2.7890000
  62.0310000  -3.2900000   4.1750000  61.1380000  -3.8380000   3.9130000
  61.9640000  -2.2880000   5.1560000  61.0210000  -2.0660000   5.6330000
  63.1210000  -1.5720000   5.5110000  63.0610000  -0.8030000   6.2660000
  66.8830000   1.0810000   5.1030000  67.9990000   0.6710000   5.4450000
  66.4790000   2.3430000   5.3620000  65.3120000   3.0150000   4.8060000
  64.4290000   2.7220000   5.3740000  65.1840000   2.7910000   3.7470000
  65.5670000   4.5070000   4.9880000  64.6380000   5.0720000   5.0610000
  66.1860000   4.8770000   4.1710000  66.3580000   4.5370000   6.2930000
  65.6610000   4.4900000   7.1300000  66.9820000   5.4280000   6.3610000
  67.2040000   3.2610000   6.2440000  68.1700000   3.4870000   5.7930000
  67.4120000   2.6780000   7.6490000  66.5600000   1.9450000   8.1510000
  68.5300000   3.0090000   8.2990000  69.1870000   3.6170000   7.8320000
  68.9210000   2.4580000   9.6080000  69.1110000   1.3940000   9.4740000
  70.2400000   3.1060000  10.0630000  70.9770000   2.9540000   9.2750000
  70.0890000   4.1770000  10.1970000  70.7740000   2.5060000  11.3740000
  70.0510000   2.6930000  12.1680000  70.8650000   1.4260000  11.2520000
  72.1450000   3.0780000  11.7940000  72.9820000   3.4270000  10.9240000
  72.4110000   3.1630000  13.0190000  67.8170000   2.5740000  10.6780000
  67.5130000   1.5920000  11.3540000  67.1900000   3.7520000  10.8100000
  67.4950000   4.5160000  10.2250000  66.0630000   3.9830000  11.7310000
  66.4120000   3.8040000  12.7480000  65.6130000   5.4510000  11.6250000
  66.4800000   6.1010000  11.7410000  65.1890000   5.6160000  10.6340000
  64.5620000   5.8500000  12.6720000  63.7920000   5.0790000  12.7160000
  65.0410000   5.8990000  13.6500000  63.7150000   7.4260000  12.3500000
  65.1040000   8.5930000  12.3650000  65.7810000   8.3750000  11.5390000
  64.7250000   9.6080000  12.2510000  65.6430000   8.5150000  13.3090000
  64.8870000   3.0260000  11.4660000  64.3480000   2.4280000  12.3980000
  64.5020000   2.8620000  10.1940000  65.0380000   3.3290000   9.4770000
  63.4640000   1.9110000   9.7740000  62.5470000   2.1250000  10.3230000
  63.1550000   2.0390000   8.2720000  64.0400000   1.7720000   7.6940000
  62.3680000   1.3320000   8.0110000  62.7040000   3.4400000   7.8400000
  63.4510000   4.1800000   8.1280000  62.6510000   3.4390000   6.7510000
  61.0770000   3.9600000   8.4460000  61.4750000   4.7480000  10.0320000
  62.2880000   5.4610000   9.9020000  60.5890000   5.2720000  10.3900000
  61.7590000   4.0020000  10.7740000  63.8460000   0.4750000  10.1310000
  63.0860000  -0.1990000  10.8230000  65.0310000   0.0190000   9.7150000
  65.6250000   0.6400000   9.1840000  65.5310000  -1.3200000  10.0160000
  64.8740000  -2.0470000   9.5380000  66.9290000  -1.4730000   9.4070000
  67.3020000  -2.4790000   9.5980000  66.8850000  -1.3130000   8.3300000
  67.6150000  -0.7500000   9.8480000  65.5200000  -1.6160000  11.5300000
  64.9750000  -2.6350000  11.9490000  66.0650000  -0.7090000  12.3460000
  66.5010000   0.1000000  11.9280000  66.0670000  -0.7870000  13.8120000
  66.6270000  -1.6760000  14.1040000  66.7910000   0.4480000  14.3760000
  67.8000000   0.4900000  13.9660000  66.2640000   1.3400000  14.0370000
  66.8750000   0.5130000  15.9090000  67.3120000   1.4760000  16.1740000
  65.8660000   0.4970000  16.3210000  67.7230000  -0.6020000  16.5610000
  68.4940000  -1.3090000  15.8670000  67.6520000  -0.7460000  17.8060000
  64.6560000  -0.9340000  14.4100000  64.4160000  -1.8280000  15.2220000
  63.7050000  -0.0790000  14.0170000  63.9510000   0.6430000  13.3550000
  62.3150000  -0.1460000  14.5010000  62.3300000  -0.1660000  15.5910000
  61.5410000   1.1220000  14.0650000  61.7240000   1.2890000  13.0040000
  60.0180000   0.9890000  14.2650000  59.7870000   0.8400000  15.3200000
  59.5100000   1.8880000  13.9150000  59.6220000   0.1560000  13.6840000
  62.0750000   2.3340000  14.8670000  61.7810000   2.2380000  15.9120000
  63.1640000   2.3460000  14.8320000  61.5940000   3.6880000  14.3380000
  60.5230000   3.8020000  14.5060000  62.1180000   4.4850000  14.8650000
  61.8060000   3.7670000  13.2720000  61.6390000  -1.4530000  14.0550000
  60.9900000  -2.1260000  14.8610000  61.8200000  -1.8460000  12.7940000
  62.3810000  -1.2570000  12.1950000  61.2130000  -3.0420000  12.1970000
  60.1590000  -3.0480000  12.4750000  61.2610000  -2.9460000  10.6520000
  62.2960000  -2.7650000  10.3650000  60.7770000  -4.2390000   9.9660000
  59.7580000  -4.4690000  10.2770000  60.8080000  -4.1340000   8.8820000
  61.4220000  -5.0780000  10.2270000  60.4020000  -1.7600000  10.1470000
  59.3460000  -2.0300000  10.1710000  60.5250000  -0.8960000  10.8000000
  60.7810000  -1.3030000   8.7320000  60.5630000  -2.0820000   8.0010000
  60.2080000  -0.4090000   8.4860000  61.8440000  -1.0670000   8.6800000
  61.8070000  -4.3470000  12.7660000  61.1050000  -5.3550000  12.8050000
  63.0470000  -4.3480000  13.2720000  63.6220000  -3.5270000  13.1520000
  63.6570000  -5.5100000  13.9450000  63.1800000  -6.4170000  13.5730000
  65.1410000  -5.6200000  13.5670000  65.5150000  -6.5930000  13.8850000
  65.2400000  -5.5550000  12.4830000  65.9180000  -4.6060000  14.1780000
  66.8120000  -4.6660000  13.8320000  63.4920000  -5.5290000  15.4790000
  63.8610000  -6.5250000  16.1080000  62.9020000  -4.4860000  16.0900000
  62.6730000  -3.6900000  15.5120000  62.7690000  -4.3480000  17.5610000
  63.0580000  -5.2900000  18.0290000  63.7260000  -3.2730000  18.1280000
  63.5360000  -2.3230000  17.6290000  63.5420000  -3.0510000  19.6370000
  63.6580000  -3.9940000  20.1720000  64.2880000  -2.3430000  19.9990000
  62.5590000  -2.6310000  19.8490000  65.1910000  -3.6720000  17.9110000
  65.4020000  -3.7670000  16.8460000  65.8480000  -2.9020000  18.3180000
  65.4000000  -4.6210000  18.4050000  61.3290000  -4.1020000  18.0160000
  60.8090000  -4.8830000  18.8080000  60.6710000  -3.0330000  17.5520000
  61.1150000  -2.4570000  16.8510000  59.3170000  -2.6650000  18.0010000
  59.1920000  -2.9830000  19.0360000  59.1490000  -1.1350000  17.9570000
  59.3410000  -0.8020000  16.9370000  58.1180000  -0.8730000  18.1950000
  60.0820000  -0.3570000  18.9050000  61.1130000  -0.6880000  18.7800000
  60.0460000   0.6890000  18.6020000  59.7120000  -0.4440000  20.3900000
  59.4640000  -1.5030000  20.9580000  59.6760000   0.6600000  21.0960000
  59.8760000   1.5460000  20.6550000  59.4570000   0.5980000  22.0800000
  58.2010000  -3.3670000  17.2100000  57.2150000  -3.7990000  17.8030000
  58.3590000  -3.5460000  15.8920000  59.1830000  -3.1590000  15.4530000
  57.3580000  -4.2470000  15.0520000  56.3940000  -3.7770000  15.2480000
  57.6320000  -4.0510000  13.5440000  58.6310000  -4.4180000  13.3090000
  56.6330000  -4.8000000  12.6540000  55.6170000  -4.5150000  12.9270000
  56.8090000  -4.5560000  11.6060000  56.7510000  -5.8780000  12.7700000
  57.5520000  -2.5630000  13.1720000  58.2970000  -1.9890000  13.7230000
  57.7410000  -2.4350000  12.1060000  56.5620000  -2.1720000  13.4040000
  57.1670000  -5.7310000  15.4290000  56.0150000  -6.1570000  15.5290000
  58.2110000  -6.5310000  15.7420000  59.6310000  -6.2460000  15.6140000
  60.0050000  -5.8650000  16.5650000  59.8400000  -5.5320000  14.8180000
  60.2850000  -7.5900000  15.3200000  61.3410000  -7.6000000  15.5910000
  60.1460000  -7.8460000  14.2700000  59.4620000  -8.5260000  16.2020000
  59.8200000  -8.4610000  17.2290000  59.5070000  -9.5550000  15.8460000
  58.0460000  -7.9470000  16.0900000  57.5370000  -8.4450000  15.2650000
  57.2280000  -8.1700000  17.3700000  56.4960000  -9.1510000  17.4570000
  57.2710000  -7.2230000  18.3220000  57.9060000  -6.4510000  18.1820000
  56.4330000  -7.2160000  19.5410000  56.5580000  -8.1660000  20.0600000
  56.8810000  -6.0850000  20.4860000  56.6930000  -5.1270000  20.0010000
  56.2780000  -6.1320000  21.3930000  58.3520000  -6.1520000  20.9220000
  58.5080000  -7.0350000  21.5420000  58.9950000  -6.2200000  20.0450000
  58.7150000  -4.8860000  21.7130000  58.4800000  -4.0140000  21.1030000
  58.1210000  -4.8450000  22.6260000  60.2070000  -4.8640000  22.0690000
  60.4220000  -5.6930000  22.7430000  60.7860000  -5.0220000  21.1580000
  60.5960000  -3.5720000  22.6990000  60.1110000  -3.4310000  23.5740000
  61.5850000  -3.5510000  22.9020000  60.3850000  -2.7900000  22.0950000
  54.9350000  -7.0830000  19.2270000  54.1030000  -7.6150000  19.9590000
  54.5810000  -6.3940000  18.1380000  55.3160000  -5.9670000  17.5910000
  53.1990000  -6.3290000  17.6260000  52.5250000  -6.1590000  18.4650000
  52.9990000  -5.1620000  16.6230000  53.6370000  -5.3320000  15.7560000
  51.5400000  -5.1290000  16.1260000  50.8600000  -4.9910000  16.9670000
  51.3930000  -4.3170000  15.4140000  51.2860000  -6.0540000  15.6090000
  53.3900000  -3.8020000  17.2500000  52.6990000  -3.5610000  18.0570000
  54.3930000  -3.8680000  17.6730000  53.4080000  -2.6380000  16.2510000
  52.3950000  -2.3900000  15.9350000  53.8410000  -1.7600000  16.7290000
  54.0140000  -2.9000000  15.3830000  52.8200000  -7.6830000  17.0180000
  51.7810000  -8.2570000  17.3480000  53.6840000  -8.2320000  16.1580000
  54.5240000  -7.7170000  15.9360000  53.4530000  -9.5240000  15.5000000
  52.5020000  -9.4580000  14.9700000  54.5460000  -9.7910000  14.4450000
  55.5060000  -9.9050000  14.9470000  54.3140000 -10.7380000  13.9570000
  54.6830000  -8.7030000  13.3580000  55.0930000  -7.7950000  13.8010000
  55.6410000  -9.1680000  12.2630000  55.2490000 -10.0570000  11.7700000
  55.7670000  -8.3740000  11.5260000  56.6130000  -9.3970000  12.6980000
  53.3440000  -8.3560000  12.7030000  52.7160000  -7.8060000  13.4040000
  53.5080000  -7.7220000  11.8320000  52.8350000  -9.2710000  12.4010000
  53.2920000 -10.6860000  16.5020000  52.3810000 -11.4990000  16.3380000
  54.0860000 -10.7160000  17.5770000  54.8350000 -10.0410000  17.6360000
  54.0030000 -11.7190000  18.6550000  53.7870000 -12.6910000  18.2110000
  55.3650000 -11.8300000  19.3490000  55.3550000 -12.6760000  20.0360000
  56.1340000 -12.0040000  18.5960000  55.6600000 -10.6460000  20.0680000
  56.5960000 -10.6640000  20.2790000  52.9090000 -11.4470000  19.7060000
  52.6700000 -12.2890000  20.5760000  52.2160000 -10.3030000  19.6330000
  52.4420000  -9.6560000  18.8910000  51.1150000  -9.9420000  20.5370000
  50.4810000 -10.8130000  20.7000000  50.5070000  -9.1790000  20.0510000
  51.5340000  -9.3930000  21.9100000  50.6740000  -9.2020000  22.7740000
  52.8250000  -9.0880000  22.1190000  53.4650000  -9.2410000  21.3530000
  53.3350000  -8.3740000  23.3110000  52.9960000  -8.8960000  24.2060000
  54.8730000  -8.3680000  23.3120000  55.2390000  -8.0020000  22.3530000
  55.2230000  -7.6930000  24.0940000  55.4560000  -9.7610000  23.5850000
  55.0990000 -10.1110000  24.5530000  55.1240000 -10.4580000  22.8150000
  56.9890000  -9.7130000  23.5980000  57.3510000  -9.3990000  22.6190000
  57.3200000  -8.9940000  24.3470000  57.5520000 -11.0990000  23.9380000
  57.1490000 -11.4120000  24.9010000  57.2090000 -11.8120000  23.1880000
  59.0380000 -11.0910000  23.9930000  59.3770000 -10.4450000  24.6910000
  59.3950000 -12.0060000  24.2310000  59.4410000 -10.8310000  23.1040000
  52.7850000  -6.9450000  23.4260000  52.6680000  -6.4150000  24.5270000
  52.3940000  -6.3460000  22.3010000  52.5800000  -6.8450000  21.4430000
  51.6780000  -5.0600000  22.1860000  51.2000000  -4.8450000  23.1420000
  52.6340000  -3.8780000  21.8690000  53.0510000  -3.5290000  22.8130000
  53.8140000  -4.2530000  20.9740000  53.4480000  -4.7060000  20.0520000
  54.4010000  -3.3670000  20.7340000  54.4570000  -4.9530000  21.5070000
  51.9470000  -2.6870000  21.1960000  51.0340000  -2.4100000  21.7240000
  52.6210000  -1.8300000  21.2050000  51.7040000  -2.9270000  20.1610000
  50.5480000  -5.2190000  21.1660000  50.7390000  -5.8380000  20.1200000
  49.3500000  -4.7220000  21.5060000  49.2880000  -4.1600000  22.3430000
  48.0980000  -5.0190000  20.7830000  48.3880000  -5.2750000  19.7640000
  47.4160000  -6.2730000  21.3840000  46.7620000  -6.6880000  20.6180000
  48.1720000  -7.0310000  21.5900000  46.5510000  -6.0700000  22.6450000
  45.7760000  -5.3330000  22.4300000  46.0340000  -7.0100000  22.8360000
  47.3080000  -5.6900000  23.9360000  47.1630000  -6.4830000  24.6690000
  48.3810000  -5.6410000  23.7470000  46.8460000  -4.3540000  24.5460000
  47.5390000  -4.0880000  25.3450000  46.9160000  -3.5740000  23.7880000
  45.4560000  -4.4330000  25.0910000  45.3740000  -5.1490000  25.7980000
  45.1790000  -3.5630000  25.5230000  44.7780000  -4.6390000  24.3720000
  47.1550000  -3.8090000  20.6940000  47.2360000  -2.9330000  21.5590000
  46.2800000  -3.7250000  19.6740000  46.1540000  -4.6170000  18.5260000
  45.4290000  -5.3990000  18.7530000  47.1020000  -5.0590000  18.2180000
  45.6310000  -3.7370000  17.3990000  45.0960000  -4.3170000  16.6470000
  46.4600000  -3.1920000  16.9470000  44.7130000  -2.7650000  18.1340000
  43.7210000  -3.2060000  18.2380000  44.6480000  -1.8090000  17.6160000
  45.3660000  -2.5950000  19.5080000  45.9660000  -1.6840000  19.4910000
  44.3090000  -2.4840000  20.6160000  43.8770000  -3.4840000  21.1920000
  43.8630000  -1.2550000  20.8840000  44.2530000  -0.4940000  20.3460000
  42.7540000  -0.9430000  21.7980000  42.5990000  -1.7900000  22.4660000
  43.0680000   0.2800000  22.6960000  43.0360000   1.1810000  22.0830000
  41.9860000   0.3870000  23.7890000  42.0350000  -0.4780000  24.4510000
  42.1270000   1.2900000  24.3830000  40.9910000   0.4380000  23.3480000
  44.4750000   0.2000000  23.3320000  44.5620000  -0.7070000  23.9300000
  45.2270000   0.1610000  22.5430000  44.8070000   1.4130000  24.2070000
  44.2790000   1.3550000  25.1580000  45.8790000   1.4400000  24.4040000
  44.5280000   2.3310000  23.6890000  41.4680000  -0.7710000  20.9720000
  41.0200000   0.3460000  20.7020000  40.9030000  -1.8930000  20.5150000
  41.3370000  -2.7770000  20.7390000  39.6480000  -1.9080000  19.7580000
  39.7710000  -1.2780000  18.8770000  39.3400000  -3.3340000  19.2860000
  38.3390000  -3.3380000  18.8530000  39.3210000  -4.0020000  20.1470000
  40.2980000  -3.8780000  18.2410000  41.2940000  -4.8160000  18.5810000
  41.3980000  -5.1480000  19.6040000  42.1480000  -5.3330000  17.5850000
  42.9080000  -6.0540000  17.8470000  42.0110000  -4.9050000  16.2440000
  42.8300000  -5.3950000  15.2740000  43.3610000  -6.1290000  15.5900000
  41.0150000  -3.9650000  15.9090000  40.8970000  -3.6460000  14.8840000
  40.1640000  -3.4570000  16.9060000  39.3910000  -2.7490000  16.6430000
  38.4760000  -1.3510000  20.5850000  38.2980000  -1.7200000  21.7520000
  37.6620000  -0.4800000  19.9860000  37.8460000  -0.2580000  19.0180000
  36.3850000  -0.0360000  20.5530000  36.5340000   0.2510000  21.5950000
  35.8800000   1.1900000  19.7840000  35.9100000   0.9690000  18.7170000
  34.8350000   1.3560000  20.0480000  36.6380000   2.4770000  20.0560000
  36.2770000   3.2830000  21.1530000  35.4750000   2.9750000  21.8090000
  36.9390000   4.5010000  21.3860000  36.6470000   5.1230000  22.2200000
  37.9730000   4.9140000  20.5290000  38.4750000   5.8540000  20.7050000
  38.3500000   4.1040000  19.4430000  39.1510000   4.4130000  18.7880000
  37.6750000   2.8950000  19.2010000  37.9530000   2.2910000  18.3500000
  35.3170000  -1.1440000  20.5280000  34.5600000  -1.2970000  21.4920000
  35.2600000  -1.9140000  19.4400000  35.9040000  -1.7070000  18.6900000
  34.3400000  -3.0370000  19.2340000  33.4770000  -2.9170000  19.8870000
  33.8350000  -2.9770000  17.7790000  34.6750000  -3.1350000  17.1030000
  33.1160000  -3.7790000  17.6090000  33.1560000  -1.6730000  17.4300000
  31.9070000  -1.2690000  17.8490000  31.2650000  -1.7970000  18.4230000
  31.6910000  -0.0270000  17.3860000  30.7940000   0.5490000  17.5600000
  32.7560000   0.4060000  16.6910000  33.6950000  -0.6320000  16.7220000
  34.6750000  -0.6130000  16.2680000  34.9830000  -4.4020000  19.5900000
  36.0980000  -4.4590000  20.1200000  34.2650000  -5.4970000  19.2910000
  33.3660000  -5.3420000  18.8580000  34.6620000  -6.9120000  19.4880000
  33.7850000  -7.5230000  19.2710000  35.7320000  -7.3420000  18.4740000
  36.6660000  -6.8170000  18.6800000  35.9820000  -8.8540000  18.4660000
  35.0510000  -9.3820000  18.2590000  36.7140000  -9.1000000  17.6970000
  36.3740000  -9.1860000  19.4280000  35.2930000  -7.0080000  17.1720000
  36.0170000  -7.1980000  16.5720000  35.0330000  -7.2410000  20.9420000
  34.0880000  -7.3860000  21.7520000  36.2300000  -7.3680000  21.2940000
