Cpptraj Generated Restart                                                       
 5037
  31.2660000  -4.8210000  26.3900000  27.3130000  -7.3000000  28.4020000
  31.7820000  -5.8860000  24.6040000  28.6950000  -5.7980000  27.7970000
  34.4000000  -8.5460000  27.8510000  30.7120000  -7.4540000  32.1020000
  34.7920000  -8.0160000  26.6200000  29.3150000  -7.5290000  32.1470000
  33.2240000  -8.0940000  28.4670000  31.3560000  -7.1310000  30.8940000
  33.9730000  -7.0790000  25.9780000  28.5620000  -7.2770000  30.9900000
  31.2520000  -6.6390000  28.4960000  31.8930000  -5.6930000  25.8080000
  28.3700000  -6.7040000  28.5480000  32.4180000  -7.1000000  27.8700000
  30.6150000  -6.9150000  29.7110000  32.7770000  -6.6280000  26.5850000
  29.2040000  -6.9640000  29.7700000  35.0070000  -9.3110000  28.3240000
  31.2920000  -7.6340000  33.0030000  35.7130000  -8.3540000  26.1550000
  28.8110000  -7.7760000  33.0770000  32.9460000  -8.5440000  29.4150000
  32.4380000  -7.0370000  30.8880000  34.2640000  -6.7010000  25.0020000
  27.4790000  -7.3300000  31.0350000  30.6820000  -6.0670000  27.8830000
  24.5680000 -32.7560000  33.4910000  24.1570000 -33.3240000  32.7630000
  23.9810000 -32.8220000  34.3100000  25.9490000 -33.1720000  33.8230000
  26.4790000 -33.4270000  32.9060000  25.9640000 -34.0350000  34.4900000
  26.6380000 -31.9660000  34.4680000  27.6680000 -31.8890000  34.1180000
  26.6240000 -32.0560000  35.5540000  25.7970000 -30.7560000  34.0240000
  26.4050000 -30.0080000  33.5160000  25.3260000 -30.3050000  34.8970000
  24.7170000 -31.3340000  33.0920000  23.7800000 -30.8010000  33.2540000
  25.0850000 -31.1770000  31.6010000  26.1870000 -31.5390000  31.1830000
  24.1550000 -30.6560000  30.7920000  23.2510000 -30.4060000  31.1670000
  24.3610000 -30.4070000  29.3530000  25.3940000 -30.0950000  29.1990000
  24.1410000 -31.7000000  28.5530000  24.4960000 -31.5520000  27.5330000
  24.7260000 -32.5020000  29.0020000  22.7730000 -32.0740000  28.5220000
  22.7260000 -32.9770000  28.2000000  23.4550000 -29.2900000  28.8230000
  22.4120000 -28.9910000  29.4110000  23.8210000 -28.6840000  27.6870000
  24.6970000 -28.9340000  27.2520000  22.9740000 -27.6850000  27.0230000
  22.7860000 -26.8980000  27.7530000  23.7080000 -27.0220000  25.8480000
  24.0920000 -27.7810000  25.1660000  22.9920000 -26.4150000  25.2930000
  24.8380000 -26.1270000  26.2520000  26.1510000 -26.3240000  25.9910000
  26.5530000 -27.1640000  25.4440000  26.8930000 -25.2790000  26.5110000
  27.8940000 -25.2020000  26.3990000  26.0890000 -24.3620000  27.1540000
  26.3490000 -23.1690000  27.8420000  27.3620000 -22.8150000  27.9620000
  25.2770000 -22.4410000  28.3820000  25.4620000 -21.5210000  28.9160000
  23.9630000 -22.9160000  28.2370000  23.1450000 -22.3570000  28.6670000
  23.7080000 -24.1160000  27.5470000  22.6930000 -24.4700000  27.4430000
  24.7650000 -24.8700000  26.9910000  21.5790000 -28.2190000  26.6460000
  20.6090000 -27.5490000  26.9940000  21.4120000 -29.4180000  26.0440000
  22.4250000 -30.2410000  25.3940000  22.9120000 -30.8780000  26.1330000
  23.1670000 -29.6470000  24.8610000  21.6670000 -31.1130000  24.3990000
  22.1890000 -32.0490000  24.2010000  21.4990000 -30.5570000  23.4770000
  20.3380000 -31.3420000  25.1100000  20.4600000 -32.1320000  25.8520000
  19.5430000 -31.5920000  24.4080000  20.0860000 -29.9950000  25.7950000
  19.5580000 -29.3450000  25.0970000  19.2320000 -30.1480000  27.0620000
  18.0530000 -29.7870000  27.0540000  19.8230000 -30.6380000  28.1620000
  20.7940000 -30.9100000  28.1040000  19.1500000 -30.7630000  29.4620000
  18.2760000 -31.4010000  29.3340000  20.1050000 -31.4560000  30.4520000
  20.4090000 -32.4160000  30.0340000  20.9970000 -30.8410000  30.5740000
  19.4840000 -31.7070000  31.8360000  19.1490000 -30.7660000  32.2730000
  18.6150000 -32.3540000  31.7170000  20.4700000 -32.3500000  32.8130000
  21.6450000 -32.0090000  32.8850000  20.0310000 -33.2850000  33.6280000
  19.0690000 -33.5920000  33.5880000  20.6810000 -33.7070000  34.2750000
  18.6580000 -29.4030000  29.9900000  17.4870000 -29.2490000  30.3420000
  19.5520000 -28.4090000  30.0290000  20.4900000 -28.6100000  29.7120000
  19.2920000 -27.0810000  30.6090000  18.7960000 -27.2150000  31.5700000
  20.6350000 -26.3590000  30.8730000  21.2400000 -26.4160000  29.9690000
  20.4560000 -24.8700000  31.2240000  19.9180000 -24.7680000  32.1660000
  21.4310000 -24.3910000  31.3180000  19.9130000 -24.3450000  30.4380000
  21.3730000 -27.0910000  32.0200000  20.8280000 -26.9460000  32.9530000
  21.4000000 -28.1620000  31.8190000  22.8240000 -26.6410000  32.2110000
  22.8650000 -25.6100000  32.5610000  23.3060000 -27.2800000  32.9510000
  23.3530000 -26.7310000  31.2630000  18.3190000 -26.2760000  29.7380000
  17.3000000 -25.8030000  30.2380000  18.5880000 -26.1510000  28.4340000
  19.4100000 -26.6080000  28.0660000  17.7040000 -25.4510000  27.4930000
  17.5640000 -24.4290000  27.8440000  18.3410000 -25.4030000  26.0900000
  18.5110000 -26.4260000  25.7520000  17.6270000 -24.9500000  25.4030000
  19.6660000 -24.6190000  26.0030000  20.3890000 -25.0230000  26.7120000
  20.2590000 -24.7390000  24.6000000  19.5760000 -24.3130000  23.8650000
  21.2120000 -24.2120000  24.5560000  20.4320000 -25.7890000  24.3650000
  19.4770000 -23.1350000  26.3110000  19.2180000 -23.0030000  27.3610000
  20.4090000 -22.6050000  26.1170000  18.6860000 -22.7200000  25.6860000
  16.3060000 -26.0870000  27.4480000  15.3110000 -25.3660000  27.4950000
  16.2230000 -27.4240000  27.4310000  17.0760000 -27.9610000  27.3730000
  14.9590000 -28.1620000  27.5150000  15.1650000 -29.2320000  27.4830000
  14.3410000 -27.9090000  26.6530000  14.1650000 -27.8580000  28.7910000
  12.9710000 -27.5630000  28.7200000  14.8250000 -27.8600000  29.9610000
  15.7950000 -28.1420000  29.9630000  14.2070000 -27.4620000  31.2410000
  13.3450000 -28.1060000  31.4160000  15.2160000 -27.6900000  32.3860000
  15.5640000 -28.7230000  32.3580000  16.0740000 -27.0310000  32.2490000
  14.5920000 -27.4220000  33.7610000  14.2480000 -26.3880000  33.7840000
  13.7390000 -28.0810000  33.9170000  15.5890000 -27.5960000  34.9090000
  16.5930000 -27.3460000  34.5660000  15.3130000 -26.8770000  35.6810000
  15.5800000 -28.9610000  35.4700000  15.8890000 -29.6990000  34.8540000
  15.2610000 -29.3230000  36.7040000  14.8090000 -28.4890000  37.5980000
  14.6640000 -27.5150000  37.3720000  14.5650000 -28.8140000  38.5230000
  15.3990000 -30.5630000  37.0730000  15.7860000 -31.2480000  36.4400000
  15.1770000 -30.8450000  38.0170000  13.6650000 -26.0240000  31.1910000
  12.5310000 -25.7860000  31.6100000  14.4400000 -25.0820000  30.6410000
  15.3660000 -25.3540000  30.3400000  14.0130000 -23.6880000  30.4600000
  13.6840000 -23.3140000  31.4300000  15.1780000 -22.8070000  29.9710000
  15.5690000 -23.2250000  29.0440000  14.7760000 -21.8190000  29.7450000
  16.3380000 -22.6150000  30.9580000  16.7400000 -23.5870000  31.2440000
  17.4520000 -21.8120000  30.2890000  17.0870000 -20.8270000  29.9970000
  18.2870000 -21.6930000  30.9800000  17.8050000 -22.3400000  29.4030000
  15.8900000 -21.8720000  32.2190000  15.2680000 -22.5270000  32.8280000
  16.7590000 -21.5780000  32.8070000  15.3260000 -20.9810000  31.9430000
  12.8040000 -23.5320000  29.5210000  11.8850000 -22.7900000  29.8640000
  12.7570000 -24.2140000  28.3700000  13.5380000 -24.7980000  28.1080000
  11.6110000 -24.1210000  27.4340000  11.2990000 -23.0770000  27.3930000
  11.9830000 -24.5150000  25.9970000  11.0900000 -24.4210000  25.3800000
  13.0530000 -23.5960000  25.4070000  13.9730000 -23.6470000  25.9890000
  13.2620000 -23.8930000  24.3790000  12.6880000 -22.5690000  25.4060000
  12.4360000 -25.8470000  25.9220000  12.5680000 -26.0520000  24.9940000
  10.3760000 -24.9100000  27.8950000   9.2520000 -24.5280000  27.5630000
  10.5470000 -25.9180000  28.7590000  11.4850000 -26.2690000  28.8900000
   9.4670000 -26.5220000  29.5620000   8.5990000 -26.6810000  28.9230000
   9.9110000 -27.8910000  30.1140000  10.8410000 -27.7640000  30.6680000
   9.1580000 -28.2390000  30.8210000  10.0890000 -28.9990000  29.0580000
   9.5630000 -28.8890000  27.9230000  10.6920000 -30.0460000  29.4030000
   8.9990000 -25.6080000  30.7200000   7.9990000 -25.9020000  31.3810000
   9.7150000 -24.5000000  30.9590000  10.5220000 -24.3590000  30.3680000
   9.3990000 -23.3970000  31.8760000  10.0970000 -22.5940000  31.6380000
   7.9740000 -22.8610000  31.5950000   7.6410000 -23.1760000  30.6070000
   7.2700000 -23.2670000  32.3220000   7.9190000 -21.3450000  31.6020000
   8.2970000 -20.6900000  30.6410000   7.4470000 -20.7370000  32.6670000
   7.1540000 -21.2770000  33.4680000   7.4010000 -19.7280000  32.6730000
   9.6540000 -23.7460000  33.3600000   9.1840000 -23.0340000  34.2520000
  10.4200000 -24.8130000  33.6400000  10.8450000 -25.2950000  32.8610000
  10.8220000 -25.2230000  35.0000000  10.0290000 -24.9450000  35.6940000
  10.9950000 -26.7490000  35.0800000  11.7460000 -27.0680000  34.3570000
  11.3480000 -27.0040000  36.0800000   9.6790000 -27.5030000  34.8180000
   8.8950000 -27.0800000  35.4460000   9.3880000 -27.3890000  33.7740000
   9.8080000 -28.9940000  35.1520000  10.1010000 -29.0860000  36.1980000
   8.8290000 -29.4590000  35.0360000  10.7710000 -29.6790000  34.2620000
  10.7080000 -29.4540000  33.2790000  11.6360000 -30.6220000  34.5900000
  11.7970000 -31.0250000  35.8180000  11.2270000 -30.6200000  36.5460000
  12.4360000 -31.7750000  36.0400000  12.3650000 -31.1870000  33.6730000
  12.2410000 -30.9420000  32.7010000  12.9980000 -31.9370000  33.9110000
  12.0930000 -24.4980000  35.4490000  13.0330000 -24.3320000  34.6730000
  12.1210000 -24.0440000  36.7000000  11.3130000 -24.2090000  37.2840000
  13.3260000 -23.4770000  37.3250000  13.6350000 -22.6170000  36.7320000
  13.0180000 -22.9700000  38.7390000  12.6740000 -23.8060000  39.3490000
  13.9410000 -22.5920000  39.1780000  11.9730000 -21.8410000  38.7640000
  11.8820000 -21.0670000  37.7790000  11.2590000 -21.7140000  39.7870000
  14.5040000 -24.4660000  37.3270000  14.3260000 -25.6710000  37.5390000
  15.7100000 -23.9590000  37.0630000  15.7860000 -22.9580000  36.9520000
  16.9450000 -24.7440000  37.0210000  16.8130000 -25.5660000  36.3170000
  18.0900000 -23.8660000  36.4970000  18.1910000 -22.9960000  37.1470000
  19.0150000 -24.4370000  36.5770000  17.9370000 -23.3970000  35.0380000
  17.1090000 -22.6910000  34.9660000  19.2170000 -22.6940000  34.5920000
  20.0590000 -23.3870000  34.6090000  19.0900000 -22.3020000  33.5820000
  19.4220000 -21.8640000  35.2680000  17.6850000 -24.5500000  34.0640000
  16.6640000 -24.9140000  34.1800000  17.8040000 -24.2020000  33.0380000
  18.3930000 -25.3590000  34.2440000  17.2970000 -25.3910000  38.3720000
  17.1330000 -24.7830000  39.4340000  17.8010000 -26.6290000  38.3200000
  17.9750000 -27.0310000  37.4100000  18.3950000 -27.3070000  39.4720000
  17.6730000 -27.2940000  40.2880000  18.6750000 -28.7710000  39.1060000
  19.0470000 -29.3030000  39.9810000  17.7590000 -29.2530000  38.7660000
  19.4250000 -28.8270000  38.3170000  19.6670000 -26.5790000  39.9490000
  20.3870000 -25.9750000  39.1470000  19.9550000 -26.6400000  41.2550000
  19.3350000 -27.1690000  41.8510000  21.0960000 -25.9430000  41.8760000
  20.9410000 -24.8690000  41.7680000  21.1190000 -26.2900000  43.3750000
  20.0970000 -26.2630000  43.7550000  21.5030000 -27.3020000  43.5090000
  21.9610000 -25.3080000  44.2040000  22.9640000 -25.2420000  43.7810000
  21.5010000 -24.3200000  44.1590000  22.0820000 -25.7400000  45.6740000
  22.6410000 -26.6740000  45.7280000  22.6640000 -24.9860000  46.2030000
  20.7640000 -25.8690000  46.3370000  20.2950000 -25.0050000  46.5700000
  20.1260000 -26.9810000  46.6630000  20.6220000 -28.1660000  46.4390000
  21.5380000 -28.2470000  46.0220000  20.1110000 -28.9970000  46.7000000
  18.9520000 -26.9260000  47.2220000  18.5200000 -26.0330000  47.4110000
  18.4620000 -27.7750000  47.4650000  22.4130000 -26.3090000  41.1740000
  22.7410000 -27.4910000  41.0350000  23.1550000 -25.3010000  40.7200000
  22.8200000 -24.3600000  40.8710000  24.4090000 -25.4430000  39.9730000
  24.9150000 -26.3610000  40.2710000  25.0620000 -24.6120000  40.2420000
  24.2780000 -25.4510000  38.4400000  25.2950000 -25.3220000  37.7590000
  23.0770000 -25.5960000  37.8590000  22.2580000 -25.6870000  38.4430000
  22.9050000 -25.5950000  36.3940000  23.6290000 -26.2860000  35.9630000
  21.5050000 -26.0860000  36.0030000  20.7700000 -25.5970000  36.6410000
  21.3070000 -25.7980000  34.9700000  21.3550000 -27.6110000  36.1140000
  22.1210000 -28.0790000  35.4960000  21.5130000 -27.9230000  37.1460000
  19.9820000 -28.1060000  35.6570000  18.9600000 -27.4500000  35.7970000
  19.8950000 -29.2990000  35.1100000  20.7140000 -29.8800000  35.0010000
  18.9790000 -29.6220000  34.8320000  23.1830000 -24.2270000  35.7500000
  23.8610000 -24.1680000  34.7250000  22.7000000 -23.1250000  36.3360000
  22.2170000 -23.2150000  37.2180000  23.0260000 -21.7780000  35.8590000
  22.7770000 -21.7160000  34.8000000  22.1630000 -20.7530000  36.6030000
  22.4280000 -19.7440000  36.2870000  21.1080000 -20.9240000  36.3900000
  22.3180000 -20.8430000  37.6790000  24.5340000 -21.4880000  35.9910000
  25.1430000 -20.9340000  35.0720000  25.1590000 -21.9180000  37.0940000
  24.5980000 -22.2890000  37.8470000  26.6070000 -21.8620000  37.2650000
  26.9090000 -20.8190000  37.1750000  26.9880000 -22.3350000  38.6740000
  28.0670000 -22.2580000  38.8040000  26.5010000 -21.7110000  39.4240000
  26.6880000 -23.3720000  38.8230000  27.3490000 -22.6480000  36.1650000
  28.2440000 -22.0940000  35.5310000  26.9590000 -23.9010000  35.8910000
  26.2420000 -24.3180000  36.4670000  27.5220000 -24.7070000  34.7960000
  28.5890000 -24.8350000  34.9760000  26.8900000 -26.1060000  34.7740000
  27.0260000 -26.5650000  35.7530000  25.8180000 -26.0080000  34.6030000
  27.4470000 -27.0390000  33.7360000  28.4470000 -27.9250000  33.9490000
  28.9480000 -28.0730000  34.8940000  28.7370000 -28.5980000  32.7780000
  29.4600000 -29.2990000  32.7050000  27.9350000 -28.1780000  31.7390000
  27.8500000 -28.5470000  30.3890000  28.5020000 -29.3120000  29.9940000
  26.9160000 -27.9010000  29.5600000  26.8530000 -28.1560000  28.5120000
  26.0750000 -26.9100000  30.0960000  25.3600000 -26.4140000  29.4570000
  26.1670000 -26.5520000  31.4560000  25.5140000 -25.7880000  31.8510000
  27.1010000 -27.1720000  32.3170000  27.3730000 -24.0180000  33.4320000
  28.3440000 -23.9310000  32.6800000  26.1830000 -23.4850000  33.1310000
  25.4190000 -23.6040000  33.7810000  25.9290000 -22.7300000  31.9090000
  26.0920000 -23.3860000  31.0550000  24.4610000 -22.2860000  31.8940000
  24.2580000 -21.7010000  30.9980000  23.8090000 -23.1600000  31.9010000
  24.2390000 -21.6690000  32.7650000  26.9030000 -21.5460000  31.7690000
  27.6260000 -21.4560000  30.7760000  26.9810000 -20.6640000  32.7710000
  26.3840000 -20.7840000  33.5770000  27.8980000 -19.5210000  32.7250000
  27.7040000 -19.0000000  31.7870000  27.5890000 -18.5460000  33.8660000
  26.5220000 -18.3230000  33.8580000  27.8290000 -19.0200000  34.8180000
  28.3690000 -17.2290000  33.7460000  28.0460000 -16.5660000  34.5480000
  29.4270000 -17.4400000  33.9020000  28.2160000 -16.3350000  32.1690000
  26.4340000 -16.0040000  32.1040000  26.1220000 -15.4830000  33.0090000
  26.2090000 -15.3840000  31.2360000  25.8890000 -16.9440000  32.0090000
  29.3810000 -19.9340000  32.6990000  30.1780000 -19.3110000  32.0000000
  29.7640000 -20.9950000  33.4130000  29.0790000 -21.4670000  33.9860000
  31.1150000 -21.5620000  33.3660000  31.8220000 -20.7970000  33.6870000
  31.2200000 -22.7340000  34.3490000  31.0160000 -22.3740000  35.3570000
  30.4650000 -23.4820000  34.1070000  32.6050000 -23.3990000  34.3150000
  33.4590000 -23.0590000  35.1680000  32.8270000 -24.3000000  33.4710000
  31.5070000 -21.9660000  31.9340000  32.5040000 -21.4660000  31.4110000
  30.6840000 -22.7920000  31.2750000  29.8710000 -23.1400000  31.7630000
  30.8460000 -23.1700000  29.8700000  31.7740000 -23.7320000  29.7630000
  29.6760000 -24.0620000  29.4350000  28.7430000 -23.5660000  29.7030000
  29.6870000 -24.1640000  28.3500000  29.6710000 -25.4560000  30.0750000
  29.7770000 -25.3780000  31.1570000  28.6970000 -25.8970000  29.8660000
  30.7330000 -26.4160000  29.5430000  31.4740000 -27.0410000  30.2920000
  30.8700000 -26.5850000  28.2430000  30.3420000 -26.0320000  27.5830000
  31.5590000 -27.2510000  27.9250000  30.9460000 -21.9510000  28.9380000
  31.8060000 -21.9170000  28.0570000  30.0770000 -20.9470000  29.1120000
  29.3730000 -21.0480000  29.8290000  30.1460000 -19.6730000  28.3820000
  30.0520000 -19.8840000  27.3160000  28.9690000 -18.7520000  28.7800000
  28.9270000 -18.6850000  29.8670000  29.1400000 -17.3240000  28.2330000
  29.1320000 -17.3300000  27.1430000  28.3310000 -16.6940000  28.6050000
  30.0680000 -16.8770000  28.5890000  27.6450000 -19.3650000  28.2730000
  27.6770000 -19.4340000  27.1860000  27.5540000 -20.3920000  28.6250000
  26.3760000 -18.6170000  28.7010000  26.3440000 -17.6300000  28.2390000
  25.4990000 -19.1750000  28.3740000  26.3520000 -18.5160000  29.7860000
  31.5180000 -19.0040000  28.5490000  32.1880000 -18.7040000  27.5570000
  31.9500000 -18.7740000  29.7890000  31.3680000 -19.0650000  30.5620000
  33.1840000 -18.0450000  30.0950000  33.1970000 -17.1580000  29.4610000
  33.1610000 -17.5520000  31.5480000  33.0070000 -18.3900000  32.2270000
  34.1190000 -17.0840000  31.7770000  32.0420000 -16.5170000  31.7340000
  32.1280000 -15.7580000  30.9560000  31.0780000 -17.0090000  31.6020000
  32.0230000 -15.6790000  33.3350000  33.3860000 -14.5120000  33.0840000
  33.2210000 -13.9460000  32.1670000  33.4420000 -13.8220000  33.9260000
  34.3240000 -15.0610000  33.0060000  34.4780000 -18.8050000  29.7460000
  35.4880000 -18.1660000  29.4480000  34.4620000 -20.1420000  29.6880000
  33.6450000 -20.6390000  30.0150000  35.5810000 -20.9430000  29.1470000
  36.5210000 -20.4600000  29.4150000  35.6210000 -22.3590000  29.7500000
  36.4650000 -22.8890000  29.3080000  35.8320000 -22.3590000  31.2640000
  35.0450000 -21.7970000  31.7670000  35.8270000 -23.3840000  31.6350000
  36.7950000 -21.9050000  31.4980000  34.4520000 -23.0810000  29.4390000
  34.6990000 -24.0080000  29.4060000  35.5640000 -21.0510000  27.6130000
  36.4840000 -21.6290000  27.0280000  34.5590000 -20.4790000  26.9360000
  33.8310000 -20.0140000  27.4600000  34.4150000 -20.5220000  25.4740000
  35.3810000 -20.3390000  25.0050000  33.7390000 -19.7230000  25.1670000
  33.8560000 -21.8460000  24.9310000  33.8700000 -22.0700000  23.7190000
  33.3400000 -22.7180000  25.8040000  33.2890000 -22.4270000  26.7700000
  32.7040000 -23.9970000  25.4690000  33.0080000 -24.3030000  24.4670000
  33.1960000 -25.0680000  26.4660000  32.8290000 -24.8160000  27.4610000
  32.7750000 -26.0300000  26.1730000  34.7060000 -25.2420000  26.5550000
  35.2700000 -25.3520000  27.6350000  35.4200000 -25.2810000  25.4500000
  34.9800000 -25.1990000  24.5450000  36.4190000 -25.3990000  25.5310000
  31.1610000 -23.8590000  25.4180000  30.4180000 -24.6810000  25.9660000
  30.6890000 -22.8180000  24.7230000  31.3630000 -22.1930000  24.3070000
  29.2790000 -22.5400000  24.4480000  28.7310000 -23.4810000  24.4050000
  28.7000000 -21.6920000  25.5840000  27.6160000 -21.6340000  25.4830000
  28.9510000 -22.1370000  26.5470000  29.1120000 -20.6840000  25.5350000
  29.1480000 -21.8180000  23.0950000  29.7160000 -20.7400000  22.8950000
  28.4360000 -22.4350000  22.1470000  27.9860000 -23.3020000  22.4060000
  28.1190000 -21.8620000  20.8230000  29.0620000 -21.5950000  20.3460000
  27.4030000 -22.9250000  19.9600000  26.4510000 -23.1760000  20.4290000
  27.1840000 -22.5050000  18.9770000  28.1980000 -24.2340000  19.7720000
  28.4560000 -24.6510000  20.7460000  27.5570000 -24.9620000  19.2730000
  29.4850000 -24.0740000  18.9520000  30.1020000 -23.2920000  19.3940000
  30.0430000 -25.0090000  19.0130000  29.1820000 -23.7990000  17.5320000
  28.5050000 -24.4100000  17.0980000  29.7090000 -22.8780000  16.7470000
  30.6290000 -22.0490000  17.1530000  31.0070000 -22.1460000  18.0840000
  31.0190000 -21.3650000  16.5210000  29.3110000 -22.7700000  15.5130000
  28.6060000 -23.3950000  15.1500000  29.7130000 -22.0700000  14.9060000
  27.2810000 -20.5740000  20.9570000  26.4580000 -20.5030000  21.8700000
  27.3830000 -19.5950000  20.0350000  28.3790000 -19.4950000  18.9730000
  28.0920000 -20.1330000  18.1370000  29.3770000 -19.7540000  19.3240000
  28.3610000 -18.0310000  18.5360000  28.6570000 -17.9160000  17.4940000
  29.0100000 -17.4480000  19.1900000  26.9080000 -17.6260000  18.7650000
  26.3020000 -17.9700000  17.9270000  26.8070000 -16.5480000  18.8950000
  26.5430000 -18.3880000  20.0430000  26.8250000 -17.7780000  20.9010000
  25.0380000 -18.6850000  20.1360000  24.3250000 -18.0490000  20.9110000
  24.5680000 -19.7030000  19.4040000  25.1980000 -20.1490000  18.7530000
  23.1970000 -20.2110000  19.4870000  22.5180000 -19.4050000  19.2080000
  23.0400000 -21.3380000  18.4600000  22.0140000 -21.7070000  18.4770000
  23.2580000 -20.9620000  17.4600000  23.7170000 -22.1610000  18.6890000
  22.8050000 -20.6720000  20.9070000  21.7520000 -20.2810000  21.4060000
  23.6540000 -21.4640000  21.5780000  24.5240000 -21.7130000  21.1310000
  23.4430000 -21.9050000  22.9690000  22.4850000 -22.4220000  23.0260000
  24.5380000 -22.8950000  23.4060000  25.5110000 -22.4320000  23.2430000
  24.4380000 -23.0920000  24.4740000  24.4620000 -24.2410000  22.6590000
  23.6250000 -24.8120000  23.0600000  24.2690000 -24.0690000  21.6000000
  25.7370000 -25.0840000  22.7550000  26.8260000 -24.6200000  23.0640000
  25.6640000 -26.3580000  22.4360000  24.7850000 -26.7700000  22.1570000
  26.5110000 -26.9060000  22.4780000  23.3700000 -20.7170000  23.9400000
  22.4420000 -20.6460000  24.7470000  24.3120000 -19.7680000  23.8340000
  25.0480000 -19.9170000  23.1580000  24.3210000 -18.5130000  24.6110000
  24.4260000 -18.7670000  25.6650000  25.5220000 -17.6150000  24.2140000
  25.4610000 -17.4050000  23.1460000  25.4740000 -16.2820000  24.9800000
  25.5740000 -16.4690000  26.0490000  26.2890000 -15.6340000  24.6560000
  24.5420000 -15.7470000  24.7980000  26.8740000 -18.2970000  24.5060000
  27.0080000 -18.3180000  25.5870000  26.8610000 -19.3270000  24.1500000
  28.0990000 -17.6100000  23.8920000  28.2380000 -16.6130000  24.3100000
  28.9900000 -18.1990000  24.1110000  27.9870000 -17.5390000  22.8100000
  22.9810000 -17.7680000  24.4620000  22.3110000 -17.4770000  25.4560000
  22.5850000 -17.4740000  23.2170000  23.1830000 -17.7450000  22.4490000
  21.3380000 -16.7830000  22.8910000  21.3600000 -15.7940000  23.3480000
  21.2670000 -16.6070000  21.3690000  20.3350000 -16.1100000  21.1000000
  22.1050000 -16.0010000  21.0230000  21.3050000 -17.5770000  20.8730000
  20.1020000 -17.5210000  23.4360000  19.2810000 -16.9240000  24.1360000
  19.9900000 -18.8230000  23.1520000  20.7010000 -19.2510000  22.5760000
  18.8980000 -19.6760000  23.6150000  17.9650000 -19.2950000  23.2000000
  19.1090000 -21.0980000  23.0820000  18.2800000 -21.7330000  23.3950000
  19.1430000 -21.0830000  21.9930000  20.0410000 -21.5140000  23.4650000
  18.7570000 -19.6570000  25.1430000  17.6540000 -19.4540000  25.6460000
  19.8600000 -19.8220000  25.8810000  20.7360000 -19.9960000  25.4090000
  19.8690000 -19.7710000  27.3440000  19.2090000 -20.5510000  27.7240000
  21.2890000 -20.0680000  27.8370000  21.5970000 -21.0450000  27.4640000
  21.9770000 -19.3310000  27.4230000  21.4160000 -20.0670000  29.3440000
  21.0570000 -21.2130000  30.0780000  20.6980000 -22.0940000  29.5660000
  21.1730000 -21.2140000  31.4780000  20.9110000 -22.0970000  32.0420000
  21.6360000 -20.0680000  32.1450000  21.7240000 -20.0770000  33.2210000
  21.9760000 -18.9150000  31.4140000  22.3200000 -18.0280000  31.9250000
  21.8720000 -18.9170000  30.0130000  22.1380000 -18.0320000  29.4540000
  19.3410000 -18.4360000  27.8880000  18.3850000 -18.4190000  28.6670000
  19.9210000 -17.3170000  27.4370000  20.6850000 -17.4020000  26.7800000
  19.5290000 -15.9720000  27.8510000  19.6860000 -15.8820000  28.9260000
  20.4440000 -14.9650000  27.1450000  20.2160000 -13.9540000  27.4810000
  21.4840000 -15.1880000  27.3860000  20.3130000 -15.0220000  26.0640000
  18.0430000 -15.6880000  27.5760000  17.3190000 -15.2240000  28.4610000
  17.5650000 -16.0050000  26.3690000  18.2070000 -16.3870000  25.6880000
  16.1580000 -15.8220000  25.9790000  15.8700000 -14.8010000  26.2270000
  15.9730000 -15.9910000  24.4560000  16.4210000 -16.9340000  24.1440000
  14.4990000 -15.9990000  24.0340000  13.9980000 -15.0980000  24.3870000
  14.4270000 -16.0410000  22.9470000  13.9910000 -16.8760000  24.4350000
  16.6600000 -14.8390000  23.7100000  17.7180000 -14.7900000  23.9700000
  16.5820000 -14.9980000  22.6340000  16.1910000 -13.8890000  23.9640000
  15.2360000 -16.7320000  26.7950000  14.3440000 -16.2260000  27.4690000
  15.4530000 -18.0490000  26.7960000  16.2330000 -18.4170000  26.2700000
  14.5850000 -19.0100000  27.4850000  13.5830000 -18.9090000  27.0680000
  15.0670000 -20.4350000  27.1790000  14.3490000 -21.1540000  27.5740000
  15.1350000 -20.5780000  26.1010000  16.0440000 -20.6120000  27.6270000
  14.4650000 -18.7390000  28.9970000  13.3570000 -18.7460000  29.5320000
  15.5710000 -18.4280000  29.6880000  16.4630000 -18.4390000  29.2130000
  15.5330000 -18.0170000  31.1000000  15.0050000 -18.7850000  31.6640000
  16.9660000 -17.9370000  31.6540000  17.4420000 -18.9100000  31.5410000
  17.5350000 -17.2050000  31.0810000  16.9840000 -17.5390000  33.1370000
  16.5730000 -16.5330000  33.2270000  16.3400000 -18.2150000  33.7000000
  18.6180000 -17.5170000  33.9180000  18.9080000 -19.2950000  34.0930000
  18.9600000 -19.7620000  33.1100000  19.8500000 -19.4540000  34.6170000
  18.0980000 -19.7440000  34.6680000  14.7470000 -16.7120000  31.3110000
  13.9680000 -16.6100000  32.2570000  14.8940000 -15.7370000  30.4070000
  15.5270000 -15.8960000  29.6370000  14.0970000 -14.4920000  30.4220000
  14.2250000 -14.0180000  31.3950000  14.5760000 -13.4860000  29.3630000
  14.4050000 -13.8820000  28.3620000  13.8780000 -12.1360000  29.4820000
  14.0560000 -11.7120000  30.4700000  14.2630000 -11.4630000  28.7160000
  12.8050000 -12.2470000  29.3220000  15.9520000 -13.2390000  29.5320000
  16.4270000 -13.9840000  29.1570000  12.5990000 -14.7790000  30.2590000
  11.7960000 -14.3260000  31.0730000  12.2180000 -15.5610000  29.2400000
  12.9320000 -15.9030000  28.6120000  10.8220000 -15.9300000  28.9510000
  10.2370000 -15.0140000  28.8660000  10.7360000 -16.6660000  27.6050000
  11.4030000 -17.5280000  27.6120000   9.7140000 -17.0220000  27.4720000
  11.0950000 -15.7490000  26.4280000  10.5130000 -14.8310000  26.5000000
  12.1480000 -15.4760000  26.5010000  10.8120000 -16.4770000  24.7920000
   9.0030000 -16.3700000  24.7070000   8.6910000 -15.3330000  24.8250000
   8.6610000 -16.7350000  23.7380000   8.5510000 -16.9740000  25.4940000
  10.1720000 -16.7630000  30.0710000   8.9990000 -16.5520000  30.3890000
  10.9410000 -17.6570000  30.7160000  11.8560000 -17.8520000  30.3370000
  10.5240000 -18.3770000  31.9340000   9.6190000 -18.9400000  31.7050000
  11.6280000 -19.3720000  32.3470000  11.7920000 -20.0760000  31.5310000
  12.5550000 -18.8290000  32.5310000  11.2420000 -20.1570000  33.6130000
  11.0790000 -19.4730000  34.4460000  10.3080000 -20.6820000  33.4190000
  12.2930000 -21.1870000  34.0400000  11.8530000 -21.8000000  34.8260000
  12.5150000 -21.8340000  33.1920000  13.6030000 -20.5840000  34.5720000
  14.3030000 -21.4020000  34.7400000  14.0410000 -19.9220000  33.8240000
  13.4190000 -19.8570000  35.8520000  12.8800000 -20.3950000  36.5150000
  14.3200000 -19.6920000  36.2760000  12.9630000 -18.9640000  35.7350000
  10.1700000 -17.4320000  33.0900000   9.1780000 -17.6710000  33.7780000
  11.0160000 -16.4130000  33.2740000  11.7450000 -16.3520000  32.5780000
  11.2320000 -15.5560000  34.4470000  11.4580000 -14.5600000  34.0670000
   9.9910000 -15.3770000  35.3380000  10.1940000 -14.6140000  36.0900000
   9.1410000 -15.0550000  34.7370000   9.7500000 -16.3070000  35.8520000
  12.4480000 -16.1010000  35.2350000  12.3830000 -17.2350000  35.7260000
  13.5690000 -15.3590000  35.3430000  13.8590000 -14.1050000  34.6640000
  13.5210000 -13.2730000  35.2820000  13.4070000 -14.0530000  33.6730000
  15.3730000 -14.0700000  34.5220000  15.7490000 -13.0480000  34.4750000
  15.6600000 -14.6250000  33.6280000  15.8610000 -14.8010000  35.7720000
  15.9800000 -14.0720000  36.5740000  16.8020000 -15.3180000  35.5880000
  14.7380000 -15.7910000  36.1170000  15.0310000 -16.7880000  35.7880000
  14.4500000 -15.7980000  37.6300000  13.7880000 -14.8880000  38.1330000
  14.9540000 -16.7880000  38.3730000  15.4550000 -17.5320000  37.9080000
  14.9560000 -16.7650000  39.8550000  14.0690000 -16.2260000  40.1890000
  14.8670000 -18.1700000  40.4810000  14.6150000 -18.0560000  41.5350000
  13.8100000 -19.0630000  39.8380000  14.0590000 -19.2620000  38.7960000
  13.7570000 -20.0100000  40.3750000  12.8360000 -18.5780000  39.8920000
  16.0960000 -18.8490000  40.4040000  15.9600000 -19.7240000  40.7750000
  16.1730000 -16.0100000  40.4080000  17.1970000 -15.8750000  39.7360000
  16.1020000 -15.5390000  41.6600000  15.2410000 -15.6280000  42.1800000
  17.2610000 -14.9340000  42.3290000  17.6270000 -14.1150000  41.7100000
  16.8140000 -14.3420000  43.6700000  17.6660000 -13.8670000  44.1580000
  16.0410000 -13.5920000  43.5040000  16.4260000 -15.1270000  44.3190000
  18.4250000 -15.9350000  42.4920000  19.5850000 -15.5570000  42.3470000
  18.1280000 -17.2180000  42.7340000  17.1580000 -17.4680000  42.8620000
  19.1310000 -18.2950000  42.7370000  19.9030000 -18.0400000  43.4630000
  18.5010000 -19.6260000  43.1770000  17.7280000 -19.9020000  42.4590000
  19.2710000 -20.3970000  43.1460000  17.8970000 -19.6070000  44.5930000
  18.3830000 -18.8600000  45.4770000  16.9380000 -20.3790000  44.8390000
  19.8320000 -18.4510000  41.3730000  21.0620000 -18.4720000  41.3110000
  19.0640000 -18.5200000  40.2760000  18.0620000 -18.4830000  40.3910000
  19.5880000 -18.5820000  38.9010000  20.1920000 -19.4830000  38.7930000
  18.4310000 -18.6510000  37.8870000  17.7010000 -17.8830000  38.1420000
  18.8160000 -18.4330000  36.8900000  17.7510000 -20.0290000  37.8430000
  18.4270000 -20.7200000  37.3400000  17.6040000 -20.3950000  38.8590000
  16.3890000 -20.0220000  37.1220000  15.8540000 -18.9480000  36.7610000
  15.8100000 -21.1120000  36.9050000  20.5060000 -17.3940000  38.5810000
  21.6650000 -17.5900000  38.2150000  20.0210000 -16.1580000  38.7510000
  19.0680000 -16.0590000  39.0710000  20.8040000 -14.9430000  38.4540000
  21.2010000 -15.0370000  37.4430000  19.9180000 -13.6820000  38.4840000
  19.5120000 -13.5500000  39.4860000  20.6890000 -12.4180000  38.0830000
  21.0390000 -12.5030000  37.0540000  20.0400000 -11.5460000  38.1670000
  21.5480000 -12.2680000  38.7370000  18.7600000 -13.8040000  37.4890000
  18.0840000 -14.6060000  37.7850000  18.1920000 -12.8750000  37.4520000
  19.1560000 -14.0320000  36.4990000  22.0150000 -14.8080000  39.3870000
  23.0910000 -14.4040000  38.9440000  21.8740000 -15.1980000  40.6570000
  20.9650000 -15.5100000  40.9690000  22.9700000 -15.2600000  41.6260000
  22.5800000 -15.5900000  42.5890000  23.3940000 -14.2630000  41.7490000
  24.0970000 -16.2100000  41.2090000  25.2670000 -15.8490000  41.3210000
  23.7710000 -17.3920000  40.6770000  22.7960000 -17.6530000  40.6440000
  24.7520000 -18.3040000  40.0750000  25.5290000 -18.5150000  40.8110000
  24.0940000 -19.6370000  39.6960000  23.1340000 -19.4450000  39.2170000
  24.7460000 -20.1320000  38.9760000  23.8860000 -20.5800000  40.8910000
  24.8540000 -20.7670000  41.3550000  23.2530000 -20.0850000  41.6270000
  23.2610000 -21.9370000  40.4910000  23.5110000 -22.4320000  39.3640000
  22.5530000 -22.5460000  41.3310000  25.4710000 -17.6910000  38.8570000
  26.7010000 -17.7560000  38.7910000  24.7410000 -17.0680000  37.9160000
  23.7360000 -17.0620000  38.0170000  25.3510000 -16.3600000  36.7740000
  25.9200000 -17.0810000  36.1870000  24.2820000 -15.7130000  35.8620000
  23.7650000 -14.9410000  36.4300000  24.8000000 -15.2200000  35.0390000
  23.2130000 -16.6420000  35.2660000  22.6070000 -17.0560000  36.0720000
  22.2880000 -15.8530000  34.3400000  22.8460000 -15.4710000  33.4860000
  21.4900000 -16.5040000  33.9800000  21.8380000 -15.0230000  34.8840000
  23.8020000 -17.8020000  34.4760000  24.4630000 -18.3920000  35.1110000
  22.9940000 -18.4520000  34.1420000  24.3500000 -17.4290000  33.6100000
  26.3540000 -15.2880000  37.2410000  27.5200000 -15.3010000  36.8370000
  25.9110000 -14.3880000  38.1260000  24.9450000 -14.4380000  38.4180000
  26.7460000 -13.3300000  38.6870000  27.1420000 -12.7500000  37.8530000
  25.8670000 -12.4060000  39.5400000  26.4720000 -11.5900000  39.9360000
  25.0670000 -11.9860000  38.9300000  25.4290000 -12.9640000  40.3680000
  27.9520000 -13.8800000  39.4760000  29.0670000 -13.3910000  39.3110000
  27.7520000 -14.9120000  40.3030000  26.8090000 -15.2530000  40.4230000
  28.8070000 -15.5680000  41.0850000  28.3700000 -16.3870000  41.6570000
  29.2290000 -14.8530000  41.7910000  29.9430000 -16.1380000  40.2280000
  31.1150000 -15.9540000  40.5570000  29.6160000 -16.7740000  39.0960000
  28.6380000 -16.9180000  38.8920000  30.6190000 -17.2840000  38.1410000
  31.3830000 -17.8230000  38.7010000  29.9810000 -18.2850000  37.1620000
  29.1010000 -17.8340000  36.7050000  30.9390000 -18.7160000  36.0490000
  31.8640000 -19.1020000  36.4780000  30.4720000 -19.4980000  35.4510000
  31.1620000 -17.8750000  35.3930000  29.5610000 -19.5580000  37.9090000
  28.8170000 -19.3260000  38.6710000  29.1280000 -20.2680000  37.2050000
  30.4270000 -20.0180000  38.3860000  31.3480000 -16.1480000  37.4140000
  32.5740000 -16.1760000  37.2920000  30.6340000 -15.0970000  36.9930000
  29.6280000 -15.1150000  37.0870000  31.2770000 -13.8890000  36.4550000
  31.8910000 -14.1760000  35.6020000  30.2240000 -12.8890000  35.9640000
  29.4890000 -12.7280000  36.7520000  30.7120000 -11.9400000  35.7400000
  29.5080000 -13.3800000  34.7010000  30.2270000 -13.4480000  33.8840000
  29.1100000 -14.3780000  34.8840000  28.1350000 -12.3280000  34.1720000
  29.0170000 -10.8400000  33.6260000  29.7730000 -11.1070000  32.8870000
  28.3090000 -10.1470000  33.1730000  29.5040000 -10.3570000  34.4730000
  32.2350000 -13.2320000  37.4620000  33.3210000 -12.8010000  37.0770000
  31.8680000 -13.1940000  38.7470000  30.9410000 -13.5220000  38.9770000
  32.7040000 -12.6950000  39.8440000  33.1070000 -11.7270000  39.5460000
  31.8310000 -12.5020000  41.0990000  31.1770000 -13.3680000  41.2090000
  32.4680000 -12.4700000  41.9830000  30.9770000 -11.2240000  41.0730000
  30.4600000 -11.1360000  40.1170000  29.9380000 -11.2650000  42.1910000
  30.4340000 -11.3460000  43.1580000  29.3360000 -10.3570000  42.1700000
  29.2830000 -12.1250000  42.0500000  31.8470000  -9.9860000  41.2890000
  32.4980000  -9.8230000  40.4300000  31.2210000  -9.1030000  41.4180000
  32.4620000 -10.1120000  42.1800000  33.9250000 -13.5730000  40.1640000
  34.9460000 -13.0250000  40.5830000  33.8570000 -14.8990000  40.0010000
  32.9800000 -15.3190000  39.7280000  35.0080000 -15.7900000  40.2370000
  35.5420000 -15.4230000  41.1140000  34.5520000 -17.2130000  40.5850000
  35.4180000 -17.7880000  40.9110000  33.8390000 -17.1690000  41.4090000
  33.9590000 -17.8680000  39.4810000  33.7770000 -18.7750000  39.7380000
  36.0260000 -15.7900000  39.0830000  37.2250000 -15.9370000  39.3340000
  35.5880000 -15.5510000  37.8390000  34.5900000 -15.5510000  37.6810000
  36.4810000 -15.3360000  36.6870000  37.3730000 -15.9480000  36.8180000
  35.7890000 -15.8030000  35.3990000  34.8180000 -15.3130000  35.3310000
  36.3840000 -15.4930000  34.5400000  35.5940000 -17.2950000  35.2970000
  36.5860000 -18.2510000  35.2600000  37.5820000 -18.0870000  35.3030000
  36.0020000 -19.4570000  35.1550000  36.5340000 -20.3950000  35.1030000
  34.6630000 -19.3290000  35.1210000  34.3980000 -17.9560000  35.2190000
  33.4250000 -17.4880000  35.2150000  36.9780000 -13.8800000  36.5280000
  37.9490000 -13.6460000  35.8020000  36.3500000 -12.9030000  37.1920000
  35.5280000 -13.1420000  37.7270000  36.7930000 -11.5050000  37.2210000
  36.7490000 -11.1140000  36.2050000  35.8330000 -10.6950000  38.0980000
  36.0540000  -9.6330000  37.9940000  34.8020000 -10.8740000  37.7940000
  35.9500000 -10.9810000  39.1440000  38.2310000 -11.3370000  37.7480000
  38.6660000 -12.0840000  38.6300000  38.9470000 -10.3110000  37.2740000
  38.5480000  -9.7440000  36.5400000  40.1710000  -9.8390000  37.9360000
  40.8050000 -10.7010000  38.1420000  40.9530000  -8.9020000  37.0000000
  40.3150000  -8.0700000  36.7030000  41.7990000  -8.4900000  37.5500000
  41.4910000  -9.5810000  35.7650000  42.4990000 -10.5220000  35.7300000
  43.0330000 -10.8620000  36.5170000  42.6650000 -10.9120000  34.4550000
  43.3910000 -11.6400000  34.1240000  41.8010000 -10.2640000  33.6520000
  41.0430000  -9.4240000  34.4800000  40.2470000  -8.7680000  34.1630000
  39.8230000  -9.1190000  39.2610000  39.1150000  -8.1100000  39.2200000
  40.3010000  -9.5820000  40.4340000  41.0620000 -10.8090000  40.6500000
  41.9960000 -10.8000000  40.0880000  40.4610000 -11.6710000  40.3620000
  41.3490000 -10.8810000  42.1520000  42.3200000 -10.4330000  42.3640000
  41.3130000 -11.9070000  42.5190000  40.2390000 -10.0250000  42.7610000
  40.5230000  -9.6280000  43.7360000  39.3280000 -10.6180000  42.8420000
  40.0390000  -8.9250000  41.7150000  39.0090000  -8.5720000  41.7610000
  40.9910000  -7.7390000  41.9560000  42.1640000  -7.7720000  41.5680000
  40.5060000  -6.6940000  42.6370000  39.5360000  -6.7170000  42.9160000
  41.3780000  -5.6940000  43.2740000  42.0770000  -5.3260000  42.5230000
  40.5460000  -4.5000000  43.7900000  39.6190000  -4.8560000  44.2390000
  41.1170000  -4.0130000  44.5800000  40.2390000  -3.4330000  42.7180000
  41.1700000  -3.1390000  42.2340000  39.2600000  -3.9140000  41.6440000
  38.3440000  -4.2870000  42.1040000  39.0150000  -3.0940000  40.9690000
  39.7140000  -4.7110000  41.0550000  39.6420000  -2.1930000  43.3820000
  40.3430000  -1.7890000  44.1120000  39.4470000  -1.4290000  42.6290000
  38.7080000  -2.4480000  43.8840000  42.2200000  -6.3570000  44.3950000
  41.7460000  -7.3100000  45.0280000  43.4630000  -5.8950000  44.6450000
  44.1110000  -4.7530000  44.0120000  43.4460000  -3.8910000  43.9500000
  44.4470000  -5.0330000  43.0130000  45.3210000  -4.4280000  44.8890000
  45.0290000  -3.7650000  45.7040000  46.1330000  -3.9860000  44.3120000
  45.7070000  -5.7910000  45.4600000  46.2420000  -5.6990000  46.4050000
  46.3180000  -6.3210000  44.7290000  44.3670000  -6.5170000  45.6170000
  44.5080000  -7.5620000  45.3430000  43.8260000  -6.4720000  47.0590000
  43.0720000  -5.5720000  47.4350000  44.1950000  -7.4730000  47.8630000
  44.8300000  -8.1680000  47.4970000  43.6720000  -7.6860000  49.2170000
  42.6190000  -7.9530000  49.1230000  44.4000000  -8.8870000  49.8310000
  43.9780000  -9.1080000  50.8120000  44.2780000  -9.7610000  49.1920000
  45.4610000  -8.6660000  49.9410000  43.7650000  -6.4380000  50.1280000
  44.7950000  -5.7590000  50.1780000  42.6720000  -6.1480000  50.8450000
  41.8880000  -6.7780000  50.7480000  42.5470000  -5.1170000  51.8940000
  41.5650000  -5.2550000  52.3460000  43.5710000  -5.3290000  53.0340000
  44.5670000  -5.0730000  52.6740000  43.3360000  -4.6360000  53.8420000
  43.5970000  -6.7440000  53.6370000  42.5640000  -7.4570000  53.6270000
  44.6570000  -7.1380000  54.1820000  42.5430000  -3.6610000  51.3640000
  42.7510000  -2.7200000  52.1360000  42.2550000  -3.4450000  50.0690000
  42.1400000  -4.2540000  49.4760000  42.2880000  -2.1030000  49.4340000
  42.7790000  -1.4080000  50.1140000  43.1530000  -2.1600000  48.1600000
  43.9550000  -2.8820000  48.3130000  42.3580000  -2.5580000  46.9110000
  41.7180000  -1.7400000  46.5790000  43.0530000  -2.8100000  46.1100000
  41.7410000  -3.4310000  47.1190000  43.7450000  -0.9050000  47.9020000
  44.4360000  -0.7620000  48.5520000  40.9020000  -1.4970000  49.1390000
  40.8010000  -0.3240000  48.7740000  39.8210000  -2.2660000  49.3330000
  39.9680000  -3.2030000  49.6800000  38.4270000  -1.8360000  49.1140000
  38.4260000  -0.8690000  48.6120000  37.6530000  -2.7930000  48.1830000
  37.5670000  -3.7720000  48.6540000  36.2450000  -2.2510000  47.9030000
  36.2990000  -1.2570000  47.4590000  35.7220000  -2.9170000  47.2180000
  35.6660000  -2.1980000  48.8250000  38.3660000  -2.9640000  46.8370000
  39.3420000  -3.4290000  46.9830000  37.7780000  -3.6180000  46.1940000
  38.4970000  -1.9960000  46.3530000  37.7300000  -1.7070000  50.4770000
  37.5150000  -2.7340000  51.1300000  37.4190000  -0.4810000  50.9480000
  37.7700000   0.7960000  50.3430000  37.0940000   1.0060000  49.5150000
  38.8050000   0.8050000  50.0010000  37.5900000   1.8420000  51.4390000
  37.3390000   2.8210000  51.0290000  38.4910000   1.8960000  52.0500000
  36.4470000   1.2590000  52.2630000  35.4990000   1.4790000  51.7730000
  36.4510000   1.6400000  53.2850000  36.7300000  -0.2460000  52.2180000
  37.4170000  -0.5000000  53.0250000  35.4380000  -1.0590000  52.3760000
  34.6810000  -1.2460000  51.4200000  35.1440000  -1.4830000  53.6080000
  35.8000000  -1.2870000  54.3510000  33.9500000  -2.2840000  53.9330000
  33.9300000  -3.1540000  53.2770000  34.0320000  -2.7910000  55.3830000
  34.0690000  -1.9300000  56.0490000  33.1210000  -3.3460000  55.6080000
  35.2300000  -3.7150000  55.6720000  35.6880000  -3.7440000  56.8410000
  35.6970000  -4.4450000  54.7650000  32.6270000  -1.5220000  53.7090000
  31.5580000  -2.1330000  53.6780000  32.6900000  -0.2000000  53.5380000
  33.6020000   0.2290000  53.6040000  31.5690000   0.6910000  53.2180000
  30.6600000   0.0940000  53.1480000  31.3780000   1.6910000  54.3720000
  30.5170000   2.3230000  54.1550000  31.1360000   1.1200000  55.2680000
  32.5980000   2.5870000  54.6810000  33.5870000   2.6150000  53.9080000
  32.5750000   3.2620000  55.7400000  31.7050000   1.3900000  51.8440000
  30.9730000   2.3410000  51.5540000  32.5870000   0.8990000  50.9620000
  33.1530000   0.1090000  51.2390000  32.6470000   1.3260000  49.5630000
  32.8210000   2.4020000  49.5600000  33.8290000   0.6390000  48.8690000
  33.9140000   1.0000000  47.8440000  34.7550000   0.8640000  49.3980000
  33.6770000  -0.4400000  48.8550000  31.3260000   1.0600000  48.8100000
  30.6440000   0.0630000  49.0760000  30.9930000   1.9210000  47.8380000
  31.5770000   2.7360000  47.7130000  29.7410000   1.8440000  47.0570000
  29.2610000   0.9010000  47.3160000  28.7410000   2.9620000  47.4230000
  27.7840000   2.7100000  46.9660000  28.4930000   3.0640000  48.9260000
  29.3800000   3.4400000  49.4360000  27.6530000   3.7360000  49.1020000
  28.2510000   2.0780000  49.3230000  29.1400000   4.3420000  46.8980000
  29.1630000   4.3450000  45.8080000  28.4120000   5.0840000  47.2260000
  30.1240000   4.6100000  47.2810000  29.9420000   1.8170000  45.5390000
  30.9920000   2.2000000  45.0230000  28.8880000   1.4080000  44.8310000
  28.0960000   1.0490000  45.3440000  28.7300000   1.5160000  43.3750000
  29.6080000   2.0020000  42.9490000  28.6290000   0.0930000  42.8020000
  29.3850000  -0.5260000  43.2840000  27.6520000  -0.3210000  43.0500000
  28.8540000  -0.0100000  41.2860000  29.0460000   1.0240000  40.6060000
  28.9060000  -1.1590000  40.7930000  27.4800000   2.3480000  43.0160000
  26.5420000   2.4590000  43.8090000  27.4540000   2.9240000  41.8130000
  28.1930000   2.6600000  41.1770000  26.3310000   3.7020000  41.2590000
  25.4070000   3.3610000  41.7260000  26.4680000   5.2170000  41.5340000
  27.2850000   5.6180000  40.9330000  25.1770000   5.9470000  41.1500000
  24.3540000   5.6190000  41.7830000  25.3140000   7.0210000  41.2740000
  24.9220000   5.7450000  40.1100000  26.7570000   5.5600000  43.0010000
  27.7380000   5.1800000  43.2870000  26.7590000   6.6410000  43.1410000
  25.9980000   5.1140000  43.6450000  26.2590000   3.4140000  39.7560000
  27.1120000   3.8640000  38.9860000  25.2850000   2.6120000  39.3240000
  24.5810000   2.3190000  39.9870000  25.2970000   1.9360000  38.0070000
  25.5710000   2.6720000  37.2510000  26.3680000   0.8100000  38.0000000
  27.3330000   1.2590000  38.2340000  26.1020000  -0.2790000  39.0440000
  25.1270000  -0.7390000  38.8850000  26.8730000  -1.0460000  38.9760000
  26.1390000   0.1510000  40.0450000  26.5170000   0.1300000  36.6350000
  26.7030000   0.8740000  35.8610000  27.3660000  -0.5530000  36.6620000
  25.6240000  -0.4430000  36.3830000  23.9000000   1.4100000  37.6470000
  23.1390000   1.0420000  38.5370000  23.5530000   1.3730000  36.3560000
  24.2230000   1.6770000  35.6650000  22.2740000   0.8490000  35.8530000
  21.6670000   1.6820000  35.4980000  21.7370000   0.3610000  36.6660000
  22.4220000  -0.1730000  34.7160000  23.4960000  -0.3210000  34.1300000
  21.3390000  -0.8940000  34.4060000  20.4890000  -0.7240000  34.9230000
  21.3020000  -1.9530000  33.3730000  22.1100000  -2.6600000  33.5620000
  19.9730000  -2.7280000  33.4260000  19.9580000  -3.4440000  32.6040000
  19.7970000  -3.5150000  34.7220000  19.8150000  -2.8540000  35.5880000
  18.8470000  -4.0500000  34.6950000  20.6060000  -4.2390000  34.8170000
  18.8660000  -1.8590000  33.2820000  18.8270000  -1.5820000  32.3640000
  21.4710000  -1.4540000  31.9300000  21.7790000  -2.2570000  31.0450000
  21.2200000  -0.1690000  31.6610000  20.9930000   0.4450000  32.4300000
  20.8610000   0.3140000  30.3230000  21.6490000   0.0560000  29.6160000
  20.7610000   1.3990000  30.3530000  19.5310000  -0.2790000  29.8320000
  18.8250000  -0.9600000  30.5830000  19.1860000  -0.0160000  28.5690000
  19.8220000   0.5330000  28.0080000  17.9760000  -0.5390000  27.9140000
  17.8640000  -1.5960000  28.1550000  18.1050000  -0.4620000  26.8340000
  16.6630000   0.1780000  28.2700000  15.5850000  -0.3000000  27.9150000
  16.7350000   1.3300000  28.9430000  17.6500000   1.6900000  29.1750000
  15.5890000   2.1880000  29.2860000  14.7760000   1.5590000  29.6490000
  15.9770000   3.1460000  30.4250000  15.0810000   3.6830000  30.7350000
  16.3160000   2.5580000  31.2790000  17.0750000   4.1670000  30.0610000
  16.9780000   5.3150000  30.5520000  18.0110000   3.8370000  29.2920000
  15.0300000   2.9900000  28.0890000  13.8830000   3.4400000  28.1270000
  15.8190000   3.1670000  27.0210000  16.7600000   2.8050000  27.0780000
  15.3950000   3.7510000  25.7390000  14.3840000   3.4140000  25.5080000
  16.0510000   3.3760000  24.9540000  15.4100000   5.2860000  25.6640000
  15.2090000   5.8430000  24.5810000  15.6670000   5.9780000  26.7800000
  15.8540000   5.4490000  27.6190000  15.8340000   7.4430000  26.8450000
  15.3250000   7.8930000  25.9940000  15.2060000   8.0370000  28.1250000
  15.7780000   7.7040000  28.9900000  15.2210000   9.5730000  28.0780000
  14.5980000   9.9320000  27.2590000  14.8360000   9.9710000  29.0170000
  16.2350000   9.9510000  27.9440000  13.7460000   7.6090000  28.3220000
  13.6880000   6.5320000  28.4750000  13.3340000   8.1020000  29.2020000
  13.1510000   7.8810000  27.4500000  17.3240000   7.8020000  26.7610000
  18.1400000   7.2680000  27.5140000  17.6950000   8.7330000  25.8750000
  16.9860000   9.1480000  25.2870000  19.0900000   9.1530000  25.6750000
  19.7480000   8.2990000  25.8400000  19.2520000   9.5900000  24.2050000
  18.9020000   8.7950000  23.5460000  18.6410000  10.4730000  24.0190000
  20.7000000   9.8830000  23.8390000  21.5940000   9.0700000  24.0290000
  20.9850000  11.0440000  23.2950000  20.2580000  11.7280000  23.1430000
  21.9490000  11.2420000  23.0670000  19.4870000  10.2440000  26.6940000
  19.7190000  11.4010000  26.3410000  19.5120000   9.8950000  27.9820000
  19.3080000   8.9340000  28.2180000  19.8090000  10.8180000  29.0950000
  19.2630000  11.7430000  28.9070000  19.3150000  10.2640000  30.4430000
  19.6120000  10.9540000  31.2340000  17.7970000  10.1230000  30.5000000
  17.4710000   9.3040000  29.8580000  17.4910000   9.9180000  31.5260000
  17.3260000  11.0520000  30.1790000  19.8830000   8.9990000  30.6970000
  19.6540000   8.7470000  31.5950000  21.2910000  11.1930000  29.2320000
  22.1920000  10.5070000  28.7390000  21.5530000  12.2890000  29.9550000
  20.7620000  12.8400000  30.2570000  22.8430000  12.5400000  30.6320000
  23.6280000  12.5210000  29.8760000  22.8690000  13.9340000  31.2900000
  23.8500000  14.0730000  31.7450000  22.6930000  15.0370000  30.2440000
  21.6930000  14.9970000  29.8100000  22.8340000  16.0110000  30.7120000
  23.4370000  14.9180000  29.4570000  21.8190000  14.1200000  32.3890000
  22.0220000  13.4500000  33.2250000  21.8620000  15.1500000  32.7430000
  20.8120000  13.9310000  32.0170000  23.1660000  11.4350000  31.6550000
  22.2630000  10.7910000  32.1880000  24.4500000  11.2190000  31.9720000
  25.1580000  11.7990000  31.5450000  24.8960000  10.0910000  32.8120000
  24.2560000   9.2340000  32.6020000  26.3370000   9.6900000  32.4170000
  27.0240000  10.4940000  32.6810000  26.6310000   8.7990000  32.9720000
  26.4920000   9.4110000  30.9320000  26.9970000  10.2360000  30.1900000
  26.0370000   8.2870000  30.4360000  25.5890000   7.5990000  31.0230000
  26.1050000   8.1620000  29.4360000  24.7440000  10.3980000  34.3170000
  25.7280000  10.6210000  35.0250000  23.4980000  10.4050000  34.8090000
  22.7460000  10.2310000  34.1570000  23.1480000  10.7160000  36.2070000
  23.4280000  11.7500000  36.4080000  21.6230000  10.5800000  36.4150000
  21.3300000   9.5680000  36.1330000  21.4010000  10.6980000  37.4750000
  20.7440000  11.5680000  35.6220000  20.9680000  11.4910000  34.5580000
  19.2690000  11.2250000  35.8300000  19.0380000  11.1870000  36.8940000
  18.6390000  11.9720000  35.3470000  19.0490000  10.2550000  35.3850000
  20.9620000  13.0150000  36.0670000  21.9680000  13.3440000  35.8070000
  20.2550000  13.6690000  35.5560000  20.8200000  13.1020000  37.1450000
  23.9420000   9.8680000  37.2130000  24.5250000  10.4310000  38.1360000
  24.0600000   8.5540000  36.9940000  23.4470000   8.1380000  36.3080000
  24.9090000   7.6490000  37.7980000  24.4860000   7.5850000  38.8000000
  24.9180000   6.2390000  37.1870000  25.1370000   6.2990000  36.1210000
  25.6970000   5.6450000  37.6660000  23.6810000   5.5900000  37.3790000
  23.0020000   6.1110000  36.9430000  26.3590000   8.1200000  37.9550000
  26.8910000   8.0980000  39.0600000  27.0160000   8.5570000  36.8760000
  26.5440000   8.5550000  35.9840000  28.4220000   9.0140000  36.9150000
  29.0170000   8.2690000  37.4440000  28.9880000   9.1250000  35.4950000
  28.4150000   9.8560000  34.9240000  30.4680000   9.4950000  35.4570000
  31.0470000   8.7690000  36.0280000  30.8160000   9.5100000  34.4240000
  30.6220000  10.4880000  35.8790000  28.8560000   7.8570000  34.9010000
  29.2280000   7.9020000  34.0170000  28.5820000  10.3290000  37.6740000
  29.4650000  10.4570000  38.5200000  27.6970000  11.2980000  37.4240000
  26.9800000  11.1310000  36.7320000  27.6720000  12.5540000  38.1880000
  28.6520000  13.0270000  38.1270000  26.6340000  13.5070000  37.5800000
  25.6780000  12.9920000  37.4940000  26.5250000  14.3730000  38.2330000
  27.0710000  14.0070000  36.2030000  28.0650000  14.4430000  36.3100000
  27.1450000  13.1640000  35.5150000  26.0010000  15.2730000  35.4680000
  24.7190000  14.2280000  34.7320000  24.2260000  13.6490000  35.5120000
  23.9870000  14.8620000  34.2310000  25.1700000  13.5520000  34.0050000
  27.4010000  12.3010000  39.6780000  28.1220000  12.8090000  40.5340000
  26.4190000  11.4490000  39.9890000  25.8470000  11.0730000  39.2470000
  26.1430000  11.0020000  41.3510000  25.9000000  11.8790000  41.9500000
  24.9150000  10.0860000  41.3390000  24.7370000   9.6920000  42.3400000
  24.0410000  10.6520000  41.0170000  25.0720000   9.2530000  40.6540000
  27.3720000  10.3440000  41.9950000  27.7540000  10.7510000  43.0830000
  28.0430000   9.4020000  41.3250000  27.6700000   9.0850000  40.4420000
  29.2770000   8.7690000  41.8100000  29.0370000   8.1810000  42.6950000
  29.7870000   7.8120000  40.7230000  30.7150000   7.3370000  41.0410000
  29.0410000   7.0400000  40.5320000  29.9880000   8.3530000  39.7990000
  30.3560000   9.7920000  42.2200000  30.8740000   9.7270000  43.3350000
  30.6560000  10.7650000  41.3510000  30.2010000  10.7440000  40.4500000
  31.5710000  11.8850000  41.6450000  32.5530000  11.4690000  41.8710000
  31.7270000  12.7910000  40.3990000  30.7330000  13.0960000  40.0700000
  32.5310000  14.0600000  40.7310000  33.5030000  13.7950000  41.1460000
  32.6910000  14.6570000  39.8330000  31.9920000  14.6830000  41.4450000
  32.4190000  12.0280000  39.2410000  33.4890000  11.9610000  39.4370000
  32.0330000  11.0110000  39.1820000  32.1960000  12.6670000  37.8630000
  32.6520000  13.6570000  37.8180000  32.6520000  12.0390000  37.0980000
  31.1280000  12.7510000  37.6600000  31.1280000  12.6590000  42.9010000
  31.9150000  12.8580000  43.8280000  29.8570000  13.0720000  42.9620000
  29.2600000  12.8770000  42.1700000  29.2840000  13.8090000  44.1090000
  29.9020000  14.6880000  44.2880000  27.8630000  14.3080000  43.7590000
  27.2740000  13.4690000  43.3890000  27.1150000  14.9310000  44.9420000
  27.6810000  15.7730000  45.3400000  26.1380000  15.2870000  44.6150000
  26.9610000  14.1930000  45.7300000  27.9330000  15.3840000  42.6650000
  28.4520000  15.0080000  41.7830000  26.9260000  15.6740000  42.3660000
  28.4660000  16.2610000  43.0330000  29.3240000  12.9910000  45.4140000
  29.6730000  13.5270000  46.4620000  29.0440000  11.6860000  45.3600000
  28.7620000  11.3160000  44.4630000  29.0870000  10.7450000  46.5010000
  28.4910000  11.1560000  47.3160000  28.4650000   9.3910000  46.0980000
  28.9350000   9.0480000  45.1770000  28.6180000   8.2850000  47.1470000
  28.2030000   8.6100000  48.1010000  28.0910000   7.3920000  46.8140000
  29.6700000   8.0300000  47.2770000  26.9620000   9.5380000  45.8520000
  26.7430000  10.4510000  45.2990000  26.6180000   8.6890000  45.2600000
  26.4180000   9.5790000  46.7960000  30.5130000  10.5670000  47.0330000
  30.7250000  10.6280000  48.2450000  31.4990000  10.4320000  46.1400000
  31.2650000  10.3600000  45.1600000  32.9150000  10.4440000  46.5050000
  33.1060000   9.6190000  47.1910000  33.7520000  10.2000000  45.2470000
  34.8050000  10.1360000  45.5220000  33.4490000   9.2610000  44.7830000
  33.6140000  11.0100000  44.5310000  33.3090000  11.7390000  47.2400000
  33.9360000  11.6920000  48.3000000  32.8820000  12.8970000  46.7230000
  32.4070000  12.8770000  45.8320000  33.1200000  14.2010000  47.3480000
  34.1800000  14.2770000  47.5880000  32.8100000  15.2720000  46.3070000
  32.9650000  16.2600000  46.7390000  33.4880000  15.1350000  45.4640000
  31.7800000  15.1830000  45.9620000  32.3490000  14.4190000  48.6700000
  32.7990000  15.1810000  49.5260000  31.2440000  13.6950000  48.8770000
  30.8680000  13.1860000  48.0900000  30.4990000  13.6240000  50.1380000
  30.4740000  14.6160000  50.5880000  29.0520000  13.2260000  49.8100000
  28.4520000  13.2330000  50.7200000  28.6230000  13.9340000  49.1000000
  29.0200000  12.2240000  49.3830000  31.1410000  12.6740000  51.1820000
  30.5950000  12.4970000  52.2740000  32.2900000  12.0620000  50.8650000
  32.6580000  12.2040000  49.9350000  33.1440000  11.3130000  51.8020000
  32.9830000  11.6730000  52.8180000  34.1850000  11.5130000  51.5460000
  32.9520000   9.7910000  51.7980000  33.7000000   9.0760000  52.4670000
  31.9670000   9.2840000  51.0500000  31.4430000   9.9280000  50.4750000
  31.7090000   7.8460000  50.8640000  31.8710000   7.3230000  51.8070000
  30.2390000   7.6290000  50.4610000  30.0210000   8.2500000  49.5920000
  29.9450000   6.1730000  50.0930000  30.2330000   5.5130000  50.9120000
  28.8820000   6.0510000  49.8840000  30.5000000   5.8930000  49.1980000
  29.2810000   8.0430000  51.5860000  29.3890000   9.1060000  51.8030000
  28.2500000   7.8590000  51.2840000  29.4960000   7.4700000  52.4880000
  32.6590000   7.2910000  49.7870000  32.6440000   7.8260000  48.6790000
  33.4800000   6.2510000  50.0400000  33.7250000   5.6150000  51.3230000
  32.9830000   4.8350000  51.4930000  33.7190000   6.3330000  52.1430000
  35.1150000   4.9990000  51.2000000  35.2330000   4.1400000  51.8610000
  35.8690000   5.7570000  51.4120000  35.1910000   4.5980000  49.7280000
  34.7520000   3.6080000  49.6050000  36.2220000   4.6020000  49.3730000
  34.3430000   5.6590000  49.0100000  35.0020000   6.4340000  48.6190000
  33.5250000   5.0510000  47.8590000  32.5490000   4.3410000  48.1010000
  33.9300000   5.2800000  46.6050000  34.7470000   5.8580000  46.4670000
  33.1770000   4.8450000  45.4100000  32.3440000   4.2110000  45.7130000
  32.5830000   6.0430000  44.6400000  33.3930000   6.6820000  44.2890000
  31.7650000   5.5700000  43.4310000  31.0100000   4.8470000  43.7410000
  31.2680000   6.4250000  42.9740000  32.4170000   5.1200000  42.6820000
  31.6570000   6.9000000  45.5010000  32.2330000   7.3620000  46.3040000
  31.2210000   7.6990000  44.9010000  30.8580000   6.2930000  45.9260000
  34.0680000   4.0360000  44.4740000  35.0370000   4.5700000  43.9450000
  33.7390000   2.7670000  44.2220000  32.9020000   2.3980000  44.6490000
  34.3770000   1.9750000  43.1530000  35.1130000   2.5950000  42.6410000
  35.1600000   0.7570000  43.6840000  34.4800000   0.0210000  44.1130000
  35.9510000   0.1230000  42.5340000  36.5360000   0.8790000  42.0090000
  36.6410000  -0.6270000  42.9210000  35.2680000  -0.3570000  41.8340000
  36.1710000   1.1670000  44.7590000  35.6520000   1.5750000  45.6260000
  36.7430000   0.2970000  45.0820000  36.8530000   1.9150000  44.3550000
  33.3160000   1.6150000  42.1150000  32.7040000   0.5480000  42.1660000
  33.0410000   2.5620000  41.2110000  33.6530000   3.3640000  41.1740000
  31.9610000   2.4700000  40.2190000  31.0490000   2.1830000  40.7430000
  31.7270000   3.8660000  39.6050000  31.3230000   4.5230000  40.3750000
  32.6710000   4.2790000  39.2510000  30.7430000   3.7970000  38.4300000
  31.2380000   3.3000000  37.5960000  29.8820000   3.2040000  38.7390000
  30.2490000   5.1700000  37.9500000  29.5660000   5.5800000  38.6940000
  31.0970000   5.8470000  37.8500000  29.5300000   5.0830000  36.5880000
  29.0470000   6.0410000  36.3960000  30.2770000   4.9440000  35.8060000
  28.5220000   3.9750000  36.5390000  27.9110000   4.0160000  37.3430000
  27.9630000   4.0330000  35.7000000  28.9630000   3.0670000  36.5470000
  32.2420000   1.3880000  39.1650000  33.3560000   1.3240000  38.6520000
  31.2360000   0.6010000  38.7800000  30.3570000   0.6920000  39.2690000
  31.2740000  -0.2370000  37.5690000  32.3190000  -0.4400000  37.3360000
  30.5700000  -1.5860000  37.8320000  30.7480000  -1.8740000  38.8680000
  29.4940000  -1.4610000  37.7130000  31.0430000  -2.7490000  36.9820000
  30.3310000  -3.8950000  36.6930000  29.3610000  -4.0830000  36.8990000
  31.1470000  -4.7670000  36.0760000  30.8570000  -5.7500000  35.7360000
  32.3800000  -4.2480000  35.9650000  32.3240000  -2.9860000  36.5560000
  33.1750000  -2.3400000  36.7120000  30.6680000   0.5020000  36.3580000
  29.7620000   1.3300000  36.5140000  31.1500000   0.2250000  35.1440000
  31.9500000  -0.3860000  35.0570000  30.5540000   0.7630000  33.9110000
  30.6180000   1.8510000  33.9260000  29.5000000   0.4860000  33.8840000
  31.1960000   0.2700000  32.6120000  32.1350000  -0.5230000  32.6210000
  30.6760000   0.7560000  31.4830000  29.9260000   1.4290000  31.5590000
  31.0470000   0.3550000  30.1190000  32.1250000   0.1970000  30.0850000
  30.3270000  -0.9830000  29.8050000  30.3560000  -1.6160000  30.6920000
  29.2790000  -0.7860000  29.5770000  30.9330000  -1.8000000  28.6640000
  31.8170000  -1.3610000  27.9430000  30.4740000  -3.0140000  28.4670000
  29.7240000  -3.3830000  29.0330000  30.8450000  -3.5580000  27.7010000
  30.6880000   1.4930000  29.1300000  30.1200000   2.5170000  29.5300000
  31.0450000   1.3500000  27.8490000  31.4920000   0.4810000  27.5940000
  30.5860000   2.2320000  26.7570000  30.7040000   3.2700000  27.0690000
  31.4410000   2.0130000  25.4960000  31.3360000   0.9830000  25.1550000
  31.0730000   2.6730000  24.7110000  32.9280000   2.3230000  25.7340000
  33.0240000   3.2700000  26.2650000  33.3710000   1.5330000  26.3400000
  33.6850000   2.4160000  24.4060000  33.5870000   1.4670000  23.8780000
  33.2370000   3.1920000  23.7860000  35.1180000   2.7030000  24.6100000
  35.7460000   1.9130000  24.5720000  35.6730000   3.8940000  24.7640000
  34.9900000   4.9920000  24.8360000  33.9810000   4.9750000  24.7890000
  35.4890000   5.8690000  24.8800000  36.9640000   4.0220000  24.8460000
  37.5670000   3.2140000  24.7840000  37.3650000   4.9380000  24.9880000
  29.0890000   2.0430000  26.4600000  28.4820000   1.0560000  26.8870000
  28.4900000   2.9900000  25.7360000  29.0490000   3.7770000  25.4380000
  27.0630000   2.9800000  25.3980000  26.5000000   3.0840000  26.3250000
  26.7590000   4.1940000  24.5190000  25.6830000   4.2470000  24.3500000
  27.0820000   5.1150000  25.0040000  27.2710000   4.1030000  23.5610000
  26.5930000   1.6930000  24.6830000  27.2190000   1.2380000  23.7210000
  25.4440000   1.1530000  25.1110000  25.0210000   1.5290000  25.9470000
  24.7290000   0.0810000  24.4080000  25.4470000  -0.5270000  23.8570000
  24.0620000  -0.8300000  25.4490000  23.5500000  -1.6470000  24.9420000
  24.8180000  -1.2440000  26.1150000  23.3330000  -0.2720000  26.0370000
  23.7150000   0.6360000  23.3830000  23.7660000   0.2750000  22.2040000
  22.8150000   1.5250000  23.8310000  22.8290000   1.7440000  24.8180000
  21.6740000   2.0500000  23.0480000  21.8060000   1.7920000  21.9970000
  20.3740000   1.3790000  23.5260000  20.1710000   1.6820000  24.5530000
  19.5470000   1.7060000  22.8960000  20.4650000  -0.0380000  23.4620000
  19.6120000  -0.4040000  23.7060000  21.5410000   3.5860000  23.1100000
  20.4520000   4.1320000  22.9120000  22.6500000   4.2900000  23.3680000
  23.5190000   3.7770000  23.4200000  22.7100000   5.7450000  23.6310000
  21.8180000   6.2270000  23.2320000  22.7500000   5.9980000  25.1510000
  23.6620000   5.5680000  25.5640000  22.7540000   7.0710000  25.3430000
  21.6250000   5.4210000  25.7970000  21.6840000   5.6010000  26.7380000
  23.9300000   6.4010000  22.9570000  24.7980000   5.7090000  22.4210000
  24.0140000   7.7370000  22.9780000  23.2470000   8.2590000  23.3780000
  25.1190000   8.4900000  22.3530000  25.4570000   7.9470000  21.4700000
  24.6000000   9.8590000  21.8690000  23.8910000  10.2640000  22.5920000
  25.4500000  10.5400000  21.8260000  23.9740000   9.8600000  20.4620000
  24.7030000   9.4660000  19.7540000  22.6910000   9.0360000  20.3500000
  21.9610000   9.3720000  21.0860000  22.2710000   9.1470000  19.3510000
  22.9120000   7.9810000  20.5090000  23.6500000  11.2990000  20.0590000
  24.5540000  11.9070000  20.1020000  23.2700000  11.3170000  19.0380000
  22.9000000  11.7200000  20.7290000  26.3760000   8.6380000  23.2440000
  27.4440000   8.9550000  22.7170000  26.2920000   8.3720000  24.5580000
  25.3830000   8.1520000  24.9400000  27.4580000   8.3390000  25.4650000
  28.2800000   7.8460000  24.9450000  27.9250000   9.7600000  25.7990000
  28.0330000  10.3340000  24.8780000  27.1910000  10.2600000  26.4310000
  29.1780000   9.7020000  26.4530000  29.1010000   9.9910000  27.3650000
  27.1950000   7.5630000  26.7620000  26.3290000   7.9410000  27.5560000
  27.9370000   6.4760000  26.9870000  28.6460000   6.2310000  26.3110000
  27.9280000   5.7110000  28.2400000  28.3240000   4.7130000  28.0490000
  26.9060000   5.6070000  28.6030000  28.7780000   6.3590000  29.3350000
  29.4210000   7.3880000  29.1220000  28.8280000   5.7300000  30.5120000
  28.2850000   4.8880000  30.6350000  29.6550000   6.2010000  31.6320000
  29.5300000   5.5340000  32.4840000  29.3230000   7.1990000  31.9180000
  31.1430000   6.2700000  31.2790000  31.7840000   7.2940000  31.5080000
  31.6710000   5.2120000  30.6550000  31.0790000   4.4120000  30.4800000
  33.0570000   5.1650000  30.1800000  33.7160000   5.3360000  31.0310000
  33.3360000   3.7620000  29.6340000  34.3910000   3.6720000  29.3730000
  33.0990000   3.0130000  30.3890000  32.7360000   3.5800000  28.7420000
  33.3580000   6.2540000  29.1300000  34.3470000   6.9720000  29.2510000
  32.4860000   6.4030000  28.1250000  31.6770000   5.7990000  28.1090000
  32.5950000   7.4320000  27.0780000  33.5170000   7.2680000  26.5200000
  31.4170000   7.3130000  26.1000000  30.5020000   7.5300000  26.6520000
  31.5300000   8.0650000  25.3190000  31.2720000   5.9340000  25.4460000
  32.2640000   5.4370000  24.8620000  30.1570000   5.3630000  25.5210000
  32.6530000   8.8580000  27.6540000  33.5260000   9.6500000  27.2890000
  31.7480000   9.1900000  28.5810000  31.0100000   8.5320000  28.7900000
  31.7130000  10.5080000  29.2300000  31.7450000  11.2680000  28.4490000
  30.3890000  10.6990000  29.9780000  30.2590000   9.8920000  30.6990000
  30.2750000  12.0440000  30.6910000  30.4660000  12.8500000  29.9830000
  29.2740000  12.1570000  31.1090000  30.9960000  12.1030000  31.5070000
  29.3350000  10.6570000  29.0420000  28.5270000  10.4920000  29.5340000
  32.9340000  10.7490000  30.1290000  33.5290000  11.8240000  30.0630000
  33.3570000   9.7650000  30.9380000  32.8450000   8.8950000  30.9520000
  34.5960000   9.8560000  31.7320000  34.5330000  10.7320000  32.3780000
  34.7650000   8.6000000  32.6090000  34.6110000   7.7180000  31.9860000
  35.7930000   8.5590000  32.9710000  33.8240000   8.5270000  33.8250000
  32.7900000   8.6090000  33.4910000  34.0000000   7.1840000  34.5290000
  35.0190000   7.0830000  34.9030000  33.3010000   7.1080000  35.3620000
  33.7950000   6.3740000  33.8290000  34.0920000   9.6340000  34.8470000
  33.8410000  10.6090000  34.4300000  33.4740000   9.4770000  35.7310000
  35.1400000   9.6240000  35.1450000  35.8400000  10.0720000  30.8520000
  36.6530000  10.9530000  31.1350000  35.9590000   9.3180000  29.7590000
  35.2670000   8.6000000  29.6000000  36.9990000   9.4870000  28.7410000
  37.9680000   9.3230000  29.2120000  36.8070000   8.4020000  27.6720000
  36.8670000   7.4270000  28.1560000  35.8120000   8.5040000  27.2390000
  37.8350000   8.4300000  26.5390000  37.7860000   9.3900000  26.0240000
  38.8340000   8.3160000  26.9610000  37.5410000   7.2990000  25.5380000
  36.4650000   7.3030000  24.8950000  38.3610000   6.3620000  25.3930000
  37.0170000  10.9140000  28.1540000  38.0770000  11.5400000  28.0950000
  35.8550000  11.4630000  27.7760000  35.0210000  10.8950000  27.8130000
  35.7220000  12.8450000  27.2940000  36.4290000  12.9870000  26.4770000
  34.3140000  13.0310000  26.7220000  34.1850000  14.0590000  26.3820000
  34.1850000  12.3640000  25.8690000  33.5610000  12.8070000  27.4780000
  36.0550000  13.9170000  28.3580000  36.5360000  15.0000000  28.0120000
  35.8590000  13.6160000  29.6470000  35.3990000  12.7420000  29.8580000
  36.3170000  14.4410000  30.7770000  36.1480000  15.4910000  30.5360000
  35.4960000  14.0920000  32.0350000  35.5330000  13.0130000  32.1870000
  35.9540000  14.5560000  32.9080000  34.0270000  14.5390000  31.9670000
  33.5870000  14.2490000  31.0130000  33.2330000  13.8640000  33.0820000
  33.6290000  14.1520000  34.0560000  32.1870000  14.1610000  33.0070000
  33.2930000  12.7820000  32.9710000  33.8930000  16.0550000  32.1240000
  34.3660000  16.5640000  31.2840000  32.8400000  16.3320000  32.1470000
  34.3690000  16.3870000  33.0460000  37.8300000  14.3120000  31.0600000
  38.3710000  15.0920000  31.8450000  38.5220000  13.3550000  30.4310000
  38.0240000  12.7540000  29.7890000  39.9490000  13.0820000  30.6410000
  40.4860000  14.0210000  30.7700000  40.3440000  12.5950000  29.7500000
  40.2600000  12.1830000  31.8470000  41.4290000  12.0280000  32.2050000
  39.2430000  11.5770000  32.4730000  38.3200000  11.6870000  32.0760000
  39.4150000  10.5200000  33.4840000  40.2240000  10.7980000  34.1590000
  38.1350000  10.3390000  34.3260000  37.2860000  10.1820000  33.6610000
  38.2300000   9.1350000  35.2690000  39.0940000   9.2350000  35.9260000
  37.3280000   9.0750000  35.8780000  38.3060000   8.2060000  34.7030000
  37.8530000  11.5860000  35.1720000  37.7120000  12.4530000  34.5260000
  36.9410000  11.4380000  35.7500000  38.6810000  11.7740000  35.8560000
  39.7950000   9.2180000  32.7750000  39.0900000   8.7750000  31.8650000
  40.9150000   8.5960000  33.1700000  41.4510000   8.9930000  33.9290000
  41.3840000   7.3460000  32.5480000  41.3060000   7.4600000  31.4670000
  42.8660000   7.0850000  32.8770000  43.0330000   7.1400000  33.9530000
  43.1120000   6.0740000  32.5530000  43.7860000   8.0870000  32.1520000
  43.2600000   8.5190000  31.3000000  44.0470000   8.9030000  32.8270000
  45.0600000   7.4330000  31.6060000  44.7840000   6.5960000  30.9650000
  45.5710000   8.1650000  30.9820000  45.9870000   7.0130000  32.6740000
  46.3660000   7.7520000  33.2490000  46.5410000   5.8250000  32.8310000
  46.1710000   4.7710000  32.1630000  45.3230000   4.7920000  31.6140000
  46.6530000   3.8910000  32.2750000  47.5060000   5.6840000  33.6930000
  47.8100000   6.4790000  34.2370000  47.9530000   4.7870000  33.8260000
  40.4910000   6.1580000  32.9280000  40.3180000   5.8450000  34.1050000
  39.9510000   5.4940000  31.9020000  40.1120000   5.8700000  30.9790000
  39.0840000   4.3030000  32.0090000  38.7070000   4.2310000  33.0300000
  37.8570000   4.4500000  31.0770000  37.2640000   3.5410000  31.1780000
  36.9730000   5.6230000  31.5380000  37.4760000   6.5750000  31.3700000
  36.0350000   5.6210000  30.9830000  36.7440000   5.5250000  32.5990000
  38.2580000   4.5910000  29.5890000  38.6510000   5.5920000  29.4060000
  39.0450000   3.8740000  29.3540000  37.1050000   4.3290000  28.6160000
  36.3090000   5.0590000  28.7630000  37.4740000   4.4180000  27.5940000
  36.7170000   3.3220000  28.7650000  39.8280000   2.9810000  31.7340000
  39.2510000   1.9070000  31.8810000  41.1140000   3.0370000  31.3760000
  41.5690000   3.9370000  31.3240000  41.9390000   1.8780000  30.9930000
  41.2840000   1.0590000  30.6930000  42.7940000   2.2460000  29.7650000
  43.3020000   1.3460000  29.4190000  42.1230000   2.5620000  28.9670000
  43.8400000   3.3580000  29.9880000  43.7480000   4.1360000  30.9680000
  44.7700000   3.4690000  29.1540000  42.8150000   1.3460000  32.1510000
  43.7030000   0.5130000  31.9430000  42.5560000   1.8090000  33.3790000
  41.7860000   2.4570000  33.4680000  43.2510000   1.3970000  34.6000000
  44.3210000   1.5380000  34.4520000  42.7910000   2.2920000  35.7700000
  41.7300000   2.1060000  35.9430000  43.3230000   1.9830000  36.6700000
  42.9670000   3.8120000  35.5850000  42.2850000   4.1560000  34.8080000
  42.6170000   4.5210000  36.8930000  43.3060000   4.2190000  37.6810000
  42.6770000   5.6000000  36.7520000  41.5990000   4.2650000  37.1870000
  44.3860000   4.2160000  35.1880000  44.6160000   3.8120000  34.2020000
  44.4600000   5.3030000  35.1420000  45.1090000   3.8400000  35.9120000
  43.0060000  -0.0910000  34.9240000  41.8620000  -0.5530000  34.9440000
  44.0820000  -0.8320000  35.2180000  44.9930000  -0.4030000  35.1460000
  44.0130000  -2.1810000  35.7980000  44.9780000  -2.6740000  35.6770000
  43.2600000  -2.7590000  35.2620000  43.6590000  -2.1760000  37.2950000
  43.5930000  -1.1040000  37.9030000  43.4890000  -3.3560000  37.9270000
  43.5970000  -4.6720000  37.3070000  44.6490000  -4.9260000  37.1780000
  43.0790000  -4.7110000  36.3480000  42.9500000  -5.6560000  38.2780000
  43.4450000  -6.6270000  38.2510000  41.8910000  -5.7650000  38.0430000
  43.1120000  -4.9830000  39.6390000  44.0770000  -5.2630000  40.0620000
  42.3030000  -5.2690000  40.3120000  43.0720000  -3.4820000  39.3280000
  42.0390000  -3.1400000  39.4010000  43.9130000  -2.6660000  40.3190000
  43.3600000  -1.9350000  41.1390000  45.2440000  -2.7430000  40.2230000
  45.6320000  -3.3840000  39.5450000  46.1750000  -1.9840000  41.0770000
  45.9680000  -2.2300000  42.1190000  47.6330000  -2.3790000  40.7750000
  47.8500000  -2.1300000  39.7360000  48.2870000  -1.7730000  41.4010000
  47.9830000  -3.8610000  41.0120000  47.2550000  -4.5810000  41.7350000
  49.0310000  -4.3070000  40.4830000  46.0130000  -0.4600000  40.9270000
  46.0430000   0.2790000  41.9120000  45.8370000   0.0230000  39.6920000
  45.7820000  -0.6350000  38.9280000  45.6440000   1.4480000  39.4060000
  46.3410000   2.0120000  40.0260000  45.9930000   1.7490000  37.9410000
  45.3160000   1.1870000  37.2980000  45.8250000   2.8130000  37.7760000
  47.4400000   1.4130000  37.5280000  47.5950000   0.3360000  37.5940000
  47.6600000   1.8420000  36.0780000  47.5570000   2.9240000  35.9900000
  48.6600000   1.5500000  35.7590000  46.9300000   1.3560000  35.4310000
  48.4900000   2.1160000  38.3920000  48.4650000   1.7190000  39.4070000
  49.4840000   1.9360000  37.9810000  48.3010000   3.1890000  38.4110000
  44.2500000   1.9630000  39.8010000  44.1340000   3.0920000  40.2760000
  43.1980000   1.1430000  39.6940000  43.3310000   0.2440000  39.2520000
  41.8710000   1.4800000  40.2500000  41.6120000   2.4880000  39.9250000
  40.7670000   0.5360000  39.7350000  41.0340000  -0.4970000  39.9600000
  39.4070000   0.8460000  40.3710000  39.1360000   1.8860000  40.1860000
  38.6470000   0.1980000  39.9340000  39.4270000   0.6590000  41.4440000
  40.5890000   0.6900000  38.2230000  41.4920000   0.3690000  37.7030000
  39.7610000   0.0700000  37.8790000  40.3760000   1.7300000  37.9720000
  41.9120000   1.5130000  41.7820000  41.3660000   2.4360000  42.3860000
  42.6120000   0.5670000  42.4170000  43.0090000  -0.1870000  41.8750000
  42.8760000   0.5850000  43.8550000  41.9220000   0.5620000  44.3800000
  43.6450000  -0.6850000  44.2230000  43.8580000  -0.6820000  45.2920000
  43.0450000  -1.5620000  43.9780000  44.5950000  -0.7360000  43.6900000
  43.6080000   1.8690000  44.2990000  43.1510000   2.5500000  45.2230000
  44.6900000   2.2570000  43.5990000  45.0630000   1.6210000  42.9090000
  45.3390000   3.5690000  43.7780000  45.7110000   3.6400000  44.8000000
  46.5220000   3.7600000  42.8170000  46.2660000   3.3890000  41.8240000
  46.6910000   4.8340000  42.7360000  47.8350000   3.1140000  43.2860000
  48.0360000   3.4020000  44.3180000  47.7460000   2.0280000  43.2380000
  49.0070000   3.5720000  42.4020000  49.9110000   3.0490000  42.7110000
  48.7840000   3.3010000  41.3700000  49.2240000   5.0290000  42.5160000
  48.9500000   5.4620000  43.3870000  49.6360000   5.8600000  41.5820000
  50.0870000   5.4540000  40.4350000  50.1330000   4.4660000  40.2310000
  50.2410000   6.1250000  39.6970000  49.5900000   7.1410000  41.7800000
  49.1640000   7.4990000  42.6230000  49.9050000   7.7610000  41.0480000
  44.3610000   4.7350000  43.6100000  44.3420000   5.6150000  44.4620000
  43.5380000   4.7370000  42.5580000  43.6530000   4.0050000  41.8700000
  42.5270000   5.7770000  42.3110000  43.0410000   6.7250000  42.1550000
  41.7360000   5.4620000  41.0350000  42.4320000   5.2280000  40.2300000
  41.0930000   4.5960000  41.1940000  40.9380000   6.5600000  40.6400000
  40.2360000   6.6900000  41.2810000  41.5950000   5.9500000  43.5160000
  41.4620000   7.0500000  44.0560000  41.0070000   4.8480000  43.9960000
  41.1700000   3.9720000  43.5210000  40.1670000   4.8380000  45.1950000
  39.3040000   5.4710000  44.9910000  39.6650000   3.3980000  45.4360000
  39.2180000   3.0420000  44.5080000  40.5210000   2.7560000  45.6430000
  38.6250000   3.1810000  46.5550000  38.2580000   2.1610000  46.4410000
  39.1740000   3.2870000  47.9750000  39.4300000   4.3160000  48.2290000
  38.4090000   2.9560000  48.6770000  40.0520000   2.6510000  48.0830000
  37.4280000   4.1240000  46.4370000  37.0720000   4.1410000  45.4070000
  36.6220000   3.7690000  47.0800000  37.7050000   5.1350000  46.7380000
  40.8980000   5.4430000  46.4070000  40.3790000   6.3690000  47.0280000
  42.1030000   4.9600000  46.7220000  42.4770000   4.2040000  46.1660000
  42.8990000   5.4260000  47.8590000  42.3020000   5.3130000  48.7640000
  44.1170000   4.5030000  47.9860000  44.7060000   4.7870000  48.8580000
  43.7880000   3.4700000  48.1050000  44.7410000   4.5790000  47.0950000
  43.3210000   6.9130000  47.7720000  43.1920000   7.6550000  48.7490000
  43.8470000   7.3480000  46.6230000  43.9340000   6.6810000  45.8690000
  44.4870000   8.6640000  46.4320000  44.9360000   8.9750000  47.3760000
  45.6330000   8.5480000  45.4030000  45.2360000   8.1630000  44.4640000
  46.0430000   9.5400000  45.2190000  46.7700000   7.6340000  45.9000000
  47.2290000   8.0990000  46.7720000  46.3490000   6.6820000  46.2220000
  47.8650000   7.3520000  44.8480000  48.1820000   8.2060000  43.9840000
  48.4610000   6.2510000  44.8890000  43.5080000   9.7880000  46.0330000
  43.8000000  10.9640000  46.2680000  42.3450000   9.4430000  45.4620000
  42.2110000   8.4660000  45.2430000  41.3180000  10.3940000  44.9800000
  41.6930000  11.4130000  45.0820000  41.0080000  10.1660000  43.4820000
  40.4430000   9.2400000  43.3760000  40.1510000  11.2860000  42.8850000
  40.6920000  12.2310000  42.8990000  39.8960000  11.0220000  41.8580000
  39.2160000  11.4000000  43.4350000  42.2690000  10.0640000  42.6130000
  42.8730000   9.2090000  42.9160000  41.9870000   9.9130000  41.5700000
  42.8620000  10.9740000  42.7050000  40.0160000  10.3100000  45.7930000
  39.3380000  11.3200000  45.9770000  39.6480000   9.1150000  46.2710000
  40.2870000   8.3400000  46.1670000  38.3400000   8.8160000  46.8790000
  37.8640000   9.7330000  47.2260000  38.4980000   8.1810000  47.7510000
  37.3600000   8.0930000  45.9380000  36.2750000   7.6920000  46.3640000
  37.7370000   7.9070000  44.6650000  38.6540000   8.2290000  44.3910000
  36.9280000   7.2530000  43.6260000  36.2400000   6.5790000  44.1360000
  36.0690000   8.2800000  42.8500000  35.4540000   8.7970000  43.5870000
  36.9220000   9.3370000  42.1290000  37.6090000   8.8650000  41.4260000
  36.2860000  10.0220000  41.5680000  37.4940000   9.9150000  42.8540000
  35.1190000   7.5770000  41.8550000  35.6700000   7.2840000  40.9610000
  34.7270000   6.6690000  42.3120000  33.9120000   8.4330000  41.4490000
  34.2360000   9.3340000  40.9280000  33.2680000   7.8590000  40.7830000
  33.3440000   8.7160000  42.3350000  37.7900000   6.3990000  42.6870000
  38.8830000   6.7980000  42.2860000  37.2920000   5.2160000  42.3350000
  36.4050000   4.9500000  42.7400000  37.8040000   4.3610000  41.2630000
  38.1860000   3.4420000  41.7080000  38.6170000   4.8560000  40.7320000
  36.6990000   4.0040000  40.2600000  35.5180000   3.9950000  40.6110000
  37.0820000   3.6670000  39.0260000  38.0650000   3.6910000  38.7960000
  36.1660000   3.2090000  37.9770000  35.1840000   3.0180000  38.4100000
  35.9870000   4.3020000  36.9140000  35.5340000   5.1720000  37.3880000
  36.9640000   4.6000000  36.5340000  35.1030000   3.9020000  35.7470000
  35.6700000   3.5060000  34.5210000  36.7430000   3.4690000  34.4080000
  34.8400000   3.1690000  33.4360000  35.2760000   2.8830000  32.4900000
  33.4430000   3.2130000  33.5780000  32.8060000   2.9590000  32.7430000
  32.8740000   3.5950000  34.8050000  31.8000000   3.6310000  34.9120000
  33.7030000   3.9430000  35.8860000  33.2670000   4.2570000  36.8230000
  36.6730000   1.9020000  37.3570000  37.7550000   1.8490000  36.7690000
  35.8690000   0.8500000  37.4860000  34.9920000   0.9870000  37.9690000
  36.0920000  -0.4600000  36.8910000  37.1590000  -0.6260000  36.7370000
  35.5790000  -1.5410000  37.8550000  34.5350000  -1.3440000  38.0960000
  35.6600000  -2.5190000  37.3790000  36.5520000  -1.5280000  39.3870000
  35.7590000  -2.3300000  40.1030000  35.3730000  -0.5110000  35.5350000
  34.1430000  -0.5620000  35.4680000  36.1460000  -0.4870000  34.4500000
  37.1450000  -0.4040000  34.5730000  35.6420000  -0.6330000  33.0860000
  34.6950000  -0.1010000  32.9980000  36.6480000   0.0170000  32.1290000
  36.7630000   1.0640000  32.4100000  37.6180000  -0.4620000  32.2610000
  36.2630000  -0.0320000  30.6650000  35.0680000   0.5720000  30.2300000
  34.4160000   1.0560000  30.9410000  34.7270000   0.5540000  28.8670000
  33.8130000   1.0240000  28.5330000  35.5740000  -0.0690000  27.9340000
  35.3100000  -0.0820000  26.8870000  36.7660000  -0.6750000  28.3660000
  37.4190000  -1.1520000  27.6500000  37.1110000  -0.6550000  29.7290000
  38.0350000  -1.1100000  30.0530000  35.3990000  -2.1150000  32.7700000
  36.3500000  -2.8850000  32.6400000  34.1390000  -2.5380000  32.6830000
  33.4030000  -1.8540000  32.7860000  33.7460000  -3.9500000  32.6550000
  33.9740000  -4.3480000  33.6430000  32.2240000  -4.0510000  32.4930000
  31.9160000  -5.0800000  32.6770000  31.7300000  -3.4110000  33.2240000
  31.9070000  -3.7580000  31.4930000  34.5370000  -4.8370000  31.6550000
  35.0000000  -5.9050000  32.0720000  34.8030000  -4.4180000  30.3970000
  34.2530000  -3.2530000  29.7160000  34.8690000  -2.3810000  29.9340000
  33.2190000  -3.0520000  29.9940000  34.3330000  -3.5760000  28.2290000
  34.3810000  -2.6750000  27.6180000  33.4830000  -4.1950000  27.9430000
  35.6190000  -4.3920000  28.1470000  36.4710000  -3.7120000  28.1230000
  35.6260000  -5.0460000  27.2750000  35.6180000  -5.1940000  29.4540000
  35.1190000  -6.1460000  29.2750000  37.0580000  -5.4760000  29.9250000
  37.6030000  -6.5420000  29.6300000  37.6790000  -4.5450000  30.6720000
  37.1540000  -3.7200000  30.9230000  39.0320000  -4.6990000  31.2520000
  39.6840000  -5.0960000  30.4740000  39.5680000  -3.3090000  31.6740000
  39.6420000  -2.6790000  30.7870000  38.8520000  -2.8390000  32.3490000
  40.9330000  -3.2960000  32.3880000  41.1920000  -2.2640000  32.6250000
  40.8530000  -3.8360000  33.3320000  42.0580000  -3.8990000  31.5360000
  41.7640000  -4.8770000  31.1560000  42.2280000  -3.2500000  30.6770000
  43.3120000  -4.0290000  32.3040000  43.9790000  -3.2790000  32.1960000
  43.6900000  -5.0570000  33.0430000  42.9120000  -6.0760000  33.2840000
  41.9690000  -6.0860000  32.9220000  43.2450000  -6.8640000  33.8200000
  44.8800000  -5.0760000  33.5700000  45.5380000  -4.3370000  33.3680000
  45.1920000  -5.8730000  34.1070000  39.0770000  -5.7110000  32.4060000
  40.1250000  -6.3170000  32.6350000  37.9690000  -5.8930000  33.1270000
  37.1600000  -5.3420000  32.8760000  37.9000000  -6.7090000  34.3500000
  38.9100000  -6.9280000  34.6970000  37.2220000  -5.8860000  35.4520000
  36.3230000  -5.4130000  35.0570000  36.9080000  -6.5650000  36.2440000
  38.1290000  -4.8290000  36.0630000  38.8040000  -5.1050000  37.2660000
  38.6730000  -6.0600000  37.7520000  39.6440000  -4.1390000  37.8450000
  40.1440000  -4.3540000  38.7780000  39.8400000  -2.9020000  37.2100000
  40.5020000  -2.1700000  37.6470000  39.1740000  -2.6220000  36.0050000
  39.3310000  -1.6730000  35.5130000  38.3110000  -3.5790000  35.4420000
  37.7960000  -3.3550000  34.5190000  37.2130000  -8.0760000  34.1690000
  37.4900000  -8.9890000  34.9500000  36.3970000  -8.2460000  33.1210000
  36.1700000  -7.4310000  32.5710000  35.6940000  -9.4950000  32.7790000
  36.0040000 -10.2860000  33.4620000  34.1800000  -9.2790000  32.9830000
  33.8320000  -8.5170000  32.2870000  33.6510000 -10.2040000  32.7570000
  33.8030000  -8.8630000  34.3790000  33.6180000  -9.6970000  35.4610000
  33.6710000 -10.7050000  35.4630000  33.3510000  -8.9250000  36.5280000
  33.1520000  -9.2960000  37.5230000  33.3790000  -7.6260000  36.1930000
  33.6600000  -7.5770000  34.8250000  33.7650000  -6.6860000  34.2250000
  36.0030000  -9.9960000  31.3450000  35.0740000 -10.3470000  30.6150000
  37.2780000 -10.0990000  30.9080000  38.4920000  -9.9700000  31.7050000
  38.3980000 -10.4750000  32.6670000  38.7250000  -8.9150000  31.8510000
  39.5960000 -10.6190000  30.8760000  39.5910000 -11.6980000  31.0300000
  40.5750000 -10.1980000  31.1030000  39.1630000 -10.2940000  29.4490000
  39.5970000 -10.9880000  28.7290000  39.4540000  -9.2710000  29.2110000
  37.6330000 -10.3860000  29.5080000  37.2170000  -9.6110000  28.8650000
  37.1220000 -11.7470000  28.9960000  36.8950000 -11.9100000  27.7960000
  36.8810000 -12.7110000  29.8910000  37.1670000 -12.5510000  30.8470000
  36.2860000 -14.0210000  29.5730000  36.7990000 -14.4350000  28.7050000
  36.5170000 -14.9820000  30.7470000  35.9850000 -14.6130000  31.6240000
  36.1300000 -15.9690000  30.4910000  37.9000000 -15.0800000  31.0500000
  38.0180000 -15.7540000  31.7230000  34.7830000 -13.9700000  29.2310000
  34.2490000 -14.9340000  28.6830000  34.0870000 -12.8570000  29.5110000
  34.5710000 -12.0820000  29.9420000  32.6520000 -12.6680000  29.2240000
  32.1560000 -13.6350000  29.3040000  32.0460000 -11.7560000  30.3040000
  32.4350000 -10.7460000  30.1740000  32.3650000 -12.0990000  31.2880000
  30.5290000 -11.7100000  30.3060000  29.7920000 -12.8170000  30.7720000
  30.3030000 -13.6940000  31.1430000  28.3840000 -12.7800000  30.7630000
  27.8220000 -13.6270000  31.1280000  27.7090000 -11.6360000  30.2820000
  26.3500000 -11.6070000  30.2390000  25.9720000 -12.4730000  30.4060000
  28.4500000 -10.5310000  29.8150000  27.9300000  -9.6610000  29.4430000
  29.8560000 -10.5670000  29.8350000  30.4200000  -9.7170000  29.4800000
  32.3660000 -12.1420000  27.7970000  31.2100000 -12.0580000  27.3800000
  33.4140000 -11.8400000  27.0120000  34.3290000 -11.9300000  27.4300000
  33.3590000 -11.2460000  25.6570000  33.1130000 -10.1880000  25.7530000
  34.7590000 -11.3750000  25.0330000  35.4970000 -11.0820000  25.7790000
  34.9340000 -12.4180000  24.7720000  34.9870000 -10.4910000  23.7940000
  34.1380000 -10.5720000  23.1160000  35.0570000  -9.4520000  24.1190000
  36.2590000 -10.8510000  23.0040000  35.9880000 -11.5550000  22.2180000
  36.6250000  -9.9510000  22.5100000  37.3380000 -11.4100000  23.8540000
  37.7730000 -10.7720000  24.5060000  37.7550000 -12.6660000  23.8960000
  37.2960000 -13.5810000  23.0900000  36.6020000 -13.3320000  22.4000000
  37.5980000 -14.5430000  23.1620000  38.6470000 -13.0390000  24.7680000
  38.9980000 -12.3810000  25.4490000  38.9660000 -13.9970000  24.7930000
  32.3010000 -11.8740000  24.7430000  31.5360000 -11.1560000  24.1030000
  32.2440000 -13.2080000  24.6950000  32.9220000 -13.7240000  25.2380000
  31.2780000 -13.9630000  23.8860000  31.4240000 -13.6900000  22.8410000
  31.5530000 -15.4700000  24.0250000  31.2550000 -15.7990000  25.0210000
  30.9410000 -16.0050000  23.3000000  32.9980000 -15.8500000  23.8100000
  33.8110000 -16.4970000  24.7150000  33.5470000 -16.8200000  25.6350000
  35.0210000 -16.6560000  24.1510000  35.8630000 -17.1370000  24.6270000
  35.0330000 -16.1370000  22.9090000  33.7450000 -15.6290000  22.6820000
  33.3980000 -15.1430000  21.7820000  29.8190000 -13.6310000  24.2440000
  29.0210000 -13.3160000  23.3620000  29.4680000 -13.6510000  25.5340000
  30.1790000 -13.8390000  26.2260000  28.1390000 -13.2700000  26.0110000
  27.3980000 -13.8660000  25.4780000  28.0330000 -13.6090000  27.4950000
  27.0470000 -13.3310000  27.8670000  28.1750000 -14.6800000  27.6380000
  28.7990000 -13.0680000  28.0520000  27.8140000 -11.7930000  25.7370000
  26.7290000 -11.4930000  25.2370000  28.7570000 -10.8800000  25.9970000
  29.6130000 -11.1900000  26.4370000  28.6160000  -9.4560000  25.6800000
  27.7690000  -9.0630000  26.2430000  29.8750000  -8.7200000  26.1440000
  29.7570000  -7.6520000  25.9630000  30.0230000  -8.8860000  27.2120000
  30.7500000  -9.0760000  25.6010000  28.3280000  -9.2030000  24.1850000
  27.4180000  -8.4440000  23.8430000  29.0670000  -9.8700000  23.2900000
  29.8300000 -10.4380000  23.6290000  28.8100000  -9.8640000  21.8520000
  28.8320000  -8.8300000  21.5070000  29.9400000 -10.6190000  21.1420000
  29.7790000 -10.5870000  20.0650000  30.8980000 -10.1520000  21.3700000
  29.9650000 -11.6600000  21.4660000  27.4200000 -10.4300000  21.4990000
  26.6390000  -9.7540000  20.8290000  27.0700000 -11.6320000  21.9780000
  27.7510000 -12.1540000  22.5100000  25.7550000 -12.2530000  21.7180000
  25.6410000 -12.3360000  20.6380000  25.6740000 -13.6850000  22.2800000
  25.9790000 -13.6790000  23.3260000  24.2590000 -14.2720000  22.1870000
  23.8830000 -14.1730000  21.1690000  24.2750000 -15.3300000  22.4480000
  23.5870000 -13.7600000  22.8750000  26.5930000 -14.6240000  21.4880000
  27.6140000 -14.2430000  21.4690000  26.6020000 -15.6110000  21.9490000
  26.2390000 -14.7090000  20.4600000  24.5900000 -11.3780000  22.1950000
  23.6080000 -11.2390000  21.4680000  24.7020000 -10.7230000  23.3610000
  25.5150000 -10.9120000  23.9290000  23.7060000  -9.7610000  23.8730000
  22.7680000 -10.2930000  24.0270000  24.1860000  -9.2220000  25.2360000
  24.4130000 -10.0650000  25.8890000  25.1020000  -8.6500000  25.0870000
  23.1370000  -8.3370000  25.9330000  22.8500000  -7.5180000  25.2740000
  22.2480000  -8.9360000  26.1310000  23.6370000  -7.7510000  27.2660000
  22.8450000  -7.1480000  27.7090000  23.8400000  -8.5770000  27.9490000
  24.8690000  -6.9400000  27.1340000  25.6960000  -7.2810000  27.6030000
  25.0460000  -5.7700000  26.5540000  24.0870000  -5.1230000  25.9470000
  23.1520000  -5.5050000  25.9420000  24.2590000  -4.2350000  25.4980000
  26.2240000  -5.2250000  26.5850000  26.9670000  -5.6970000  27.0810000
  26.3840000  -4.2970000  26.2200000  23.4110000  -8.6330000  22.8690000
  22.2470000  -8.2840000  22.6680000  24.4460000  -8.0930000  22.2100000
  25.3680000  -8.4390000  22.4310000  24.3000000  -7.1260000  21.1020000
  23.6030000  -6.3460000  21.4070000  25.6460000  -6.4550000  20.7770000
  26.4080000  -7.2100000  20.5840000  25.5190000  -5.8640000  19.8700000
  26.1140000  -5.5150000  21.8980000  25.3080000  -4.8160000  22.1210000
  26.3390000  -6.0830000  22.8010000  27.3440000  -4.7000000  21.4810000
  27.1520000  -4.2420000  20.5110000  27.4840000  -3.8850000  22.1920000
  28.5740000  -5.5200000  21.3980000  28.7930000  -5.9200000  20.4970000
  29.4790000  -5.6730000  22.3510000  29.3320000  -5.2130000  23.5540000
  28.4930000  -4.7190000  23.8220000  30.1120000  -5.3300000  24.1850000
  30.6070000  -6.2810000  22.1530000  30.8760000  -6.6280000  21.2430000
  31.2540000  -6.2800000  22.9290000  23.6910000  -7.7530000  19.8410000
  22.8030000  -7.1540000  19.2360000  24.1250000  -8.9570000  19.4610000
  24.8790000  -9.3700000  19.9910000  23.6230000  -9.6780000  18.2750000
  23.7560000  -9.0330000  17.4070000  24.4320000 -10.9610000  18.0230000
  24.4540000 -11.5580000  18.9340000  23.9290000 -11.5400000  17.2480000
  25.8600000 -10.6720000  17.5380000  25.7960000 -10.0630000  16.6360000
  26.3940000 -10.0910000  18.2900000  26.6630000 -11.9530000  17.2290000
  26.4480000 -13.0090000  17.8720000  27.5410000 -11.9050000  16.3310000
  22.1190000 -10.0090000  18.3360000  21.4210000  -9.8320000  17.3330000
  21.5990000 -10.4550000  19.4900000  22.2280000 -10.6470000  20.2560000
  20.1580000 -10.7450000  19.6560000  19.8420000 -11.3010000  18.7740000
  19.8720000 -11.6610000  20.8690000  18.8020000 -11.8730000  20.8550000
  20.5890000 -13.0110000  20.6980000  21.6640000 -12.8970000  20.8330000
  20.2110000 -13.7250000  21.4300000  20.3980000 -13.4100000  19.7020000
  20.1890000 -10.9960000  22.2270000  21.2610000 -10.8100000  22.2950000
  19.6810000 -10.0340000  22.2860000  19.7620000 -11.8220000  23.4470000
  20.3390000 -12.7450000  23.5050000  19.9440000 -11.2450000  24.3540000
  18.7000000 -12.0600000  23.3850000  19.2770000  -9.4790000  19.6720000
  18.0870000  -9.5640000  19.3640000  19.8460000  -8.3090000  19.9970000
  20.8320000  -8.3150000  20.2130000  19.1810000  -7.0000000  19.9100000
  18.9290000  -6.8040000  18.8680000  19.8770000  -6.2270000  20.2360000
  17.8990000  -6.8640000  20.7450000  16.9540000  -6.1930000  20.3230000
  17.8590000  -7.5010000  21.9210000  18.6870000  -8.0040000  22.2050000
  16.6880000  -7.5710000  22.8140000  16.1480000  -6.6290000  22.7160000
  15.7320000  -8.7040000  22.3600000  15.5230000  -8.5560000  21.3010000
  16.3030000 -10.1200000  22.5170000  16.4350000 -10.3710000  23.5700000
  15.6200000 -10.8410000  22.0680000  17.2610000 -10.1920000  22.0040000
  14.3850000  -8.6660000  23.0890000  13.9000000  -7.7050000  22.9140000
  13.7350000  -9.4470000  22.6970000  14.5190000  -8.8230000  24.1590000
  17.1490000  -7.7220000  24.2750000  18.0750000  -8.4980000  24.5320000
  16.5810000  -6.9740000  25.2440000  15.5290000  -5.9740000  25.1050000
  14.7270000  -6.3110000  24.4490000  15.9580000  -5.0460000  24.7250000
  14.9790000  -5.7510000  26.5110000  14.2140000  -6.4950000  26.7310000
  14.5830000  -4.7430000  26.6370000  16.2020000  -5.9950000  27.3890000
  15.9230000  -6.2840000  28.4030000  16.8210000  -5.0990000  27.4020000
  16.9460000  -7.1110000  26.6530000  18.0180000  -6.9510000  26.7660000
  16.5910000  -8.5010000  27.2000000  15.5250000  -9.0580000  26.9220000
  17.5020000  -9.0520000  28.0010000  18.3250000  -8.5060000  28.2110000
  17.4040000 -10.3790000  28.6360000  16.3590000 -10.6840000  28.6990000
  18.1750000 -11.4440000  27.8280000  18.1230000 -12.3930000  28.3610000
  17.6250000 -11.7040000  26.4290000  17.7810000 -10.8390000  25.7850000
  18.1320000 -12.5670000  25.9980000  16.5590000 -11.9220000  26.4910000
  19.5360000 -11.0860000  27.7480000  19.5860000 -10.1940000  27.3950000
  17.9620000 -10.3360000  30.0630000  18.5240000  -9.3320000  30.5010000
  17.8820000 -11.4650000  30.7730000  17.3010000 -12.2010000  30.3970000
  18.5400000 -11.7200000  32.0690000  17.9980000 -11.1440000  32.8200000
  18.3860000 -13.2110000  32.4370000  17.3220000 -13.4470000  32.4050000
  19.0950000 -14.1740000  31.4770000  20.1770000 -14.0560000  31.5380000
  18.8490000 -15.2000000  31.7480000  18.7680000 -14.0050000  30.4510000
  18.8830000 -13.4890000  33.8540000  18.3810000 -12.8230000  34.5560000
  18.6550000 -14.5210000  34.1240000  19.9600000 -13.3410000  33.9240000
  20.0030000 -11.2370000  32.1290000  20.4200000 -10.6890000  33.1470000
  20.7760000 -11.3650000  31.0400000  20.3840000 -11.7980000  30.2150000
  22.1640000 -10.8820000  30.9660000  22.7470000 -11.3860000  31.7360000
  22.7810000 -11.2350000  29.6030000  22.1050000 -10.9010000  28.8150000
  23.6990000 -10.6580000  29.4970000  23.1510000 -12.6890000  29.3390000
  22.9090000 -13.7270000  30.2660000  22.4220000 -13.5310000  31.2100000
  23.3110000 -15.0450000  29.9810000  23.1190000 -15.8340000  30.6920000
  23.9700000 -15.3340000  28.7740000  24.2800000 -16.3450000  28.5540000
  24.2220000 -14.3030000  27.8540000  24.7340000 -14.5110000  26.9260000
  23.8120000 -12.9890000  28.1340000  24.0180000 -12.2040000  27.4220000
  22.3220000  -9.3760000  31.2440000  23.3250000  -8.9750000  31.8330000
  21.3380000  -8.5350000  30.9010000  20.5060000  -8.9040000  30.4630000
  21.4010000  -7.0880000  31.1560000  22.3220000  -6.7050000  30.7170000
  20.2160000  -6.3730000  30.4760000  19.2760000  -6.7610000  30.8690000
  20.2710000  -5.3150000  30.7330000  20.1890000  -6.5010000  28.9600000
  19.9990000  -7.5680000  28.3970000  20.3570000  -5.4130000  28.2440000
  20.5140000  -4.5200000  28.6900000  20.2910000  -5.4850000  27.2380000
  21.4610000  -6.7470000  32.6630000  21.9890000  -5.6970000  33.0290000
  20.9580000  -7.6280000  33.5420000  20.5510000  -8.4800000  33.1830000
  21.0870000  -7.4930000  35.0020000  20.7680000  -6.4910000  35.2910000
  20.2010000  -8.5300000  35.7240000  20.6390000  -9.5160000  35.5720000
  20.2410000  -8.3230000  36.7940000  18.7250000  -8.5960000  35.3010000
  18.6580000  -8.8580000  34.2450000  18.0370000  -9.6960000  36.1100000
  17.9670000  -9.4120000  37.1600000  17.0390000  -9.8790000  35.7120000
  18.6040000 -10.6230000  36.0270000  18.0090000  -7.2640000  35.5230000
  18.4870000  -6.4800000  34.9350000  16.9750000  -7.3430000  35.1880000
  18.0310000  -6.9860000  36.5770000  22.5280000  -7.6670000  35.5040000
  22.8780000  -7.1470000  36.5630000  23.3380000  -8.4590000  34.7950000
  23.0200000  -8.7980000  33.8990000  24.5940000  -8.9890000  35.3220000
  24.3950000  -9.3670000  36.3240000  25.0660000 -10.1870000  34.4780000
  25.2960000  -9.8430000  33.4690000  25.9860000 -10.5730000  34.9150000
  24.0410000 -11.3390000  34.3910000  23.1110000 -10.9630000  33.9660000
  24.5510000 -12.4590000  33.4840000  25.4130000 -12.9470000  33.9380000
  23.7640000 -13.1970000  33.3320000  24.8470000 -12.0460000  32.5200000
  23.7330000 -11.9640000  35.7530000  23.2520000 -11.2340000  36.4050000
  23.0480000 -12.8010000  35.6220000  24.6530000 -12.3170000  36.2200000
  25.6710000  -7.9140000  35.5090000  26.3020000  -7.9020000  36.5570000
  25.8280000  -6.9660000  34.5770000  25.2600000  -7.0170000  33.7430000
  26.8170000  -5.8750000  34.6870000  26.6620000  -5.1600000  33.8790000
  27.8160000  -6.2960000  34.5730000  26.7750000  -5.1210000  36.0320000
  27.7950000  -5.0540000  36.7220000  25.6100000  -4.6080000  36.4720000
  24.4610000  -4.2870000  35.6340000  23.8260000  -5.1650000  35.5160000
  24.7710000  -3.9240000  34.6540000  23.7030000  -3.1910000  36.3790000
  22.6330000  -3.2240000  36.1740000  24.1160000  -2.2170000  36.1160000
  24.0150000  -3.4970000  37.8410000  23.3400000  -4.2740000  38.2000000
  23.9340000  -2.6040000  38.4600000  25.4500000  -4.0290000  37.8110000
  26.1370000  -3.1880000  37.9030000  25.7070000  -5.0060000  38.9800000
  26.2100000  -4.5970000  40.0260000  25.3660000  -6.2920000  38.8190000
  24.9790000  -6.5660000  37.9270000  25.5340000  -7.3440000  39.8370000
  25.2430000  -6.9350000  40.8040000  24.5960000  -8.5280000  39.5020000
  24.7530000  -8.8100000  38.4600000  24.8740000  -9.3910000  40.1070000
  23.0970000  -8.2530000  39.7250000  22.8210000  -7.2830000  39.3100000
  22.2540000  -9.3420000  39.0640000  22.5180000 -10.3150000  39.4800000
  21.1950000  -9.1460000  39.2310000  22.4410000  -9.3540000  37.9900000
  22.7660000  -8.2840000  41.2130000  23.3540000  -7.5360000  41.7440000
  21.7070000  -8.0770000  41.3700000  23.0120000  -9.2610000  41.6290000
  26.9800000  -7.8500000  40.0220000  27.2590000  -8.4760000  41.0480000
  27.8940000  -7.6270000  39.0740000  27.5780000  -7.1970000  38.2160000
  29.2040000  -8.3170000  39.0150000  29.2580000  -9.0540000  39.8160000
  29.3500000  -9.0960000  37.6930000  30.3270000  -9.5800000  37.6720000
  28.3160000 -10.2150000  37.5680000  27.3030000  -9.8550000  37.7480000
  28.3570000 -10.6510000  36.5700000  28.5470000 -10.9830000  38.3070000
  29.2750000  -8.2260000  36.5840000  29.5550000  -8.7120000  35.8050000
  30.4280000  -7.4120000  39.2040000  31.5350000  -7.8290000  38.8690000
  30.2780000  -6.2240000  39.8090000  29.3450000  -5.9420000  40.0760000
  31.3940000  -5.3020000  40.0800000  31.6740000  -4.8520000  39.1270000
  30.8690000  -4.1820000  41.0000000  30.0280000  -3.6940000  40.5070000
  30.5020000  -4.6130000  41.9310000  31.9040000  -3.1210000  41.3580000
  33.0610000  -3.3920000  41.6440000  31.5070000  -1.8790000  41.3750000
  30.5550000  -1.6640000  41.1170000  32.1460000  -1.1530000  41.6660000
  32.6270000  -6.0290000  40.6940000  32.4950000  -6.6550000  41.7520000
  33.8370000  -5.9120000  40.1050000  34.1460000  -5.0810000  38.9510000
  33.8110000  -4.0530000  39.0880000  33.6850000  -5.5110000  38.0620000
  35.6610000  -5.1260000  38.8050000  36.1260000  -4.3840000  39.4550000
  35.9610000  -4.9740000  37.7680000  35.9980000  -6.5250000  39.3100000
  37.0340000  -6.5890000  39.6420000  35.7990000  -7.2510000  38.5210000
  35.0050000  -6.7290000  40.4610000  34.7210000  -7.7800000  40.4960000
  35.6410000  -6.3640000  41.8150000  36.3470000  -7.1840000  42.4020000
  35.3710000  -5.1610000  42.3390000  34.7760000  -4.5300000  41.8210000
  35.7850000  -4.7370000  43.6780000  36.7880000  -5.1140000  43.8790000
  35.8480000  -3.2060000  43.6680000  36.2240000  -2.8370000  44.6220000
  36.5200000  -2.8810000  42.8740000  34.8590000  -2.7810000  43.4930000
  34.8620000  -5.2680000  44.7980000  35.2240000  -5.2020000  45.9730000
  33.6760000  -5.7880000  44.4360000  33.4810000  -5.8370000  43.4460000
  32.6250000  -6.3000000  45.3410000  31.7140000  -6.4320000  44.7570000
  33.0270000  -7.7010000  45.8620000  33.8900000  -7.6100000  46.5210000
  32.1970000  -8.1080000  46.4390000  33.3720000  -8.6960000  44.7370000
  32.5440000  -8.7400000  44.0300000  34.2710000  -8.3640000  44.2180000
  33.6230000 -10.0930000  45.3180000  34.3360000 -10.0050000  46.1380000
  32.6820000 -10.4770000  45.7110000  34.1630000 -11.0320000  44.3090000
  34.4650000 -10.6410000  43.4280000  34.3840000 -12.3220000  44.4950000
  34.0990000 -12.9130000  45.6200000  33.7090000 -12.3710000  46.3770000
  34.2820000 -13.8970000  45.7530000  34.9030000 -13.0590000  43.5550000
  35.1320000 -12.6760000  42.6490000  35.0970000 -14.0340000  43.7330000
  32.2420000  -5.3120000  46.4750000  32.2310000  -5.7070000  47.6460000
  31.9140000  -4.0350000  46.1660000  31.8410000  -3.4480000  44.8320000
  31.3730000  -4.1280000  44.1200000  32.8440000  -3.1820000  44.5000000
  31.0100000  -2.1760000  44.9620000  29.9520000  -2.4070000  44.8330000
  31.3330000  -1.4120000  44.2540000  31.2690000  -1.7410000  46.4000000
  30.4360000  -1.1520000  46.7820000  32.1940000  -1.1660000  46.4420000
  31.4520000  -3.0620000  47.1620000  32.2220000  -2.9260000  47.9210000
  30.1540000  -3.5290000  47.8490000  29.2460000  -4.0530000  47.2000000
  30.0620000  -3.3410000  49.1730000  30.8290000  -2.8760000  49.6370000
  28.9570000  -3.8580000  50.0140000  28.7010000  -4.8550000  49.6570000
  29.4410000  -4.0100000  51.4720000  29.8920000  -3.0780000  51.8130000
  28.5880000  -4.2350000  52.1120000  30.4560000  -5.1660000  51.5830000
  29.9830000  -6.0820000  51.2300000  31.3110000  -4.9580000  50.9400000
  30.9840000  -5.4130000  53.0020000  31.6700000  -6.2590000  52.9590000
  31.5650000  -4.5520000  53.3320000  29.9070000  -5.7370000  53.9600000
  29.4790000  -6.6460000  53.8510000  29.4960000  -5.0210000  54.9910000
  29.9490000  -3.8270000  55.2450000  30.5790000  -3.3810000  54.5940000
  29.6530000  -3.3260000  56.0710000  28.5970000  -5.5010000  55.8000000
  28.2130000  -6.4230000  55.6460000  28.2780000  -4.9640000  56.5940000
  27.6390000  -3.0770000  49.9030000  26.6340000  -3.5020000  50.4720000
  27.6110000  -1.9740000  49.1580000  28.4550000  -1.7050000  48.6740000
  26.4380000  -1.1120000  49.0120000  25.5440000  -1.7360000  49.0400000
  26.4220000  -0.1520000  50.2140000  25.6540000   0.6110000  50.0930000
  26.2010000  -0.7140000  51.1210000  27.3940000   0.3270000  50.3290000
  26.4080000  -0.3640000  47.6670000  27.3790000  -0.3770000  46.9100000
  25.2890000   0.3000000  47.3600000  24.5020000   0.2490000  47.9900000
  25.1520000   1.0720000  46.1190000  25.6200000   0.5210000  45.3030000
  25.6760000   2.0210000  46.2350000  23.7240000   1.3800000  45.6820000
  22.7500000   0.8310000  46.2010000  23.6270000   2.2660000  44.6930000
  24.4900000   2.6160000  44.3040000  22.3810000   2.6370000  44.0240000
  21.5360000   2.2620000  44.6010000  22.2910000   4.1700000  43.9690000
  22.2710000   4.5570000  44.9870000  23.1870000   4.5530000  43.4800000
  21.0580000   4.6900000  43.2100000  21.0480000   4.3020000  42.1920000
  19.7620000   4.3050000  43.9200000  19.8130000   4.5700000  44.9760000
  18.9260000   4.8340000  43.4640000  19.5900000   3.2330000  43.8190000
  21.0910000   6.2090000  43.1450000  22.0380000   6.5480000  42.7260000
  20.2800000   6.5590000  42.5050000  20.9620000   6.6220000  44.1460000
  22.3560000   1.9930000  42.6330000  23.1550000   2.3450000  41.7620000
  21.4680000   1.0150000  42.4510000  20.8060000   0.8230000  43.1890000
  21.4810000   0.1030000  41.3070000  22.3560000   0.3190000  40.6930000
  21.6330000  -1.3570000  41.7780000  20.7620000  -1.6190000  42.3790000
  21.6570000  -2.2730000  40.5450000  22.3250000  -1.8630000  39.7870000
  21.9970000  -3.2730000  40.8150000  20.6570000  -2.3480000  40.1200000
  22.8830000  -1.5720000  42.6670000  22.8280000  -0.9230000  43.5410000
  22.8610000  -2.5940000  43.0450000  24.2420000  -1.3430000  41.9930000
  24.3270000  -0.3090000  41.6560000  25.0360000  -1.5410000  42.7120000
  24.3640000  -2.0170000  41.1450000  20.2520000   0.3260000  40.4220000
  19.1460000  -0.1180000  40.7240000  20.4340000   1.0500000  39.3240000
  21.3780000   1.3380000  39.1090000  19.4100000   1.2420000  38.3050000
  19.8370000   1.8790000  37.5300000  18.5450000   1.7450000  38.7390000
  18.9720000  -0.0570000  37.6260000  19.7980000  -0.9250000  37.3430000
  17.7020000  -0.1340000  37.2330000  17.0460000   0.5490000  37.5840000
  17.1880000  -1.1870000  36.3610000  17.9950000  -1.5460000  35.7220000
  16.7010000  -2.3600000  37.2270000  17.5120000  -2.6980000  37.8720000
  15.8680000  -2.0340000  37.8490000  16.1730000  -3.7310000  36.1540000
  15.7120000  -4.5430000  37.1090000  16.0780000  -0.6440000  35.4510000
  15.1640000   0.0430000  35.9070000  16.1530000  -0.9510000  34.1550000
  16.9630000  -1.4600000  33.8310000  15.1470000  -0.5660000  33.1600000
  14.7820000   0.4370000  33.3830000  15.8400000  -0.5220000  31.7970000
  15.1190000  -0.2350000  31.0310000  16.6510000   0.2060000  31.8120000
  16.2410000  -1.5040000  31.5480000  13.9250000  -1.5120000  33.1240000
  12.9220000  -1.2070000  32.4750000  14.0100000  -2.6590000  33.8080000
  14.8550000  -2.8230000  34.3360000  13.1080000  -3.8030000  33.6550000
  12.3570000  -3.5820000  32.8970000  13.9320000  -4.9980000  33.1390000
  14.5110000  -5.4070000  33.9680000  13.2540000  -5.7770000  32.7900000
  14.9030000  -4.6500000  32.0200000  14.4230000  -4.1730000  30.7840000
  13.3600000  -4.1000000  30.6070000  15.3260000  -3.7580000  29.7890000
  14.9560000  -3.3740000  28.8500000  16.7100000  -3.8320000  30.0200000
  17.4060000  -3.5120000  29.2580000  17.1910000  -4.3130000  31.2490000
  18.2550000  -4.3540000  31.4320000  16.2910000  -4.7180000  32.2500000
  16.6700000  -5.0650000  33.2000000  12.3710000  -4.0910000  34.9730000
  12.8670000  -4.8100000  35.8430000  11.1820000  -3.5080000  35.1440000
  10.8330000  -2.9110000  34.4080000  10.4090000  -3.5700000  36.3910000
  11.0230000  -3.1610000  37.1940000   9.1780000  -2.6710000  36.2280000
   8.6080000  -2.6560000  37.1570000   9.4900000  -1.6540000  35.9930000
   8.5430000  -3.0470000  35.4270000  10.0080000  -5.0040000  36.8070000
   9.8520000  -5.2920000  37.9950000   9.8840000  -5.9160000  35.8400000
  10.0810000  -5.6310000  34.8910000   9.6370000  -7.3500000  36.0360000
   8.8710000  -7.4710000  36.8020000   9.0920000  -7.9650000  34.7320000
   8.8910000  -9.0210000  34.9080000   8.1360000  -7.4900000  34.5080000
  10.0020000  -7.8190000  33.4910000  10.6840000  -6.7780000  33.3240000
   9.9970000  -8.7490000  32.6490000  10.8770000  -8.1380000  36.5110000
  10.7360000  -9.2650000  36.9920000  12.0800000  -7.5560000  36.4100000
  12.1150000  -6.6390000  35.9880000  13.3550000  -8.1640000  36.8230000
  13.1860000  -9.1880000  37.1550000  14.3100000  -8.2040000  35.6180000
  14.5160000  -7.1770000  35.3150000  15.2470000  -8.6410000  35.9630000
  13.8370000  -8.9930000  34.3820000  12.9040000  -8.5720000  34.0080000
  14.8900000  -8.8930000  33.2740000  15.8330000  -9.3320000  33.6020000
  14.5390000  -9.4180000  32.3860000  15.0540000  -7.8470000  33.0150000
  13.6300000 -10.4750000  34.6960000  12.8020000 -10.5920000  35.3950000
  13.3830000 -11.0130000  33.7810000  14.5360000 -10.8970000  35.1320000
  14.0410000  -7.4400000  37.9970000  14.8860000  -8.0330000  38.6660000
  13.6780000  -6.1870000  38.2880000  13.0430000  -5.7210000  37.6570000
  14.2360000  -5.4060000  39.3970000  15.3030000  -5.2700000  39.2190000
  13.5780000  -4.0230000  39.3800000  14.0130000  -3.4040000  40.1650000
  13.7420000  -3.5380000  38.4180000  12.5070000  -4.1220000  39.5540000
  14.0910000  -6.1040000  40.7690000  15.0380000  -6.1250000  41.5550000
  12.9440000  -6.7380000  41.0410000  12.1810000  -6.6450000  40.3860000
  12.7410000  -7.5710000  42.2400000  12.9350000  -6.9530000  43.1160000
  11.2740000  -8.0240000  42.3010000  10.6410000  -7.1400000  42.2260000
  11.0610000  -8.6740000  41.4520000  10.9440000  -8.7690000  43.6040000
  11.5430000  -9.6790000  43.6490000  11.2260000  -8.1380000  44.4470000
   9.4530000  -9.1470000  43.7390000   8.5790000  -8.5600000  43.0540000
   9.1390000 -10.0450000  44.5600000  13.7120000  -8.7690000  42.3060000
  14.3240000  -9.0190000  43.3450000  13.8860000  -9.4960000  41.1920000
  13.3710000  -9.2160000  40.3690000  14.8610000 -10.6000000  41.0570000
  14.6080000 -11.3630000  41.7930000  14.8000000 -11.2590000  39.6610000
  15.0770000 -10.5300000  38.8990000  15.7780000 -12.4330000  39.5570000
  15.5630000 -13.1610000  40.3390000  15.6730000 -12.9130000  38.5840000
  16.8080000 -12.0900000  39.6530000  13.3930000 -11.7740000  39.3330000
  12.6690000 -10.9590000  39.3410000  13.3880000 -12.2130000  38.3350000
  13.0910000 -12.5300000  40.0580000  16.2820000 -10.1230000  41.3760000
  16.9670000 -10.7080000  42.2140000  16.7090000  -9.0310000  40.7340000
  16.0810000  -8.6190000  40.0590000  17.9910000  -8.3560000  40.9760000
  18.7990000  -9.0390000  40.7140000  18.0690000  -7.1390000  40.0370000
  18.1110000  -7.4910000  39.0060000  17.1610000  -6.5460000  40.1490000
  19.2600000  -6.2140000  40.2930000  19.2520000  -5.9030000  41.3380000
  20.1870000  -6.7560000  40.1030000  19.2160000  -4.7100000  39.2850000
  20.5530000  -5.0620000  38.1180000  20.2870000  -5.9140000  37.4920000
  20.7250000  -4.1870000  37.4910000  21.4630000  -5.2930000  38.6720000
  18.1820000  -7.9810000  42.4580000  19.2180000  -8.2980000  43.0420000
  17.1790000  -7.3650000  43.0930000  16.3590000  -7.1060000  42.5640000
  17.1850000  -7.0650000  44.5280000  18.0330000  -6.4140000  44.7420000
  15.9030000  -6.2920000  44.8630000  15.9160000  -5.9920000  45.9100000
  15.8370000  -5.3990000  44.2420000  15.0260000  -6.9140000  44.6860000
  17.3590000  -8.3290000  45.3960000  18.1460000  -8.3260000  46.3430000
  16.6960000  -9.4310000  45.0280000  16.0350000  -9.3500000  44.2690000
  16.8860000 -10.7590000  45.6250000  16.2560000 -11.4750000  45.0980000
  16.5640000 -10.7330000  46.6670000  18.3330000 -11.2710000  45.5720000
  18.8080000 -11.8580000  46.5450000  19.0710000 -11.0120000  44.4830000
  18.6270000 -10.5450000  43.7050000  20.5050000 -11.3640000  44.3840000
  20.6090000 -12.4120000  44.6660000  21.0640000 -11.2220000  42.9530000
  20.9950000 -10.1800000  42.6400000  22.5360000 -11.6620000  42.8880000
  22.6440000 -12.6620000  43.3090000  22.8830000 -11.6710000  41.8550000
  23.1650000 -10.9730000  43.4510000  20.2940000 -12.0780000  41.9460000
  19.2440000 -11.7880000  41.9140000  20.7150000 -11.9340000  40.9510000
  20.3670000 -13.1300000  42.2220000  21.3470000 -10.5590000  45.3790000
  22.1510000 -11.1390000  46.1070000  21.1410000  -9.2390000  45.4720000
  20.4850000  -8.8040000  44.8380000  21.8030000  -8.4090000  46.4920000
  22.8810000  -8.5240000  46.3760000  21.4790000  -6.9250000  46.2760000
  20.3980000  -6.7970000  46.2140000  21.8230000  -6.3610000  47.1430000
  22.1350000  -6.3240000  45.0490000  23.5300000  -6.1290000  45.0230000
  24.1360000  -6.4170000  45.8690000  24.1420000  -5.5470000  43.8980000
  25.2110000  -5.3940000  43.8810000  23.3620000  -5.1620000  42.7960000
  23.8340000  -4.7200000  41.9300000  21.9700000  -5.3610000  42.8180000
  21.3670000  -5.0760000  41.9690000  21.3570000  -5.9410000  43.9420000
  20.2870000  -6.0860000  43.9520000  21.4700000  -8.8580000  47.9270000
  22.3630000  -8.8920000  48.7740000  20.2240000  -9.2650000  48.1980000
  19.5180000  -9.1560000  47.4840000  19.8230000  -9.8350000  49.4890000
  20.0720000  -9.1140000  50.2670000  18.3060000 -10.0370000  49.5030000
  17.9860000 -10.3550000  50.4950000  17.8130000  -9.0970000  49.2570000
  18.0100000 -10.7950000  48.7780000  20.5630000 -11.1430000  49.8200000
  21.0350000 -11.3090000  50.9450000  20.7370000 -12.0340000  48.8370000
  20.2870000 -11.8590000  47.9500000  21.4400000 -13.3120000  48.9990000
  20.9390000 -13.8720000  49.7880000  21.3040000 -14.1130000  47.6990000
  21.7430000 -15.1020000  47.8330000  20.2510000 -14.2300000  47.4430000
  21.8200000 -13.6070000  46.8840000  22.9190000 -13.1550000  49.4230000
  23.4480000 -14.0110000  50.1370000  23.5670000 -12.0400000  49.0390000
  23.0810000 -11.4350000  48.3920000  24.9340000 -11.6580000  49.4720000
  25.4300000 -12.5320000  49.8940000  25.7640000 -11.2340000  48.2390000
  26.7950000 -11.0720000  48.5530000  25.7630000 -12.0450000  47.5110000
  25.2410000  -9.9510000  47.5730000  24.2720000 -10.1450000  47.1150000
  25.1080000  -9.1910000  48.3420000  26.1840000  -9.3770000  46.5130000
  25.8580000  -8.3560000  46.3150000  27.1970000  -9.3420000  46.9150000
  26.1620000 -10.1480000  45.2520000  25.8300000 -11.1000000  45.2960000
  26.5370000  -9.7000000  44.0650000  27.0260000  -8.5070000  43.8920000
  27.1720000  -7.9060000  44.6900000  27.2870000  -8.2070000  42.9630000
  26.4330000 -10.4370000  42.9980000  26.0940000 -11.3860000  43.0560000
  26.7220000 -10.0430000  42.1140000  24.9710000 -10.5940000  50.5930000
  26.0560000 -10.1750000  50.9980000  23.7990000 -10.1670000  51.0910000
  22.9740000 -10.5980000  50.6990000  23.5790000  -9.2300000  52.2210000
  22.5020000  -9.0970000  52.3260000  24.0790000  -9.8570000  53.5460000
  25.1260000 -10.1470000  53.4580000  23.9970000  -9.1230000  54.3480000
  23.2310000 -11.0750000  53.9460000  22.1920000 -10.7580000  54.0350000
  23.2960000 -11.8470000  53.1790000  23.6720000 -11.6720000  55.2880000
  24.6330000 -12.1690000  55.1500000  23.8130000 -10.8750000  56.0180000
  22.6790000 -12.6520000  55.7760000  22.7720000 -13.5950000  55.4260000
  21.6600000 -12.4290000  56.5890000  21.4430000 -11.2650000  57.1340000
  22.1060000 -10.5180000  56.9850000  20.6450000 -11.1190000  57.7360000
  20.8190000 -13.3800000  56.8670000  20.9410000 -14.3000000  56.4670000
  20.0430000 -13.2120000  57.4920000  24.0990000  -7.7990000  51.9730000
  24.4120000  -7.0760000  52.9210000  24.1430000  -7.3570000  50.7140000
  23.8220000  -7.9770000  49.9840000  24.4840000  -5.9660000  50.3520000
  25.4220000  -5.7050000  50.8410000  24.6740000  -5.8220000  48.8370000
  23.7360000  -6.0660000  48.3380000  24.9430000  -4.7940000  48.5950000
  25.6830000  -6.6870000  48.3570000  26.5410000  -6.3080000  48.5600000
  23.4100000  -4.9620000  50.8060000  22.2160000  -5.2590000  50.7460000
  23.8190000  -3.7490000  51.1920000  24.8120000  -3.5630000  51.1850000
  22.9080000  -2.6330000  51.5050000  21.9510000  -3.0340000  51.8380000
  23.4600000  -1.7970000  52.6600000  23.5320000  -2.4180000  53.5530000
  24.4540000  -1.4310000  52.4010000  22.6150000  -0.6980000  52.9230000
  22.9930000   0.0730000  52.4920000  22.6560000  -1.7840000  50.2580000
  23.4680000  -0.9320000  49.9010000  21.5720000  -2.0550000  49.5330000
  20.8850000  -2.6840000  49.9240000  21.3870000  -1.5920000  48.1460000
  22.0620000  -0.7580000  47.9570000  21.7480000  -2.7210000  47.1500000
  21.3690000  -3.6700000  47.5300000  21.1880000  -2.5250000  45.7370000
  21.4770000  -1.5490000  45.3470000  21.5710000  -3.3040000  45.0770000
  20.1010000  -2.6080000  45.7530000  23.2700000  -2.8230000  47.0040000
  23.7330000  -2.9800000  47.9780000  23.5230000  -3.6650000  46.3600000
  23.6620000  -1.9080000  46.5600000  19.9750000  -1.0680000  47.9170000
  19.0000000  -1.6510000  48.3820000  19.8620000   0.0250000  47.1620000
  20.7120000   0.4480000  46.8150000  18.5960000   0.4550000  46.5640000
  17.7560000  -0.0470000  47.0450000  18.4010000   1.9760000  46.7430000
  19.1810000   2.4960000  46.1880000  17.4450000   2.2450000  46.2940000
  18.4270000   2.4990000  48.1920000  19.4390000   2.4150000  48.5880000
  18.0240000   3.9730000  48.1920000  17.0030000   4.0860000  47.8270000
  18.0890000   4.3770000  49.2030000  18.6990000   4.5380000  47.5500000
  17.4780000   1.7510000  49.1300000  17.8020000   0.7150000  49.2360000
  17.5070000   2.2080000  50.1190000  16.4580000   1.7800000  48.7470000
  18.5920000   0.0420000  45.0880000  19.2990000   0.6490000  44.2850000
  17.8390000  -1.0010000  44.7240000  17.2860000  -1.4710000  45.4270000
  17.5330000  -1.2800000  43.3100000  18.4150000  -1.0360000  42.7190000
  17.2170000  -2.7600000  43.0350000  16.3240000  -3.0480000  43.5890000
  16.9630000  -2.9940000  41.5410000  17.8250000  -2.6650000  40.9600000
  16.7940000  -4.0550000  41.3540000  16.0770000  -2.4490000  41.2130000
  18.3670000  -3.6770000  43.4680000  18.4420000  -3.6880000  44.5560000
  18.1740000  -4.6950000  43.1300000  19.3100000  -3.3390000  43.0380000
  16.3880000  -0.3660000  42.8720000  15.3630000  -0.3180000  43.5510000
  16.5470000   0.3900000  41.7810000  17.4050000   0.2890000  41.2570000
  15.6660000   1.5270000  41.4510000  14.7450000   1.4250000  42.0260000
  16.2870000   2.8790000  41.8610000  15.5510000   3.6560000  41.6560000
  16.5720000   2.9100000  43.3640000  17.4130000   2.2600000  43.6020000
  16.8120000   3.9260000  43.6780000  15.6950000   2.5670000  43.9130000
  17.5730000   3.2450000  41.1060000  17.3740000   3.3310000  40.0380000
  17.9390000   4.2130000  41.4490000  18.3430000   2.4930000  41.2770000
  15.2470000   1.5690000  39.9850000  16.0390000   1.3310000  39.0720000
  13.9770000   1.9060000  39.7810000  13.3890000   2.0450000  40.5900000
  13.3570000   2.1510000  38.4840000  14.1180000   2.2560000  37.7110000
  12.4680000   0.9450000  38.1440000  13.0740000   0.0410000  38.1910000
  11.6790000   0.8590000  38.8920000  11.8320000   1.0030000  36.7800000
  12.4970000   0.8870000  35.5840000  13.4930000   0.7460000  35.4840000
  11.5960000   0.9680000  34.5910000  11.8300000   0.9000000  33.5390000
  10.3590000   1.1400000  35.0940000  10.5050000   1.1830000  36.4890000
   9.7150000   1.3140000  37.2130000  12.5460000   3.4520000  38.5710000
  11.5950000   3.5440000  39.3530000  12.9330000   4.4780000  37.8110000
  13.7000000   4.3390000  37.1680000  12.0910000   5.6560000  37.6160000
  12.6030000   6.3630000  36.9640000  11.8910000   6.1280000  38.5780000
  10.7760000   5.2280000  36.9530000  10.8010000   4.4420000  36.0050000
   9.6260000   5.7220000  37.4170000   9.6330000   6.3670000  38.1940000
   8.3230000   5.2110000  36.9470000   8.4230000   4.1340000  36.8090000
   7.2480000   5.4040000  38.0300000   7.1140000   6.4700000  38.2120000
   6.3050000   5.0010000  37.6600000   7.5820000   4.6910000  39.3570000
   8.2390000   3.6220000  39.3490000   7.1410000   5.1790000  40.4230000
   7.9100000   5.7550000  35.5590000   6.9120000   5.3270000  34.9750000
   8.7230000   6.6560000  35.0030000   9.5580000   6.8740000  35.5290000
   8.7810000   7.0600000  33.5940000   7.7690000   7.1290000  33.1950000
   9.4300000   8.4520000  33.5130000   9.5690000   8.7130000  32.4640000
   8.7280000   9.1710000  33.9340000  10.7790000   8.6030000  34.2490000
  11.3320000   7.6120000  34.7840000  11.2660000   9.7560000  34.3150000
   9.5760000   6.0760000  32.7010000   9.5170000   6.1710000  31.4710000
  10.2970000   5.1250000  33.3050000  10.3130000   5.1410000  34.3150000
  11.0630000   4.0540000  32.6570000  10.9200000   4.0930000  31.5770000
  10.6680000   3.1000000  33.0050000  12.5790000   4.0560000  32.9280000
  13.2430000   3.0690000  32.6000000  13.1420000   5.1410000  33.4780000
  12.5320000   5.8880000  33.7770000  14.5930000   5.3100000  33.6720000
  15.0770000   5.2210000  32.7000000  14.8900000   6.7140000  34.2350000
  14.3870000   6.8120000  35.1970000  15.9620000   6.7850000  34.4170000
  14.4750000   7.9030000  33.3450000  13.3910000   7.9210000  33.2320000
  14.9260000   9.2100000  34.0000000  16.0140000   9.2470000  34.0650000
  14.5650000  10.0560000  33.4170000  14.5030000   9.2800000  35.0030000
  15.0940000   7.8540000  31.9490000  14.6780000   7.0170000  31.3890000
  14.8640000   8.7730000  31.4110000  16.1750000   7.7360000  32.0220000
  15.2310000   4.2390000  34.5830000  14.6650000   3.8600000  35.6110000
  16.4740000   3.8420000  34.2890000  16.9250000   4.2130000  33.4650000
  17.3190000   3.0540000  35.2040000  16.6750000   2.4410000  35.8350000
  18.2250000   2.0790000  34.4270000  18.7020000   1.4140000  35.1480000
  17.5960000   1.4600000  33.7870000  19.3210000   2.7180000  33.5520000
  19.1880000   3.8860000  33.1120000  20.3170000   2.0050000  33.2820000
  18.1150000   3.9880000  36.1500000  19.3210000   3.8580000  36.3570000
  17.3920000   4.9300000  36.7580000  16.3980000   4.9160000  36.5830000
  17.8420000   5.9900000  37.6690000  18.6560000   5.6380000  38.3020000
  18.2870000   7.2480000  36.8860000  17.4410000   7.5870000  36.2880000
  18.5080000   8.0490000  37.5920000  19.4940000   7.0980000  35.9410000
  19.3130000   6.2790000  35.2450000  19.5450000   8.0080000  35.3430000
  20.8590000   6.9140000  36.6460000  21.9070000   6.9240000  35.9520000
  20.9230000   6.8270000  37.8930000  16.6480000   6.3810000  38.5590000
  15.4950000   6.1520000  38.1790000  16.8830000   7.0200000  39.7090000
  17.8370000   7.2090000  39.9800000  15.8130000   7.7690000  40.3810000
  14.9290000   7.1390000  40.4740000  16.2520000   8.2210000  41.7840000
  17.1430000   8.8410000  41.6860000  15.4720000   8.8510000  42.2140000
  16.5420000   7.0610000  42.7470000  17.0740000   6.2630000  42.2280000
  17.4230000   7.5410000  43.8930000  16.9520000   8.3840000  44.3990000
  17.5920000   6.7230000  44.5940000  18.3880000   7.8580000  43.4970000
  15.2480000   6.5020000  43.3300000  14.6400000   6.0650000  42.5370000
  15.4810000   5.7240000  44.0580000  14.6860000   7.2920000  43.8280000
  15.4660000   8.9830000  39.5110000  16.3370000   9.8080000  39.2210000
  14.2100000   9.0820000  39.0760000  13.5430000   8.3920000  39.3920000
  13.7300000  10.1870000  38.2330000  14.5630000  10.5380000  37.6230000
  12.6500000   9.7080000  37.2510000  13.0500000   8.8810000  36.6640000
  11.3360000   9.2740000  37.8910000  10.8810000  10.1070000  38.4260000
  10.6480000   8.9240000  37.1220000  11.5130000   8.4540000  38.5870000
  12.3320000  10.7710000  36.3910000  11.9650000  10.3630000  35.6030000
  13.2420000  11.3800000  39.0590000  12.7620000  11.2160000  40.1800000
  13.3190000  12.5830000  38.4800000  13.7890000  12.6520000  37.5880000
  12.6380000  13.8030000  38.9580000  12.3020000  13.6600000  39.9850000
  13.6130000  14.9960000  38.9500000  13.0700000  15.9180000  39.1570000
  14.7070000  14.8410000  40.0030000  15.2660000  13.9210000  39.8350000
  15.3840000  15.6940000  39.9560000  14.2580000  14.8130000  40.9960000
  14.2310000  15.0960000  37.6860000  14.8350000  15.8420000  37.7060000
  11.3860000  14.1520000  38.1360000  10.6870000  15.1070000  38.4750000
  11.0380000  13.3910000  37.0850000  11.6110000  12.5960000  36.8410000
   9.8280000  13.6620000  36.2730000   9.7240000  14.7440000  36.1880000
   9.9180000  13.1180000  34.8320000   9.1680000  13.6480000  34.2450000
  11.2710000  13.3300000  34.1520000  12.0550000  12.7510000  34.6400000
  11.2000000  13.0180000  33.1100000  11.5390000  14.3870000  34.1840000
   9.5920000  11.7500000  34.7660000  10.3770000  11.2260000  34.5900000
   8.5290000  13.1640000  36.9160000   7.4480000  13.6680000  36.6110000
   8.6340000  12.1880000  37.8240000   9.5670000  11.8690000  38.0460000
   7.5330000  11.4610000  38.4760000   6.8240000  12.1960000  38.8580000
   6.7710000  10.5960000  37.4440000   6.4610000  11.2360000  36.6180000
   7.5870000   9.4430000  36.8590000   7.9050000   8.7530000  37.6410000
   6.9840000   8.9000000  36.1320000   8.4670000   9.8360000  36.3500000
   5.6070000  10.0570000  38.0300000   5.0570000   9.7030000  37.3270000
   8.0720000  10.6830000  39.6970000   9.1800000  10.9580000  40.1630000
   7.3030000   9.7550000  40.2670000   6.4170000   9.5530000  39.8260000
   7.7560000   8.8110000  41.3040000   8.1970000   9.3880000  42.1180000
   6.5600000   8.0240000  41.8710000   6.9210000   7.2760000  42.5770000
   5.5940000   8.9480000  42.6090000   5.1430000   9.6570000  41.9150000
   4.8090000   8.3560000  43.0800000   6.1390000   9.4950000  43.3790000
   5.8370000   7.3660000  40.8560000   6.3230000   6.5590000  40.6680000
   8.8370000   7.8330000  40.8090000   9.0630000   7.6690000  39.6070000
   9.5150000   7.1610000  41.7450000   9.2800000   7.3250000  42.7130000
  10.4340000   6.0520000  41.4520000  10.3280000   5.7440000  40.4120000
  11.8950000   6.4610000  41.6790000  12.0450000   6.7170000  42.7280000
  12.5340000   5.6120000  41.4370000  12.2750000   7.5610000  40.8660000
  11.8230000   8.3460000  41.1850000  10.1140000   4.8450000  42.3350000
  10.1030000   4.9520000  43.5630000   9.8970000   3.6780000  41.7400000
   9.8200000   3.6460000  40.7330000   9.8470000   2.4130000  42.4760000
   9.2050000   2.5340000  43.3480000   9.2440000   1.3040000  41.6120000
   9.9010000   1.1070000  40.7650000   9.0220000   0.0280000  42.4330000
   8.4140000   0.2520000  43.3090000   8.5180000  -0.7200000  41.8210000
   9.9760000  -0.3850000  42.7620000   7.9810000   1.7100000  41.1360000
   8.1360000   2.4640000  40.5630000  11.2470000   2.0090000  42.9470000
  12.2040000   2.0060000  42.1670000  11.3640000   1.6410000  44.2240000
  10.5360000   1.6770000  44.8010000  12.6120000   1.2670000  44.8970000
  13.4030000   1.1670000  44.1540000  13.0450000   2.3360000  45.9340000
  12.2610000   2.4180000  46.6860000  14.3290000   1.8880000  46.6680000
  15.1440000   1.7250000  45.9640000  14.6290000   2.6370000  47.4010000
  14.1510000   0.9680000  47.2260000  13.1920000   3.7310000  45.2820000
  13.7920000   3.6590000  44.3750000  12.1970000   4.0730000  44.9960000
  13.7990000   4.8130000  46.1880000  14.8670000   4.6380000  46.3240000
  13.6700000   5.7880000  45.7190000  13.3020000   4.8160000  47.1580000
  12.4100000  -0.0800000  45.5910000  11.5630000  -0.2040000  46.4720000
  13.2000000  -1.0850000  45.2270000  13.8840000  -0.9080000  44.5050000
  13.3590000  -2.3100000  46.0100000  12.4810000  -2.4750000  46.6340000
  13.4890000  -3.5250000  45.0860000  14.3570000  -3.3840000  44.4410000
  13.6720000  -4.4100000  45.6960000  12.3020000  -3.7890000  44.2080000
  11.3390000  -4.7090000  44.4460000  11.3130000  -5.3720000  45.2980000
  10.3950000  -4.6660000  43.4360000   9.5920000  -5.2770000  43.4000000
  10.7030000  -3.7100000  42.4920000  10.0820000  -3.3010000  41.3030000
   9.1760000  -3.7850000  40.9680000  10.6560000  -2.2600000  40.5520000
  10.1900000  -1.9340000  39.6330000  11.8400000  -1.6470000  41.0010000
  12.2860000  -0.8500000  40.4240000  12.4640000  -2.0790000  42.1870000
  13.3860000  -1.6140000  42.5040000  11.9140000  -3.1210000  42.9650000
  14.5650000  -2.1160000  46.9350000  15.7200000  -2.2860000  46.5310000
  14.2890000  -1.6730000  48.1650000  13.3150000  -1.6010000  48.4250000
  15.2810000  -1.5240000  49.2380000  16.1380000  -0.9750000  48.8480000
  14.6510000  -0.7140000  50.3870000  14.4240000   0.2870000  50.0210000
  13.7140000  -1.1840000  50.6860000  15.5680000  -0.5980000  51.6170000
  15.7080000  -1.5810000  52.0670000  16.5400000  -0.2210000  51.3000000
  15.0070000   0.3530000  52.6810000  15.7410000   0.4350000  53.4830000
  14.8700000   1.3390000  52.2350000  13.7240000  -0.1150000  53.2370000
  13.3230000  -0.9610000  52.8580000  13.0400000   0.4470000  54.2130000
  13.4800000   1.4740000  54.8880000  14.3850000   1.8620000  54.6620000
  12.9300000   1.8770000  55.6330000  11.8730000  -0.0250000  54.5180000
  11.4820000  -0.7240000  53.9020000  11.3130000   0.3800000  55.2550000
  15.7660000  -2.9090000  49.6780000  14.9580000  -3.8170000  49.8570000
  17.0780000  -3.0590000  49.8530000  17.6760000  -2.2860000  49.5990000
  17.7610000  -4.3090000  50.2200000  17.0190000  -5.0680000  50.4660000
  18.6310000  -4.8480000  49.0690000  19.4910000  -4.1960000  48.9190000
  19.1500000  -6.2440000  49.4120000  18.3110000  -6.9250000  49.5570000
  19.7760000  -6.6060000  48.5960000  19.7560000  -6.2220000  50.3180000
  17.8670000  -4.9370000  47.7460000  17.6270000  -3.9350000  47.3900000
  18.4800000  -5.4280000  46.9900000  16.9440000  -5.4980000  47.8940000
  18.6380000  -4.0620000  51.4430000  19.5340000  -3.2170000  51.3970000
  18.3690000  -4.7750000  52.5380000  17.6350000  -5.4670000  52.4900000
  19.0390000  -4.5970000  53.8290000  20.1060000  -4.4630000  53.6560000
  18.4890000  -3.3320000  54.5080000  18.9740000  -3.1900000  55.4740000
  18.6850000  -2.4560000  53.8890000  17.4140000  -3.4290000  54.6610000
  18.8460000  -5.8310000  54.7300000  17.8010000  -6.4790000  54.6870000
  19.8720000  -6.1780000  55.5190000  20.6970000  -5.5960000  55.4980000
  19.8350000  -7.2310000  56.5470000  20.8550000  -7.3680000  56.9080000
  19.0070000  -6.7170000  57.7380000  19.0820000  -7.4190000  58.5690000
  19.3900000  -5.7500000  58.0640000  17.9600000  -6.6120000  57.4540000
  19.3820000  -8.6170000  56.0170000  18.7440000  -9.3980000  56.7270000
  19.7500000  -8.9430000  54.7690000  20.3010000  -8.2720000  54.2520000
  19.4100000 -10.2130000  54.1110000  19.5590000 -11.0350000  54.8110000
  20.0940000 -10.3670000  53.2760000  17.9840000 -10.3210000  53.5500000
  17.5670000 -11.4230000  53.1890000  17.2380000  -9.2140000  53.4540000
  17.6090000  -8.3460000  53.8110000  15.8620000  -9.1760000  52.9250000
  15.7020000 -10.0560000  52.3030000  14.8580000  -9.2540000  54.0900000
  13.8570000  -9.4300000  53.6960000  15.1220000 -10.0970000  54.7280000
  14.8520000  -8.0650000  54.8620000  14.2960000  -8.2100000  55.6310000
  15.6050000  -7.9570000  52.0180000  16.4900000  -7.1230000  51.7980000
  14.4010000  -7.8940000  51.4320000  13.7190000  -8.5960000  51.6810000
  13.9940000  -6.9220000  50.3980000  14.7060000  -6.0970000  50.3940000
  13.9740000  -7.5610000  48.9890000  13.1960000  -8.3230000  48.9600000
  13.6770000  -6.5380000  47.8830000  14.4030000  -5.7260000  47.9170000
  13.7230000  -7.0240000  46.9080000  12.6710000  -6.1330000  47.9960000
  15.2990000  -8.2390000  48.6330000  15.4710000  -9.0830000  49.3010000
  15.2630000  -8.6210000  47.6130000  16.1170000  -7.5240000  48.7240000
  12.5970000  -6.3720000  50.7000000  11.7120000  -7.1310000  51.1050000
  12.3720000  -5.0770000  50.4610000  13.1510000  -4.4950000  50.1880000
  11.0390000  -4.4610000  50.5320000  10.3130000  -5.2420000  50.3050000
  10.7190000  -3.9830000  51.9580000   9.6450000  -3.8060000  52.0150000
  10.9410000  -4.7870000  52.6600000  11.4580000  -2.7110000  52.4110000
  12.6930000  -2.7210000  52.6220000  10.7710000  -1.6950000  52.6650000
  10.8300000  -3.3520000  49.4770000  11.6610000  -2.4600000  49.2920000
   9.7150000  -3.4550000  48.7380000   9.0900000  -4.2210000  48.9430000
   9.2890000  -2.5090000  47.6930000  10.1630000  -2.2250000  47.1050000
   8.3040000  -3.2400000  46.7650000   8.7830000  -4.1490000  46.4000000
   7.4240000  -3.5270000  47.3400000   7.8600000  -2.4080000  45.5530000
   7.3680000  -1.4970000  45.8920000   8.7310000  -2.1450000  44.9530000
   6.8710000  -3.2190000  44.7050000   7.3710000  -4.1090000  44.3200000
   6.0350000  -3.5280000  45.3320000   6.3390000  -2.3810000  43.5360000
   5.8770000  -1.4780000  43.9370000   7.1770000  -2.0810000  42.9080000
   5.3430000  -3.1420000  42.7330000   4.5560000  -3.4280000  43.2980000
   4.9810000  -2.5800000  41.9760000   5.7500000  -3.9740000  42.3290000
   8.6810000  -1.2300000  48.2890000   7.8520000  -1.2960000  49.2000000
   9.0510000  -0.0760000  47.7290000   9.7770000  -0.1280000  47.0280000
   8.6450000   1.2750000  48.1390000   7.7180000   1.2270000  48.7100000
   9.7590000   1.8990000  49.0120000  10.6680000   1.9430000  48.4120000
   9.4800000   2.9250000  49.2520000  10.0910000   1.1660000  50.3260000
  10.3030000   0.1160000  50.1270000  11.3360000   1.7880000  50.9580000
  11.1510000   2.8330000  51.2080000  11.5950000   1.2420000  51.8650000
  12.1750000   1.7260000  50.2640000   8.9460000   1.2710000  51.3350000
   8.0530000   0.7900000  50.9370000   9.2270000   0.7630000  52.2580000
   8.7280000   2.3170000  51.5510000   8.4080000   2.1670000  46.9050000
   9.1680000   2.1070000  45.9380000   7.3800000   3.0200000  46.9430000
   6.7830000   3.0120000  47.7570000   7.1350000   4.0600000  45.9220000
   7.6850000   3.8190000  45.0120000   5.6510000   4.1450000  45.5250000
   5.0490000   4.3690000  46.4060000   5.4050000   5.2120000  44.4530000
   6.0360000   5.0220000  43.5850000   4.3580000   5.2000000  44.1490000
   5.6280000   6.2040000  44.8460000   5.2280000   2.9130000  44.9810000
   4.2930000   2.9950000  44.7800000   7.6460000   5.4070000  46.4340000
   6.9700000   6.0870000  47.2100000   8.8650000   5.7750000  46.0380000
   9.3530000   5.1980000  45.3680000   9.4780000   7.0630000  46.3740000
   9.2880000   7.2770000  47.4260000  10.9930000   6.9360000  46.1870000
  11.3410000   6.1000000  46.7940000  11.2120000   6.7050000  45.1450000
  11.7690000   8.1760000  46.5780000  12.2680000   8.3080000  47.8870000
  12.1220000   7.5180000  48.6090000  12.9620000   9.4710000  48.2580000
  13.3540000   9.5690000  49.2600000  13.1460000  10.5090000  47.3290000
  13.6780000  11.4030000  47.6200000  12.6430000  10.3800000  46.0230000
  12.7880000  11.1770000  45.3100000  11.9680000   9.2080000  45.6410000
  11.5920000   9.1080000  44.6340000   8.8910000   8.2170000  45.5420000
   8.6380000   8.0590000  44.3460000   8.7260000   9.3960000  46.1480000
   8.9840000   9.4770000  47.1210000   8.3130000  10.6280000  45.4660000
   8.3250000  10.4560000  44.3890000   6.8520000  10.9670000  45.8110000
   6.2410000  10.0760000  45.6690000   6.7810000  11.2600000  46.8580000
   6.2930000  12.0950000  44.9280000   7.0720000  12.7900000  44.2360000
   5.0570000  12.2820000  44.8670000   9.2610000  11.8040000  45.8040000
   9.2930000  12.2410000  46.9610000   9.9840000  12.3730000  44.8140000
  10.1240000  11.8620000  43.4560000   9.2580000  12.1580000  42.8630000
  10.2400000  10.7790000  43.4390000  11.3770000  12.5150000  42.8950000
  11.3090000  12.6400000  41.8150000  12.2520000  11.9250000  43.1670000
  11.4160000  13.8560000  43.6150000  10.7750000  14.5590000  43.0820000
  12.4350000  14.2370000  43.6790000  10.8320000  13.5550000  45.0010000
  11.6430000  13.2990000  45.6820000  10.0880000  14.7810000  45.5590000
  10.6900000  15.6090000  46.2460000   8.7790000  14.9010000  45.3080000
   8.3130000  14.1640000  44.7990000   7.9590000  16.0010000  45.8210000
   8.4260000  16.9390000  45.5240000   6.5760000  15.9350000  45.1660000
   5.9830000  16.7930000  45.4820000   6.6740000  15.9580000  44.0810000
   6.0630000  15.0210000  45.4660000   7.8600000  16.0060000  47.3610000
   7.7210000  17.0750000  47.9600000   8.0050000  14.8430000  48.0160000
   8.1430000  14.0030000  47.4740000   8.1200000  14.7280000  49.4790000
   8.2210000  13.6760000  49.7470000   7.2110000  15.1080000  49.9450000
   9.3220000  15.4840000  50.0660000   9.2790000  15.9200000  51.2190000
  10.3750000  15.6690000  49.2610000  10.3310000  15.2710000  48.3340000
  11.6000000  16.4080000  49.5930000  11.6110000  16.6260000  50.6610000
  12.8030000  15.4960000  49.3080000  12.8210000  15.2410000  48.2480000
  13.7210000  16.0390000  49.5340000  12.7790000  14.2220000  50.1360000
  13.3420000  14.2120000  51.4280000  13.8280000  15.0970000  51.8130000
  13.2640000  13.0560000  52.2260000  13.7010000  13.0490000  53.2140000
  12.6140000  11.9090000  51.7360000  12.5540000  11.0190000  52.3450000
  12.0430000  11.9190000  50.4520000  11.5340000  11.0420000  50.0810000
  12.1330000  13.0690000  49.6490000  11.6850000  13.0710000  48.6660000
  11.6830000  17.7730000  48.8730000  12.7300000  18.4250000  48.8750000
  10.5690000  18.2340000  48.2870000   9.7420000  17.6560000  48.3360000
  10.4110000  19.5710000  47.7030000  10.9520000  20.2950000  48.3130000
   9.3560000  19.8410000  47.7420000  10.8790000  19.7400000  46.2510000
  10.8270000  20.8600000  45.7360000  11.3160000  18.6740000  45.5680000
  11.3190000  17.7710000  46.0210000  11.6650000  18.7420000  44.1420000
  12.3630000  19.5660000  43.9970000  12.3630000  17.4520000  43.6950000
  11.7280000  16.6050000  43.9550000  12.4500000  17.4640000  42.6090000
  13.7550000  17.2430000  44.2600000  14.8170000  18.0450000  43.8000000
  14.6300000  18.8270000  43.0790000  16.1250000  17.8240000  44.2650000
  16.9380000  18.4390000  43.9100000  16.3750000  16.7950000  45.1880000
  17.3840000  16.6180000  45.5290000  15.3140000  16.0030000  45.6650000
  15.5010000  15.2160000  46.3810000  14.0060000  16.2280000  45.2040000
  13.1980000  15.6120000  45.5710000  10.4340000  19.0050000  43.2540000
   9.3970000  18.3490000  43.3930000  10.5700000  19.9350000  42.3040000
  11.4400000  20.4460000  42.2570000   9.6130000  20.1420000  41.2140000
   8.6180000  20.2440000  41.6460000   9.9620000  21.4580000  40.5070000
   9.2350000  21.6590000  39.7210000   9.9400000  22.2800000  41.2220000
  10.9570000  21.3940000  40.0650000   9.5840000  18.9550000  40.2250000
  10.5800000  18.2450000  40.0510000   8.4470000  18.7640000  39.5390000
   7.6840000  19.4030000  39.7110000   8.2720000  17.7500000  38.4810000
   8.7070000  16.8050000  38.8060000   6.7680000  17.5380000  38.2060000
   6.3000000  18.5110000  38.0560000   6.6470000  16.9740000  37.2820000
   6.0120000  16.8050000  39.3270000   6.2890000  17.2120000  40.3000000
   4.9450000  16.9720000  39.1810000   6.2680000  15.2930000  39.3040000
   5.9960000  14.9150000  38.3190000   7.3280000  15.0940000  39.4570000
   5.4380000  14.5950000  40.3080000   4.4560000  14.5110000  40.0900000
   5.8240000  14.0650000  41.4560000   7.0540000  14.0900000  41.8680000
   7.7680000  14.5730000  41.3410000   7.2540000  13.6370000  42.7480000
   4.9710000  13.4770000  42.2390000   3.9940000  13.4240000  41.9860000
   5.2780000  13.1210000  43.1330000   9.0020000  18.1810000  37.2000000
   8.5610000  19.0960000  36.5000000  10.1220000  17.5220000  36.9030000
  10.4370000  16.8200000  37.5580000  10.8770000  17.6870000  35.6590000
  10.9810000  18.7530000  35.4540000  12.2810000  17.1050000  35.8780000
  12.9120000  17.3070000  35.0120000  12.7400000  17.5590000  36.7560000
  12.2220000  16.0250000  36.0170000  10.1700000  17.0470000  34.4400000
   9.1030000  16.4400000  34.5610000  10.7980000  17.1380000  33.2670000
  11.6370000  17.7000000  33.2310000  10.3750000  16.4960000  32.0130000
   9.5900000  15.7690000  32.2180000   9.8250000  17.5620000  31.0450000
  10.6510000  18.2010000  30.7330000   9.4380000  17.0630000  30.1570000
   8.7260000  18.4790000  31.6190000   9.1350000  19.0530000  32.4510000
   8.4400000  19.1960000  30.8490000   7.4580000  17.7570000  32.0830000
   7.1410000  16.6410000  31.6870000   6.6600000  18.3830000  32.9240000
   6.8960000  19.3050000  33.2640000   5.8260000  17.9100000  33.2410000
  11.5630000  15.7440000  31.3840000  12.7100000  16.1650000  31.5390000
  11.3230000  14.6230000  30.6890000  10.3660000  14.3260000  30.5630000
  12.4020000  13.7550000  30.1740000  13.0080000  13.4340000  31.0210000
  11.8120000  12.5080000  29.4850000  11.0150000  12.8270000  28.8130000
  12.5870000  12.0490000  28.8710000  11.2670000  11.4260000  30.4360000
  10.5300000  11.8630000  31.1090000  10.5900000  10.3270000  29.6180000
  11.3120000   9.8540000  28.9520000  10.1710000   9.5740000  30.2850000
   9.7790000  10.7530000  29.0270000  12.3790000  10.7710000  31.2560000
  12.8010000  11.4820000  31.9670000  11.9740000   9.9300000  31.8190000
  13.1660000  10.4040000  30.5970000  13.3750000  14.4810000  29.2270000
  14.5800000  14.2380000  29.2840000  12.8870000  15.4080000  28.4000000
  11.8940000  15.5910000  28.4180000  13.7300000  16.2120000  27.5010000
  14.3800000  15.5170000  26.9680000  12.8940000  16.9210000  26.4200000
  13.5830000  17.4200000  25.7370000  12.3730000  16.1560000  25.8450000
  11.8540000  17.9510000  26.9020000  11.6040000  18.0870000  28.1220000
  11.2650000  18.6340000  26.0290000  14.6740000  17.1880000  28.2390000
  15.7260000  17.5380000  27.7020000  14.3660000  17.5790000  29.4830000
  13.4960000  17.2550000  29.8800000  15.2800000  18.3370000  30.3540000
  15.7030000  19.1620000  29.7790000  14.5220000  18.9420000  31.5480000
  14.1340000  18.1340000  32.1690000  15.2290000  19.5110000  32.1520000
  13.3780000  19.8840000  31.1360000  13.8050000  20.7430000  30.6170000
  12.7010000  19.3800000  30.4460000  12.5480000  20.3680000  32.3240000
  12.2900000  19.6480000  33.2810000  12.0840000  21.6000000  32.3110000
  12.2790000  22.2130000  31.5320000  11.5430000  21.9160000  33.1020000
  16.4620000  17.4840000  30.8590000  17.5050000  18.0320000  31.2170000
  16.3130000  16.1500000  30.8720000  15.4250000  15.7790000  30.5630000
  17.3460000  15.1790000  31.2670000  18.1320000  15.6940000  31.8200000
  16.7160000  14.1240000  32.2060000  15.9930000  13.5430000  31.6340000
  17.5010000  13.4410000  32.5310000  16.0050000  14.6790000  33.4600000
  15.1810000  15.3250000  33.1580000  15.4250000  13.5270000  34.2810000
  16.2250000  12.8750000  34.6320000  14.8840000  13.9250000  35.1390000
  14.7320000  12.9500000  33.6680000  16.9490000  15.4750000  34.3650000
  17.2880000  16.3750000  33.8510000  16.4210000  15.7770000  35.2690000
  17.8100000  14.8650000  34.6390000  18.0450000  14.5140000  30.0610000
  18.9840000  13.7360000  30.2460000  17.6240000  14.8180000  28.8290000
  16.8460000  15.4570000  28.7420000  18.2660000  14.3620000  27.5960000
  18.2950000  13.2720000  27.6140000  17.4050000  14.7750000  26.3990000
  17.8490000  14.3920000  25.4800000  16.4020000  14.3600000  26.5020000
  17.3470000  15.8620000  26.3340000  19.7140000  14.8840000  27.4640000
  19.9940000  16.0590000  27.7250000  20.6270000  14.0010000  27.0540000
  20.3010000  13.0800000  26.7970000  22.0330000  14.3030000  26.7720000
  22.6470000  13.5140000  27.2080000  22.3180000  15.2470000  27.2350000
  22.3340000  14.3950000  25.2710000  21.4790000  14.7650000  24.4620000
  23.5650000  14.0410000  24.9050000  24.2080000  13.7650000  25.6340000
  24.0570000  13.9630000  23.5280000  24.3210000  14.9640000  23.1880000
  23.2770000  13.5690000  22.8770000  25.2820000  13.0490000  23.4200000
  25.3670000  12.0240000  24.1010000  26.2250000  13.4140000  22.5480000
  26.0830000  14.2630000  22.0210000  27.5370000  12.7570000  22.4450000
  27.3600000  11.6850000  22.3560000  28.2440000  13.1930000  21.1460000
  29.1380000  12.5830000  21.0170000  27.5820000  12.9620000  20.3110000
  28.6560000  14.6760000  21.0610000  28.7660000  15.1890000  19.9200000
  28.9110000  15.3200000  22.1040000  28.4070000  12.9410000  23.7120000
  28.0260000  13.6100000  24.6790000  29.5860000  12.3110000  23.7330000
  29.8560000  11.7480000  22.9390000  30.4690000  12.3210000  24.9000000
  29.9090000  11.9230000  25.7460000  31.6420000  11.3750000  24.6340000
  32.2180000  11.2540000  25.5520000  31.2670000  10.3960000  24.3360000
  32.2830000  11.7760000  23.8480000  30.9180000  13.7310000  25.3230000
  30.9880000  14.0120000  26.5180000  31.1720000  14.6370000  24.3700000
  31.0350000  14.3670000  23.4070000  31.4750000  16.0450000  24.6580000
  32.2510000  16.0730000  25.4230000  32.0200000  16.7540000  23.4060000
  31.2680000  16.7140000  22.6180000  32.1930000  17.8040000  23.6420000
  33.3290000  16.1480000  22.8660000  33.1560000  15.1100000  22.5810000
  33.6110000  16.6870000  21.9610000  34.5110000  16.2110000  23.8390000
  34.5540000  16.9780000  24.7940000  35.5300000  15.4050000  23.6290000
  35.5310000  14.7750000  22.8400000  36.3190000  15.4540000  24.2590000
  30.2710000  16.8010000  25.2450000  30.4310000  17.5220000  26.2320000
  29.0640000  16.6180000  24.6960000  28.9900000  16.0330000  23.8760000
  27.8320000  17.1890000  25.2480000  27.9410000  18.2730000  25.2760000
  26.6580000  16.8560000  24.3190000  25.7480000  17.3190000  24.7010000
  26.8560000  17.2390000  23.3180000  26.5140000  15.7770000  24.2700000
  27.5660000  16.7180000  26.6910000  27.3000000  17.5360000  27.5750000
  27.6890000  15.4110000  26.9570000  27.8630000  14.7800000  26.1880000
  27.5540000  14.8650000  28.3100000  26.6300000  15.2540000  28.7370000
  27.4190000  13.3280000  28.2610000  28.1950000  12.9000000  27.6260000
  27.5610000  12.9410000  29.2700000  26.0520000  12.8520000  27.7760000
  25.2800000  13.5650000  27.1550000  25.6670000  11.6410000  28.1070000
  26.2540000  11.0500000  28.6770000  24.7720000  11.3160000  27.7680000
  28.6750000  15.3540000  29.2480000  28.3790000  15.7610000  30.3680000
  29.9350000  15.4120000  28.8020000  30.1490000  15.0310000  27.8910000
  31.0400000  16.0050000  29.5680000  31.1470000  15.4450000  30.4980000
  32.3390000  15.8420000  28.7680000  33.1720000  16.2930000  29.3080000
  32.5520000  14.7820000  28.6230000  32.2510000  16.3280000  27.7960000
  30.7750000  17.4760000  29.9540000  30.9610000  17.8570000  31.1100000
  30.2820000  18.2940000  29.0180000  30.1810000  17.9440000  28.0760000
  29.8330000  19.6620000  29.2910000  30.6780000  20.2230000  29.6920000
  29.4200000  20.3270000  27.9730000  29.1490000  21.3660000  28.1570000
  30.2490000  20.3000000  27.2660000  28.5630000  19.8120000  27.5370000
  28.7150000  19.7170000  30.3530000  28.7930000  20.5300000  31.2740000
  27.7170000  18.8260000  30.2780000  27.6770000  18.2140000  29.4760000
  26.6800000  18.6890000  31.3070000  26.1710000  19.6480000  31.3950000
  25.6350000  17.6580000  30.8600000  24.8090000  17.6470000  31.5710000
  25.2470000  17.9260000  29.8770000  26.0680000  16.6580000  30.8170000
  27.2650000  18.3700000  32.6990000  26.9150000  19.0440000  33.6690000
  28.1970000  17.4060000  32.8050000  28.4140000  16.8630000  31.9820000
  28.9420000  17.1420000  34.0560000  28.2160000  16.8430000  34.8130000
  29.9760000  15.9990000  33.9320000  30.7360000  16.2800000  33.2030000
  30.6840000  15.7530000  35.2730000  29.9560000  15.5770000  36.0650000
  31.3460000  14.8900000  35.2020000  31.2990000  16.6130000  35.5390000
  29.3380000  14.6860000  33.4620000  29.1860000  14.7120000  32.3830000
  29.9840000  13.8360000  33.6810000  28.3710000  14.5320000  33.9420000
  29.6030000  18.4160000  34.5870000  29.3450000  18.8170000  35.7230000
  30.4290000  19.0810000  33.7680000  30.5780000  18.7090000  32.8410000
  31.1530000  20.3020000  34.1700000  31.7620000  20.0680000  35.0430000
  32.0980000  20.7570000  33.0420000  31.5570000  20.8030000  32.0970000
  32.4680000  21.7550000  33.2780000  33.3080000  19.8120000  32.9190000
  33.7980000  19.7590000  33.8920000  32.9770000  18.8080000  32.6520000
  34.3500000  20.2880000  31.8990000  34.5330000  21.3520000  32.0510000
  35.2830000  19.7650000  32.1070000  33.9190000  20.0550000  30.5010000
  33.1020000  20.5660000  30.1980000  34.5190000  19.3150000  29.5820000
  35.6160000  18.6540000  29.8200000  36.0620000  18.7480000  30.7210000
  36.0740000  18.1300000  29.0880000  34.0250000  19.2190000  28.3810000
  33.2090000  19.7510000  28.1140000  34.5030000  18.6780000  27.6750000
  30.2140000  21.4250000  34.6290000  30.4890000  22.0560000  35.6470000
  29.0840000  21.6270000  33.9490000  28.9370000  21.0940000  33.1040000
  28.0390000  22.5680000  34.3650000  28.4810000  23.5620000  34.4340000
  26.9550000  22.6140000  33.2810000  26.1930000  23.3440000  33.5560000
  27.3980000  22.9090000  32.3290000  26.4850000  21.6370000  33.1680000
  27.4540000  22.2360000  35.7540000  27.4460000  23.0920000  36.6420000
  27.0000000  20.9910000  35.9650000  27.0420000  20.3370000  35.1970000
  26.4640000  20.5100000  37.2570000  25.5940000  21.1170000  37.5090000
  25.9930000  19.0430000  37.1650000  26.7950000  18.4360000  36.7440000
  25.6040000  18.4490000  38.5280000  24.8610000  19.0800000  39.0170000
  25.1890000  17.4510000  38.3880000  26.4780000  18.3590000  39.1730000
  24.7620000  18.9280000  36.2630000  24.9400000  19.4070000  35.3000000
  24.5630000  17.8720000  36.0830000  23.8960000  19.3930000  36.7340000
  27.4680000  20.6940000  38.3980000  27.1460000  21.3250000  39.4040000
  28.6910000  20.1710000  38.2460000  28.9030000  19.6890000  37.3840000
  29.7380000  20.2610000  39.2770000  29.3160000  19.9150000  40.2200000
  30.9220000  19.3470000  38.9190000  31.3830000  19.7160000  38.0030000
  31.6580000  19.4290000  39.7180000  30.5780000  17.8560000  38.7290000
  29.9620000  17.7230000  37.8400000  31.8770000  17.0870000  38.5310000
  32.4830000  17.1240000  39.4370000  31.6530000  16.0510000  38.2790000
  32.4360000  17.5340000  37.7080000  29.8290000  17.2510000  39.9130000
  28.8180000  17.6560000  39.9630000  29.7610000  16.1690000  39.7980000
  30.3570000  17.4900000  40.8360000  30.2030000  21.7090000  39.5270000
  30.5410000  22.0580000  40.6580000  30.1430000  22.5640000  38.5010000
  29.9290000  22.1950000  37.5850000  30.3630000  24.0100000  38.5980000
  30.4640000  24.4170000  37.5920000  31.2960000  24.1940000  39.1310000
  29.2390000  24.7800000  39.3120000  29.3790000  25.9810000  39.5490000
  28.1370000  24.1050000  39.6650000  28.0870000  23.1270000  39.4190000
  27.0620000  24.6250000  40.5150000  27.3990000  25.5260000  41.0270000
  26.8460000  23.8800000  41.2810000  25.7440000  24.9580000  39.8050000
  24.8100000  25.3940000  40.4820000  25.6450000  24.7750000  38.4800000
  26.4270000  24.3640000  37.9910000  24.4780000  25.1750000  37.6810000
  24.4130000  26.2620000  37.7130000  24.7130000  24.7650000  36.2210000
  23.8970000  25.1330000  35.6000000  25.6490000  25.1930000  35.8610000
  24.7570000  23.6790000  36.1400000  23.1480000  24.5990000  38.2200000
  23.0210000  23.3920000  38.4410000  22.1550000  25.4710000  38.4320000
  22.3260000  26.4370000  38.1930000  20.8240000  25.1350000  38.9780000
  20.9310000  24.3090000  39.6810000  20.2600000  26.3580000  39.7350000
  20.1530000  27.1840000  39.0310000  19.2660000  26.1180000  40.1130000
  21.1310000  26.8420000  40.9120000  22.1500000  27.0190000  40.5680000
  20.7320000  27.7910000  41.2690000  21.1510000  25.8580000  42.0900000
  20.1420000  25.8010000  42.4990000  21.4420000  24.8700000  41.7340000
  22.1180000  26.2780000  43.1260000  22.9350000  26.7740000  42.8010000
  22.0600000  26.0360000  44.4240000  21.0520000  25.4210000  44.9740000
  20.2590000  25.1630000  44.4040000  21.0120000  25.2890000  45.9750000
  23.0360000  26.3970000  45.2050000  23.8440000  26.8720000  44.8280000
  23.0120000  26.1780000  46.1910000  19.8650000  24.6690000  37.8730000
  19.7520000  25.3280000  36.8370000  19.1600000  23.5560000  38.0970000
  19.2990000  23.0590000  38.9650000  18.1460000  23.0240000  37.1710000
  18.4800000  23.1790000  36.1450000  17.2210000  23.5820000  37.3170000
  17.8340000  21.5270000  37.3420000  18.3850000  20.8760000  38.2360000
  16.9810000  20.9540000  36.4670000  16.2430000  21.6610000  35.4250000
  16.8730000  21.7670000  34.5410000  15.8970000  22.6390000  35.7580000
  15.0420000  20.7800000  35.0980000  14.7130000  20.9220000  34.0680000
  14.2300000  20.9820000  35.7970000  15.5900000  19.3770000  35.3380000
  16.1780000  19.0680000  34.4740000  14.7940000  18.6600000  35.5370000
  16.4940000  19.5710000  36.5590000  15.8850000  19.4850000  37.4590000
  17.5890000  18.5020000  36.6120000  17.4500000  17.5180000  37.3380000
  18.6920000  18.6930000  35.8760000  18.7370000  19.5100000  35.2830000
  19.8310000  17.7570000  35.9020000  19.4360000  16.7510000  35.7570000
  20.8460000  18.0080000  34.7700000  21.2670000  19.0080000  34.8750000
  21.9830000  16.9830000  34.8320000  21.5750000  15.9730000  34.7980000
  22.6700000  17.1370000  34.0000000  22.5410000  17.0860000  35.7630000
  20.1860000  17.8870000  33.3930000  19.4050000  18.6390000  33.2780000
  20.9290000  18.0490000  32.6120000  19.7480000  16.8960000  33.2710000
  20.5100000  17.7600000  37.2710000  20.6890000  16.6910000  37.8440000
  20.8440000  18.9330000  37.8340000  20.6380000  19.7840000  37.3310000
  21.3780000  19.0340000  39.2090000  22.3280000  18.5030000  39.2550000
  21.6240000  20.5040000  39.6040000  22.3610000  20.9310000  38.9230000
  20.6930000  21.0610000  39.5030000  22.1340000  20.6410000  41.0530000
  21.4750000  20.0930000  41.7270000  23.1350000  20.2170000  41.1330000
  22.1570000  22.0930000  41.5350000  22.9880000  22.6170000  41.0640000
  21.2280000  22.5770000  41.2320000  22.2300000  22.1360000  43.0130000
  21.4600000  21.7030000  43.5020000  23.1740000  22.6580000  43.7750000
  24.1800000  23.3240000  43.3040000  24.2490000  23.5290000  42.3170000
  24.8450000  23.6810000  43.9740000  23.1340000  22.5470000  45.0680000
  22.3840000  22.0520000  45.5300000  23.8560000  23.0060000  45.6040000
  20.4440000  18.3450000  40.2010000  20.9130000  17.5340000  40.9910000
  19.1470000  18.6340000  40.1400000  18.8500000  19.3430000  39.4850000
  18.1430000  17.9930000  40.9980000  18.3640000  18.2560000  42.0320000
  16.7370000  18.5150000  40.6680000  16.5290000  18.3350000  39.6130000
  16.0140000  17.9340000  41.2420000  16.5130000  20.0080000  40.9780000
  17.3050000  20.6250000  41.7320000  15.4910000  20.5570000  40.5000000
  18.1990000  16.4590000  40.9160000  18.3080000  15.7860000  41.9430000
  18.1870000  15.9000000  39.7010000  18.0920000  16.5010000  38.8950000
  18.3170000  14.4630000  39.4730000  17.5330000  13.9570000  40.0360000
  18.0800000  14.1880000  37.9840000  18.1110000  13.1140000  37.8040000
  17.1010000  14.5630000  37.6860000  18.8440000  14.6810000  37.3830000
  19.6570000  13.8910000  39.9720000  19.6760000  12.8370000  40.6100000
  20.7810000  14.5680000  39.7200000  20.7060000  15.4150000  39.1750000
  22.1050000  14.1830000  40.2420000  22.3150000  13.1630000  39.9210000
  23.2210000  15.0870000  39.6830000  22.9450000  16.1350000  39.8050000
  24.5670000  14.8590000  40.3830000  24.8480000  13.8080000  40.3220000
  25.3370000  15.4730000  39.9150000  24.5100000  15.1570000  41.4300000
  23.4130000  14.7900000  38.1930000  22.5040000  15.0210000  37.6370000
  24.2180000  15.4040000  37.7900000  23.6430000  13.7340000  38.0520000
  22.1110000  14.1510000  41.7670000  22.4490000  13.1230000  42.3470000
  21.7210000  15.2480000  42.4180000  21.4370000  16.0440000  41.8650000
  21.5780000  15.3520000  43.8790000  22.5680000  15.2250000  44.3180000
  21.0630000  16.7510000  44.2790000  20.2070000  17.0110000  43.6560000
  20.6260000  16.8530000  45.7440000  21.4480000  16.5830000  46.4070000
  20.3190000  17.8760000  45.9630000  19.7730000  16.2010000  45.9320000
  22.1730000  17.7910000  44.0670000  22.5220000  17.7730000  43.0340000
  21.7920000  18.7890000  44.2840000  23.0160000  17.5810000  44.7260000
  20.7110000  14.2240000  44.4420000  21.1220000  13.5620000  45.3920000
  19.5460000  13.9640000  43.8430000  19.2480000  14.5690000  43.0910000
  18.6560000  12.8660000  44.2310000  18.3880000  13.0180000  45.2770000
  17.3730000  12.9560000  43.3810000  16.8940000  13.9180000  43.5650000
  17.6530000  12.9200000  42.3280000  16.3530000  11.8340000  43.6390000
  16.8300000  10.8640000  43.5020000  15.7760000  11.9060000  45.0520000
  15.2030000  12.8240000  45.1830000  15.1320000  11.0420000  45.2150000
  16.5730000  11.8660000  45.7940000  15.2090000  11.9360000  42.6290000
  15.6000000  11.8330000  41.6170000  14.4880000  11.1380000  42.8060000
  14.7110000  12.9010000  42.7240000  19.3270000  11.4830000  44.1350000
  19.2380000  10.6850000  45.0670000  20.0200000  11.1860000  43.0310000
  20.0710000  11.8800000  42.2990000  20.7430000   9.9180000  42.8680000
  20.0830000   9.1100000  43.1850000  21.0540000   9.6760000  41.3780000
  21.4890000  10.5690000  40.9290000  21.7740000   8.8630000  41.2890000
  19.8000000   9.2580000  40.6150000  19.3950000   8.1080000  40.6290000
  19.1120000  10.1760000  39.9770000  19.3780000  11.1470000  40.0540000
  18.2290000   9.9160000  39.5610000  21.9590000   9.8080000  43.8100000
  22.1670000   8.7670000  44.4300000  22.7180000  10.8850000  44.0170000
  22.5270000  11.7240000  43.4870000  23.7590000  10.9380000  45.0440000
  24.4840000  10.1520000  44.8310000  24.4680000  12.2940000  44.9530000
  25.2110000  12.3760000  45.7460000  24.9670000  12.3870000  43.9880000
  23.7430000  13.1010000  45.0530000  23.1950000  10.6590000  46.4500000
  23.7310000   9.8250000  47.1790000  22.0750000  11.2870000  46.8130000
  21.6920000  11.9880000  46.1940000  21.3600000  11.0060000  48.0540000
  22.0340000  11.2250000  48.8820000  20.1570000  11.9410000  48.1670000
  19.6580000  11.7780000  49.1220000  20.5020000  12.9730000  48.1040000
  19.4460000  11.7570000  47.3620000  20.9520000   9.5300000  48.1810000
  21.2280000   8.9230000  49.2120000  20.3670000   8.9270000  47.1400000
  20.1160000   9.4900000  46.3400000  20.0260000   7.4980000  47.1240000
  19.5910000   7.2400000  46.1590000  19.2860000   7.3000000  47.9000000
  21.2280000   6.5820000  47.3740000  21.1430000   5.6450000  48.1660000
  22.3780000   6.8770000  46.7610000  22.3960000   7.6430000  46.1040000
  23.6310000   6.1740000  47.0480000  23.4710000   5.1050000  46.9100000
  24.6740000   6.6300000  46.0260000  25.6230000   6.1260000  46.2110000
  24.3320000   6.3940000  45.0180000  24.8090000   7.7080000  46.1070000
  24.1060000   6.3690000  48.5050000  24.5370000   5.4090000  49.1430000
  23.9770000   7.5770000  49.0680000  23.6520000   8.3400000  48.4910000
  24.3020000   7.8470000  50.4830000  25.2890000   7.4300000  50.6820000
  24.4020000   9.3700000  50.7430000  23.4770000   9.8350000  50.4030000
  24.5820000   9.6780000  52.2430000  25.4250000   9.1140000  52.6440000
  24.7720000  10.7400000  52.4000000  23.6820000   9.4140000  52.7970000
  25.5890000   9.9790000  49.9560000  26.5230000   9.7830000  50.4830000
  25.6680000   9.5050000  48.9770000  25.4500000  11.4880000  49.7100000
  25.4770000  12.0300000  50.6550000  26.2750000  11.8300000  49.0850000
  24.5110000  11.6960000  49.1980000  23.3280000   7.1230000  51.4370000
  23.7540000   6.6120000  52.4710000  22.0500000   6.9750000  51.0750000
  21.7360000   7.4570000  50.2440000  21.0790000   6.1350000  51.8060000
  21.1010000   6.4230000  52.8570000  19.6400000   6.3580000  51.2940000
  19.6190000   6.2580000  50.2090000  18.6330000   5.3670000  51.8950000
  18.6590000   5.4150000  52.9840000  17.6280000   5.6120000  51.5510000
  18.8570000   4.3500000  51.5740000  19.1560000   7.7590000  51.6670000
  19.8290000   8.5230000  51.2770000  18.1640000   7.9240000  51.2460000
  19.1010000   7.8530000  52.7510000  21.4740000   4.6560000  51.7510000
  21.4930000   3.9900000  52.7870000  21.8530000   4.1450000  50.5740000
  21.7720000   4.7200000  49.7480000  22.3890000   2.7890000  50.4280000
  21.6220000   2.0880000  50.7580000  22.6620000   2.5130000  48.9450000
  22.9140000   1.4600000  48.8190000  21.7760000   2.7340000  48.3490000
  23.4920000   3.1210000  48.5850000  23.6350000   2.5500000  51.3110000
  23.7100000   1.5350000  52.0010000  24.5780000   3.5020000  51.3480000
  24.4850000   4.2820000  50.7140000  25.6970000   3.5190000  52.3040000
  26.3040000   2.6280000  52.1450000  26.5850000   4.7430000  52.0180000
  27.1310000   4.5770000  51.0890000  25.9560000   5.6200000  51.8660000
  27.5700000   5.0820000  53.1070000  27.3310000   5.8880000  54.2000000
  26.4800000   6.3940000  54.4000000  28.4400000   5.8990000  54.9600000
  28.5460000   6.4440000  55.8870000  29.3970000   5.1330000  54.4060000
  28.8460000   4.6040000  53.2310000  29.3320000   3.9280000  52.5420000
  25.2250000   3.4790000  53.7720000  25.6550000   2.6100000  54.5290000
  24.3110000   4.3730000  54.1730000  23.9880000   5.0610000  53.5080000
  23.8090000   4.4720000  55.5500000  24.6510000   4.7040000  56.2030000
  22.8110000   5.6350000  55.6300000  22.4890000   5.7710000  56.6620000
  23.2800000   6.5580000  55.2860000  21.9380000   5.4250000  55.0130000
  23.1830000   3.1570000  56.0590000  23.3850000   2.7770000  57.2140000
  22.4710000   2.4330000  55.1860000  22.3070000   2.8310000  54.2720000
  21.8410000   1.1440000  55.4960000  21.3270000   0.7750000  54.6080000
  21.0860000   1.3000000  56.2660000  22.8030000   0.0480000  55.9940000
  22.3690000  -0.8340000  56.7380000  24.1030000   0.1140000  55.6590000
  24.4040000   0.8840000  55.0800000  25.1350000  -0.8230000  56.1460000
  24.8980000  -1.8270000  55.7950000  26.5220000  -0.4130000  55.6160000
  26.6960000   0.6290000  55.8870000  27.2790000  -1.0040000  56.1320000
  26.7340000  -0.5870000  54.1050000  25.9080000  -0.1380000  53.5520000
  28.0280000   0.1040000  53.6950000  28.8520000  -0.3010000  54.2820000
  28.2220000  -0.0550000  52.6340000  27.9460000   1.1750000  53.8820000
  26.8640000  -2.0680000  53.7380000  25.9570000  -2.6120000  54.0020000
  27.0340000  -2.1720000  52.6670000  27.7060000  -2.5110000  54.2680000
  25.2050000  -0.8870000  57.6800000  25.4200000  -1.9590000  58.2480000
  25.0170000   0.2550000  58.3480000  24.8750000   1.1010000  57.8150000
  25.1050000   0.3770000  59.8100000  25.9510000  -0.2130000  60.1620000
  25.3750000   1.8420000  60.1850000  24.5280000   2.4560000  59.8780000
  25.4920000   1.9230000  61.2660000  26.5530000   2.3150000  59.5480000
  26.7130000   3.2150000  59.8410000  23.8560000  -0.1190000  60.5580000
  23.8860000  -0.1750000  61.7860000  22.7600000  -0.4210000  59.8390000
  22.8670000  -0.3510000  58.8370000  21.4410000  -0.9320000  60.2900000
  20.8460000  -1.0220000  59.3810000  21.5220000  -2.3610000  60.8520000
  20.5270000  -2.8040000  60.8040000  22.1850000  -2.9560000  60.2240000
  21.9650000  -2.4070000  62.1980000  22.0590000  -3.3290000  62.4490000
  20.6210000   0.0060000  61.2000000  19.3880000  -0.0240000  61.1700000
  21.2890000   0.8970000  61.9460000  22.2880000   0.7580000  61.9900000
  20.7150000   1.9720000  62.7800000  19.9770000   1.5440000  63.4580000
  21.8450000   2.6270000  63.6000000  22.6100000   2.9860000  62.9110000
  21.4470000   3.4940000  64.1280000  22.5210000   1.7120000  64.6350000
  22.9150000   0.8200000  64.1490000  23.3590000   2.2580000  65.0680000
  21.5730000   1.2980000  65.7660000  21.1250000   2.1980000  66.1860000
  20.7840000   0.6620000  65.3630000  22.2970000   0.5630000  66.8220000
  23.2300000   0.2460000  66.6010000  21.8540000   0.2860000  68.0350000
  20.6610000   0.6280000  68.4330000  20.0490000   1.1110000  67.7910000
  20.3430000   0.4090000  69.3660000  22.6130000  -0.3460000  68.8840000
  23.5470000  -0.6250000  68.6180000  22.2780000  -0.5560000  69.8130000
  19.9740000   3.0580000  61.9850000  19.1460000   3.7660000  62.5600000
  20.2880000   3.2130000  60.6960000  20.9880000   2.5930000  60.3130000
  19.6920000   4.2030000  59.7950000  20.0050000   5.1910000  60.1350000
  20.2600000   3.9880000  58.3860000  19.8610000   4.7440000  57.7100000
  21.3460000   4.0800000  58.4090000  19.9850000   3.0010000  58.0160000
  18.1470000   4.1790000  59.7800000  17.5170000   3.1190000  59.8330000
  17.5450000   5.3640000  59.6550000  18.1280000   6.1850000  59.5790000
  16.0930000   5.5800000  59.5460000  15.5730000   4.6230000  59.5230000
  15.5850000   6.3800000  60.7580000  16.1200000   7.3290000  60.8090000
  14.5240000   6.5850000  60.6160000  15.7670000   5.6200000  62.0810000
  15.3330000   4.6260000  61.9680000  16.8310000   5.5010000  62.2840000
  15.1080000   6.3290000  63.2810000  15.0670000   7.5830000  63.3320000
  14.6370000   5.6270000  64.2100000  15.7810000   6.3230000  58.2390000
  16.5100000   7.2400000  57.8630000  14.7240000   5.9160000  57.5260000
  14.1450000   5.1860000  57.9140000  14.5010000   6.2680000  56.1140000
  15.3260000   5.8510000  55.5360000  13.2110000   5.5780000  55.6480000
  13.3030000   4.5130000  55.8620000  12.3800000   5.9470000  56.2490000
  12.8420000   5.7070000  54.1980000  11.7340000   6.3230000  53.7250000
  10.9970000   6.8260000  54.3340000  11.6590000   6.1650000  52.3530000
  10.9020000   6.5330000  51.7940000  12.7150000   5.4240000  51.8700000
  13.0690000   4.9830000  50.5850000  12.4310000   5.1990000  49.7400000
  14.2640000   4.2640000  50.4130000  14.5550000   3.9190000  49.4320000
  15.0870000   4.0050000  51.5240000  16.0120000   3.4640000  51.3880000
  14.7140000   4.4350000  52.8130000  15.3570000   4.2230000  53.6540000
  13.5140000   5.1500000  53.0230000  14.4980000   7.7790000  55.8270000
  15.3500000   8.2620000  55.0810000  13.5810000   8.5420000  56.4370000
  12.9240000   8.0990000  57.0630000  13.4840000   9.9920000  56.2060000
  13.4650000  10.1350000  55.1250000  12.1550000  10.5610000  56.7430000
  12.1090000  10.4220000  57.8230000  12.1400000  11.6340000  56.5510000
  10.8840000   9.9340000  56.1380000  10.8870000   8.8590000  56.3200000
   9.6510000  10.5210000  56.8230000   9.6000000  11.5960000  56.6480000
   8.7510000  10.0470000  56.4310000   9.7030000  10.3320000  57.8950000
  10.7590000  10.1740000  54.6330000  11.5530000   9.6470000  54.1040000
   9.8030000   9.7890000  54.2780000  10.8180000  11.2410000  54.4180000
  14.7340000  10.7750000  56.6760000  15.2460000  11.5680000  55.8800000
  15.3040000  10.5310000  57.8790000  14.6960000   9.8750000  59.0310000
  14.7870000   8.7920000  58.9380000  13.6490000  10.1520000  59.1580000
  15.4820000  10.3590000  60.2460000  15.4630000   9.6360000  61.0610000
  15.0920000  11.3220000  60.5750000  16.8830000  10.5440000  59.6770000
  17.3770000   9.5750000  59.6150000  17.4740000  11.2400000  60.2730000
  16.5970000  11.0970000  58.2770000  16.4880000  12.1790000  58.3470000
  17.7460000  10.7860000  57.3060000  18.5140000  11.6870000  56.9640000
  17.8720000   9.5360000  56.8460000  17.2290000   8.8290000  57.1730000
  18.8900000   9.1340000  55.8770000  19.8640000   9.4060000  56.2820000
  18.8680000   7.6100000  55.7110000  19.6710000   7.3030000  55.0410000
  19.0160000   7.1290000  56.6780000  17.9140000   7.2900000  55.2930000
  18.7400000   9.8670000  54.5310000  19.7400000  10.3390000  53.9890000
  17.5170000   9.9900000  53.9960000  16.7380000   9.5400000  54.4540000
  17.2540000  10.7950000  52.7960000  17.9110000  10.4420000  52.0010000
  15.8130000  10.6160000  52.3050000  15.1290000  10.6060000  53.1530000
  15.5580000  11.4720000  51.6820000  15.6080000   9.3930000  51.4700000
  14.9870000   8.2570000  51.8550000  14.5330000   8.0930000  52.8210000
  15.0540000   7.3250000  50.8420000  14.6740000   6.3920000  50.9230000
  15.6860000   7.8280000  49.7290000  15.9760000   7.2870000  48.4700000
  15.6800000   6.2770000  48.2290000  16.6410000   8.0860000  47.5290000
  16.8610000   7.6840000  46.5510000  17.0180000   9.4020000  47.8550000
  17.5230000  10.0100000  47.1190000  16.7310000   9.9320000  49.1290000
  17.0180000  10.9450000  49.3700000  16.0510000   9.1580000  50.0960000
  17.5930000  12.2770000  52.9850000  18.3040000  12.8390000  52.1520000
  17.1380000  12.9070000  54.0740000  16.5460000  12.3980000  54.7150000
  17.5010000  14.2900000  54.4120000  17.1520000  14.9440000  53.6120000
  16.8300000  14.7430000  55.7170000  16.9770000  13.9850000  56.4870000
  17.3140000  15.6640000  56.0430000  15.3300000  15.0220000  55.5480000
  15.2030000  15.8220000  54.8190000  14.8400000  14.1320000  55.1530000
  14.6640000  15.4410000  56.8750000  15.2940000  16.1590000  57.6920000
  13.4810000  15.0830000  57.1010000  19.0230000  14.4950000  54.4930000
  19.5490000  15.3950000  53.8370000  19.7440000  13.6590000  55.2530000
  19.2620000  12.9450000  55.7790000  21.2120000  13.6690000  55.2780000
  21.5370000  14.6420000  55.6440000  21.7530000  12.6070000  56.2520000
  21.3590000  12.7940000  57.2510000  21.4370000  11.6170000  55.9230000
  23.2850000  12.6490000  56.3040000  23.6640000  12.5890000  55.2840000
  23.6070000  13.6030000  56.7200000  23.9080000  11.4920000  57.0990000
  23.3420000  11.0450000  58.1250000  25.0010000  11.0350000  56.6950000
  21.8110000  13.5000000  53.8720000  22.6690000  14.2860000  53.4740000
  21.3780000  12.4880000  53.1170000  20.6760000  11.8720000  53.5010000
  21.8690000  12.2090000  51.7670000  21.3150000  11.3690000  51.3490000
  22.9240000  11.9420000  51.8200000  21.7330000  13.4050000  50.8270000
  22.6930000  13.7630000  50.1490000  20.5630000  14.0460000  50.8090000
  19.8230000  13.6920000  51.3990000  20.3000000  15.2670000  50.0420000
  20.5570000  15.0920000  48.9970000  18.8010000  15.6060000  50.1350000
  18.5230000  15.6440000  51.1890000  18.6320000  16.5970000  49.7140000
  17.8870000  14.5990000  49.4110000  18.1730000  13.5770000  49.6600000
  16.4380000  14.8060000  49.8410000  16.1200000  15.8200000  49.5990000
  15.7950000  14.0890000  49.3300000  16.3510000  14.6440000  50.9150000
  17.9560000  14.7680000  47.8940000  18.9710000  14.6020000  47.5340000
  17.2990000  14.0410000  47.4150000  17.6430000  15.7780000  47.6300000
  21.1770000  16.4380000  50.5070000  21.8130000  17.0920000  49.6790000
  21.2660000  16.6650000  51.8240000  20.7110000  16.0840000  52.4370000
  22.1130000  17.7000000  52.4450000  21.7900000  18.6770000  52.0840000
  21.8870000  17.6470000  53.9680000  20.8130000  17.7010000  54.1450000
  22.2450000  16.6930000  54.3570000  22.5570000  18.7820000  54.7570000
  23.6350000  18.7440000  54.6060000  22.1880000  19.7430000  54.3970000
  22.2660000  18.6560000  56.2620000  22.6700000  17.7070000  56.6160000
  22.7920000  19.4550000  56.7850000  20.8180000  18.7670000  56.5520000
  20.3530000  19.5820000  56.1780000  20.0490000  17.9190000  57.2160000
  20.5210000  16.8570000  57.8040000  21.5200000  16.7060000  57.8170000
  19.9130000  16.2430000  58.3270000  18.7680000  18.1300000  57.3030000
  18.3570000  18.9440000  56.8670000  18.1710000  17.4920000  57.8090000
  23.5840000  17.5440000  52.0440000  24.1880000  18.4920000  51.5450000
  24.1360000  16.3330000  52.1880000  23.5510000  15.6180000  52.5970000
  25.5180000  15.9720000  51.8110000  26.2070000  16.6790000  52.2730000
  25.8470000  14.5660000  52.3500000  25.0540000  13.8750000  52.0660000
  26.7820000  14.2230000  51.9060000  26.0080000  14.5670000  53.8810000
  26.8540000  15.1950000  54.1610000  25.1130000  14.9950000  54.3340000
  26.2050000  13.1570000  54.4580000  26.1080000  13.2270000  55.5420000
  25.4150000  12.5110000  54.0770000  27.5170000  12.5630000  54.1250000
  28.1280000  13.0940000  53.5220000  27.9850000  11.4070000  54.5670000
  27.3310000  10.6480000  55.3930000  26.4400000  10.9530000  55.7600000
  27.7220000   9.7860000  55.7420000  29.1480000  10.9740000  54.1830000
  29.7060000  11.5230000  53.5440000  29.5060000  10.1010000  54.5420000
  25.7650000  16.0750000  50.3040000  26.7620000  16.6640000  49.8980000
  24.8500000  15.5690000  49.4740000  24.0680000  15.0670000  49.8700000
  24.9250000  15.6810000  48.0140000  25.8500000  15.2100000  47.6820000
  23.7550000  14.9010000  47.4050000  23.7630000  15.0200000  46.3220000
  23.8490000  13.8430000  47.6500000  22.8080000  15.2710000  47.7980000
  24.9630000  17.1450000  47.5280000  25.8580000  17.5200000  46.7700000
  24.0360000  17.9880000  47.9990000  23.2970000  17.6220000  48.5820000
  24.0400000  19.4350000  47.7260000  23.9880000  19.5830000  46.6470000
  22.8160000  20.1150000  48.3490000  22.7470000  19.8490000  49.4040000
  22.9170000  21.1970000  48.2630000  21.6440000  19.7050000  47.6680000
  20.8870000  19.9080000  48.2220000  25.3230000  20.1140000  48.2130000
  25.9750000  20.8100000  47.4350000  25.7270000  19.8760000  49.4680000
  25.1490000  19.3040000  50.0680000  26.9540000  20.4290000  50.0470000
  26.8620000  21.5150000  50.0600000  27.0880000  19.9540000  51.4980000
  27.9830000  20.3880000  51.9430000  26.2210000  20.2750000  52.0750000
  27.1650000  18.8670000  51.5360000  28.2070000  20.0900000  49.2200000
  28.9970000  20.9810000  48.9240000  28.3680000  18.8320000  48.7940000
  27.7010000  18.1350000  49.0920000  29.5100000  18.3840000  47.9930000
  30.4220000  18.6010000  48.5490000  29.4060000  16.8650000  47.8270000
  30.2370000  16.4990000  47.2240000  29.4420000  16.3840000  48.8050000
  28.4660000  16.6040000  47.3400000  29.6340000  19.1080000  46.6350000
  30.7490000  19.3320000  46.1600000  28.5160000  19.5090000  46.0170000
  27.6290000  19.2750000  46.4400000  28.5220000  20.4070000  44.8490000
  29.3180000  20.0950000  44.1720000  27.1870000  20.3230000  44.0660000
  26.3700000  20.5580000  44.7490000  27.1570000  21.3530000  42.9190000
  27.9780000  21.1680000  42.2260000  26.2140000  21.2970000  42.3750000
  27.2420000  22.3660000  43.3110000  26.9630000  18.8960000  43.5120000
  27.7370000  18.6620000  42.7810000  27.0430000  18.1770000  44.3270000
  25.5870000  18.6870000  42.8640000  25.5370000  19.1990000  41.9040000
  25.4230000  17.6220000  42.6970000  24.8070000  19.0670000  43.5240000
  28.8470000  21.8470000  45.2880000  29.7560000  22.4750000  44.7470000
  28.1140000  22.3730000  46.2710000  27.4030000  21.7850000  46.6820000
  28.1220000  23.7900000  46.6640000  27.9990000  24.3800000  45.7560000
  26.9060000  24.0800000  47.5580000  26.9290000  23.4130000  48.4200000
  26.9750000  25.1040000  47.9250000  25.5640000  23.9270000  46.8190000
  25.5270000  23.9700000  45.5680000  24.5040000  23.7920000  47.4710000
  29.4320000  24.2980000  47.2970000  29.7860000  25.4650000  47.1090000
  30.1910000  23.4450000  47.9930000  29.8410000  22.5130000  48.1670000
  31.5580000  23.7600000  48.4660000  31.5760000  24.7770000  48.8590000
  31.9930000  22.8190000  49.6000000  32.9980000  23.0980000  49.9180000
  31.0840000  22.9010000  50.8260000  30.0560000  22.6440000  50.5690000
  31.4430000  22.2180000  51.5960000  31.1050000  23.9160000  51.2220000
  32.0310000  21.4860000  49.1370000  32.2120000  20.9290000  49.8970000
  32.6100000  23.6800000  47.3480000  33.7630000  24.0660000  47.5540000
  32.2430000  23.1570000  46.1710000  31.2720000  22.9090000  46.0430000
  33.1590000  22.8520000  45.0680000  33.8520000  23.6810000  44.9250000
  32.5820000  22.7420000  44.1500000  33.9700000  21.5680000  45.2730000
  34.8990000  21.3130000  44.5070000  33.6660000  20.7540000  46.2920000
  32.9030000  21.0030000  46.9050000  34.3730000  19.4980000  46.5570000
  35.4320000  19.7220000  46.6880000  33.8600000  18.9000000  47.8730000
  34.3870000  17.9700000  48.0860000  34.0470000  19.5960000  48.6910000
  32.7910000  18.6980000  47.8100000  34.2670000  18.5010000  45.3880000
  35.2650000  17.8920000  45.0130000  33.0850000  18.3530000  44.7790000
  32.2900000  18.8410000  45.1660000  32.8640000  17.4690000  43.6290000
  33.2470000  16.4780000  43.8720000  31.3510000  17.3350000  43.4200000
  31.1530000  16.5540000  42.6870000  30.8700000  17.0510000  44.3560000
  30.9310000  18.2810000  43.0790000  33.6290000  17.9060000  42.3640000
  34.2350000  17.0770000  41.6860000  33.6610000  19.2120000  42.0760000
  33.1370000  19.8420000  42.6660000  34.4880000  19.7910000  41.0040000
  34.2230000  19.3070000  40.0640000  34.1730000  21.2900000  40.8720000
  33.1040000  21.4000000  40.6860000  34.4160000  21.7960000  41.8060000
  34.9350000  21.9540000  39.7170000  36.0020000  21.9430000  39.9360000
  34.7690000  21.3670000  38.8140000  34.4880000  23.4110000  39.4760000
  34.3470000  23.8100000  38.2940000  34.3080000  24.1810000  40.4520000
  35.9890000  19.5330000  41.2310000  36.6760000  19.0240000  40.3420000
  36.4890000  19.8370000  42.4360000  35.8780000  20.2720000  43.1130000
  37.8680000  19.5370000  42.8420000  38.5490000  20.0520000  42.1640000
  38.1320000  20.0490000  44.2650000  37.3310000  19.7160000  44.9250000
  39.0690000  19.6230000  44.6220000  38.2510000  21.5770000  44.3280000
  39.1420000  21.8950000  43.7870000  37.3860000  22.0420000  43.8550000
  38.3460000  22.0540000  45.7740000  39.4150000  22.1340000  46.3670000
  37.2300000  22.3600000  46.4010000  36.3490000  22.2740000  45.9150000
  37.2830000  22.6810000  47.3570000  38.1970000  18.0420000  42.7410000
  39.2450000  17.6870000  42.2090000  37.3160000  17.1580000  43.2160000
  36.4950000  17.5040000  43.6930000  37.5060000  15.7080000  43.1350000
  38.4530000  15.4730000  43.6200000  36.3990000  15.0000000  43.9330000
  36.4470000  15.3740000  44.9550000  35.4240000  15.2720000  43.5290000
  36.5590000  13.4640000  43.9430000  37.5700000  13.1880000  43.6430000
  36.3290000  12.9050000  45.3430000  35.3170000  13.1400000  45.6730000
  36.4770000  11.8250000  45.3360000  37.0460000  13.3440000  46.0360000
  35.5540000  12.7960000  43.0050000  35.7490000  13.0950000  41.9750000
  35.6490000  11.7120000  43.0760000  34.5380000  13.0780000  43.2820000
  37.6250000  15.2140000  41.6870000  38.5430000  14.4510000  41.3990000
  36.7760000  15.6830000  40.7630000  36.0260000  16.2930000  41.0560000
  36.9370000  15.3870000  39.3320000  36.9460000  14.3020000  39.2260000
  35.7320000  15.9260000  38.5370000  34.8230000  15.4540000  38.9100000
  35.6470000  16.9990000  38.7120000  35.8310000  15.6870000  37.0160000
  36.7210000  16.1810000  36.6250000  35.8860000  14.2030000  36.6480000
  35.0310000  13.6770000  37.0730000  35.8730000  14.0900000  35.5640000
  36.8070000  13.7560000  37.0210000  34.6200000  16.2920000  36.3140000
  34.5530000  17.3550000  36.5480000  34.7360000  16.1840000  35.2360000
  33.7100000  15.7830000  36.6300000  38.2840000  15.8950000  38.7830000
  38.9900000  15.1460000  38.1090000  38.6770000  17.1330000  39.1060000
  38.0540000  17.7130000  39.6490000  39.9750000  17.6900000  38.7060000
  40.0230000  17.6750000  37.6180000  40.0520000  19.1550000  39.1540000
  40.9730000  19.6020000  38.7800000  39.2050000  19.7100000  38.7510000
  40.0380000  19.2230000  40.2420000  41.1630000  16.8480000  39.2230000
  42.0390000  16.4690000  38.4440000  41.1640000  16.4770000  40.5130000
  40.4230000  16.8320000  41.1010000  42.1430000  15.5430000  41.1010000
  43.1440000  15.9070000  40.8710000  41.9870000  15.4600000  42.6360000
  40.9350000  15.5380000  42.9120000  42.3300000  14.4800000  42.9700000
  42.8360000  16.5160000  43.3780000  43.4750000  16.0080000  44.1000000
  43.4950000  17.0240000  42.6740000  42.0360000  17.5840000  44.1330000
  42.7450000  18.3460000  44.4580000  41.3220000  18.0520000  43.4550000
  41.3340000  17.0270000  45.3100000  41.1980000  16.0260000  45.3310000
  40.9190000  17.6990000  46.3710000  41.0590000  18.9900000  46.4740000
  41.5080000  19.5010000  45.7280000  40.7390000  19.4840000  47.2950000
  40.3480000  17.0820000  47.3650000  40.2360000  16.0790000  47.3500000
  40.0500000  17.5990000  48.1800000  42.0950000  14.1530000  40.4680000
  43.1530000  13.5690000  40.2720000  40.9230000  13.6320000  40.1030000
  40.0800000  14.1290000  40.3500000  40.7970000  12.3480000  39.3970000
  41.3060000  11.5980000  40.0030000  39.3170000  11.9480000  39.2730000
  38.8080000  12.1920000  40.2050000  38.8460000  12.5380000  38.4860000
  39.0320000  10.5010000  39.0060000  39.9200000   9.4800000  39.0690000
  40.9730000   9.5680000  39.2910000  39.2740000   8.2830000  38.8570000
  39.7440000   7.3930000  38.9430000  37.9290000   8.4680000  38.6310000
  36.8760000   7.5820000  38.3750000  37.0710000   6.5210000  38.3300000
  35.5820000   8.0930000  38.1710000  34.7590000   7.4260000  37.9620000
  35.3610000   9.4810000  38.2430000  34.3660000   9.8700000  38.0890000
  36.4270000  10.3640000  38.5160000  36.2410000  11.4270000  38.5720000
  37.7410000   9.8810000  38.7120000  41.4850000  12.3640000  38.0230000
  42.2720000  11.4700000  37.7040000  41.2510000  13.4230000  37.2400000
  40.5680000  14.0960000  37.5580000  41.9650000  13.7040000  35.9820000
  41.8080000  12.8610000  35.3090000  41.3930000  14.9560000  35.2860000
  41.3930000  15.7920000  35.9860000  42.2090000  15.3620000  34.0540000
  42.3000000  14.5180000  33.3710000  41.7200000  16.1890000  33.5400000
  43.2030000  15.6950000  34.3520000  39.9500000  14.7100000  34.8300000
  39.3180000  14.4290000  35.6720000  39.5420000  15.6180000  34.3870000
  39.9230000  13.9090000  34.0900000  43.4800000  13.7910000  36.2090000
  44.2350000  13.0680000  35.5570000  43.9420000  14.6340000  37.1490000
  43.2780000  15.2130000  37.6420000  45.3810000  14.7670000  37.4630000
  45.9040000  15.0150000  36.5400000  45.6470000  15.9060000  38.4660000
  45.0440000  15.7690000  39.3630000  46.6990000  15.8650000  38.7490000
  45.3690000  17.2890000  37.8510000  45.7530000  17.3050000  36.8310000
  44.2950000  17.4710000  37.8100000  46.0510000  18.4310000  38.6160000
  47.1280000  18.2630000  38.5950000  45.8660000  19.3680000  38.0910000
  45.6170000  18.5350000  40.0260000  46.1640000  18.0170000  40.6990000
  44.7110000  19.3550000  40.5260000  43.9070000  20.0480000  39.7730000
  43.9720000  19.9570000  38.7690000  43.2530000  20.7030000  40.1770000
  44.6010000  19.5020000  41.8140000  45.2550000  19.0440000  42.4330000
  43.9510000  20.1730000  42.1970000  46.0160000  13.4540000  37.9290000
  47.0770000  13.1040000  37.4280000  45.3530000  12.6850000  38.7930000
  44.4940000  13.0450000  39.1820000  45.7730000  11.3320000  39.1820000
  46.7270000  11.3980000  39.7050000  44.7460000  10.7220000  40.1530000
  44.8320000  11.2230000  41.1170000  43.7390000  10.9020000  39.7780000
  44.9170000   9.2270000  40.3450000  45.8300000   8.7340000  41.2940000
  46.3570000   9.4140000  41.9470000  46.0840000   7.3540000  41.3720000
  46.7950000   6.9820000  42.0960000  45.4420000   6.4640000  40.4940000
  45.6580000   5.4070000  40.5310000  44.5080000   6.9510000  39.5650000
  44.0100000   6.2690000  38.8920000  44.2310000   8.3270000  39.5040000
  43.5200000   8.6930000  38.7780000  45.9920000  10.4280000  37.9550000
  47.0600000   9.8290000  37.8110000  45.0090000  10.3720000  37.0440000
  44.1520000  10.8720000  37.2310000  45.0980000   9.5920000  35.8040000
  44.1820000   9.7320000  35.2300000  45.1900000   8.5350000  36.0530000
  46.2850000   9.9920000  34.9180000  46.9750000   9.1200000  34.3820000
  46.5370000  11.3020000  34.7840000  45.8900000  11.9380000  35.2280000
  47.6440000  11.8810000  33.9930000  47.7100000  11.3540000  33.0410000
  47.3340000  13.3590000  33.7030000  47.1030000  13.8750000  34.6350000
  48.2120000  13.8280000  33.2580000  46.1600000  13.4980000  32.7210000
  46.4450000  13.0520000  31.7680000  45.2860000  12.9720000  33.1030000
  45.7880000  14.9650000  32.4960000  45.4690000  15.3940000  33.4460000
  46.6670000  15.5030000  32.1390000  44.7030000  15.0790000  31.5030000
  44.4250000  14.2270000  31.0370000  44.0740000  16.1800000  31.1380000
  44.3420000  17.3390000  31.6670000  45.0690000  17.4050000  32.3650000
  43.8530000  18.1710000  31.3680000  43.1500000  16.1340000  30.2220000
  42.9370000  15.2630000  29.7570000  42.6740000  16.9770000  29.9330000
  49.0270000  11.7340000  34.6420000  50.0220000  11.5870000  33.9320000
  49.0950000  11.7370000  35.9750000  48.2450000  11.9380000  36.4820000
  50.3240000  11.5400000  36.7620000  51.1140000  12.1460000  36.3180000
  50.1100000  12.0410000  38.2020000  49.1580000  11.6660000  38.5770000
  50.9040000  11.6540000  38.8410000  50.1400000  13.5780000  38.2700000
  51.1440000  13.9230000  38.0210000  49.4610000  13.9910000  37.5250000
  49.7590000  14.1450000  39.6370000  49.6860000  13.4620000  40.6520000
  49.5170000  15.4370000  39.7210000  49.5870000  16.0260000  38.9030000
  49.2980000  15.8270000  40.6270000  50.8520000  10.0890000  36.7460000
  52.0110000   9.8770000  37.1190000  50.0340000   9.1330000  36.2640000
  49.1070000   9.4450000  36.0120000  50.2720000   7.6730000  36.1950000
  49.4450000   7.2650000  35.6140000  51.5580000   7.3140000  35.4020000
  52.4190000   7.6650000  35.9700000  51.6920000   5.7870000  35.2650000
  50.8600000   5.3840000  34.6880000  52.6270000   5.5310000  34.7660000
  51.7080000   5.3150000  36.2470000  51.5970000   7.9780000  34.0010000
  50.8300000   7.5380000  33.3630000  51.3830000   9.0440000  34.0910000
  52.9580000   7.8710000  33.3020000  53.1660000   6.8390000  33.0180000
  52.9480000   8.4840000  32.4000000  53.7440000   8.2350000  33.9630000
  50.1510000   6.9780000  37.5640000  49.4150000   5.9700000  37.6370000
  50.7410000   7.4230000  38.5780000
