default_name
 39097
  53.4900000 -24.2910000  -3.6580000  54.1803693 -24.3919098  -4.3882797
  52.7952854 -25.0161860  -3.7655979  53.9662119 -24.1748895  -2.7749144
  52.7760000 -23.0370000  -3.8790000  51.7135645 -23.2363480  -4.0189657
  52.9450000 -22.1040000  -2.6730000  52.8748737 -22.7296787  -1.7832204
  53.9482815 -21.6837040  -2.7428386  51.9310000 -20.9790000  -2.5810000
  52.2176842 -20.1934530  -3.2801630  50.9512532 -21.3696171  -2.8559847
  51.8710000 -20.4030000  -1.1630000  51.6473672 -21.2088341  -0.4639158
  52.8398474 -19.9680969  -0.9174526  50.8430000 -19.3660000  -1.0290000
  50.2386880 -19.2244852  -1.8257935  50.6510000 -18.6160000   0.0560000
  51.4140000 -18.7760000   1.1290000  52.1465162 -19.4713437   1.1248696
  51.2589999 -18.2017626   1.9452879  49.6950000 -17.6950000   0.0660000
  49.1146844 -17.5650143  -0.7503563  49.5523695 -17.1285055   0.8899170
  53.2850000 -22.3720000  -5.1530000  54.3550000 -21.7630000  -5.1390000
  52.5440000 -22.5080000  -6.2550000  51.3290000 -23.3210000  -6.4410000
  50.4873517 -22.8348177  -5.9476896  51.4827379 -24.3088769  -6.0067616
  51.1720000 -23.3700000  -7.9410000  50.1148383 -23.4332634  -8.1988876
  51.6949624 -24.2401353  -8.3378328  51.7790000 -22.1110000  -8.4450000
  51.0389013 -21.3172630  -8.3433412  52.1315801 -22.1484739  -9.4757195
  52.9560000 -21.8500000  -7.4990000  53.8812098 -22.3061462  -7.8511587
  53.1800000 -20.3640000  -7.2690000  52.4260000 -19.7080000  -6.5480000
  54.2510000 -19.8410000  -7.8560000  54.8781588 -20.4075325  -8.4090028
  54.5750000 -18.4360000  -7.6690000  54.6676510 -18.2096832  -6.6067874
  55.9020000 -18.1060000  -8.3570000  56.6970232 -18.7134068  -7.9244560
  55.8219506 -18.3188285  -9.4230188  56.2249214 -16.6291033  -8.1566943
  55.4305149 -16.0210176  -8.5894192  56.3055903 -16.4155951  -7.0908572
  57.5469421 -16.3003401  -8.8421147  58.3419656 -16.9077477  -8.4095728
  57.4668909 -16.5131672  -9.9081334  57.8935990 -14.8720284  -8.6684599
  57.2620807 -14.2830738  -8.1446122  58.9987374 -14.3286021  -9.1707125
  59.8779974 -15.0392494  -9.8712713  59.7131378 -16.0223500 -10.0338586
  60.7065258 -14.5925485 -10.2374662  59.2118613 -13.0337618  -8.9542232
  58.5421604 -12.4969741  -8.4218138  60.0424271 -12.5931991  -9.3232267
  53.4470000 -17.5680000  -8.2180000  53.0790000 -17.6860000  -9.3920000
  52.8790000 -16.7170000  -7.3560000  53.1241015 -16.7515402  -6.3768005
  51.8810000 -15.7440000  -7.7850000  51.0547327 -16.2596409  -8.2743832
  51.3310000 -14.9630000  -6.5910000  52.1914632 -14.5016306  -6.1063965
  50.6881684 -14.1862507  -7.0051595  50.5470000 -15.7790000  -5.5660000
  49.7476276 -16.3060986  -6.0868376  51.2179772 -16.5030406  -5.1037696
  49.9250000 -14.9120000  -4.4620000  50.1180000 -15.1680000  -3.2690000
  49.1700000 -13.8870000  -4.8600000  48.7376651 -13.2856408  -4.1733013
  49.0340874 -13.7168940  -5.8462520  52.4890000 -14.7650000  -8.7930000
  53.6940000 -14.7720000  -9.0620000  51.6440000 -13.9050000  -9.3570000
  50.6418193 -13.9853056  -9.2606453  52.1730000 -12.8340000 -10.1850000
  53.0110780 -13.2188917 -10.7660188  51.1290000 -12.2740000 -11.1470000
  50.5581555 -13.1029069 -11.5655082  50.4493615 -11.5748462 -10.6597881
  51.7360000 -11.5450000 -12.3040000  52.3150000 -10.2990000 -12.1790000
  52.7850000  -9.9180000 -13.3540000  53.2784913  -8.9525878 -13.4660032
  52.5380000 -10.8730000 -14.2340000  52.7822792 -10.8565547 -15.2138761
  51.8890000 -11.9050000 -13.6010000  51.6054373 -12.7958509 -14.1614267
  52.7030000 -11.7170000  -9.3020000  52.0970000 -11.3630000  -8.2840000
  53.8400000 -11.1570000  -9.7160000  54.2322147 -11.4005213 -10.6143119
  54.5880000 -10.2480000  -8.8600000  54.8732312 -10.7447276  -7.9326360
  55.8570000  -9.8070000  -9.5880000  56.4096545 -10.7363236  -9.7259486
  55.5443859  -9.4232101 -10.5591219  56.7510000  -8.7820000  -8.9010000
  56.2349853  -7.8219631  -8.8883995  57.0730000  -9.2030000  -7.4750000
  57.5894720 -10.1627999  -7.4868162  57.7122465  -8.4527136  -7.0096669
  56.1483170  -9.2955568  -6.9053554  58.0110000  -8.6300000  -9.7140000
  57.7573437  -8.2901238 -10.7181126  58.6651612  -7.8994436  -9.2381201
  58.5230127  -9.5903513  -9.7745592  53.7530000  -9.0470000  -8.4270000
  53.9930000  -8.4880000  -7.3490000  52.7530000  -8.6540000  -9.2270000
  52.5509188  -9.1476546 -10.0846524  51.9680000  -7.4630000  -8.9120000
  52.6249456  -6.6779753  -8.5374896  51.2460000  -6.9430000 -10.1640000
  50.8550842  -7.8367494 -10.6503087  50.4167925  -6.3302323  -9.8104030
  52.0810000  -6.1420000 -11.1650000  52.5996210  -5.3358557 -10.6460931
  53.0780000  -7.0420000 -11.8040000  52.5600798  -7.8481929 -12.3235291
  53.6750912  -6.4748642 -12.5181007  53.7304970  -7.4634266 -11.0393121
  51.2250000  -5.5140000 -12.2280000  50.5060305  -4.8386193 -11.7642725
  51.8552370  -4.9541774 -12.9190146  50.6917995  -6.2929257 -12.7730421
  50.9480000  -7.6980000  -7.8070000  50.5180000  -6.7310000  -7.1630000
  50.5600000  -8.9550000  -7.5730000  50.9541831  -9.7132269  -8.1113410
  49.5310000  -9.2690000  -6.5850000  48.7236125  -8.5389025  -6.6414116
  48.9520000 -10.6610000  -6.8560000  48.4866494 -11.0281611  -5.9412646
  48.1978142 -10.5775917  -7.6385260  49.9640000 -11.5680000  -7.2690000
  49.5741309 -12.4300858  -7.4315115  50.0540000  -9.2050000  -5.1600000
  49.3060000  -8.8410000  -4.2480000  51.3200000  -9.5510000  -4.9540000
  51.9164330  -9.7375041  -5.7474628  51.8700000  -9.7320000  -3.6210000
  51.3029767 -10.4824713  -3.0702037  53.3130000 -10.2060000  -3.7450000
  53.8969243  -9.3270295  -4.0180247  53.6727063 -10.5995834  -2.7943142
  53.4640000 -11.2750000  -4.8290000  52.9770180 -10.9185110  -5.7366701
  54.9080000 -11.5640000  -5.1170000  55.3955723 -11.9210010  -4.2098494
  54.9787787 -12.3276746  -5.8915271  55.4000753 -10.6535539  -5.4591262
  52.7500000 -12.5430000  -4.4290000  51.6899254 -12.3338590  -4.2854684
  52.8693863 -13.2906442  -5.2131405  53.1742699 -12.9216085  -3.4990808
  51.7790000  -8.4400000  -2.8060000  51.4730000  -7.3650000  -3.3290000
  52.0150000  -8.5580000  -1.4990000  52.0848982  -9.4597582  -1.0495050
  52.1540000  -7.3630000  -0.6760000  51.4278574  -6.6261150  -1.0192441
  51.9010000  -7.6450000   0.8090000  50.8887518  -8.0308624   0.9296815
  52.8960000  -8.6640000   1.3320000  53.9085215  -8.2786208   1.2120723
  52.7023729  -8.8528683   2.3879055  52.7929572  -9.5936284   0.7722913
  52.0610000  -6.4270000   1.5570000  51.9031609  -6.6001447   2.4879716
  53.5540000  -6.7880000  -0.8310000  54.4720000  -7.4530000  -1.3240000
  53.7080000  -5.5370000  -0.3890000  52.9116239  -5.0003143  -0.0761856
  55.0140000  -4.8930000  -0.3980000  55.3026464  -4.6456803  -1.4195750
  54.9640000  -3.6100000   0.4170000  54.7640905  -3.8952696   1.4498392
  55.9507088  -3.1514743   0.3517316  53.9240000  -2.6270000  -0.0410000
  53.8589979  -2.6228885  -1.1290527  52.9509510  -2.8806592   0.3796360
  54.3390000  -1.2620000   0.4420000  54.8672738  -1.3986137   1.3855902
  55.0225226  -0.8493595  -0.3000405  53.2470000  -0.3150000   0.6500000
  52.9953421  -0.1013574   1.6045284  52.5820000   0.2810000  -0.3270000
  52.8720000  -0.0100000  -1.5880000  53.5965676  -0.6827995  -1.7940163
  52.3669484   0.4425295  -2.3364915  51.6260000   1.1540000  -0.0420000
  51.4074416   1.3621963   0.9218395  51.1205852   1.6069190  -0.7900101
  56.0870000  -5.8290000   0.1440000  57.0550000  -6.1590000  -0.5550000
  55.9080000  -6.2910000   1.3880000  55.1451829  -5.9578193   1.9600140
  56.8470000  -7.2440000   1.9730000  57.8099646  -6.7600385   2.1360326
  56.3240000  -7.7580000   3.3170000  55.4272484  -7.1858591   3.5548876
  56.0598488  -8.8067480   3.1811628  57.3290000  -7.6300000   4.4630000
  57.3797669  -6.5801166   4.7515625  56.9604160  -8.2195743   5.3024344
  58.7310000  -8.1210000   4.0690000  58.8310702  -8.0307625   2.9873614
  59.4650997  -7.4791678   4.5560817  58.9960000  -9.5120000   4.4510000
  58.3625759  -9.9238215   5.1212808  60.0080000 -10.2550000   3.9890000
  60.8730000  -9.7690000   3.1030000  60.7698082  -8.8216730   2.7683017
  61.6289997 -10.3495464   2.7690390  60.1530000 -11.5040000   4.4070000
  59.4986712 -11.8896656   5.0727446  60.9171847 -12.0646074   4.0579445
  57.1080000  -8.4100000   1.0310000  58.2560000  -8.8310000   0.8530000
  56.0650000  -8.9200000   0.3850000  55.1299771  -8.5568005   0.5029731
  56.2490000 -10.0910000  -0.4600000  56.8105400 -10.8362454   0.1033660
  54.8960000 -10.6820000  -0.8350000  54.3255513  -9.9506186  -1.4075117
  55.0447553 -11.5781921  -1.4373386  54.3481893 -10.9406745   0.0711403
  57.0660000  -9.7600000  -1.7050000  58.0040000 -10.4910000  -2.0570000
  56.7240000  -8.6650000  -2.3950000  55.9075829  -8.1127884  -2.1744899
  57.4960000  -8.3150000  -3.5840000  57.5762240  -9.1860302  -4.2343612
  56.8210000  -7.1740000  -4.3700000  57.6255010  -6.6667019  -4.9024716
  56.1611505  -7.6608626  -5.0880971  56.0210000  -6.1480000  -3.5540000
  55.4971160  -6.6779707  -2.7585269  56.7236576  -5.4390623  -3.1160713
  54.9880000  -5.3660000  -4.3880000  54.4650000  -5.8720000  -5.3860000
  54.6960000  -4.1280000  -3.9730000  54.0250736  -3.5724221  -4.4841677
  55.1478327  -3.7546885  -3.1504508  58.9350000  -7.9760000  -3.2120000
  59.8580000  -8.2320000  -3.9990000  59.1530000  -7.4600000  -1.9980000
  58.3897738  -7.1717152  -1.4026203  60.5160000  -7.2210000  -1.5390000
  61.0174161  -6.5193467  -2.2056062  60.4960000  -6.6280000  -0.1320000
  59.7636418  -7.1815497   0.4556508  61.4863435  -6.7617883   0.3032245
  60.1350000  -5.1450000  -0.1280000  60.9747058  -4.6064378  -0.5672559
  59.2556840  -5.0243690  -0.7607350  59.8410000  -4.5820000   1.2680000
  59.2100047  -5.2905214   1.8046016  60.7838835  -4.4598432   1.8010551
  59.1230000  -3.2220000   1.1770000  59.9023083  -2.4711257   1.0467424
  58.5033175  -3.2609390   0.2811336  58.2690000  -2.8580000   2.3620000
  58.8431012  -2.8214430   3.1921633  57.8443939  -1.9549215   2.2062475
  57.5465496  -3.5534252   2.4826162  61.3420000  -8.5000000  -1.5950000
  62.4310000  -8.5210000  -2.1780000  60.8090000  -9.5940000  -1.0480000
  59.8974674  -9.5704771  -0.6136565  61.5690000 -10.8370000  -0.9930000
  62.5444696 -10.6566739  -0.5412914  60.8230000 -11.8770000  -0.1490000
  60.6703925 -11.5024664   0.8631931  59.8572534 -12.0979205  -0.6035631
  61.5460000 -13.1870000  -0.0180000  61.6890000 -14.0710000  -1.0680000
  62.3700000 -15.1270000  -0.6640000  62.5934033 -15.9420781  -1.3523587
  62.6690000 -14.9640000   0.6110000  63.1872418 -15.6128359   1.1859237
  62.1610000 -13.7620000   1.0410000  62.3008567 -13.4501972   2.0760460
  61.8720000 -11.3960000  -2.3840000  62.9120000 -12.0410000  -2.5760000
  60.9920000 -11.1810000  -3.3640000  60.1209114 -10.6898540  -3.2222976
  61.2680000 -11.7340000  -4.6880000  61.6908827 -12.7340520  -4.5922634
  59.9810000 -11.8250000  -5.5000000  59.6479681 -10.8076089  -5.7051933
  60.2181658 -12.3254254  -6.4388434  58.8890000 -12.5760000  -4.7950000
  59.3114184 -13.4575711  -4.3128216  58.4373435 -11.9313944  -4.0409496
  57.8390000 -13.0010000  -5.7850000  57.0519846 -13.5360256  -5.2535365
  57.4194627 -12.1114350  -6.2548531  58.3740000 -13.8700000  -6.8250000
  59.3483156 -14.1291004  -6.7643744  57.6570000 -14.3340000  -7.8420000
  58.2170000 -15.1300000  -8.7470000  59.1911561 -15.3819830  -8.6596821
  57.6658527 -15.4792907  -9.5179295  56.3790000 -13.9950000  -7.9500000
  55.9607155 -13.3877578  -7.2597862  55.8301730 -14.3457090  -8.7219397
  62.3050000 -10.9130000  -5.4440000  63.0740000 -11.4630000  -6.2480000
  62.3500000  -9.6100000  -5.1890000  61.6927368  -9.2164447  -4.5308065
  63.2680000  -8.7120000  -5.8650000  63.6635923  -9.1874998  -6.7624998
  62.5390000  -7.4290000  -6.2720000  62.1849790  -7.0348676  -5.3194098
  63.2530494  -6.7317507  -6.7102659  61.3540000  -7.6080000  -7.2210000
  60.6237843  -8.2788238  -6.7683618  60.7050000  -6.2550000  -7.4850000
  61.4345248  -5.5837333  -7.9380932  59.8600473  -6.3825928  -8.1616651
  60.3554812  -5.8293763  -6.5443717  61.7720000  -8.2990000  -8.5280000
  62.1832666  -9.2832275  -8.3038230  60.9024265  -8.4081658  -9.1760941
  62.5272841  -7.6965420  -9.0326675  64.4870000  -8.3620000  -5.0260000
  65.3560000  -7.6310000  -5.5110000  64.5830000  -8.8620000  -3.7890000
  63.8343897  -9.4008810  -3.3775523  65.7590000  -8.5710000  -2.9700000
  65.8463193  -7.4962647  -2.8105680  65.6330000  -9.2580000  -1.6100000
  64.6287222  -9.0537947  -1.2387515  65.7464892 -10.3287824  -1.7792494
  66.6540000  -8.7970000  -0.5860000  67.1766988  -7.9256985  -0.9806142
  66.1313759  -8.5223756   0.3302683  67.6670000  -9.9060000  -0.2830000
  67.1212844 -10.8092478  -0.0101687  68.2542584 -10.0944426  -1.1817304
  68.5810000  -9.5600000   0.8120000  68.4750465  -8.6467522   1.2301527
  69.5300000 -10.3690000   1.2830000  70.3140000  -9.9700000   2.2830000
  70.1876499  -9.0517540   2.6841982  71.0312893 -10.5874993   2.6355483
  69.6950000 -11.5790000   0.7550000  69.0995143 -11.8815199  -0.0026137
  70.4149839 -12.1894811   1.1142141  67.0500000  -8.9900000  -3.6690000
  68.0870000  -8.3400000  -3.4950000  66.9940000 -10.0480000  -4.4870000
  66.1463752 -10.5918461  -4.5635700  68.1690000 -10.4870000  -5.2370000
  69.0340797 -10.5537100  -4.5772379  67.9070000 -11.8670000  -5.8400000
  67.3041039 -12.4183600  -5.1184615  67.3292054 -11.7098640  -6.7508028
  69.1550000 -12.6600000  -6.1650000  68.8701902 -13.5001945  -6.7982909
  69.8285244 -12.0029218  -6.7151930  69.8580000 -13.1790000  -4.9210000
  69.5250000 -12.7270000  -3.7960000  70.7440000 -14.0510000  -5.0710000
  68.5520000  -9.4860000  -6.3260000  69.7370000  -9.1810000  -6.5090000
  67.5670000  -8.9810000  -7.0710000  66.6267629  -9.3351678  -6.9679531
  67.8130000  -7.9590000  -8.0780000  68.7554311  -8.1532486  -8.5900452
  66.6830000  -7.9730000  -9.1110000  66.7468153  -8.9808084  -9.5213038
  65.7535471  -7.8672329  -8.5515085  66.7090000  -6.9570000 -10.2510000
  67.0179776  -5.9956192  -9.8406579  67.6670000  -7.3650000 -11.3670000
  67.3583755  -8.3261366 -11.7781765  67.6504546  -6.6113982 -12.1543445
  68.6772816  -7.4492461 -10.9665825  65.3170000  -6.8050000 -10.7790000
  64.6617165  -6.4542257  -9.9817169  65.3142926  -6.0824836 -11.5951275
  64.9596718  -7.7674227 -11.1452760  67.9420000  -6.5700000  -7.4740000
  68.4980000  -5.6750000  -8.1140000  67.4460000  -6.3720000  -6.2580000
  66.9207903  -7.0949815  -5.7873071  67.5940000  -5.0850000  -5.5960000
  67.2944939  -4.2768064  -6.2632469  66.7000000  -5.0520000  -4.3570000
  65.6906259  -4.8606656  -4.7212173  66.7470443  -6.0525845  -3.9272123
  67.0530000  -4.0390000  -3.3060000  68.1202493  -4.0944436  -3.0915104
  66.8067808  -3.0402258  -3.6664556  66.2660000  -4.3280000  -2.0380000
  65.2094493  -4.1595260  -2.2463656  66.4209667  -5.3733900  -1.7710832
  66.7020000  -3.4410000  -0.8840000  65.9658788  -3.5412964  -0.0863993
  67.6694637  -3.7990150  -0.5319511  66.8160000  -2.0080000  -1.2770000
  65.9195273  -1.6759405  -1.6028419  67.1073589  -1.4621461  -0.4787184
  67.4983694  -1.9147884  -2.0157710  69.0510000  -4.8300000  -5.2310000
  69.5990000  -3.7550000  -5.5080000  69.7000000  -5.8160000  -4.6100000
  69.2172084  -6.6509333  -4.3101701  71.1080000  -5.6660000  -4.2560000
  71.3309446  -4.7269474  -3.7494676  71.5560000  -6.8500000  -3.3670000
  70.8578599  -6.9324428  -2.5339910  71.5870000  -8.1780000  -4.1430000
  72.2853200  -8.0964769  -4.9759489  71.9071422  -8.9804056  -3.4783535
  70.5905341  -8.3993730  -4.5252943  72.9080000  -6.5640000  -2.7020000
  73.2225978  -7.4864375  -2.2139037  73.6083988  -6.3188762  -3.5004080
  72.8850000  -5.4380000  -1.6870000  72.1851179  -5.6826295  -0.8879873
  73.8824039  -5.3056246  -1.2677608  72.5709164  -4.5150681  -2.1744917
  71.9530000  -5.5260000  -5.5190000  72.9210000  -4.7550000  -5.5560000
  71.5700000  -6.2300000  -6.5890000  70.8019773  -6.8837272  -6.5353226
  72.2950000  -6.1190000  -7.8460000  73.3606554  -6.2815077  -7.6845409
  71.7830000  -7.1750000  -8.8210000  71.8132948  -8.1255296  -8.2883886
  70.7474554  -6.9147174  -9.0400899  72.5580000  -7.2980000 -10.1180000
  72.4268918  -6.3947991 -10.7139360  73.6165104  -7.4372322  -9.8982905
  72.0730000  -8.4790000 -10.9200000  71.1810000  -9.2050000 -10.4710000
  72.6420000  -8.6850000 -12.1050000  72.3467908  -9.4649445 -12.6747715
  73.3665068  -8.0604777 -12.4292886  72.1650000  -4.7250000  -8.4390000
  73.0420000  -4.2860000  -9.1910000  71.0920000  -4.0090000  -8.1010000
  70.3515765  -4.4087769  -7.5423848  70.9100000  -2.6600000  -8.6280000
  71.3586609  -2.5453359  -9.6147394  69.4080000  -2.3110000  -8.7250000
  68.9028508  -2.6860518  -7.8349103  69.2030000  -0.7950000  -8.8280000
  69.7075118  -0.4192636  -9.7181634  68.1374068  -0.5756580  -8.8950876
  69.6181411  -0.3108139  -7.9440750  68.7680000  -3.0180000  -9.9280000
  68.8737662  -4.0969044  -9.8145066  67.7101162  -2.7607030  -9.9807231
  69.2650531  -2.6991020 -10.8441567  71.6830000  -1.6410000  -7.7970000
  72.2880000  -0.7170000  -8.3520000  71.7000000  -1.7960000  -6.4670000
  71.1383382  -2.5048057  -6.0173003  72.4740000  -0.8820000  -5.6210000
  72.1306572   0.1426830  -5.7632665  72.2920000  -1.2590000  -4.1480000
  71.2490631  -1.0605697  -3.9010035  72.4853758  -2.3290782  -4.0729098
  73.1910000  -0.5140000  -3.1800000  72.9613735  -0.8508659  -2.1691123
  74.2268898  -0.7568041  -3.4168131  72.9910000   0.9830000  -3.2700000
  73.4098985   1.3359686  -4.2123567  71.9221466   1.1953051  -3.2459502
  73.6770000   1.6970000  -2.1100000  74.7537749   1.5566726  -2.2046817
  73.4429617   2.7598803  -2.1700891  73.2180000   1.1590000  -0.7900000
  73.4351594   0.1742162  -0.7339436  73.6889566   1.6506276  -0.0439422
  72.2203269   1.2893195  -0.7018848  73.9580000  -0.8630000  -6.0010000
  74.6130000   0.1820000  -5.8940000  74.5000000  -1.9900000  -6.4710000
  74.0114597  -2.8726541  -6.4225291  75.8570000  -1.9790000  -7.0070000
  76.5442889  -1.5781576  -6.2619775  76.3030000  -3.3970000  -7.3710000
  75.5965455  -3.7780514  -8.1084423  77.2918408  -3.3181715  -7.8227520
  76.3620000  -4.3550000  -6.1790000  77.1339800  -3.9890085  -5.5020968
  75.3932267  -4.3127856  -5.6812095  76.6710000  -5.8000000  -6.5700000
  77.3380000  -6.0280000  -7.6080000  76.2430000  -6.7110000  -5.8280000
  75.9530000  -1.0550000  -8.2160000  76.7100000  -0.0790000  -8.1960000
  75.1700000  -1.3360000  -9.2740000  74.5437022  -2.1281702  -9.2562007
  75.2390000  -0.5340000 -10.4950000  76.1876539  -0.7244198 -10.9968918
  74.0980000  -0.8750000 -11.4590000  74.0750942  -1.9403860 -11.6881882
  73.1488717  -0.5796015 -11.0117917  74.1970000  -0.1500000 -12.7820000
  73.7450000   1.1480000 -12.9160000  73.2925071   1.6379388 -12.0538457
  73.8590000   1.8320000 -14.1270000  73.5005019   2.8584899 -14.2038009
  74.4220000   1.2150000 -15.2230000  74.5086216   1.7403378 -16.1741135
  74.8790000  -0.0830000 -15.1070000  75.3261379  -0.5821318 -15.9666716
  74.7680000  -0.7580000 -13.8850000  75.1349243  -1.7801347 -13.7916878
  75.2000000   0.9510000 -10.1850000  75.8980000   1.7480000 -10.8240000
  74.4040000   1.3410000  -9.1940000  73.8621085   0.6754101  -8.6616062
  74.2380000   2.7590000  -8.9010000  74.0774674   3.2906340  -9.8389199
  73.0160000   2.9660000  -8.0070000  73.1656980   2.4470085  -7.0602485
  72.8787255   4.0308971  -7.8192499  72.1307316   2.5679489  -8.5029379
  75.4860000   3.3480000  -8.2570000  75.8920000   4.4700000  -8.5890000
  76.1020000   2.6090000  -7.3280000  75.7173865   1.7283084  -7.0172685
  77.3210000   3.0980000  -6.6860000  77.2009945   4.1446534  -6.4063313
  77.6120000   2.2860000  -5.4250000  77.8313923   1.2644504  -5.7354879
  78.4901777   2.7150800  -4.9425123  76.4490000   2.2790000  -4.4460000
  75.8970000   3.3640000  -4.1510000  76.0910000   1.1820000  -3.9660000
  78.5120000   3.0520000  -7.6440000  79.3710000   3.9430000  -7.6200000
  78.5700000   2.0360000  -8.5100000  77.8844801   1.2944224  -8.4950173
  79.6720000   1.9400000  -9.4610000  80.6124667   2.1710135  -8.9607458
  79.7600000   0.5250000 -10.0390000  80.1604710  -0.1213845  -9.2580331
  78.7459620   0.2104451 -10.2857432  80.6440000   0.4250000 -11.2880000
  80.1174203   0.8993685 -12.1161239  81.5715125   0.9629874 -11.0920609
  80.9630000  -1.0230000 -11.6510000  81.7759466  -1.3686483 -11.0124516
  80.0755239  -1.6289413 -11.4684602  81.3770000  -1.1540000 -13.1200000
  82.2265693  -0.4914684 -13.2854825  81.6840464  -2.1864028 -13.2872305
  80.2710000  -0.7990000 -14.0760000  79.9866319   0.1577461 -13.9214961
  80.6000447  -0.9033445 -15.0251795  79.4838329  -1.4130790 -13.9231146
  79.5420000   2.9580000 -10.5910000  80.5280000   3.6000000 -10.9690000
  78.3490000   3.1140000 -11.1610000  77.5219448   2.6698976 -10.7883713
  78.2240000   3.8860000 -12.3870000  79.2126427   4.1514299 -12.7614754
  77.4970000   3.0630000 -13.4610000  76.5392488   2.7531185 -13.0429267
  77.3251507   3.7185467 -14.3147133  78.2720000   1.8380000 -13.9120000
  78.7545080   1.4038689 -13.0363191  77.5678108   1.1196406 -14.3317338
  79.3210000   2.1800000 -14.9480000  79.2070000   3.2710000 -15.5540000
  80.2500000   1.3660000 -15.1620000  77.5090000   5.2150000 -12.2290000
  77.6500000   6.0710000 -13.1130000  76.7650000   5.4260000 -11.1280000
  76.8115500   4.8350934 -10.3102214  75.8040000   6.5250000 -11.1340000
  76.0660641   7.2372340 -11.9163965  74.3870000   6.0060000 -11.3990000
  74.1686273   5.2642563 -10.6307365  73.7097762   6.8529193 -11.2885663
  74.1990000   5.3840000 -12.7700000  74.8843303   4.5424440 -12.8710282
  73.1716950   5.0242420 -12.8275996  74.4510000   6.3810000 -13.8930000
  74.3630000   7.6260000 -13.6250000  74.7520000   5.9090000 -15.0330000
  75.7740000   7.3470000  -9.8530000  74.7900000   8.0650000  -9.6170000
  76.8080000   7.2690000  -9.0270000  77.5895344   6.6531659  -9.2003544
  76.8310000   8.0880000  -7.8330000  77.8309901   8.0159679  -7.4052963
  76.6399197   9.1169903  -8.1375761  75.8200000   7.6900000  -6.7870000
  75.4020000   8.5370000  -5.9930000  75.4060000   6.4210000  -6.7740000
  75.7384898   5.7801260  -7.4802793  74.4840000   5.9210000  -5.7700000
  74.4307317   4.8407127  -5.9050597  74.9277191   6.1438840  -4.7996725
  73.0820000   6.4930000  -5.8140000  72.4030000   6.5250000  -4.7800000
  72.6270000   6.9530000  -6.9820000  73.2554004   6.9756521  -7.7723792
  71.2700000   7.4690000  -7.1600000  70.8925770   7.8461478  -6.2095208
  71.2550000   8.6050000  -8.1750000  72.2372367   9.0775142  -8.1686221
  71.0687813   8.1684022  -9.1562263  70.1970000   9.6400000  -7.8760000
  69.1320000   9.2560000  -7.3300000  70.4410000  10.8350000  -8.1850000
  70.3960000   6.3070000  -7.6060000  70.2130000   6.0640000  -8.7990000
  69.8720000   5.5580000  -6.6350000  70.1256910   5.6860063  -5.6657969
  68.9880000   4.4490000  -6.9780000  69.4273600   3.9014141  -7.8117936
  68.8200000   3.4830000  -5.7880000  68.7425178   4.0624483  -4.8680351
  67.5850000   2.6520000  -5.9600000  67.6619528   2.0718768  -6.8795849
  67.4806866   1.9753766  -5.1118255  66.7127218   3.3034053  -6.0138849
  69.9870000   2.5420000  -5.7010000  70.9054059   3.1129664  -5.5645082
  69.8492245   1.8687249  -4.8549396  70.0546683   1.9602936  -6.6203147
  67.6510000   4.9870000  -7.4780000  67.0960000   4.4930000  -8.4700000
  67.1340000   6.0290000  -6.8210000  67.5558352   6.3483306  -5.9606614
  65.9170000   6.6900000  -7.2820000  65.0608411   6.0250466  -7.1682977
  65.6700000   7.9530000  -6.4500000  65.4697652   7.6147466  -5.4333438
  66.6022652   8.5175117  -6.4675553  64.5270000   8.8450000  -6.9230000
  64.2285649   8.5466901  -7.9280117  63.6800274   8.7359199  -6.2456219
  64.9840000  10.3120000  -6.9390000  64.2181195  10.9102423  -7.4325911
  65.1022917  10.6514119  -5.9099684  66.3290000  10.4710000  -7.6930000
  67.0395992   9.8406706  -7.1583653  66.1563308  10.0600606  -8.6876926
  66.8840000  11.8550000  -7.8150000  67.0444752  12.2358055  -6.8934065
  67.7562923  11.8243218  -8.3231978  66.2258810  12.4391321  -8.3107502
  66.0030000   7.0210000  -8.7670000  65.1860000   6.5540000  -9.5680000
  67.0220000   7.7950000  -9.1590000  67.7142725   8.1199942  -8.4992752
  67.1140000   8.2540000 -10.5400000  66.1256423   8.6132535 -10.8266794
  68.1030000   9.4080000 -10.6520000  69.0991450   9.0614812 -10.3768273
  68.1175255   9.7764895 -11.6777216  67.8007221  10.2126050  -9.9816731
  67.4990000   7.1440000 -11.5070000  67.3050000   7.3040000 -12.7160000
  68.0320000   6.0260000 -11.0270000  68.2936142   5.9104079 -10.0583433
  68.3680000   4.9640000 -11.9640000  68.5515649   5.3892320 -12.9507020
  69.6330000   4.1910000 -11.5150000  70.4547024   4.8991923 -11.4083792
  69.4070000   3.4990000 -10.2240000  68.5856857   2.7902582 -10.3299667
  70.3119289   2.9649855  -9.9341163  69.1569365   4.2321067  -9.4571073
  70.0420000   3.1480000 -12.5360000  70.2564795   3.6346941 -13.4874355
  70.9329024   2.6263205 -12.1863673  69.2311477   2.4318923 -12.6694507
  67.1690000   4.0470000 -12.1710000  66.9990000   3.4850000 -13.2550000
  66.2940000   3.9250000 -11.1750000  66.4763816   4.3104271 -10.2594225
  65.0600000   3.1630000 -11.3740000  65.2625782   2.2874728 -11.9908577
  64.4980000   2.6970000 -10.0370000  64.5262448   3.4942698  -9.2942602
  63.4755939   2.3335659 -10.1404481  65.4370000   1.3440000  -9.3470000
  64.7001956   1.2096783  -8.2479207  64.0130000   3.9730000 -12.1250000
  63.3490000   3.4440000 -13.0270000  63.8350000   5.2470000 -11.7430000
  64.2479540   5.5990102 -10.8911449  62.9940000   6.1430000 -12.5240000
  61.9494022   5.8526466 -12.4117076  63.1510000   7.5830000 -12.0590000
  62.6201660   7.6107215 -11.1073982  64.1900010   7.8734873 -11.9034553
  62.4900000   8.5570000 -13.0410000  62.9419996   8.4084004 -14.0216709
  60.9600000   8.3400000 -13.1400000  60.5072096   8.4888938 -12.1597397
  60.5364103   9.0529385 -13.8473834  60.7578562   7.3251994 -13.4826632
  62.8310000  10.0070000 -12.6970000  63.9109308  10.1475226 -12.7428521
  62.3477249  10.6737008 -13.4111824  62.4778219  10.2350892 -11.6913462
  63.3090000   6.0530000 -14.0080000  62.3940000   5.9820000 -14.8360000
  64.5950000   6.0280000 -14.3670000  65.3405777   6.0590143 -13.6863742
  64.9500000   6.0160000 -15.7810000  64.2701654   6.6747945 -16.3212906
  66.3740000   6.5210000 -15.9750000  67.0806151   5.7779389 -15.6053303
  66.6190000   6.7600000 -17.4530000  65.9130135   7.5033424 -17.8233038
  67.6367671   7.1217360 -17.5992749  66.4834928   5.8268796 -17.9998315
  66.5430000   7.7610000 -15.2760000  67.4407519   8.0779742 -15.3991631
  64.8060000   4.6330000 -16.3910000  64.4710000   4.5040000 -17.5740000
  65.0540000   3.5930000 -15.6100000  65.3894832   3.6970138 -14.6630409
  64.9130000   2.2510000 -16.1470000  65.4461875   2.1650824 -17.0937990
  65.5020000   1.2410000 -15.1610000  66.5129265   1.5972280 -14.9629381
  64.9241309   1.2569776 -14.2369263  65.5620000  -0.1850000 -15.6980000
  64.5549262  -0.6000302 -15.7386591  66.1640000  -0.1790000 -17.0940000
  67.1713223   0.2354952 -17.0540707  66.2062087  -1.1988385 -17.4764248
  65.5467004   0.4306525 -17.7538223  66.3580000  -1.0690000 -14.7620000
  65.8840469  -1.0795449 -13.7804927  66.3912165  -2.0832830 -15.1597788
  67.3727583  -0.6816533 -14.6707476  63.4520000   1.9490000 -16.4530000
  63.1370000   1.3460000 -17.4900000  62.5480000   2.3970000 -15.5740000
  62.8567726   2.8204808 -14.7106213  61.1130000   2.2150000 -15.7820000
  60.8927123   1.1696427 -15.9983345  60.3510000   2.6250000 -14.5090000
  60.7175375   2.0448631 -13.6621289  60.4819506   3.6876451 -14.3047026
  58.8720000   2.3820000 -14.5880000  58.3750000   1.1670000 -15.0430000
  59.0781587   0.3830732 -15.3242944  57.0010000   0.9410000 -15.1430000
  56.6249193  -0.0157039 -15.5054660  56.1200000   1.9340000 -14.7810000
  55.0459578   1.7645386 -14.8572636  56.6010000   3.1560000 -14.3170000
  55.9031170   3.9416447 -14.0274799  57.9720000   3.3740000 -14.2230000
  58.3481355   4.3305251 -13.8601202  60.6290000   2.9920000 -17.0070000
  60.1870000   2.3890000 -17.9960000  60.7300000   4.3320000 -16.9680000
  61.0329226   4.7858955 -16.1181082  60.3850000   5.1680000 -18.1140000
  59.3000740   5.2362100 -18.1938888  60.9520000   6.5740000 -17.9770000
  62.0230213   6.3757529 -17.9356393  60.7053806   7.0371461 -18.9323924
  60.5660000   7.5140000 -16.8430000  61.2470140   7.3784388 -16.0027953
  60.6550000   8.9380000 -17.3380000  59.9738766   9.0744628 -18.1779689
  60.3805514   9.6206013 -16.5337399  61.6749003   9.1481782 -17.6600697
  59.1820000   7.2250000 -16.3610000  59.1298917   6.1983311 -15.9985981
  58.9285576   7.9089708 -15.5510296  58.4762024   7.3565127 -17.1811543
  60.8970000   4.5720000 -19.4160000  60.2010000   4.5730000 -20.4330000
  62.1190000   4.0560000 -19.4040000  62.7186951   4.0814791 -18.5917095
  62.6500000   3.4930000 -20.6360000  62.4157172   4.1473087 -21.4756969
  64.1620000   3.3500000 -20.5380000  64.3678222   3.3247300 -19.4679075
  64.4769348   2.4096279 -20.9903454  64.9300000   4.5030000 -21.1760000
  64.9788321   4.3209791 -22.2495850  64.2720000   5.8570000 -20.9190000
  64.2232287   6.0399444 -19.8455702  64.8587651   6.6428305 -21.3946867
  63.2637051   5.8559847 -21.3330541  66.3610000   4.4760000 -20.6500000
  66.8273755   3.5264953 -20.9127433  66.9276783   5.2939514 -21.0948961
  66.3523152   4.5882250 -19.5658279  62.0030000   2.1620000 -20.9560000
  61.8160000   1.8320000 -22.1330000  61.6470000   1.3980000 -19.9260000
  61.8946181   1.6340675 -18.9757070  60.9260000   0.1560000 -20.1630000
  61.5081986  -0.4779182 -20.8317987  60.7070000  -0.5920000 -18.8490000
  60.1176035   0.0264924 -18.1721108  60.1757698  -1.5234432 -19.0447252
  61.6711558  -0.8134766 -18.3913418  59.5990000   0.4320000 -20.8400000
  59.1970000  -0.3020000 -21.7550000  58.9080000   1.4950000 -20.4030000
  59.2697107   2.0317516 -19.6276534  57.6100000   1.8660000 -20.9550000
  56.9241119   1.0228225 -20.8730951  57.0110000   3.0620000 -20.1970000
  57.7890638   3.8221172 -20.2672694  56.1112342   3.4162348 -20.7000299
  56.6950000   2.7860000 -18.7130000  57.6195553   2.4716617 -18.2287586
  56.1350000   3.9990000 -17.9940000  55.2101270   4.3136637 -18.4774206
  55.9321413   3.7439140 -16.9538653  56.8598426   4.8121105 -18.0334337
  55.7570000   1.6140000 -18.5550000  56.2148987   0.7214410 -18.9813410
  55.5564858   1.4485782 -17.4964487  54.8212991   1.8244464 -19.0729529
  57.7540000   2.1630000 -22.4410000  57.2740000   1.3890000 -23.2730000
  58.4630000   3.2400000 -22.7880000  58.8726447   3.8419903 -22.0880727
  58.6010000   3.6170000 -24.1920000  57.6248888   3.8441829 -24.6205954
  59.4770000   4.8510000 -24.3000000  60.5192358   4.5545291 -24.1818947
  59.3362006   5.2978797 -25.2841616  59.1220000   5.8430000 -23.2500000
  58.0737659   6.1117380 -23.3807138  59.2562974   5.3679491 -22.2782012
  59.9590000   7.0670000 -23.3220000  60.9999763   6.8183216 -23.1155386
  59.8821929   7.5121927 -24.3139696  59.5080000   8.0400000 -22.3380000
  59.9334121   8.0039530 -21.4226725  58.5730000   8.9560000 -22.5670000
  57.9990000   9.0330000 -23.7580000  58.2742294   8.3939578 -24.4901023
  57.2886649   9.7304111 -23.9287086  58.2200000   9.8010000 -21.6090000
  58.6639034   9.7469710 -20.7033893  57.5087036  10.4951025 -21.7889386
  59.1580000   2.4890000 -25.0410000  58.9800000   2.4970000 -26.2620000
  59.8120000   1.5110000 -24.4170000  60.0717081   1.5977779 -23.4448269
  60.2190000   0.3140000 -25.1350000  60.8069589   0.5992685 -26.0073677
  61.0840000  -0.5550000 -24.2270000  60.5060609  -0.8561747 -23.3532837
  61.4066494  -1.4421153 -24.7719990  61.9581348   0.0115823 -23.9061072
  59.0150000  -0.4730000 -25.6350000  59.0680000  -1.0950000 -26.7010000
  57.9200000  -0.4640000 -24.8780000  57.9432612   0.0368581 -24.0012449
  56.7140000  -1.2100000 -25.2160000  56.9397655  -1.9803169 -25.9533880
  56.1630000  -1.8830000 -23.9600000  55.8828894  -1.0897505 -23.2668965
  55.2723158  -2.4369070 -24.2565953  57.1430000  -2.8260000 -23.2810000
  57.6114410  -3.4596867 -24.0340638  57.9088996  -2.2413730 -22.7713815
  56.4150000  -3.6940000 -22.2720000  56.0680696  -3.0634843 -21.4533498
  55.5582094  -4.1567833 -22.7617355  57.2680000  -4.7500000 -21.7220000
  58.2551769  -4.7118849 -21.9320675  56.8160000  -5.7530000 -20.9670000
  55.5150000  -5.8330000 -20.6770000  54.8779868  -5.1334968 -21.0305668
  55.1739328  -6.5926449 -20.1054124  57.6580000  -6.6750000 -20.4980000
  58.6422902  -6.6130279 -20.7157896  57.3074467  -7.4309215 -19.9272166
  55.6440000  -0.3340000 -25.8800000  54.4460000  -0.6300000 -25.7930000
  56.0650000   0.7060000 -26.5860000  57.0600441   0.7924762 -26.7360281
  55.1970000   1.7730000 -27.0720000  55.7807232   2.6867745 -27.1832769
  54.5730000   1.4240000 -28.4240000  55.2916606   0.8666198 -29.0247941
  53.6928562   0.8062781 -28.2454880  54.1430000   2.6790000 -29.2090000
  53.8440000   3.7270000 -28.6120000  54.1260000   2.5840000 -30.5440000
  53.8509480   3.3807499 -31.1004493  54.3883031   1.7159982 -30.9888266
  54.1240000   2.1120000 -26.0390000  52.9270000   2.0170000 -26.2870000
  54.5810000   2.4970000 -24.8480000  55.5646391   2.4220671 -24.6313472
  53.6740000   2.9540000 -23.7990000  52.6605984   3.0244145 -24.1941686
  53.6730000   1.9780000 -22.6240000  54.6345002   2.0509805 -22.1157771
  52.8770212   2.2671041 -21.9377517  53.4510000   0.5500000 -23.0820000
  52.7671671   0.5815355 -23.9302211  54.4162405   0.1628124 -23.4083368
  52.8810000  -0.3550000 -22.0070000  52.3830000   0.1640000 -20.9760000
  52.9320000  -1.5950000 -22.2030000  54.0410000   4.3610000 -23.3500000
  54.1940000   4.6300000 -22.1540000  54.1450000   5.2680000 -24.3240000
  53.9251752   5.0119989 -25.2759663  54.6010000   6.6260000 -24.0620000
  55.5783422   6.6079169 -23.5797403  54.7190000   7.3870000 -25.3670000
  53.8148963   7.2823727 -25.9667906  54.8908776   8.4413998 -25.1506686
  55.8530000   6.9370000 -26.2230000  57.1150000   7.4800000 -26.1240000
  57.9070000   6.9050000 -27.0090000  58.9547547   7.1952021 -27.0870502
  57.2020000   6.0120000 -27.6820000  57.5451388   5.4199953 -28.4248904
  55.9130000   6.0140000 -27.2080000  55.1725611   5.3405241 -27.6396035
  53.6810000   7.4030000 -23.1330000  54.1480000   8.3230000 -22.4520000
  52.3760000   7.1050000 -23.1270000  51.9872709   6.3643901 -23.6931149
  51.4640000   7.9180000 -22.3310000  51.5973259   8.9696882 -22.5845257
  50.0070000   7.5310000 -22.5990000  49.9301302   7.2607333 -23.6521601
  49.7828350   6.6597535 -21.9835493  48.9830000   8.6760000 -22.2770000
  49.4107888   9.2900651 -21.4845218  48.8643186   9.2776297 -23.1781429
  47.6220000   8.1510000 -21.8340000  47.6376199   7.9500052 -20.7628062
  46.8540163   8.8929150 -22.0527752  47.2920000   6.9150000 -22.5370000
  47.7959196   6.7133900 -23.3887733  46.3720000   6.0500000 -22.1250000
  45.6960000   6.3030000 -21.0110000  45.8860964   7.1465752 -20.4891338
  44.9946575   5.6507642 -20.6903650  46.1290000   4.9390000 -22.8150000
  46.6479842   4.7496178 -23.6605116  45.4266275   4.2899315 -22.4902206
  51.7850000   7.7930000 -20.8490000  51.9230000   8.8020000 -20.1450000
  51.9200000   6.5570000 -20.3560000  51.7794697   5.7370343 -20.9287188
  52.2180000   6.3690000 -18.9400000  51.4410815   6.8401825 -18.3379336
  52.2770000   4.8810000 -18.5850000  53.0028461   4.4338107 -19.2641674
  52.6537218   4.8256643 -17.5636682  50.9620000   4.1260000 -18.6810000
  50.9766277   3.2592387 -18.0202340  50.1606918   4.7998612 -18.3778197
  50.6870000   3.6510000 -20.1000000  50.8310000   4.4140000 -21.0720000
  50.3140000   2.3780000 -20.2330000  50.1177240   2.0057673 -21.1511612
  50.2294055   1.7916517 -19.4149897  53.5250000   7.0510000 -18.5760000
  53.5910000   7.8170000 -17.6050000  54.5690000   6.8020000 -19.3740000
  54.4804224   6.1255066 -20.1187214  55.8710000   7.4390000 -19.1660000
  56.2671270   7.1268289 -18.1997020  56.8400000   6.9920000 -20.2580000
  56.4614723   7.3054222 -21.2309252  57.8164411   7.4446991 -20.0855863
  56.9348331   5.9063146 -20.2381703  55.7580000   8.9610000 -19.1420000
  56.3240000   9.6210000 -18.2620000  55.0370000   9.5340000 -20.1140000
  54.6401253   8.9742093 -20.8550966  54.8510000  10.9790000 -20.1640000
  55.8181132  11.4809466 -20.1350022  54.1340000  11.3720000 -21.4600000
  53.3070911  10.6740783 -21.5912486  53.7410248  12.3814441 -21.3387843
  55.0430000  11.3230000 -22.6910000  56.2080000  11.7970000 -22.6110000
  54.5910000  10.8220000 -23.7510000  54.0690000  11.4880000 -18.9590000
  54.2810000  12.6260000 -18.5120000  53.1520000  10.6750000 -18.4310000
  52.9049575   9.7923484 -18.8552587  52.4190000  11.1010000 -17.2460000
  52.1262291  12.1453807 -17.3539511  51.1510000  10.2530000 -17.0480000
  51.4397925   9.2237678 -17.2610239  50.8875785  10.3452422 -15.9943395
  49.9130000  10.6430000 -17.9330000  50.2699509  10.7442718 -18.9579053
  49.2289073   9.7968195 -17.8690079  49.1710000  11.9410000 -17.5130000
  49.8210000  12.9320000 -17.0800000  47.9170000  11.9620000 -17.6420000
  53.3190000  11.0380000 -16.0220000  53.4170000  12.0070000 -15.2600000
  54.0070000   9.9070000 -15.8380000  53.8440265   9.1022008 -16.4260793
  54.9600000   9.7800000 -14.7400000  54.4369594   9.8254869 -13.7847730
  55.6910000   8.4420000 -14.8330000  54.8823403   7.7143140 -14.7648685
  56.1589791   8.3734596 -15.8150376  56.7310000   8.1500000 -13.7520000
  57.6512310   8.6628368 -14.0317754  56.2950000   8.6090000 -12.3590000
  55.3750178   8.0962126 -12.0783211  57.0766862   8.3730428 -11.6369254
  56.1222605   9.6851878 -12.3680125  57.0500000   6.6580000 -13.7440000
  57.4450091   6.3651607 -14.7167859  57.7917614   6.4486478 -12.9732452
  56.1414492   6.0927809 -13.5362461  55.9440000  10.9380000 -14.7380000
  56.2340000  11.5080000 -13.6820000  56.4390000  11.3200000 -15.9140000
  56.2814045  10.7757396 -16.7500883  57.2840000  12.5030000 -16.0090000
  58.1931697  12.3604018 -15.4248978  57.6730000  12.7520000 -17.4640000
  56.7678774  12.6628035 -18.0647465  58.0541182  13.7709851 -17.5312178
  58.7180000  11.7880000 -17.9810000  59.4791827  11.6762372 -17.2088531
  58.2234543  10.8304633 -18.1442396  59.3720000  12.2470000 -19.2740000
  59.0650000  13.3640000 -19.7490000  60.2030000  11.4810000 -19.8100000
  56.5950000  13.7290000 -15.4180000  57.1830000  14.4570000 -14.6120000
  55.3440000  13.9740000 -15.8040000  54.8653629  13.3795322 -16.4655239
  54.6550000  15.1650000 -15.3200000  55.2727052  16.0362093 -15.5380224
  53.3230000  15.3190000 -16.0440000  52.6898660  14.4584158 -15.8280458
  52.8273085  16.2284338 -15.7044114  53.4976982  15.3804614 -17.1181519
  54.4400000  15.1250000 -13.8100000  54.3330000  16.1770000 -13.1670000
  54.3780000  13.9240000 -13.2290000  54.4274900  13.0882357 -13.7939320
  54.1350000  13.7780000 -11.7970000  53.6260845  14.6493666 -11.3849023
  53.2900000  12.5130000 -11.5270000  52.6874579  12.3071859 -12.4116943
  54.1670000  11.3040000 -11.2170000  54.7695405  11.5088997 -10.3320923
  53.5360610  10.4344363 -11.0329468  54.8229579  11.1035358 -12.0641319
  52.3060000  12.7650000 -10.3780000  51.6649116  11.8863553 -10.3066562
  52.8955711  12.8589665  -9.4660374  51.4380000  14.0180000 -10.5570000
  50.8477529  13.9245559 -11.4685791  50.7704955  14.1234381  -9.7017691
  52.0784131  14.8971673 -10.6279627  55.4240000  13.7640000 -10.9720000
  55.3820000  14.0830000  -9.7730000  56.5690000  13.4090000 -11.5790000
  56.5581912  12.9122937 -12.4583551  57.8620000  13.6790000 -10.9510000
  57.8254688  13.4006733  -9.8977674  58.9680000  12.8730000 -11.6310000
  59.0206082  13.2254238 -12.6611112  59.8953801  13.1212198 -11.1148091
  58.7720000  11.3760000 -11.6210000  57.7336500  11.1848806 -11.8919307
  59.4287876  10.9596459 -12.3847940  59.1270000  10.5860000 -10.0390000
  57.5240000  10.4810000  -9.2580000  56.8551724   9.8848193  -9.8787554
  57.6259714  10.0113069  -8.2796898  57.1112718  11.4827117  -9.1382903
  58.1820000  15.1720000 -10.9980000  58.7130000  15.7320000 -10.0280000
  57.8710000  15.8340000 -12.1220000  57.6498678  15.3453629 -12.9778234
  57.8880000  17.2950000 -12.1430000  58.8517644  17.6562361 -11.7841604
  57.6680000  17.8180000 -13.5620000  56.6428689  17.5668611 -13.8342768
  57.7766236  18.9016844 -13.5180783  58.6200000  17.2560000 -14.6030000
  59.6195793  17.6444928 -14.4080248  58.6305471  16.1692203 -14.5199299
  58.2190000  17.6330000 -16.0290000  57.6830000  16.8080000 -16.7760000
  58.4810000  18.8850000 -16.4100000  58.2368334  19.1875013 -17.3421894
  58.9222335  19.5242175 -15.7643876  56.8240000  17.8620000 -11.2190000
  56.9960000  18.9560000 -10.6690000  55.7130000  17.1400000 -11.0560000
  55.5699250  16.3338151 -11.6473499  54.7000000  17.4570000 -10.0700000
  54.0922622  16.5611513  -9.9426853  55.2231949  17.6758019  -9.1391444
  53.7980000  18.6180000 -10.4110000  53.0270000  19.0530000  -9.5440000
  53.8650000  19.1330000 -11.6400000  54.5375860  18.7842321 -12.3078984
  53.0170000  20.2530000 -12.0330000  53.1274931  21.0568141 -11.3051447
  53.4400000  20.7770000 -13.4090000  54.4824405  21.0934336 -13.3731266
  53.3262484  19.9860087 -14.1502782  52.5619711  21.9632379 -13.7930954
  51.5193580  21.6474463 -13.8296260  52.6755510  22.7548728 -13.0524768
  52.9830492  22.4848589 -15.1628507  54.0254901  22.8012911 -15.1269790
  52.8692955  21.6938675 -15.9041282  52.1508497  23.6391533 -15.5696054
  51.4257572  23.9555616 -14.9417312  52.3142010  24.2788372 -16.7241709
  53.2469418  23.9212078 -17.6022348  53.8561090  23.1419050 -17.3980226
  53.3418117  24.4305715 -18.4692111  51.5098897  25.3044307 -16.9890144
  50.8026058  25.5734227 -16.3200653  51.6100750  25.8095590 -17.8578682
  51.5410000  19.8450000 -12.0390000  51.1730000  18.7660000 -12.5230000
  50.6950000  20.7180000 -11.4840000  51.0279463  21.5931013 -11.1052601
  49.2710000  20.4320000 -11.4100000  49.1462512  19.3799581 -11.1535926
  48.8381971  21.0508025 -10.6239564  48.5460000  20.7120000 -12.7150000
  48.8570000  21.6540000 -13.4470000  47.5480000  19.8760000 -13.0000000
  47.3469183  19.1274402 -12.3524479  46.7730000  19.9490000 -14.2370000
  47.2598728  20.6315964 -14.9335028  46.6650000  18.5710000 -14.8970000
  46.2494182  18.7021887 -15.8960899  47.6671517  18.1491562 -14.9734190
  45.8400000  17.6940000 -14.1550000  45.7967696  16.8435781 -14.5982986
  45.3890000  20.5290000 -13.9530000  44.6300000  19.9880000 -13.1360000
  45.0620000  21.6190000 -14.6390000  45.7037552  22.0052205 -15.3165569
  43.7920000  22.2820000 -14.4420000  42.9947767  21.5421826 -14.5141411
  43.7809374  22.7316511 -13.4491300  43.5560000  23.3620000 -15.4740000
  44.4600000  24.1430000 -15.7930000  42.3400000  23.4120000 -16.0060000
  41.6283777  22.7652183 -15.6971854  42.0030000  24.3560000 -17.0540000
  42.8893525  24.6014407 -17.6390106  40.9650000  23.7440000 -17.9790000
  40.1126864  23.4098535 -17.3873863  40.6334980  24.4847654 -18.7066490
  41.5690000  22.5640000 -18.7020000  42.2828673  22.0780248 -18.0369267
  40.5070000  21.5690000 -19.1150000  39.7929759  22.0541553 -19.7805019
  40.9746521  20.7316555 -19.6329349  39.9870710  21.2032343 -18.2295681
  42.2560000  23.1460000 -19.8950000  43.0213532  23.8493722 -19.5669734
  42.7210092  22.3472079 -20.4727533  41.5273614  23.6664614 -20.5165341
  41.4760000  25.6360000 -16.4390000  40.7180000  25.5930000 -15.4680000
  41.8900000  26.7660000 -16.9820000  42.5930851  26.7957043 -17.7064918
  41.3550000  28.0230000 -16.4900000  41.4296448  28.0477708 -15.4028414
  42.1280000  29.2190000 -17.0620000  42.1608751  29.0876481 -18.1435568
  41.5521536  30.1129256 -16.8224214  43.5560000  29.3710000 -16.5220000
  44.2070328  28.6762607 -17.0526548  43.8837410  30.3929387 -16.7126021
  43.6660000  29.0930000 -15.0140000  42.9700000  29.7130000 -14.1880000
  44.5430000  28.1460000 -14.6530000  44.6611789  27.9173700 -13.6763406
  45.0817229  27.6652930 -15.3592576  39.8750000  28.1180000 -16.8570000
  39.4610000  27.5990000 -17.9050000  39.0440000  28.7300000 -16.0060000
  39.3050000  29.2230000 -14.6540000  40.3213439  29.6105673 -14.5837365
  39.1715626  28.4209316 -13.9280663  38.2840000  30.2810000 -14.5180000
  38.6390376  31.2029243 -14.9785464  38.0715263  30.4603575 -13.4640611
  37.0750000  29.7470000 -15.2240000  36.4927869  30.5555182 -15.6660694
  36.4450213  29.1780999 -14.5402024  37.6140000  28.8250000 -16.3310000
  37.1944763  27.8239936 -16.2305792  37.3280000  29.3560000 -17.7270000
  36.5260000  28.7430000 -18.4400000  37.9690000  30.4520000 -18.1540000
  38.6094171  30.9689240 -17.5685473  37.6900000  30.9620000 -19.4930000
  36.6347228  31.2301695 -19.5437385  38.5240000  32.2070000 -19.7820000
  39.5831544  31.9523812 -19.7437740  38.2779257  32.5877553 -20.7732482
  38.3074280  32.9713323 -19.0356810  37.9470000  29.9050000 -20.5550000
  37.2320000  29.8430000 -21.5620000  38.9440000  29.0490000 -20.3370000
  39.5592354  29.1572869 -19.5433637  39.2310000  27.9880000 -21.2940000
  39.1730986  28.3315811 -22.3268111  40.6490000  27.4390000 -21.0360000
  40.7790290  27.3487018 -19.9575576  40.8930000  26.0670000 -21.7000000
  40.7635955  26.1566107 -22.7785756  41.9075674  25.7329557 -21.4828181
  40.1803742  25.3412504 -21.3081408  41.6290000  28.4250000 -21.5270000
  41.4933123  29.3678029 -20.9970815  42.6384551  28.0526854 -21.3524093
  41.4807893  28.5845157 -22.5950305  38.1690000  26.9020000 -21.2280000
  37.8160000  26.3010000 -22.2480000  37.6440000  26.6250000 -20.0400000
  38.0299525  26.9911860 -19.1814851  36.5030000  25.7240000 -19.9550000
  36.7322009  24.7784288 -20.4463871  36.1780000  25.4470000 -18.4960000
  36.2081420  26.3684663 -17.9145444  35.1924282  24.9909585 -18.4023278
  37.3260000  24.3190000 -17.7010000  36.7336619  24.3341216 -16.5102837
  35.2930000  26.3110000 -20.6670000  34.5840000  25.6070000 -21.3950000
  35.0460000  27.6040000 -20.4690000  35.5828913  28.1331557 -19.7968085
  33.9580000  28.2750000 -21.1650000  32.9988277  27.8571578 -20.8592295
  33.9740000  29.7590000 -20.8220000  33.9906939  29.8369010 -19.7349158
  34.9001504  30.1647421 -21.2290858  32.8020000  30.5400000 -21.3640000
  32.8023727  30.5417820 -22.4539989  31.5790000  29.8520000 -20.8700000
  31.5776889  29.8502276 -19.7800028  30.6949234  30.3761367 -21.2330289
  31.5670236  28.8248210 -21.2345002  32.8400000  31.9670000 -20.8660000
  33.7640919  32.4425668 -21.1946180  31.9873954  32.5151122 -21.2669236
  32.7959487  31.9735905 -19.7769109  34.0620000  28.0590000 -22.6680000
  33.1150000  27.5940000 -23.2990000  35.2240000  28.3510000 -23.2490000
  35.9881115  28.7444699 -22.7185149  35.4020000  28.1660000 -24.6840000
  34.7143505  28.8338787 -25.2028211  36.8320000  28.5270000 -25.0880000
  37.5318074  27.8607924 -24.5834832  36.9431878  28.4202502 -26.1670468
  37.0417498  29.5576411 -24.8018476  35.0820000  26.7440000 -25.1220000
  34.4840000  26.5380000 -26.1790000  35.4790000  25.7470000 -24.3340000
  36.0279193  25.9208139 -23.5041954  35.1970000  24.3590000 -24.7010000
  35.4357180  24.1685416 -25.7473453  35.9950000  23.3960000 -23.8110000
  35.7568316  23.6068559 -22.7684474  35.6540000  21.9450000 -24.1260000
  35.8923451  21.7332490 -25.1683309  36.2345021  21.2863247 -23.4800396
  34.5908268  21.7757867 -23.9553283  37.4740000  23.6500000 -23.9840000
  37.7524426  23.4023309 -25.0083195  37.6698128  24.7063821 -23.8001151
  38.2740000  22.8270000 -23.0410000  38.0790542  21.7704078 -23.2246001
  39.3343814  23.0313722 -23.1890627  37.9964224  23.0744577 -22.0163951
  33.6980000  24.0730000 -24.6230000  33.1290000  23.4240000 -25.5090000
  33.0430000  24.5340000 -23.5490000  33.5693560  24.8548056 -22.7489172
  31.5860000  24.5290000 -23.4620000  31.2218078  23.5019539 -23.4872880
  31.1130000  25.1850000 -22.1580000  31.8539018  24.9641229 -21.3896400
  31.0735994  26.2613666 -22.3252796  29.7540000  24.6950000 -21.7040000
  29.0707095  24.8725591 -22.5344744  29.8539693  23.6221402 -21.5394401
  29.2000000  25.3570000 -20.4360000  28.3633235  24.7536503 -20.0838059
  29.9908718  25.3535774 -19.6859270  28.7390000  26.7330000 -20.6250000
  29.2243718  27.4540542 -20.1106126  27.7340000  27.0890000 -21.4240000
  27.0860000  26.1560000 -22.1230000  27.3605963  25.1873867 -22.0424697
  26.3236825  26.4223826 -22.7296400  27.3730000  28.3750000 -21.5250000
  27.8654804  29.0778985 -20.9925558  26.6099718  28.6358793 -22.1331354
  31.0010000  25.2380000 -24.6830000  30.3860000  24.5930000 -25.5330000
  31.2280000  26.5440000 -24.8160000  31.8239999  27.0331202 -24.1635853
  30.5470000  27.3200000 -25.8460000  29.4620540  27.2473750 -25.7703896
  30.9480000  28.7980000 -25.7430000  32.0342726  28.8667882 -25.8011305
  30.3240000  29.6260000 -26.8680000  29.2376528  29.5580710 -26.8102389
  30.6283826  30.6675623 -26.7650454  30.6607522  29.2431267 -27.8313834
  30.5450000  29.3380000 -24.4000000  31.0460971  28.7717812 -23.6148885
  30.8307146  30.3875002 -24.3291756  29.4654210  29.2470070 -24.2802908
  30.8130000  26.7680000 -27.2400000  29.9210000  26.7590000 -28.0900000
  32.0220000  26.3030000 -27.5150000  32.7526362  26.1936332 -26.8262991
  32.3370000  26.0100000 -28.9120000  31.6942062  26.5989488 -29.5662588
  33.8000000  26.3580000 -29.2190000  34.0505538  27.2798402 -28.6940879
  34.4389358  25.5510584 -28.8602434  34.0600000  26.5600000 -30.7130000
  34.8200000  25.8020000 -31.3410000  33.4350000  27.5910000 -31.2880000
  33.5687745  27.7734276 -32.2723396  32.8315005  28.1834281 -30.7358062
  32.0600000  24.5620000 -29.3060000  31.8520000  24.2840000 -30.4950000
  32.0770000  23.6280000 -28.3610000  32.3811928  23.8292435 -27.4191576
  31.6960000  22.2610000 -28.6860000  31.9102024  22.0097458 -29.7247915
  32.3940000  21.2360000 -27.7790000  32.2539269  20.2436862 -28.2077110
  33.8820000  21.5270000 -27.6500000  34.0228754  22.5190309 -27.2208982
  34.3434968  20.7823087 -27.0014981  34.3470286  21.4884080 -28.6350683
  31.7540000  21.2020000 -26.4910000  32.1959045  20.5595926 -25.9309702
  30.1980000  22.0340000 -28.5900000  29.7460000  20.9030000 -28.7960000
  29.4330000  23.0660000 -28.2500000  29.9158349  23.9078459 -27.9702407
  27.9800000  23.0490000 -28.1810000  27.6090136  24.0722927 -28.1232041
  27.3700000  22.3760000 -29.4150000  27.8879731  21.4322338 -29.5856120
  26.3049650  22.1863581 -29.2814465  27.5090000  23.1780000 -30.6800000
  26.9060000  24.4240000 -30.8000000  26.3423684  24.8216843 -29.9560412
  27.0120000  25.1540000 -31.9620000  26.5298019  26.1281329 -32.0435518
  27.7330000  24.6480000 -33.0280000  27.8378071  25.2315071 -33.9426775
  28.3130000  23.4180000 -32.9340000  28.8643758  23.0133468 -33.7827289
  28.2030000  22.6790000 -31.7590000  28.6687106  21.6960774 -31.6877487
  27.4300000  22.3770000 -26.9300000  26.2370000  22.1270000 -26.8810000
  28.2390000  22.0950000 -25.9150000  29.2313664  22.2740023 -25.9721533
  27.7170000  21.4700000 -24.7030000  27.1256619  20.5923402 -24.9640206
  28.8640000  21.0330000 -23.7940000  29.5249417  21.8979880 -23.7387647
  28.4747878  20.8097713 -22.8006306  29.6490000  19.8220000 -24.3200000
  29.6330589  19.8576949 -25.4092991  31.0920000  19.8090000 -23.8340000
  31.1087553  19.7728394 -22.7447294  31.6027732  18.9330912 -24.2339942
  31.5988895  20.7117515 -24.1748859  28.9580000  18.5330000 -23.9140000
  27.9508897  18.5132667 -24.3304600  29.5239507  17.6818859 -24.2926897
  28.9022283  18.4768669 -22.8268765  26.7890000  22.4140000 -23.9450000
  27.0480000  23.6150000 -23.8330000  25.6910000  21.8730000 -23.4340000
  25.3753685  20.9486214 -23.6909051  24.8900000  22.6380000 -22.4900000
  24.8418714  23.6761152 -22.8187851  23.4610000  22.0900000 -22.3860000
  22.9379036  22.6564669 -21.6155556  22.9697795  22.2448164 -23.3466427
  23.4340000  20.7170000 -22.0600000  22.5230865  20.4188282 -22.0058702
  25.5400000  22.6020000 -21.1160000  26.2340000  21.6450000 -20.7720000
  25.3000000  23.6470000 -20.3240000  24.8664848  24.4886524 -20.6758312
  25.6850000  23.6040000 -18.9230000  26.7704087  23.6656114 -18.8443160
  25.0780000  24.7540000 -18.1490000  23.9996068  24.6272835 -18.0535519
  25.5237658  24.8284280 -17.1571062  25.3210000  26.3310000 -18.9160000
  24.6818157  27.0370736 -17.9876672  25.2350000  22.2950000 -18.3030000
  25.9740000  21.6720000 -17.5380000  24.0280000  21.8550000 -18.6480000
  23.4436438  22.3589969 -19.2996244  23.4860000  20.6600000 -18.0160000
  23.5727029  20.7363533 -16.9321402  22.0060000  20.5070000 -18.3790000
  21.4820180  21.4236732 -18.1083484  21.9234608  20.3457552 -19.4538430
  21.4280000  19.4140000 -17.6930000  20.5022673  19.3374569 -17.9354044
  24.2820000  19.4220000 -18.4020000  24.4250000  18.5000000 -17.5910000
  24.8130000  19.3920000 -19.6280000  24.6067109  20.1375064 -20.2774339
  25.6550000  18.2860000 -20.0860000  25.2946748  17.3450205 -19.6702806
  25.6130000  18.1940000 -21.6120000  25.8453731  19.1837805 -22.0049841
  26.3878907  17.4910845 -21.9178664  24.2860000  17.7410000 -22.1500000
  23.4909750  18.3625937 -21.7381051  24.2874469  17.8266825 -23.2366271
  24.0170000  16.3150000 -21.7830000  24.9330000  15.5350000 -21.5680000
  22.7600000  15.9610000 -21.7040000  22.5205624  15.0106094 -21.4600147
  22.0348990  16.6397544 -21.8873639  27.0920000  18.4590000 -19.6130000
  27.7060000  17.5170000 -19.1030000  27.6380000  19.6620000 -19.7980000
  27.1459882  20.3577154 -20.3402212  28.9600000  19.9920000 -19.2900000
  29.7210530  19.3922452 -19.7891910  29.2450000  21.4620000 -19.5600000
  29.3733030  21.5839595 -20.6355294  28.3715325  22.0258617 -19.2325636
  30.4680000  21.9740000 -18.8480000  31.7470000  21.7350000 -19.3560000
  31.8465024  21.1679321 -20.2815445  32.8650000  22.1990000 -18.7130000
  33.8609535  22.0046263 -19.1109915  32.7170000  22.9240000 -17.5510000
  33.8180000  23.3960000 -16.9020000  34.6399108  23.1653889 -17.3411819
  31.4740000  23.1800000 -17.0250000  31.3694891  23.7547962 -16.1047896
  30.3550000  22.7040000 -17.6700000  29.3646506  22.8978669 -17.2580246
  29.1000000  19.6870000 -17.8030000  30.1660000  19.2520000 -17.3500000
  28.0440000  19.9190000 -17.0220000  27.2173128  20.3824664 -17.3711226
  28.0930000  19.5640000 -15.6060000  28.9530334  20.0374178 -15.1323785
  26.8230000  20.0410000 -14.9010000  26.7877099  21.1301004 -14.9277257
  25.9368406  19.6371567 -15.3906244  26.7340000  19.6440000 -13.4570000
  27.4370000  20.2860000 -12.4600000  27.1530000  19.7300000 -11.2950000
  27.6108238  20.0984881 -10.3770061  26.2920000  18.7500000 -11.5010000
  25.8996183  18.1454542 -10.7934261  26.0090000  18.6790000 -12.8430000
  25.3073719  17.9315033 -13.2132269  28.2840000  18.0610000 -15.4160000
  28.9770000  17.6320000 -14.4860000  27.6710000  17.2410000 -16.2790000
  27.0323503  17.5917127 -16.9784472  27.8970000  15.7990000 -16.2080000
  27.6558356  15.4402188 -15.2073927  27.0180000  15.0570000 -17.2190000
  27.2919144  15.4506906 -18.1978145  27.3097045  14.0087112 -17.1549753
  25.5260000  15.1760000 -17.0290000  25.2074172  14.4674764 -16.2644085
  25.2885447  16.1895753 -16.7059177  24.7970000  14.8750000 -18.3370000
  23.7769263  15.2484674 -18.2471629  25.3093046  15.4080455 -19.1379407
  24.7660000  13.3920000 -18.6560000  25.7871096  13.0107634 -18.6462849
  24.1809513  12.8818282 -17.8907928  24.1560000  13.1450000 -19.9950000
  24.6982179  13.6172974 -20.7042493  24.1471994  12.1527010 -20.1830567
  23.2096676  13.4978054 -20.0040775  29.3530000  15.4720000 -16.4830000
  29.9420000  14.6000000 -15.8320000  29.9410000  16.1500000 -17.4620000
  29.4323475  16.8259476 -18.0137850  31.3230000  15.8770000 -17.8110000
  31.4674020  14.8087928 -17.9728041  31.6810000  16.6160000 -19.0930000
  30.8651387  16.4742839 -19.8017920  31.7750910  17.6755768 -18.8552104
  32.9630000  16.1240000 -19.7010000  33.7429893  16.1301338 -18.9396329
  32.8172962  15.1062255 -20.0629496  33.4630000  17.1640000 -21.0610000
  33.2010000  18.7780000 -20.3050000  33.8265496  18.8697573 -19.4170995
  33.4644347  19.5602953 -21.0168405  32.1532584  18.8819234 -20.0229739
  32.2600000  16.2610000 -16.6680000  33.0090000  15.4170000 -16.1530000
  32.2240000  17.5380000 -16.2590000  31.7117714  18.2107741 -16.8113552
  32.9310000  18.0110000 -15.0740000  33.9916212  18.1359155 -15.2921236
  32.3590000  19.3610000 -14.6410000  32.8218784  20.0586303 -15.3389648
  31.2799966  19.3556265 -14.7953464  32.6660000  19.7950000 -13.2090000
  31.9200000  19.3250000 -12.1300000  31.1135053  18.6188433 -12.3275059
  32.1800000  19.7310000 -10.8380000  31.5990495  19.3356324 -10.0047637
  33.1700000  20.6480000 -10.6080000  33.4200000  21.0600000  -9.3240000
  32.8457054  20.6428181  -8.6776684  33.9140000  21.1420000 -11.6510000
  34.7152243  21.8552755 -11.4576657  33.6480000  20.7360000 -12.9440000
  34.2142845  21.1569317 -13.7748059  32.8350000  17.0140000 -13.9350000
  33.8340000  16.4270000 -13.5120000  31.6170000  16.7940000 -13.4560000
  30.8179253  17.2608949 -13.8604603  31.4040000  15.9430000 -12.2920000
  31.8732681  16.3789383 -11.4100451  29.9010000  15.8140000 -12.0330000
  29.6112894  16.6230139 -11.3624305  29.3902236  15.9341587 -12.9883896
  29.5160000  14.4930000 -11.4210000  30.2040798  13.7235552 -11.7711453
  29.5801614  14.5704378 -10.3356481  28.1150000  14.1270000 -11.8140000
  28.0289633  14.1147635 -12.9005298  27.8677275  13.1415024 -11.4193481
  27.1680000  15.0920000 -11.2830000  27.5131361  15.7724134 -10.6211706
  25.8840000  15.1250000 -11.6130000  25.4110000  14.2370000 -12.4790000
  26.0301875  13.5460522 -12.8781215  24.4341164  14.2564161 -12.7347756
  25.0780000  16.0460000 -11.0830000  25.4481813  16.7200116 -10.4281915
  24.1011387  16.0652290 -11.3388729  32.0550000  14.5690000 -12.4530000
  32.7070000  14.0770000 -11.5240000  31.9060000  13.9410000 -13.6300000
  31.3817468  14.3653576 -14.3817836  32.4220000  12.5840000 -13.8230000
  32.1847445  11.9806826 -12.9467482  31.7700000  11.9380000 -15.0550000
  31.6443515  12.7059372 -15.8182727  32.6150000  10.8040000 -15.6120000
  32.7407046  10.0354092 -14.8493951  32.1189067  10.3740462 -16.4821324
  33.5922286  11.1881606 -15.9044814  30.5010000  11.3960000 -14.6840000
  30.0894526  10.9910040 -15.4509467  33.9490000  12.5580000 -13.9350000
  34.5810000  11.5840000 -13.5060000  34.5580000  13.6100000 -14.4940000
  34.0245541  14.3321191 -14.9566865  36.0160000  13.6940000 -14.5320000
  36.4656538  12.7748517 -14.9076024  36.4570000  14.8620000 -15.4340000
  35.6912086  15.6372372 -15.4081149  37.7430000  15.4240000 -14.9670000
  38.5094467  14.6494150 -14.9930450  38.0375275  16.2478503 -15.6170960
  37.6310747  15.7894817 -13.9462172  36.5790000  14.4020000 -16.8850000
  35.6140207  14.0324317 -17.2318953  36.8914756  15.2404541 -17.5074575
  37.3187096  13.6042978 -16.9528363  36.5680000  13.8180000 -13.1140000
  37.3600000  12.9800000 -12.6620000  36.1030000  14.8290000 -12.3670000
  35.4779034  15.5117806 -12.7709358  36.5440000  15.0240000 -10.9870000
  37.6179284  15.2074954 -10.9537369  35.8200000  16.2390000 -10.3900000
  36.1725829  17.1072740 -10.9466730  34.7586574  16.0880996 -10.5871829
  36.0330000  16.4740000  -8.8860000  35.4381590  15.7345486  -8.3498315
  37.0898941  16.3123066  -8.6740281  35.6300000  17.8820000  -8.4300000
  36.4466617  18.5683553  -8.6537835  34.7396705  18.1856384  -8.9806510
  35.3370000  17.9120000  -6.9350000  34.4095143  17.3721694  -6.7440711
  36.1553190  17.4267758  -6.4030126  35.2000000  19.3190000  -6.4590000
  34.4415004  19.7686681  -6.9515208  35.0062691  19.3216899  -5.4677578
  36.0594718  19.8192770  -6.6354377  36.3410000  13.7900000 -10.1020000
  37.0430000  13.6330000  -9.1040000  35.4320000  12.8940000 -10.4400000
  34.8330729  13.0075646 -11.2452880  35.2330000  11.7270000  -9.5900000
  35.4510417  12.0311236  -8.5662491  33.7730000  11.2680000  -9.6640000
  33.5421479  10.9516874 -10.6812284  33.6190502  10.4329056  -8.9806135
  33.1177138  12.0924201  -9.3828759  36.1510000  10.5580000  -9.9370000
  36.4230000   9.7230000  -9.0670000  36.6220000  10.4690000 -11.1750000
  36.3455683  11.1314133 -11.8855586  37.4960000   9.3690000 -11.5590000
  37.3880914   8.5302166 -10.8713247  37.1800000   8.9000000 -12.9960000
  37.2500521   9.7591203 -13.6631621  38.1580000   7.8110000 -13.4600000
  38.0881820   6.9513103 -12.7935469  37.9062118   7.5044226 -14.4752407
  39.1748526   8.2031113 -13.4410622  35.7470000   8.3760000 -13.1000000
  35.6095919   7.5772934 -12.3711053  35.0566792   9.1904180 -12.8802729
  35.4720000   7.8430000 -14.4900000  36.1616772   7.0281860 -14.7102800
  34.4472749   7.4751948 -14.5425066  35.6087668   8.6413106 -15.2194483
  38.9540000   9.7660000 -11.4340000  39.7500000   9.0540000 -10.8180000
  39.3260000  10.9040000 -12.0120000  38.7311170  11.4071770 -12.6546713
  40.6790000  11.3920000 -11.7990000  41.4194796  10.6200587 -12.0085131
  40.9550000  12.5960000 -12.7090000  42.0312230  12.7279603 -12.8204939
  40.3320000  12.3560000 -14.0700000  39.2556451  12.2244005 -13.9593598
  40.5283912  13.2116531 -14.7160553  40.7633702  11.4591317 -14.5145758
  40.4330000  13.8030000 -12.1270000  40.6149786  14.5439116 -12.7096956
  40.9380000  11.7220000 -10.3240000  42.0730000  11.5960000  -9.8470000
  39.9290000  12.1220000  -9.5750000  38.9610572  12.0332128  -9.8494139
  40.2240000  12.7160000  -8.3000000  39.3156249  12.6657729  -7.6996408
  41.0019405  12.1126729  -7.8321279  40.6890000  14.1500000  -8.3680000
  40.8750000  14.7680000  -7.3150000  40.8510000  14.7100000  -9.5650000
  40.7285634  14.1509441 -10.3972050  41.2660000  16.0880000  -9.7190000
  41.3697435  16.5565959  -8.7403507  42.6190000  16.1570000 -10.4420000
  42.5233467  15.6305830 -11.3916498  42.8500036  17.2055105 -10.6300508
  43.7370000  15.5310000  -9.6270000  44.0853617  16.2889562  -8.9253965
  43.3030848  14.6974527  -9.0747152  44.9110000  15.0320000 -10.4590000
  44.7417448  13.9856257 -10.7130716  44.9695584  15.6224792 -11.3733329
  46.1900000  15.1420000  -9.7450000  46.8634735  15.7942190 -10.1206901
  46.5190000  14.4430000  -8.6570000  45.6640000  13.5750000  -8.1160000
  44.7534940  13.4415365  -8.5322526  45.9306443  13.0548148  -7.2923448
  47.7120000  14.6210000  -8.0990000  48.3605169  15.2826994  -8.5010943
  47.9646281  14.0937539  -7.2754168  40.2010000  16.8780000 -10.4660000
  39.4380000  16.3160000 -11.2620000  40.1730000  18.1890000 -10.2220000
  40.8485947  18.5910040  -9.5879149  39.1460000  19.0600000 -10.7810000
  38.2918892  18.4685192 -11.1107643  38.6710000  20.0550000  -9.7170000
  38.1974545  19.4390821  -8.9524747  39.5860969  20.4909807  -9.3162276
  37.7240000  21.1620000 -10.1310000  38.2615546  21.8266805 -10.8072660
  36.8641136  20.7362763 -10.6481623  37.2210000  21.9810000  -8.9360000
  36.8950000  21.4300000  -7.8750000  37.1350000  23.3020000  -9.1170000
  36.8098633  23.8916647  -8.3642164  37.3955221  23.7048708 -10.0057771
  39.7240000  19.7480000 -12.0230000  40.0190000  20.9520000 -12.0390000
  39.9300000  18.9250000 -13.0680000  39.7688168  17.9334583 -12.9632886
  40.4320000  19.4150000 -14.3540000  41.4237192  19.8547252 -14.2480091
  40.4850000  18.2750000 -15.3820000  39.5136103  17.7835463 -15.4365504
  40.8330000  18.8430000 -16.7240000  41.8045438  19.3342487 -16.6703529
  40.8726823  18.0398500 -17.4598507  40.0753144  19.5687249 -17.0195250
  41.4820000  17.1860000 -14.9860000  41.8474493  16.7422877 -15.9121031
  42.3046667  17.6841779 -14.4730304  40.9170000  16.1020000 -14.0970000
  40.0945300  15.6030282 -14.6095135  41.6966971  15.3752232 -13.8690368
  40.5517451  16.5449193 -13.1704412  39.5560000  20.5480000 -14.8700000
  40.0130000  21.6880000 -15.0500000  38.2830000  20.2340000 -15.1370000
  37.9913974  19.2688492 -15.0774077  37.3010000  21.2260000 -15.5320000
  37.7575555  21.9467841 -16.2103262  36.1290000  20.5650000 -16.2420000
  35.8632467  19.6764506 -15.6693270  35.2644153  21.2253645 -16.3091717
  36.4250000  20.1040000 -17.6350000  36.4440000  21.0050000 -18.6810000
  36.2621033  22.0592750 -18.4723908  36.6880000  20.5900000 -19.9730000
  36.7140365  21.3146400 -20.7868302  36.8990000  19.2560000 -20.2330000
  37.0972958  18.9212525 -21.2511959  36.8590000  18.3360000 -19.1960000
  37.0153525  17.2766031 -19.3993033  36.6210000  18.7630000 -17.9060000
  36.5863200  18.0406371 -17.0904701  36.7890000  21.9790000 -14.3120000
  36.6630000  21.4210000 -13.2210000  36.4750000  23.2570000 -14.5110000
  36.6461723  23.6894438 -15.4075443  35.9280000  24.0810000 -13.4390000
  36.3650449  23.7870653 -12.4846975  36.2470000  25.5540000 -13.6890000
  36.0299214  25.7637702 -14.7363646  35.5854232  26.1452482 -13.0558794
  37.7020000  25.9190000 -13.3870000  38.3355421  25.7547513 -14.2586350
  37.7286554  26.9735699 -13.1126393  38.2480000  25.1030000 -12.2300000
  37.9410000  25.3860000 -11.0590000  39.0290000  24.0550000 -12.5510000
  39.4193442  23.4774355 -11.8201429  39.2212153  23.8508424 -13.5212960
  34.4110000  23.9040000 -13.2870000  33.7110000  23.5610000 -14.2420000
  33.8730000  24.1300000 -12.0980000  34.5390000  24.4240000 -10.8230000
  35.2100351  25.2731022 -10.9527600  35.1127579  23.5533575 -10.5053799
  33.3990000  24.7270000  -9.8960000  33.1962507  25.7979754  -9.8978460
  33.6504615  24.4070865  -8.8848008  32.2680000  23.9710000 -10.4140000
  31.3483497  24.4723984 -10.1124341  32.2341816  22.9289703 -10.0959905
  32.4280000  24.0480000 -11.9330000  32.0709807  23.1445628 -12.4274054
  31.7360000  25.2640000 -12.5370000  32.3460000  26.2920000 -12.8540000
  30.4180000  25.1280000 -12.6770000  29.9208243  24.3680043 -12.2350473
  29.6710000  26.0340000 -13.5350000  30.1420763  26.0981783 -14.5158504
  28.2480000  25.5170000 -13.7110000  27.9577371  25.1227058 -12.7371526
  27.6022470  26.3561172 -13.9698155  28.1070000  24.4260000 -14.7620000
  28.9668647  23.7587473 -14.7027772  26.8470000  23.6410000 -14.5270000
  25.9866065  24.3075417 -14.5865315  26.7563387  22.8629566 -15.2849774
  26.8829905  23.1824026 -13.5388231  28.1030000  25.0850000 -16.1270000
  29.0373401  25.6273055 -16.2719576  28.0027484  24.3221170 -16.8990495
  27.2660313  25.7801470 -16.1929771  29.6530000  27.4590000 -13.0100000
  29.5550000  28.3990000 -13.8070000  29.7230000  27.6480000 -11.6900000
  29.8043123  26.8822809 -11.0364238  29.6080000  29.0030000 -11.1580000
  28.7025655  29.4778878 -11.5358481  29.5360000  28.9590000  -9.6310000
  29.2514741  29.9244711  -9.2126582  28.8042833  28.2064340  -9.3371716
  30.8270000  28.5760000  -8.9830000  31.8040000  29.4990000  -8.6630000
  32.8380000  28.8750000  -8.1230000  33.7157954  29.4336923  -7.7982892
  32.5700000  27.5800000  -8.0840000  33.1755259  26.8580111  -7.7204477
  31.3210000  27.3660000  -8.6230000  30.9217074  26.3538716  -8.6882904
  30.7670000  29.8810000 -11.6210000  30.6070000  31.1070000 -11.7640000
  31.9290000  29.2610000 -11.8810000  32.0010599  28.2652657 -11.7279645
  33.1190000  29.9810000 -12.3210000  33.1844929  30.9257468 -11.7813118
  34.3650000  29.1570000 -12.0140000  34.3183246  28.2116236 -12.5545414
  35.2519988  29.7091309 -12.3246200  34.4165046  28.9604641 -10.9431031
  33.0460000  30.3120000 -13.8060000  33.3040000  31.4560000 -14.2030000
  32.7020000  29.3170000 -14.6390000  32.6615005  28.3590324 -14.3215772
  32.4230000  29.5930000 -16.0480000  33.3279390  29.9645578 -16.5287591
  31.9600000  28.3340000 -16.7840000  31.1901890  27.9585429 -16.1098173
  31.4964743  28.6762449 -17.7092634  32.9510000  27.2180000 -17.0950000
  33.8648820  27.6553153 -17.4970893  33.2770000  26.4340000 -15.8340000
  32.3636157  25.9959712 -15.4315590  33.9856528  25.6406739 -16.0717932
  33.7158068  27.1024250 -15.0932186  32.4260000  26.2880000 -18.1780000
  32.2504165  26.8559661 -19.0916106  33.1594186  25.5054756 -18.3725612
  31.4913945  25.8351374 -17.8470513  31.3700000  30.6760000 -16.1830000
  31.4550000  31.5240000 -17.0770000  30.3710000  30.6710000 -15.2980000
  30.2413753  29.9244911 -14.6301518  29.3790000  31.7280000 -15.3490000
  29.0131703  31.8422969 -16.3693941  28.1980000  31.3960000 -14.4420000
  27.8707124  30.3870994 -14.6932004  28.5635383  31.4137595 -13.4152739
  27.0170000  32.3660000 -14.5810000  27.1043388  33.1109949 -13.7901426
  27.1016147  32.8553040 -15.5513216  25.6600000  31.6710000 -14.4780000
  24.9199364  32.4208579 -14.1985042  25.4147219  31.2677484 -15.4605102
  25.6170000  30.5800000 -13.4980000  25.7750915  30.8223591 -12.5303386
  25.3940000  29.3000000 -13.8060000  25.1840000  28.9310000 -15.0710000
  25.1933802  29.6252291 -15.8045243  25.0166259  27.9591571 -15.2891899
  25.3700000  28.3850000 -12.8470000  25.5205726  28.6600629 -11.8869123
  25.2012553  27.4170523 -13.0808830  29.9960000  33.0670000 -14.9880000
  29.5880000  34.1000000 -15.5350000  31.0110000  33.0710000 -14.1120000
  31.2622400  32.2452094 -13.5875502  31.7390000  34.3150000 -13.8410000
  31.0370384  35.1445268 -13.7559452  32.5180000  34.1990000 -12.5330000
  31.9837804  33.5567988 -11.8327955  33.4893595  33.7595238 -12.7597631
  32.7380000  35.5510000 -11.8800000  33.8210000  36.1260000 -11.9680000
  31.6980000  36.0780000 -11.2450000  31.7888039  36.9763367 -10.7924014
  30.8207877  35.5781604 -11.2174374  32.6800000  34.6930000 -14.9870000
  32.7900000  35.8740000 -15.3410000  33.3610000  33.7020000 -15.5750000
  33.3571404  32.7705421 -15.1845252  34.1750000  33.9520000 -16.7570000
  35.0007906  34.6054198 -16.4755545  34.7490000  32.6380000 -17.2790000
  33.9342378  31.9765020 -17.5734199  35.3852679  32.8360677 -18.1415733
  35.3380871  32.1614990 -16.4954042  33.3880000  34.6540000 -17.8570000
  33.9490000  35.4910000 -18.5820000  32.0880000  34.3290000 -17.9870000
  31.6777200  33.6430293 -17.3695748  31.2460000  34.9150000 -19.0300000
  31.6683916  34.6960097 -20.0106772  29.8280000  34.3360000 -18.9670000
  29.4768313  34.5051277 -17.9490729  29.2288305  34.9262987 -19.6602845
  29.6920000  32.8420000 -19.3150000  29.8270900  32.7599282 -20.3934784
  30.4896311  32.2998186 -18.8071387  28.3230000  32.2360000 -18.9190000
  27.4600000  32.9950000 -18.3970000  28.1310000  30.9960000 -19.1170000
  31.1700000  36.4250000 -18.9110000  31.0520000  37.1220000 -19.9230000
  31.2530000  36.9450000 -17.6900000  31.5288859  36.3812352 -16.8987001
  30.8740000  38.3290000 -17.4520000  29.8433606  38.4968747 -17.7645696
  30.9890000  38.6420000 -15.9660000  31.9839199  38.3175279 -15.6611205
  30.9171576  39.7258330 -15.8751993  29.9460000  37.9880000 -15.0710000
  28.9466634  38.2355685 -15.4289625  30.0777571  36.9060510 -15.0823400
  30.1190000  38.5080000 -13.6410000  31.0862785  38.1537049 -13.2847048
  30.1282705  39.5966938 -13.6935288  29.0210000  38.0530000 -12.6740000
  28.0509966  38.2429256 -13.1334805  29.1347388  36.9837656 -12.4953927
  29.1100000  38.7970000 -11.3570000  29.0042006  39.7877599 -11.5222300
  28.3765311  38.4783336 -10.7400923  30.0085892  38.6208012 -10.9308657
  31.7170000  39.2910000 -18.2790000  31.2080000  40.3060000 -18.7660000
  33.0040000  38.9780000 -18.4690000  33.3955564  38.1460124 -18.0511729
  33.8940000  39.8560000 -19.2350000  33.8491654  40.8948067 -18.9079377
  35.3550000  39.3740000 -19.1450000  35.5060966  38.5290703 -19.8168355
  36.2640000  40.4970000 -19.5430000  36.1137976  41.3421865 -18.8712858
  37.3004632  40.1650866 -19.4823533  36.0398342  40.8016983 -20.5652574
  35.6880000  38.8410000 -17.7670000  35.0355462  37.9992215 -17.5350191
  36.7267992  38.5115522 -17.7455525  35.5416476  39.6280884 -17.0272881
  33.4630000  39.9370000 -20.6950000  33.6280000  40.9750000 -21.3540000
  32.9410000  38.8340000 -21.2340000  32.7423540  38.0393332 -20.6431161
  32.7040000  38.7070000 -22.6620000  33.4487971  39.2693964 -23.2251047
  32.8060000  37.2380000 -23.0520000  31.9494563  36.7157651 -22.6257338
  32.8249325  37.0836172 -24.1308455  34.0910000  36.6920000 -22.4380000
  34.2315994  37.1817556 -21.4744275  34.0630000  35.1870000 -22.2410000
  33.9228859  34.6965025 -23.2042648  35.0051289  34.8600492 -21.8010033
  33.2408512  34.9223144 -21.5760840  35.2380000  37.1000000 -23.3340000
  35.2808835  38.1872839 -23.3978299  36.1739236  36.7236018 -22.9211166
  35.0874678  36.6837411 -24.3300761  31.3660000  39.2710000 -23.1120000
  31.1140000  39.2990000 -24.3170000  30.5110000  39.7270000 -22.1840000
  30.8134824  39.7317284 -21.2203707  29.1530000  40.1740000 -22.4860000
  28.9168271  39.9452727 -23.5252331  28.1280000  39.4720000 -21.5840000
  28.4384311  39.7060443 -20.5656901  27.1351786  39.8841341 -21.7644192
  28.0910000  37.9560000 -21.7690000  29.1225694  37.6074747 -21.8189560
  27.3650000  37.2280000 -20.6530000  26.3331635  37.5756845 -20.6027242
  27.3774529  36.1559337 -20.8495186  27.8621327  37.4286931 -19.7039575
  27.4500000  37.6570000 -23.0900000  28.0320750  38.1160854 -23.8890799
  27.4140777  36.5781204 -23.2410949  26.4369060  38.0589859 -23.1021181
  29.0200000  41.6910000 -22.3240000  29.7670000  42.3100000 -21.5590000
  28.0920000  42.3200000 -23.0490000  27.3640000  41.7980000 -24.2150000
  26.5368148  41.1741327 -23.8763935  28.0405012  41.2022976 -24.8278489
  26.8890000  43.0670000 -24.9330000  25.9361341  42.8850050 -25.4300145
  27.6279701  43.3824485 -25.6695574  26.7560000  44.0540000 -23.8770000
  25.8294589  43.8928131 -23.3259652  26.7925710  45.0839499 -24.2319160
  27.9570000  43.7710000 -22.9700000  28.8755946  44.2136742 -23.3551257
  27.7150000  44.2610000 -21.5550000  27.1610000  43.5550000 -20.7120000
  28.1550000  45.4960000 -21.3120000  28.6323365  45.9898372 -22.0525228
  27.9840000  46.1630000 -20.0450000  27.8579416  47.2234326 -20.2633833
  27.0664486  45.7714406 -19.6058189  29.1180000  45.9950000 -19.0510000
  28.9570000  46.4020000 -17.8930000  30.2530000  45.4150000 -19.4450000
  30.3779225  45.1013160 -20.3968908  31.3310000  45.1750000 -18.4900000
  30.9470046  45.2707364 -17.4743813  31.9110000  43.7740000 -18.6620000
  31.0875204  43.0807725 -18.4904884  32.2588133  43.6768616 -19.6904406
  33.0430000  43.4540000 -17.7160000  34.3560000  43.5110000 -18.1400000
  34.5553973  43.8059158 -19.1702256  35.4090000  43.2040000 -17.2900000
  36.4376685  43.2576519 -17.6464609  35.1490000  42.8280000 -15.9900000
  36.2020000  42.5250000 -15.1530000  37.0573913  42.6101817 -15.5803751
  33.8400000  42.7610000 -15.5410000  33.6248740  42.4660674 -14.5139479
  32.7990000  43.0720000 -16.4070000  31.7670189  43.0177251 -16.0603457
  32.4580000  46.1820000 -18.6070000  32.9450000  46.6740000 -17.5910000
  32.8910000  46.4590000 -19.7830000  32.5534978  46.0152749 -20.6251993
  33.9660000  47.4290000 -19.8990000  34.6159782  47.3726800 -19.0258130
  34.7940000  47.1410000 -21.1400000  34.1462864  47.0745853 -22.0141598
  35.5409711  47.9184882 -21.3001450  35.5350000  45.8470000 -21.0580000
  35.8470000  45.0830000 -22.1600000  36.4980000  43.9970000 -21.7810000
  36.8319310  43.2617295 -22.5130972  36.6220000  44.0290000 -20.4670000
  37.0689772  43.3279748 -19.8935238  36.0390000  45.1830000 -19.9930000
  36.0519703  45.4012852 -18.9251589  33.4070000  48.8510000 -19.9460000
  32.2710000  49.0690000 -20.4050000  34.1660000  49.8180000 -19.4170000
  35.4050000  49.6460000 -18.6300000  36.2150494  49.3496250 -19.2963949
  35.2492494  48.8698617 -17.8807003  35.6310000  51.0110000 -18.0100000
  36.4341041  51.5165586 -18.5462213  35.9156102  50.8845560 -16.9654377
  34.3310000  51.7660000 -18.1260000  34.5545042  52.8255860 -18.2501867
  33.6397081  51.6361802 -17.2933164  33.7100000  51.2100000 -19.4130000
  32.6200847  51.2184337 -19.4024244  34.2080000  51.9560000 -20.6330000
  35.2550000  51.6530000 -21.2090000  33.4250000  52.9480000 -21.0200000
  32.6083475  53.1916476 -20.4779539  33.6790000  53.6800000 -22.2520000
  34.7532531  53.8106476 -22.3824252  33.1270000  52.9270000 -23.4650000
  33.2541815  53.5321664 -24.3626067  33.6427843  51.9753211 -23.5929604
  31.6410000  52.6070000 -23.3620000  30.6910000  53.4200000 -23.9800000
  31.0235708  54.2887330 -24.5481545  29.3590000  53.1390000 -23.8800000
  28.6218610  53.7766459 -24.3679902  28.9490000  52.0420000 -23.1570000
  27.8844269  51.8221109 -23.0767956  29.8710000  51.2240000 -22.5370000
  29.5377590  50.3568444 -21.9668318  31.2040000  51.5030000 -22.6390000
  31.9347323  50.8577729 -22.1513400  33.0390000  55.0540000 -22.1040000
  32.3700000  55.3330000 -21.1050000  33.2590000  55.9180000 -23.0990000
  33.9592704  55.7510878 -23.8074215  32.5300000  57.1760000 -23.1330000
  31.4996282  56.9977171 -22.8253501  33.1510000  58.2330000 -22.1910000
  32.3573071  58.9367989 -21.9403649  33.4663533  57.7060327 -21.2904680
  34.3350000  58.9910000 -22.7760000  35.1585603  58.2771154 -22.7907676
  34.0811099  59.2732063 -23.7977625  34.7560000  60.2420000 -21.9890000
  33.9140000  60.8990000 -21.3270000  35.9600000  60.5790000 -22.0710000
  32.4710000  57.6950000 -24.5680000  33.2880000  57.3210000 -25.4190000
  31.4840000  58.5620000 -24.8160000  30.9061655  58.8290828 -24.0318613
  31.1620000  59.1070000 -26.1290000  31.8553919  58.6972631 -26.8634539
  29.7160000  58.7590000 -26.5650000  29.0308490  58.9886937 -25.7489680
  29.4220423  59.3175551 -27.4536535  29.5220000  57.2740000 -26.8960000
  29.2300000  56.2680000 -26.0090000  29.0999736  56.5564750 -24.9659396
  29.1630000  55.0650000 -26.6610000  28.9646060  54.1733587 -26.2300533
  29.4050000  55.2680000 -27.9940000  29.4370000  54.3580000 -29.0420000
  29.2442115  53.3078644 -28.8225771  29.7090000  54.8380000 -30.2860000
  29.7487024  54.1499593 -31.1304665  29.9390000  56.1930000 -30.5080000
  30.1518037  56.5663102 -31.5097253  29.9050000  57.1040000 -29.4700000
  30.0918707  58.1537771 -29.6961596  29.6340000  56.6410000 -28.1830000
  31.3500000  60.6160000 -26.0960000  30.7150000  61.3190000 -25.2950000
  32.2180000  61.1060000 -26.9690000  32.7308796  60.4682396 -27.5608746
  32.4860000  62.5280000 -27.0940000  31.8441853  63.0774551 -26.4053257
  33.9610000  62.8580000 -26.7650000  34.5509500  62.4851790 -27.6022949
  34.0294130  63.9452416 -26.7285954  34.5160000  62.2520000 -25.4210000
  33.9380554  62.6730571 -24.5983264  34.3762188  61.1713067 -25.4467927
  36.0240000  62.5530000 -25.1750000  36.5810000  63.4720000 -25.7740000
  36.6750000  61.7720000 -24.2990000  37.6540407  61.9352085 -24.1120675
  36.1829198  61.0245898 -23.8306662  32.1490000  62.9120000 -28.5280000
  32.8470000  62.4610000 -29.4580000  31.0850000  63.6750000 -28.7840000
  30.8040000  64.1470000 -30.1500000  30.8492937  63.3082274 -30.8446289
  31.5408944  64.8967678 -30.4379824  29.4370000  64.7140000 -30.0290000
  28.7037541  63.9389291 -30.2519677  29.3230509  65.5355038 -30.7362824
  29.3070000  65.1990000 -28.6240000  28.2581172  65.1472291 -28.3320005
  29.6820693  66.2079137 -28.4521986  30.1260000  64.1900000 -27.8080000
  30.6804714  64.6503840 -26.9902554  29.2370000  63.0850000 -27.2580000
  29.1990000  62.0360000 -27.8790000  28.5320000  63.3150000 -26.1490000
  28.3960000  64.5610000 -25.3770000  28.4011221  65.4179740 -26.0505500
  29.2197039  64.6511877 -24.6688496  27.0640000  64.3710000 -24.6900000
  26.2439579  64.6493698 -25.3519216  27.0114071  64.9649953 -23.7775829
  27.0410000  62.9130000 -24.3780000  26.0033447  62.6024864 -24.2557227
  27.6172018  62.6046045 -23.5056564  27.6280000  62.2800000 -25.6420000
  28.2043780  61.3788221 -25.4327992  26.5480000  61.9640000 -26.6640000
  26.0890000  62.8400000 -27.3980000  26.1430000  60.6910000 -26.6990000
  26.5648632  60.0130945 -26.0804736  25.1210000  60.2310000 -27.6380000
  25.3930736  60.5103284 -28.6558658  24.9990000  58.7060000 -27.5650000
  24.9100492  58.4885360 -26.5006240  24.0805259  58.4124714 -28.0732777
  26.1740000  57.9250000 -28.1470000  27.0977016  58.3486086 -27.7527513
  26.1000000  56.4540000 -27.7890000  25.1767208  56.0295583 -28.1833394
  26.9532392  55.9310322 -28.2209587  26.1167487  56.3420811 -26.7048902
  26.1930000  58.1020000 -29.6440000  26.3019781  59.1596550 -29.8839774
  27.0305369  57.5461522 -30.0655051  25.2602419  57.7283515 -30.0664311
  23.7730000  60.8700000 -27.3380000  23.3150000  60.8660000 -26.1930000
  23.1430000  61.4080000 -28.3840000  23.6153068  61.4493542 -29.2758046
  21.7990000  61.9730000 -28.2850000  21.7637395  62.7259105 -27.4976109
  21.4210000  62.6340000 -29.6100000  22.0229973  63.5370066 -29.7113787
  21.6738461  61.9377225 -30.4096039  19.9520000  62.9940000 -29.7000000
  19.3809047  62.1423379 -29.3303751  19.7830809  63.8532857 -29.0510034
  19.4990000  63.3330000 -31.1240000  19.6097988  62.4403266 -31.7395946
  18.4484463  63.6214596 -31.0889652  20.3240000  64.4780000 -31.7300000
  20.2162552  65.3447688 -31.0779237  21.3672441  64.1625271 -31.7447564
  19.8940000  64.8400000 -33.1140000  18.9274567  65.1327644 -33.1004780
  20.4696566  65.5948931 -33.4587547  19.9941648  64.0370889 -33.7184832
  20.7680000  60.9020000 -27.9350000  20.7030000  59.8500000 -28.5770000
  19.9580000  61.1700000 -26.9160000  20.1797664  61.9778411 -26.3518087
  18.8360000  60.3280000 -26.5090000  18.3406131  60.7757996 -25.6475091
  17.8150000  60.1810000 -27.6380000  18.3213437  59.8118834 -28.5298902
  17.0515533  59.4657292 -27.3319987  17.1390000  61.4980000 -27.9740000
  17.2270000  61.9810000 -29.1000000  16.4560000  62.0850000 -26.9930000
  15.9871629  62.9631893 -27.1635143  16.4099625  61.6493146 -26.0829673
  19.2470000  58.9500000 -26.0100000  18.3830000  58.0960000 -25.7990000
  20.5300000  58.7150000 -25.7780000  21.2084261  59.4388455 -25.9674337
  21.0090000  57.4330000 -25.2800000  20.2299705  56.6736778 -25.2118675
  22.1370000  56.8990000 -26.1700000  23.0230922  57.5204307 -26.0405251
  22.4610000  55.4760000 -25.7880000  21.5754536  54.8538297 -25.9176634
  23.2633497  55.1021953 -26.4240860  22.7786293  55.4423489 -24.7458480
  21.7610000  57.0400000 -27.6200000  21.5903032  58.0914688 -27.8510367
  22.5687710  56.6578747 -28.2441682  20.8511393  56.4729517 -27.8167501
  21.5050000  57.6070000 -23.8570000  22.0120000  58.6680000 -23.4950000
  21.3660000  56.5720000 -23.0400000  20.8823325  55.7247926 -23.3015429
  21.8950000  56.6750000 -21.6890000  21.6708683  57.6667865 -21.2962866
  21.2920000  55.6300000 -20.7500000  20.2224692  55.8177252 -20.6553301
  21.4501284  54.6399576 -21.1776814  21.9010000  55.6940000 -19.4630000
  21.5087633  55.0310471 -18.8900745  23.4020000  56.5200000 -21.7200000
  23.9620000  55.8770000 -22.6080000  24.0590000  57.1320000 -20.7440000
  23.5572032  57.7215337 -20.0953480  25.5020000  57.0330000 -20.6100000
  25.9450436  56.7295119 -21.5585286  26.0850000  58.3880000 -20.2100000
  27.1471683  58.2706642 -19.9952212  25.9568625  59.0895497 -21.0343233
  25.4230000  58.8850000 -19.0600000  25.7968783  59.7354597 -18.8180636
  25.9210000  55.9720000 -19.6050000  27.1240000  55.7910000 -19.3840000
  24.9680000  55.2860000 -18.9720000  23.9990619  55.5694790 -19.0019665
  25.3210000  54.1170000 -18.1790000  25.9204565  54.4169540 -17.3194776
  24.0510000  53.4200000 -17.6720000  23.2688302  53.6383105 -18.3990833
  24.2634079  52.3509108 -17.6775905  23.5830000  53.8380000 -16.2810000
  23.6858012  54.9185770 -16.1815714  22.5358254  53.5605478 -16.1603864
  24.4200000  53.1460000 -15.2060000  24.0534457  52.1258923 -15.0914698
  25.4567040  53.1234411 -15.5419097  24.3630000  53.8150000 -13.9020000
  23.5441351  54.3746049 -13.7112070  25.3170000  53.7410000 -12.9680000
  25.1740000  54.3900000 -11.8120000  24.3425278  54.9380769 -11.6435786
  25.8978118  54.3305389 -11.1101023  26.4200000  53.0280000 -13.1920000
  26.5342044  52.5426614 -14.0703529  27.1368750  52.9761108 -12.4824252
  26.1540000  53.1730000 -19.0370000  25.9870000  53.1090000 -20.2570000
  27.0900000  52.4650000 -18.4270000  27.3152363  52.5819646 -17.4494074
  27.8920000  51.5360000 -19.2150000  27.5465452  51.4888678 -20.2477336
  29.3770000  51.9430000 -19.2110000  29.9116105  51.3373551 -19.9427692
  29.5300000  53.4190000 -19.5640000  28.9960037  54.0253398 -18.8323583
  30.5864002  53.6874270 -19.5559552  29.1170839  53.6004913 -20.5563013
  29.9710000  51.6740000 -17.9310000  30.8951921  51.9332989 -17.9462785
  27.7560000  50.0950000 -18.7580000  28.3960000  49.2090000 -19.3400000
  26.9480000  49.8350000 -17.7340000  26.5171355  50.6147168 -17.2580833
  26.7110000  48.4920000 -17.2160000  27.4383688  47.8030595 -17.6454121
  26.8450000  48.4570000 -15.6900000  26.5743786  47.4517537 -15.3669781
  27.8881051  48.6500849 -15.4395004  25.9450000  49.4870000 -14.9740000
  25.2510000  50.2900000 -15.6480000  25.9510000  49.4870000 -13.7220000
  25.3440000  47.9730000 -17.6470000  24.6510000  47.3070000 -16.8780000
  24.9320000  48.2980000 -18.8720000  25.4980544  48.9278962 -19.4223748
  23.6610000  47.8450000 -19.4280000  22.9806386  47.5681968 -18.6226507
  22.9930000  48.9310000 -20.2830000  22.0814186  48.5302415 -20.7262958
  22.6520000  50.1230000 -19.4240000  23.5632019  50.5246166 -18.9806987
  22.1783259  50.8897160 -20.0370904  21.9676945  49.8173020 -18.6325606
  23.8910000  49.3800000 -21.4120000  24.1209672  48.5297719 -22.0541288
  23.3849211  50.1490171 -21.9956065  24.8159005  49.7856016 -21.0019424
  23.9240000  46.5780000 -20.2230000  24.6910000  46.5740000 -21.1930000
  23.3420000  45.4840000 -19.7660000  22.7104734  45.5121713 -18.9782946
  23.5990000  44.2130000 -20.3890000  24.5033065  44.2412556 -20.9968903
  23.6828956  43.4155134 -19.6507073  22.4250000  43.9350000 -21.2750000
  22.2000000  44.6640000 -22.2480000  21.6490000  42.9180000 -20.9120000
  21.8992712  42.3318799 -20.1284651  20.4760000  42.5600000 -21.6940000
  20.6584247  42.8084325 -22.7395151  20.1760000  41.0620000 -21.5700000
  19.7863808  40.8484302 -20.5746683  19.1510000  40.6720000 -22.6050000
  19.5401139  40.8848599 -23.6006815  18.9350000  39.6070100 -22.5199053
  18.2359315  41.2418258 -22.4436084  21.4670000  40.2690000 -21.7940000
  21.8730750  40.5968938 -22.7509167  22.1505526  40.5522350 -20.9936043
  21.2990000  38.7530000 -21.8060000  20.6158945  38.4689474 -22.6064879
  22.2675092  38.2808881 -21.9709228  20.8933697  38.4242889 -20.8491756
  19.3010000  43.4320000 -21.2640000  18.9940000  43.5680000 -20.0750000
  18.6710000  44.0570000 -22.2380000  18.9220033  43.8067893 -23.1837755
  17.6670000  45.0870000 -22.0420000  17.4613773  45.3460635 -21.0033929
  18.0880000  46.3620000 -22.8190000  18.5268387  46.0430198 -23.7643955
  16.9150000  47.3150000 -23.0950000  16.4759117  47.6347963 -22.1499961
  17.2752535  48.1868174 -23.6411251  16.1604266  46.8004856 -23.6899732
  19.2540000  47.0620000 -22.1150000  20.1704105  46.6913672 -22.5742646
  19.1524577  48.1282879 -22.3170367  19.3120000  46.8360000 -20.6230000
  19.4140157  45.7699061 -20.4201790  20.1678437  47.3679110 -20.2074263
  18.3960612  47.2068250 -20.1629513  16.3610000  44.5170000 -22.5520000
  16.3740000  43.7110000 -23.4830000  15.2330000  44.9090000 -21.9640000
  15.2000816  45.4980326 -21.1442096  13.9730000  44.4020000 -22.5040000
  14.0624804  43.3254936 -22.6496927  12.7940000  44.6710000 -21.5860000
  12.8700777  44.1149399 -20.6515972  12.8304969  45.7399687 -21.3760621
  11.4910000  44.3370000 -22.2640000  10.8250000  45.2800000 -22.7790000
  11.1830000  43.1170000 -22.3450000  13.6730000  44.9930000 -23.8810000
  13.6840000  46.2180000 -24.0650000  13.3480000  44.1060000 -24.8300000
  13.1416483  43.1539478 -24.5633260  13.2790000  44.4570000 -26.2370000
  14.1774279  45.0245777 -26.4794500  13.2711480  43.5286755 -26.8081842
  12.0720000  45.2700000 -26.6090000  12.0520000  45.8730000 -27.6880000
  11.0680000  45.3040000 -25.7390000  11.0906812  44.7050596 -24.9260700
   9.8960000  46.1380000 -25.9480000   9.6169686  46.1443407 -27.0016605
   8.7310000  45.5800000 -25.1390000   9.1712565  45.3268900 -24.1745267
   8.0564901  46.4277357 -25.0186648   7.9540000  44.3860000 -25.6700000
   7.3514759  44.7179815 -26.5154903   8.8570000  43.2890000 -26.1060000
   9.4595600  42.9561553 -25.2608760   8.2625401  42.4548184 -26.4786382
   9.5120976  43.6503496 -26.8987005   7.0540000  43.8740000 -24.5570000
   6.3666467  44.6633480 -24.2527393   6.4853109  43.0156792 -24.9147421
   7.6638014  43.5753341 -23.7043336  10.1510000  47.5970000 -25.5770000
   9.3600000  48.4770000 -25.9620000  11.2380000  47.8630000 -24.8500000
  11.7285083  47.0844359 -24.4336602  11.7040000  49.2150000 -24.5510000
  12.4475226  49.1806209 -23.7547015  12.3410000  49.8500000 -25.7870000
  11.5715878  50.0240322 -26.5392081  12.7977704  50.7997533 -25.5087384
  13.3330000  48.9860000 -26.3170000  13.7286498  49.3906835 -27.0924304
  10.5600000  50.0640000 -24.0050000  10.2010000  51.1140000 -24.5440000
   9.9710000  49.5550000 -22.9250000  10.2691566  48.6644097 -22.5534480
   8.8920000  50.2550000 -22.2520000   8.6343857  49.6908837 -21.3556146
   9.2586793  51.2411663 -21.9671814   7.6590000  50.4170000 -23.1000000
   6.9430000  51.4110000 -22.9550000   7.4080000  49.4720000 -24.0030000
   8.0623163  48.7165261 -24.1487006   6.2100000  49.5170000 -24.8300000
   6.1460859  50.4778160 -25.3407316   6.2530000  48.4110000 -25.8770000
   7.2296706  48.5132267 -26.3500364   6.1979233  47.4519396 -25.3619565
   5.1660000  48.4790000 -26.9390000   4.1920181  48.4771536 -26.4496568
   5.3110000  49.7330000 -27.7650000   6.2846220  49.7353415 -28.2550546
   4.5249765  49.7646237 -28.5194984   5.2283186  50.6063812 -27.1181078
   5.2390000  47.2610000 -27.8080000   5.0947221  46.3694529 -27.1977319
   4.4601140  47.3097422 -28.5689613   6.2153571  47.2162842 -28.2905208
   4.9720000  49.3700000 -23.9620000   4.8720000  48.4340000 -23.1630000
   4.0380000  50.3060000 -24.1150000   4.1532896  51.0373033 -24.8020249
   2.8510000  50.3350000 -23.2660000   3.1548532  50.3414542 -22.2192284
   2.0510000  51.6020000 -23.5490000   1.7318837  51.6056288 -24.5912340
   1.1748791  51.6314176 -22.9011983   2.6735900  52.4758831 -23.3571427
   1.9800000  49.0990000 -23.4830000   1.6470000  48.7510000 -24.6220000
   1.5830000  48.4530000 -22.3780000   1.8178805  48.8277968 -21.4700034
   0.8640000  47.1840000 -22.4380000   0.6011162  46.9500556 -23.4696304
   1.7460000  46.0630000 -21.8930000   1.2823735  45.0984758 -22.0999850
   2.7260598  46.1039172 -22.3682985   1.8930000  46.2250000 -20.4950000
   2.4470722  45.5220457 -20.1479279  -0.4660000  47.1750000 -21.6830000
  -1.0540000  46.0980000 -21.4980000  -0.9530000  48.3250000 -21.2300000
  -0.4328596  49.1878878 -21.3005548  -2.2420000  48.3500000 -20.5570000
  -2.2579643  47.6050927 -19.7614138  -2.4980000  49.7280000 -19.9420000
  -3.2133451  49.6077840 -19.1284099  -1.5546000  50.1011755 -19.5434571
  -3.0090000  50.6510000 -20.8870000  -3.1543061  51.4985427 -20.4602011
  -3.3530000  47.9770000 -21.5360000  -3.2640000  48.2350000 -22.7390000
  -4.4130000  47.3670000 -21.0020000  -4.4573127  47.2309712 -20.0021841
  -5.4700000  46.7950000 -21.8240000  -5.1327776  46.0823358 -22.5766552
  -6.4770000  46.0860000 -20.8880000  -5.9251292  45.4908377 -20.1604564
  -7.3310000  47.0960000 -20.1660000  -7.8835660  47.6912759 -20.8929239
  -8.0329802  46.5781124 -19.5124583  -6.6950700  47.7502346 -19.5696178
  -7.3320000  45.0660000 -21.6410000  -6.6870065  44.3081876 -22.0857536
  -8.0259024  44.5904566 -20.9478496  -7.8933959  45.5712717 -22.4268982
  -6.1470000  47.8310000 -22.7260000  -6.8270000  47.4700000 -23.6940000
  -5.9730000  49.1160000 -22.4460000  -5.4897155  49.4290284 -21.6162117
  -6.5230000  50.1200000 -23.3440000  -7.5237056  49.8259065 -23.6605383
  -6.6120000  51.4740000 -22.6370000  -5.5963725  51.8063483 -22.4221871
  -7.0845260  52.1736735 -23.3264028  -7.4100000  51.4190000 -21.3460000
  -8.6600000  51.4680000 -21.4240000  -6.7850000  51.3230000 -20.2610000
  -5.6850000  50.2740000 -24.6020000  -6.2170000  50.6400000 -25.6530000
  -4.3850000  50.0180000 -24.5040000  -4.0273044  49.6391588 -23.6387644
  -3.4400000  50.3130000 -25.5710000  -3.6333039  51.3041196 -25.9813838
  -2.0190000  50.2820000 -25.0220000  -1.7640269  49.2349965 -24.8580745
  -1.3706228  50.6967735 -25.7937966  -1.8280000  51.0570000 -23.7310000
  -2.7829431  51.0741575 -23.2057476  -1.0955079  50.5132551 -23.1344298
  -1.3420000  52.4910000 -23.9520000  -0.6400000  53.0210000 -23.0520000
  -1.6520000  53.0800000 -25.0210000  -3.6100000  49.3160000 -26.7180000
  -4.5540000  48.5220000 -26.7600000  -2.6750000  49.3550000 -27.6730000
  -2.0058791  50.1108413 -27.6401292  -2.5770000  48.3930000 -28.7620000
  -3.5675486  48.1801816 -29.1640212  -1.7230000  48.9520000 -29.8620000
  -1.9291234  50.0181584 -29.9564384  -0.7162088  48.8105303 -29.4689888
  -1.8300000  48.2980000 -31.2160000  -2.7230000  48.7800000 -32.1590000
  -3.3647682  49.6190490 -31.8902437  -2.8100000  48.2210000 -33.4150000
  -3.5334575  48.5989805 -34.1373862  -1.9840000  47.1920000 -33.7530000
  -2.1040000  46.6730000 -35.0060000  -2.7822682  47.1072259 -35.5284938
  -1.0640000  46.6960000 -32.8560000  -0.4046697  45.8731325 -33.1321757
  -0.9820000  47.2550000 -31.5900000  -0.2495638  46.8801023 -30.8750951
  -1.9740000  47.0900000 -28.2440000  -1.0400000  47.1160000 -27.4370000
  -2.4890000  45.9410000 -28.6850000  -3.5460000  45.7690000 -29.7030000
  -3.2107946  46.2053178 -30.6439380  -4.4504166  46.2775567 -29.3690841
  -3.7250000  44.2780000 -29.7890000  -3.1462723  43.8977582 -30.6307776
  -4.7804905  44.0541873 -29.9437545  -3.2470000  43.7130000 -28.5040000
  -2.7979250  42.7405033 -28.7056950  -4.0358667  43.6011075 -27.7601795
  -2.1770000  44.6850000 -27.9900000  -2.2694633  44.8489402 -26.9163742
  -0.7650000  44.2130000 -28.3110000  -0.3680000  44.1440000 -29.4770000
  -0.0170000  43.8940000 -27.2520000  -0.4565999  43.9455082 -26.3441464
   1.3940000  43.5230000 -27.3180000   1.8737822  43.8689191 -28.2335589
   2.1590000  44.0900000 -26.1210000   1.5577226  43.9423875 -25.2239073
   3.5090000  43.4010000 -25.9470000   4.1110592  43.5485765 -26.8435751
   4.0270099  43.8272713 -25.0878964   3.3548337  42.3341814 -25.7850356
   2.3230000  45.5970000 -26.2930000   1.3406024  46.0655061 -26.3521526
   2.8680102  46.0032849 -25.4409460   2.8777241  45.8004358 -27.2089672
   1.5130000  42.0080000 -27.3630000   1.3260000  41.3220000 -26.3570000
   1.8770000  41.4830000 -28.5190000   2.1131916  42.0832122 -29.2962118
   1.8720000  40.0460000 -28.7350000   1.5253454  39.5264301 -27.8417045
   0.9220000  39.7180000 -29.8920000   1.1016369  38.6854586 -30.1914795
  -0.1006863  39.8175868 -29.5282759   1.1290000  40.6490000 -31.1060000
   2.3060000  40.8560000 -31.5140000   0.1230000  41.1740000 -31.6510000
   3.2730000  39.4810000 -28.9990000   3.4050000  38.4020000 -29.5870000
   4.3340000  40.1840000 -28.5950000   4.2232788  41.0796964 -28.1416038
   5.6860000  39.6910000 -28.8310000   5.6280431  38.6562531 -29.1686965
   6.4160000  40.5040000 -29.8830000   7.3268168  39.9854040 -30.1822846
   5.5220000  40.6740000 -31.0770000   4.6111151  41.1929689 -30.7785714
   6.0391535  41.2576212 -31.8386020   5.2657101  39.6950141 -31.4819725
   6.7420000  41.7790000 -29.3440000   7.2044363  42.2976773 -30.0063646
   6.5030000  39.7110000 -27.5550000   6.1930000  40.4250000 -26.6010000
   7.5490000  38.8940000 -27.5450000   7.6139136  38.1685174 -28.2446860
   8.5720000  38.9490000 -26.5110000   8.3710573  39.8165261 -25.8824146
   8.6080000  37.6770000 -25.6360000   9.3906315  37.7812142 -24.8845163
   7.2890000  37.4820000 -24.9580000   6.5058803  37.3772370 -25.7088987
   7.3251975  36.5824010 -24.3435799   7.0733996  38.3440638 -24.3267618
   8.9060000  36.4370000 -26.4470000   8.2964626  36.4634584 -27.3502524
   9.9609820  36.4517136 -26.7206713   8.6020000  35.1650000 -25.6670000
   7.5470228  35.1493506 -25.3933613   8.8295214  34.2962443 -26.2847352
   9.2115411  35.1376071 -24.7637785   9.9090000  39.2020000 -27.1890000
  10.1720000  38.6890000 -28.2830000  10.7270000  40.0480000 -26.5740000
  10.5357301  40.4295973 -25.6586320  11.9280000  40.4820000 -27.2630000
  12.3577247  39.6517374 -27.8234461  11.6250000  41.6200000 -28.2330000
  11.2024886  42.4622850 -27.6851495  12.5455148  41.9328034 -28.7258557
  10.9102167  41.2790872 -28.9819743  12.9560000  40.9170000 -26.2400000
  12.6100000  41.5180000 -25.2170000  14.2110000  40.5840000 -26.5220000
  14.3755418  39.9653312 -27.3032005  15.3520000  41.0200000 -25.7370000
  15.0647565  41.8744186 -25.1241711  15.8510000  39.9070000 -24.8190000
  16.1116194  39.0567720 -25.4493087  16.7461915  40.2747681 -24.3175233
  14.8360000  39.4750000 -23.7850000  13.8574314  39.8586612 -24.0736320
  14.8052791  38.3857526 -23.7585742  15.2010000  40.0040000 -22.4100000
  16.1358558  39.5385908 -22.0976895  15.3386048  41.0829959 -22.4802299
  14.1270000  39.7000000 -21.3990000  13.9382792  38.6269038 -21.3681855
  14.4378602  40.0422057 -20.4119030  12.8860000  40.4090000 -21.8000000
  12.5975414  40.0917341 -22.7144582  12.1555990  40.2142319 -21.1301643
  13.0605422  41.4034038 -21.8281997  16.4500000  41.4760000 -26.6900000
  16.4890000  41.0880000 -27.8620000  17.3450000  42.3130000 -26.1760000
  17.3323129  42.5475317 -25.1936898  18.3500000  42.9410000 -27.0230000
  18.7744834  42.1964979 -27.6965203  17.7450000  44.0580000 -27.8540000
  18.4598837  44.3450210 -28.6251417  16.8335109  43.6883610 -28.3237389
  17.4200000  45.2540000 -27.0020000  16.6140512  45.0115484 -26.3093496
  18.3011585  45.5627714 -26.4395749  16.9910000  46.3570000 -27.8910000
  17.8138327  46.6091398 -28.5599326  16.1356708  46.0224573 -28.4780201
  16.6120000  47.5440000 -27.1540000  15.7731367  47.4952180 -26.5936179
  17.3030000  48.6750000 -27.1610000  18.4230000  48.7640000 -27.8750000
  18.7422532  47.9685151 -28.4092108  18.9483596  49.6266001 -27.8792278
  16.8610000  49.7180000 -26.4640000  16.0038476  49.6415210 -25.9352838
  17.3845390  50.5817122 -26.4666373  19.4770000  43.4970000 -26.1630000
  19.4070000  43.5190000 -24.9300000  20.5210000  43.9400000 -26.8440000
  20.5379023  43.7625502 -27.8381455  21.6300000  44.6580000 -26.2570000
  21.5936268  44.5703137 -25.1711421  22.9530000  44.0870000 -26.7470000
  22.8890198  44.0321116 -27.8337350  23.8008757  44.7110340 -26.4645317
  23.2590000  42.7100000 -26.2680000  23.2020000  42.3930000 -24.9220000
  22.8964263  43.1545506 -24.2045286  23.5330000  41.1060000 -24.4790000
  23.4786104  40.8663945 -23.4170529  23.9320000  40.1310000 -25.3950000
  24.1802230  39.1237653 -25.0603903  24.0110000  40.4530000 -26.7390000
  24.3332489  39.7029957 -27.4613222  23.6780000  41.7380000 -27.1690000
  23.7443971  41.9930895 -28.2266487  21.5160000  46.1210000 -26.6730000
  20.8870000  46.4440000 -27.6930000  22.1220000  47.0160000 -25.8830000
  22.5105951  46.7604270 -24.9864646  22.1880000  48.4110000 -26.2910000
  21.2416906  48.7050868 -26.7449940  22.4540000  49.3120000 -25.0950000
  22.1351992  48.7981605 -24.1881184  23.5229482  49.5176441 -25.0387833
  21.6900000  50.6260000 -25.2300000  21.9356556  51.0521704 -26.2026937
  20.6255681  50.3940930 -25.1938619  22.0260000  51.6250000 -24.1420000
  21.4702331  52.5450849 -24.3227374  21.7349438  51.2088291 -23.1775377
  23.4510000  51.9390000 -24.1050000  23.9824295  51.8282758 -24.9567172
  24.0790000  52.3730000 -23.0180000  23.4020000  52.5350000 -21.8830000
  22.4140526  52.3271379 -21.8537898  23.8795069  52.8650074 -21.0564518
  25.3770000  52.6310000 -23.0590000  25.8884998  52.4968171 -23.9195016
  25.8496552  52.9607988 -22.2295854  23.2800000  48.5490000 -27.3370000
  24.3930000  48.0570000 -27.1280000  22.9710000  49.2050000 -28.4660000
  22.1103589  49.7269091 -28.5497089  23.8350000  49.0930000 -29.6480000
  23.8515604  48.0569862 -29.9863789  23.3290000  49.9770000 -30.7980000
  22.2460560  50.0489587 -30.6972361  23.7723331  50.9635128 -30.6625443
  23.6790000  49.4460000 -32.1980000  24.6550000  48.4720000 -32.3770000
  25.1811908  48.0961430 -31.4995296  24.9640000  47.9800000 -33.6320000
  25.7252776  47.2089670 -33.7506015  24.3010000  48.4650000 -34.7320000
  24.6100000  47.9750000 -35.9790000  25.2968573  47.3046078 -35.9589756
  23.3390000  49.4370000 -34.5920000  22.8199770  49.8271789 -35.4674861
  23.0300000  49.9210000 -33.3300000  22.2650611  50.6886347 -33.2129297
  25.2930000  49.4130000 -29.3190000  26.1840000  48.5780000 -29.5350000
  25.5580000  50.6100000 -28.7820000  24.8475865  51.3214006 -28.6854541
  26.9290000  50.9450000 -28.4060000  27.5616123  50.9220407 -29.2933408
  27.0150000  52.3440000 -27.7780000  28.0288525  52.4687140 -27.3976728
  26.8324295  53.0708686 -28.5694734  26.0180000  52.5640000 -26.6470000
  25.2520000  51.6300000 -26.3330000  25.9990000  53.6790000 -26.0690000
  27.5040000  49.8890000 -27.4720000  28.4560000  49.1860000 -27.8300000
  26.8940000  49.7240000 -26.2970000  26.0789985  50.2862880 -26.0977415
  27.3740000  48.8100000 -25.2640000  28.2606239  49.2252248 -24.7848490
  26.2980000  48.5980000 -24.2000000  26.0312376  49.5679441 -23.7803030
  25.4230971  48.1559014 -24.6766485  26.7550000  47.7410000 -23.1600000
  26.0583530  47.6279324 -22.5092324  27.7870000  47.4760000 -25.8640000
  28.7880000  46.8660000 -25.4440000  27.0020000  47.0530000 -26.8610000
  26.1428275  47.5471114 -27.0553605  27.3070000  45.8660000 -27.6440000
  27.4527961  45.0116875 -26.9829457  26.1210000  45.5790000 -28.5560000
  25.9681013  46.4217631 -29.2301457  26.3194780  44.6795421 -29.1388226
  25.2256179  45.4300521 -27.9525063  28.6000000  46.0350000 -28.4500000
  29.4930000  45.1720000 -28.4070000  28.7030000  47.1350000 -29.2140000
  27.9443383  47.8008389 -29.2485022  29.8760000  47.3740000 -30.0590000
  29.9678763  46.5916916 -30.8124266  29.7200000  48.7190000 -30.7680000
  29.2480127  49.3943301 -30.0543779  30.7104110  49.0956604 -31.0235643
  28.8680000  48.6360000 -32.0280000  28.0358290  47.9694764 -31.8014200
  28.3270000  49.9740000 -32.5250000  29.1586533  50.6409433 -32.7522407
  27.7332940  49.8146783 -33.4251281  27.7021791  50.4231946 -31.7530392
  29.7350000  48.0280000 -33.0680000  30.0540461  47.0378834 -32.7424572
  29.1779719  47.9411988 -34.0008915  30.6106000  48.6577763 -33.2254978
  31.1590000  47.3350000 -29.2380000  32.0810000  46.5530000 -29.5130000
  31.2200000  48.1740000 -28.2120000  30.5172707  48.8978803 -28.1643746
  32.2650000  48.1580000 -27.1970000  33.1934386  48.6189499 -27.5340848
  31.7720000  48.9040000 -25.9450000  30.7737370  48.5462158 -25.6928877
  32.7010000  48.6670000 -24.7780000  33.6994230  49.0249762 -25.0292079
  32.3320884  49.2042871 -23.9043139  32.7429002  47.6004487 -24.5570602
  31.6340000  50.3820000 -26.2330000  30.9163061  50.5300032 -27.0399155
  31.2844060  50.8960686 -25.3376692  32.6016705  50.7868579 -26.5293187
  32.6780000  46.7280000 -26.8660000  33.8600000  46.3890000 -26.9170000
  31.7020000  45.8800000 -26.5350000  30.7391490  46.1829122 -26.4994825
  32.0080000  44.5040000 -26.1620000  32.7507802  44.4908438 -25.3643762
  30.7420000  43.7980000 -25.6640000  30.2616271  44.4255640 -24.9133306
  30.0643085  43.6560689 -26.5058372  31.0590000  42.5350000 -25.0930000
  30.2537417  42.1104996 -24.7881093  32.6100000  43.7380000 -27.3260000
  33.4440000  42.8470000 -27.1200000  32.2030000  44.0690000 -28.5500000
  31.4567183  44.7321830 -28.7028113  32.7960000  43.4220000 -29.7060000
  32.7796378  42.3409192 -29.5678126  32.0060000  43.7640000 -30.9620000
  32.0209184  44.8425585 -31.1188092  32.4553445  43.2661899 -31.8212874
  30.9754223  43.4284170 -30.8462724  34.2500000  43.8330000 -29.8510000
  35.1440000  42.9780000 -29.9620000  34.5050000  45.1470000 -29.8300000
  33.7509649  45.8184479 -29.8037685  35.8750000  45.6470000 -29.9250000
  36.3002959  45.3926465 -30.8958382  35.8850000  47.1640000 -29.7710000
  35.3703476  47.3851260 -28.8359409  36.8982383  47.5637897 -29.7307951
  35.1330000  47.8050000 -30.9270000  34.1260611  47.3884083 -30.9520232
  35.0530000  49.3040000 -30.7850000  36.0596200  49.7213827 -30.7603682
  34.5078982  49.7211158 -31.6317462  34.5335686  49.5546568 -29.8600878
  35.7760000  47.4350000 -32.2260000  35.7586951  46.3516534 -32.3449966
  35.2300299  47.8989922 -33.0474190  36.8084655  47.7843687 -32.2334506
  36.7760000  44.9800000 -28.8920000  37.8280000  44.4270000 -29.2300000
  36.3600000  44.9840000 -27.6310000  35.5082024  45.4416646 -27.3393097
  37.2000000  44.3800000 -26.6130000  38.2035885  44.8026732 -26.6605053
  36.6250000  44.6470000 -25.2300000  35.6773553  44.1143661 -25.1501885
  37.3249550  44.2546831 -24.4922666  36.3940000  46.1450000 -24.9710000
  35.8042304  46.5225896 -25.8062837  35.8120218  46.2205625 -24.0524720
  37.9010000  47.1420000 -24.8060000  38.7440000  46.2230000 -23.5210000
  38.9232705  45.2030309 -23.8610356  39.6963207  46.7029293 -23.2954920
  38.1262851  46.2028335 -22.6231566  37.3730000  42.8970000 -26.8560000
  38.3980000  42.3240000 -26.4730000  36.4170000  42.2620000 -27.5270000
  35.5214191  42.6824052 -27.7302086  36.6370000  40.8750000 -27.9260000
  36.9854467  40.2916104 -27.0737438  35.3280000  40.2630000 -28.4360000
  34.5564575  40.4557426 -27.6905661  35.0630312  40.7599178 -29.3692546
  35.4400000  38.7630000 -28.6740000  35.7880000  38.0200000 -27.7020000
  35.1790000  38.3450000 -29.8410000  37.7350000  40.7700000 -28.9820000
  38.4850000  39.7910000 -29.0090000  37.8540000  41.7750000 -29.8360000
  37.2491203  42.5753103 -29.7188535  38.7980000  41.7810000 -30.9400000
  38.9878410  40.7638592 -31.2827595  38.2170000  42.5820000 -32.0940000
  37.4983955  43.2733187 -31.6537896  39.0463750  43.1448156 -32.5223406
  37.5570000  41.7960000 -33.1540000  38.2672679  41.2002728 -33.7273492
  36.7750486  41.1474169 -32.7590392  36.8200000  43.0190000 -34.2230000
  35.7010000  43.8040000 -33.0740000  36.2682541  44.2259544 -32.2443758
  35.1560724  44.5992946 -33.5825874  34.9946424  43.0666086 -32.6926680
  40.1520000  42.3820000 -30.5910000  41.0030000  42.4830000 -31.4870000
  40.3630000  42.8240000 -29.3450000  39.6755427  42.6848557 -28.6182672
  41.5610000  43.6020000 -29.0270000  41.5247606  44.5613512 -29.5431697
  41.6520000  43.8600000 -27.5210000  40.7997289  44.4785021 -27.2395958
  41.5835578  42.8965021 -27.0159382  42.9510000  44.5620000 -27.1080000
  43.7748857  43.8997682 -27.3740119  43.0181117  45.4782764 -27.6945430
  43.0320000  44.9040000 -25.6150000  42.1060000  45.5540000 -25.0790000
  44.0320000  44.5150000 -24.9710000  42.8220000  42.9120000 -29.5460000
  43.5370000  43.4640000 -30.3860000  43.0750000  41.6770000 -29.1010000
  42.4698262  41.2291113 -28.4277543  44.2830000  40.9730000 -29.5220000
  45.1657996  41.5053455 -29.1679205  44.3000000  39.5590000 -28.9420000
  43.3408548  39.1012726 -29.1841268  45.0990505  39.0150900 -29.4457661
  44.5230000  39.5060000 -27.4260000  45.5849286  39.3346075 -27.2498377
  44.2421880  40.4815265 -27.0290217  43.6990000  38.4050000 -26.7180000
  43.9370000  38.1670000 -25.5040000  42.8090000  37.7860000 -27.3660000
  44.4180000  40.9310000 -31.0420000  45.5160000  41.1110000 -31.5780000
  43.3170000  40.7210000 -31.7540000  42.4279489  40.5164281 -31.3205975
  43.3930000  40.7180000 -33.2070000  44.2359058  40.1061177 -33.5282618
  42.1020000  40.1410000 -33.8230000  41.2887225  40.8281306 -33.5894823
  42.2481771  40.1053627 -34.9025658  41.7480000  38.7300000 -33.3050000
  40.9850000  38.6260000 -32.3110000  42.2280000  37.7290000 -33.8950000
  43.6540000  42.1150000 -33.7580000  44.2000000  42.2460000 -34.8610000
  43.2490000  43.1670000 -33.0340000  42.7044222  43.0437569 -32.1923673
  43.5350000  44.5330000 -33.4830000  43.4018626  44.6335728 -34.5601531
  42.6360000  45.5480000 -32.7590000  42.7424946  45.4172415 -31.6821242
  43.0370000  46.9630000 -33.1390000  42.9303189  47.0946697 -34.2157464
  42.3943098  47.6748430 -32.6209946  44.0745255  47.1362903 -32.8533244
  41.1660000  45.3090000 -33.0590000  41.0301181  45.3379546 -34.1401099
  40.8988508  44.3202222 -32.6861068  40.2760000  46.3510000 -32.4100000
  40.5422643  47.3400608 -32.7827760  39.2340338  46.1407396 -32.6512390
  40.4109989  46.3223298 -31.3287724  45.0050000  44.8800000 -33.2650000
  45.6450000  45.5040000 -34.1210000  45.5500000  44.5220000 -32.1030000
  44.9668932  44.1291993 -31.3778839  46.9590000  44.7290000 -31.8170000
  47.1906523  45.7930740 -31.8637218  47.3090000  44.2140000 -30.4220000
  46.9841782  43.1755798 -30.4873726  48.3828196  44.2473501 -30.2378823
  46.5730000  44.9070000 -29.2730000  45.5109477  44.6759228 -29.3551532
  47.0960000  44.4390000 -27.8990000  48.1579583  44.6701724 -27.8159180
  46.5499123  44.9524974 -27.1076661  46.9501439  43.3632269 -27.8013341
  46.6110000  46.4330000 -29.4300000  46.1331617  46.7142318 -30.3684448
  46.0801512  46.8975915 -28.5990634  47.6467176  46.7726626 -29.4341709
  47.7820000  44.0310000 -32.8840000  48.3860000  44.6950000 -33.7290000
  47.7640000  42.6950000 -32.8890000  47.2434115  42.1929007 -32.1840296
  48.5480000  41.9250000 -33.8500000  49.6150740  42.0664544 -33.6784103
  48.2160000  40.4370000 -33.6740000  48.4480576  40.1882602 -32.6384436
  47.1432476  40.3373339 -33.8394359  48.9660000  39.4850000 -34.6070000
  49.8603168  39.9907633 -34.9710079  49.2555172  38.6103430 -34.0245448
  48.1120000  39.0460000 -35.7930000  46.8920000  38.8280000 -35.5890000
  48.6490000  38.9280000 -36.9230000  48.3230000  42.3680000 -35.2960000
  49.1310000  42.0490000 -36.1710000  47.2710000  43.1160000 -35.5710000
  46.6173602  43.3961983 -34.8538227  47.0310000  43.5550000 -36.9250000
  47.3516334  42.7757747 -37.6164487  45.9653112  43.7416375 -37.0575636
  47.7900000  44.8180000 -37.2250000  48.2050000  45.0390000 -38.3630000
  47.9580000  45.6630000 -36.2070000  47.4040237  45.5808418 -35.3664885
  48.8970000  46.7760000 -36.3110000  48.6909362  47.3608447 -37.2074338
  48.7520000  47.6840000 -35.0920000  48.5969428  47.0468454 -34.2213161
  49.6854398  48.2349276 -34.9768090  47.6060000  48.6570000 -35.2130000
  47.8563501  49.3928324 -35.9771835  46.7157014  48.1065841 -35.5171591
  47.2760000  49.5040000 -33.6630000  47.5330000  48.1340000 -32.5390000
  48.5531227  47.7643915 -32.6431064  47.3711750  48.4687291 -31.5143685
  46.8313657  47.3337350 -32.7743435  50.3340000  46.2700000 -36.4590000
  51.0520000  46.6660000 -37.3820000  50.7540000  45.3640000 -35.5760000
  50.1504291  45.0680196 -34.8222115  52.1080000  44.8310000 -35.6260000
  52.8282362  45.6174435 -35.4004658  52.2660000  43.7180000 -34.6000000
  51.4579961  43.0019795 -34.7501453  53.2230884  43.2274636 -34.7773579
  52.2220000  44.2320000 -33.1950000  52.9284136  45.0575461 -33.1080851
  51.2140899  44.5940751 -32.9922170  52.5790000  43.1600000 -32.2010000
  52.5753983  42.1855456 -32.6893898  53.5679222  43.3540271 -31.7856859
  51.6110000  43.1400000 -31.1120000  51.5516542  43.9641829 -30.5312246
  50.8280000  42.1050000 -30.8260000  49.9690000  42.1930000 -29.8180000
  49.9162113  43.0438263 -29.2763286  49.3720888  41.4087320 -29.5972730
  50.9240000  40.9770000 -31.5320000  51.5938834  40.9116440 -32.2850504
  50.3263501  40.1936059 -31.3101732  52.4760000  44.3300000 -37.0140000
  53.5000000  44.7310000 -37.5760000  51.6630000  43.4450000 -37.5840000
  50.8443917  43.0744235 -37.1228570  52.0060000  42.9290000 -38.9020000
  53.0411221  42.5875498 -38.9077656  51.1030000  41.7540000 -39.2650000
  51.5620780  41.1924468 -40.0786366  50.9949881  41.1077812 -38.3938888
  49.8280000  42.2150000 -39.6710000  49.2729829  41.4645721 -39.8955303
  51.9310000  44.0020000 -39.9850000  52.3500000  43.7450000 -41.1210000
  51.4160000  45.1870000 -39.6650000  50.9020247  45.2852169 -38.8011238
  51.5000000  46.3380000 -40.5530000  51.6765791  46.0093132 -41.5771504
  50.1870000  47.1240000 -40.5110000  49.9065033  47.2410396 -39.4642323
  50.3760028  48.1046060 -40.9477949  49.0610000  46.4460000 -41.2620000
  48.9191468  45.4353260 -40.8792252  48.1494269  47.0234807 -41.1082061
  49.3380000  46.3660000 -42.7480000  49.1870000  47.3580000 -43.4690000
  49.7640000  45.1860000 -43.2150000  49.9635710  45.0781276 -44.1991933
  49.8839017  44.4089540 -42.5810248  52.6830000  47.2470000 -40.2140000
  52.8390000  48.3120000 -40.8350000  53.5240000  46.8340000 -39.2590000
  53.3185393  45.9517288 -38.8123650  54.6530000  47.6180000 -38.7590000
  55.0685936  47.1381428 -37.8729310  55.7550000  47.7250000 -39.8210000
  55.2890479  47.8912707 -40.7922579  56.3707457  48.5862586 -39.5617880
  56.6330000  46.4700000 -39.8840000  57.6140000  46.4000000 -39.1090000
  56.3390000  45.5500000 -40.6880000  54.1720000  48.9900000 -38.2850000
  54.4730000  50.0370000 -38.8610000  53.3720000  48.9320000 -37.2220000
  53.1071022  48.0179497 -36.8837094  52.8210000  50.1010000 -36.5540000
  53.3623468  50.9877756 -36.8836540  51.3270000  50.2920000 -36.8680000
  50.9025166  49.2896671 -36.8110620  50.8976733  50.9130255 -36.0818028
  51.0080000  50.9020000 -38.2280000  51.1855478  50.1495488 -38.9963716
  49.5660000  51.3660000 -38.2990000  49.3878021  52.1188523 -37.5311734
  49.3701113  51.7960909 -39.2812170  48.9021432  50.5170405 -38.1357140
  51.9530000  52.0540000 -38.4670000  52.9805273  51.6905391 -38.4534609
  51.7401096  52.5040943 -39.4366361  51.8219135  52.8006462 -37.6837793
  53.0360000  49.9540000 -35.0530000  53.4560000  48.9020000 -34.5570000
  52.7510000  51.0290000 -34.3240000  52.4401318  51.8861679 -34.7584232
  52.9470000  51.0180000 -32.8830000  53.7815871  50.3644458 -32.6291683
  53.2570000  52.4290000 -32.3720000  53.6718705  52.9984797 -33.2036697
  52.3207358  52.8855331 -32.0509283  54.2500000  52.4300000 -31.2080000
  54.7750000  51.3440000 -30.8610000  54.5020000  53.5160000 -30.6370000
  51.7080000  50.4390000 -32.2060000  50.6120000  51.0040000 -32.3100000
  51.8850000  49.2850000 -31.5520000  52.7575148  48.8001417 -31.7060443
  50.9100000  48.6850000 -30.6440000  50.2047019  48.0707380 -31.2037642
  51.6240000  47.8030000 -29.6280000  52.6926349  47.8512672 -29.8372581
  51.4292462  48.2147562 -28.6377334  51.1710000  46.3770000 -29.6730000
  50.9090000  45.8000000 -28.5860000  51.0780000  45.8410000 -30.8010000
  50.1160000  49.7320000 -29.8830000  48.8780000  49.7210000 -29.8840000
  50.8510000  50.6390000 -29.2250000  51.8553667  50.5825601 -29.3153410
  50.2940000  51.6550000 -28.3470000  49.4564403  51.2427293 -27.7843049
  51.3610000  52.1380000 -27.3550000  51.8081507  53.0468278 -27.7577252
  50.8321381  52.3724333 -26.4311785  52.4490000  51.1240000 -27.0700000
  53.4580000  50.8810000 -28.0020000  53.4532963  51.4473484 -28.9333039
  54.4500000  49.9460000 -27.7660000  55.2142003  49.7559237 -28.5196384
  54.4780000  49.2650000 -26.5710000  55.4870000  48.3550000 -26.3730000
  56.0864355  48.2910986 -27.1201234  53.5000000  49.4910000 -25.6070000
  53.5153378  48.9508681 -24.6603624  52.4890000  50.4240000 -25.8640000
  51.7182509  50.6122080 -25.1165887  49.7300000  52.8360000 -29.1160000
  49.0730000  53.6910000 -28.5050000  49.9700000  52.8980000 -30.4260000
  50.5935529  52.2335994 -30.8617212  49.3990000  53.9540000 -31.2520000
  49.7629025  54.9289327 -30.9276847  49.8160000  53.7360000 -32.7120000
  50.8896412  53.5956978 -32.5866640  49.3501184  52.7791515 -32.9475745
  49.5620000  54.7170000 -33.8480000  48.4886131  54.7714389 -34.0295977
  50.0830000  56.0880000 -33.5050000  51.1564820  56.0344434 -33.3237075
  49.8885099  56.7689504 -34.3336018  49.5815719  56.4541564 -32.6091207
  50.2420000  54.1760000 -35.0850000  49.8274603  53.1980901 -35.3298439
  50.0776581  54.8587829 -35.9186069  51.3118865  54.0804886 -34.8997447
  47.8800000  53.9650000 -31.0870000  47.2460000  52.9130000 -30.9750000
  47.2890000  55.1580000 -31.0330000  47.7774336  56.0091200 -31.2720121
  45.9150000  55.2600000 -30.5580000  45.4433661  54.2773201 -30.5570735
  45.9020000  55.8100000 -29.1300000  44.9303376  55.5973252 -28.6841965
  46.6820565  55.3111585 -28.5548748  46.1460000  57.3280000 -29.0760000
  46.7290000  57.9180000 -29.9960000  45.6990000  57.9610000 -27.9910000
  45.8313775  58.9582760 -27.9014646  45.2300622  57.4403274 -27.2636087
  45.0290000  56.1290000 -31.4460000  43.9470000  56.5390000 -31.0000000
  45.4660000  56.4280000 -32.6770000  46.2728652  55.9373767 -33.0352691
  44.8350000  57.4250000 -33.5230000  44.9134896  58.3911901 -33.0245873
  45.3766643  57.4593089 -34.4682629  43.3790000  57.1320000 -33.8010000
  42.8040000  56.2060000 -33.2350000  42.7490000  57.8980000 -34.6760000
  43.2520000  59.1090000 -35.3440000  44.2127791  58.8931677 -35.8113545
  43.3766461  59.9038859 -34.6086642  42.1750000  59.4220000 -36.3520000
  42.4163947  58.9503133 -37.3045436  42.1039604  60.5010032 -36.4891383
  40.8960000  58.8670000 -35.7700000  40.1939647  58.5936379 -36.5577301
  40.4187787  59.5690714 -35.0862930  41.3380000  57.6120000 -35.0070000
  40.8002203  57.5065857 -34.0647797  41.1410000  56.3480000 -35.8510000
  41.2810000  56.3830000 -37.0820000  40.8230000  55.2290000 -35.1850000
  40.8561734  55.2403490 -34.1756091  40.4340000  53.9910000 -35.8500000
  41.1874553  53.7183665 -36.5889691  40.3070000  52.8540000 -34.8410000
  39.7103301  53.1447797 -33.9764010  39.8270537  52.0169903 -35.3481158
  41.6120000  52.3420000 -34.3090000  42.0840000  52.7600000 -33.0790000
  41.5084225  53.4898280 -32.5096481  43.2810000  52.2600000 -32.5640000
  43.6404066  52.6059298 -31.5948456  44.0170000  51.3200000 -33.2860000
  44.9544111  50.9285149 -32.8909054  43.5480000  50.8850000 -34.5130000
  44.1099284  50.1487398 -35.0876804  42.3440000  51.3960000 -35.0160000
  41.9657508  51.0518397 -35.9785909  39.0900000  54.1730000 -36.5540000
  38.3230000  55.0810000 -36.2340000  38.7830000  53.2930000 -37.5070000
  39.4704197  52.6440134 -37.8624854  37.4570000  53.3090000 -38.1280000
  36.7719164  53.8316506 -37.4604702  37.4720000  54.0280000 -39.4700000
  38.3351910  53.7001229 -40.0492221  36.2180000  53.7080000 -40.2200000
  35.3543344  54.0360263 -39.6415709  36.2275557  54.2222124 -41.1810377
  36.1570101  52.6322419 -40.3846976  37.5270000  55.4390000 -39.2370000
  37.5368676  55.9020292 -40.0778965  36.9120000  51.8950000 -38.2790000
  37.5380000  51.0460000 -38.9220000  35.7350000  51.6630000 -37.7020000
  35.2659113  52.4398124 -37.2585843  35.1110000  50.3480000 -37.6320000
  35.7922120  49.5586434 -37.9497509  34.6120000  50.0250000 -36.2160000
  33.7967382  50.7027377 -35.9627826  34.1170000  48.5870000 -36.1440000
  34.9318902  47.9086061 -36.3966592  33.7665569  48.3729512 -35.1343103
  33.2976671  48.4484826 -36.8494134  35.7120000  50.2830000 -35.1880000
  36.0084680  51.3311592 -35.2276368  35.3401048  50.0486069 -34.1905766
  36.5734746  49.6535982 -35.4111946  33.9600000  50.3080000 -38.6300000
  32.9540000  51.0150000 -38.4740000  34.1020000  49.4810000 -39.6520000
  34.9936870  49.0412852 -39.8298890  33.0170000  49.2340000 -40.5800000
  32.3395556  50.0875388 -40.5547063  33.5380000  49.0650000 -42.0100000
  33.9965307  48.0819207 -42.1167890  32.3920000  49.1920000 -42.9790000
  31.9332256  50.1750645 -42.8731169  32.7615826  49.0718783 -43.9973713
  31.6506342  48.4210989 -42.7687862  34.5210000  50.1310000 -42.2960000
  35.3507949  50.0589213 -41.5929017  34.8961858  50.0166482 -43.3129852
  34.0420042  51.1047162 -42.1933321  32.2610000  48.0030000 -40.1030000
  32.8590000  46.9540000 -39.8140000  30.9430000  48.1490000 -39.9880000
  30.5405141  49.0209816 -40.3006541  30.0590000  47.1540000 -39.3910000
  30.5918139  46.2391719 -39.1315811  29.3940000  47.7140000 -38.1190000
  29.3438956  48.7992311 -38.2076689  28.0090000  47.1630000 -37.9250000
  28.0583453  46.0777785 -37.8357797  27.5744224  47.5822593 -37.0175506
  27.3884778  47.4288386 -38.7807942  30.2590000  47.4040000 -36.9100000
  31.2394390  47.8631058 -37.0367408  29.7855247  47.8015521 -36.0122957
  30.3738098  46.3245091 -36.8119241  29.0280000  46.7480000 -40.4320000
  28.4390000  47.6120000 -41.0980000  28.8320000  45.4390000 -40.5990000
  29.4370239  44.7610256 -40.1580962  27.7660000  44.9530000 -41.4670000
  27.5372051  45.7147945 -42.2122659  28.1630000  43.6660000 -42.1900000
  29.0534516  43.8740507 -42.7832201  28.3968775  42.9145882 -41.4358238
  27.0510000  43.1420000 -43.1050000  26.2355548  42.7899834 -42.4731501
  26.7022564  43.9731563 -43.7179104  27.5200000  42.0070000 -44.0080000
  26.6914588  41.7123157 -44.6520339  28.3445103  42.3707983 -44.6211337
  27.9790000  40.8170000 -43.2040000  28.9736231  40.9892825 -42.7927285
  27.2821682  40.6072739 -42.3924955  28.0210000  39.6640000 -44.1270000
  28.6669682  39.8579593 -44.8788009  28.3253739  38.8420034 -43.6252250
  27.0993666  39.5039237 -44.5078761  26.5060000  44.7220000 -40.6480000
  26.5450000  44.0630000 -39.6050000  25.3970000  45.2770000 -41.1100000
  25.4437507  45.8760806 -41.9217981  24.1060000  45.1040000 -40.4510000
  24.2558278  44.6547759 -39.4692421  23.3960000  46.4460000 -40.2710000
  23.5534801  47.0293499 -41.1781946  22.3316631  46.2449095 -40.1491412
  23.8990000  47.2210000 -39.0830000  23.5865940  46.6876789 -38.1851849
  24.9876884  47.2421902 -39.1320676  23.3690000  48.6370000 -39.0380000
  23.0030000  49.1900000 -40.1140000  23.3260000  49.1950000 -37.9120000
  23.2310000  44.1390000 -41.2490000  23.1050000  44.2680000 -42.4780000
  22.6270000  43.1780000 -40.5380000  22.7957700  43.1496699 -39.5426039
  21.7710000  42.1540000 -41.1230000  21.4923936  42.4507312 -42.1341520
  22.4820000  40.8040000 -41.1890000  22.7753474  40.5142990 -40.1799807
  21.7901380  40.0644596 -41.5921215  23.6330000  40.8730000 -42.0140000
  24.0608413  40.0139690 -42.0388489  20.4930000  42.0140000 -40.3120000
  20.5230000  42.1000000 -39.0800000  19.3790000  41.7830000 -41.0150000
  19.4237240  41.8215187 -42.0232735  18.0880000  41.5080000 -40.3890000
  18.2465897  41.0854601 -39.3968264  17.2630000  42.7870000 -40.2490000
  17.8672538  43.6032185 -39.8530657  16.8335257  43.0844813 -41.2056383
  15.8940000  42.6000000 -39.1310000  15.4386315  43.8429717 -39.2596828
  17.2910000  40.4870000 -41.1990000  17.2300000  40.5670000 -42.4310000
  16.6380000  39.5530000 -40.5020000  16.6959927  39.5303661 -39.4939207
  15.8320000  38.5320000 -41.1740000  15.4044248  38.9616050 -42.0799350
  16.6530000  37.2980000 -41.5580000  17.6261558  37.6386161 -41.9116209
  16.7833767  36.7027040 -40.6542718  15.9890000  36.4450000 -42.6380000
  15.0970000  36.9250000 -43.3890000  16.3960000  35.2710000 -42.7200000
  14.6950000  38.0670000 -40.2840000  14.7790000  38.1360000 -39.0540000
  13.6460000  37.5590000 -40.9240000  13.5745188  37.6756808 -41.9246875
  12.5880000  36.8360000 -40.2370000  12.5950477  37.1310623 -39.1877204
  11.6342224  37.1137841 -40.6856019  12.7570000  35.3270000 -40.3280000
  13.2630000  34.7910000 -41.3140000  12.3280000  34.6390000 -39.2920000
  12.1594957  35.0794742 -38.3988661  12.1620000  33.2020000 -39.3920000
  12.4926079  32.8569898 -40.3716763  12.9890000  32.5020000 -38.3260000
  12.6730847  32.8905628 -37.3578493  12.7621048  31.4373071 -38.3812056
  14.4570000  32.7060000 -38.4880000  14.8314830  32.0829213 -39.3001799
  14.6646799  33.7530498 -38.7085853  15.2870000  32.2480000 -36.9610000
  15.5100000  30.4840000 -37.1330000  16.1158259  30.2781712 -38.0154446
  16.0127173  30.0928483 -36.2484796  14.5377191  30.0030798 -37.2401774
  10.6850000  32.8050000 -39.2900000   9.8760000  33.4520000 -38.6130000
  10.3340000  31.7440000 -39.9900000  10.9375225  31.3857189 -40.7162882
   9.0890000  31.0680000 -39.7430000   8.4074031  31.7470215 -39.2306967
   8.6512459  30.7633996 -40.6936257   9.3010000  29.8400000 -38.8820000
  10.4180000  29.4080000 -38.6340000   8.1890000  29.2860000 -38.4140000
   7.3418609  29.8359311 -38.4084773   8.1530000  27.9520000 -37.8180000
   7.1249689  27.7069423 -37.5511704   8.6740000  26.8880000 -38.7800000
   9.7345154  27.0600261 -38.9638840   8.5424778  25.9228751 -38.2907803
   7.9220000  26.8920000 -40.1050000   6.7260000  26.4920000 -40.1270000
   8.5270000  27.3230000 -41.1240000   8.9130000  27.9090000 -36.5080000
   9.5800000  26.9240000 -36.1950000   8.7800000  28.9730000 -35.7330000
   8.3162666  29.7890208 -36.1060424   9.2990000  29.0350000 -34.3760000
  10.0792561  28.3060506 -34.1570656   9.8290000  30.4330000 -34.0460000
   8.9825880  31.1109240 -33.9359773  10.6380000  30.4200000 -32.7590000
  11.4849098  29.7425998 -32.8684243  11.0024500  31.4253959 -32.5481546
  10.0075255  30.0826677 -31.9363151  10.6020000  31.0300000 -35.2170000
   9.9465232  31.1064201 -36.0845322  10.9630906  32.0222585 -34.9465628
  11.4497303  30.3886750 -35.4581563   8.1420000  28.6460000 -33.4660000
   7.2850000  29.4800000 -33.1650000   8.1220000  27.3890000 -33.0180000
   8.8830313  26.7602290 -33.2314896   7.0090000  26.8830000 -32.2170000
   6.0977460  26.8958601 -32.8149548   7.2650000  25.4580000 -31.7520000
   8.2889827  25.3943122 -31.3838933   6.5731172  25.2305717 -30.9410286
   7.0830000  24.5280000 -32.8010000   7.2517727  23.6409372 -32.4750625
   6.7800000  27.7350000 -30.9840000   7.7160000  28.2580000 -30.3770000
   5.5270000  27.8480000 -30.5920000   4.7645893  27.4892217 -31.1488729
   5.2110000  28.5450000 -29.3650000   5.9791835  29.2889031 -29.1538096
   3.8760000  29.2490000 -29.4860000   3.9758903  30.0173881 -30.2526165
   3.1408296  28.5106163 -29.8060218   3.4300000  29.8720000 -28.2180000
   3.2317282  29.0961016 -27.4785605   4.2307997  30.5187405 -27.8594673
   2.1950000  30.6820000 -28.4320000   2.0950000  31.7620000 -27.8050000
   1.3400000  30.2330000 -29.2470000   5.1940000  27.5810000 -28.1870000
   4.6840000  26.4650000 -28.2780000   5.7590000  28.0230000 -27.0800000
   6.2184786  28.9217476 -27.0449076   5.7720000  27.2020000 -25.8950000
   6.0241428  26.1732541 -26.1523035   6.8190000  27.7310000 -24.9140000
   6.6918901  28.8127793 -24.8728178   6.5826936  27.3006154 -23.9408462
   8.2970000  27.3950000 -25.2860000   8.4211752  26.3180971 -25.1721515
   8.4360149  27.6676580 -26.3321523   9.3430000  28.1270000 -24.4210000
   9.2035644  29.2030350 -24.5249488   9.2067864  27.8426218 -23.3776044
  10.7380000  27.7550000 -24.8660000  11.4304931  28.4568438 -24.4012751
  10.9428142  26.7482757 -24.5017796  10.9140000  27.7930000 -26.3660000
  10.7246796  28.7258737 -26.7036451  11.8622671  27.5361166 -26.6003084
  10.2727082  27.1424133 -26.7967909   4.3930000  27.1780000 -25.2410000
   3.5700000  28.0870000 -25.4110000   4.1480000  26.1330000 -24.4550000
   4.6879845  25.2812509 -24.5101321   3.0260000  26.1800000 -23.5290000
   2.1451027  26.5391907 -24.0610725   2.7080000  24.8060000 -22.9260000
   3.6140557  24.3553707 -22.5209130   1.9741718  24.9247366 -22.1288188
   2.1320000  23.8150000 -23.8960000   1.1980000  24.1530000 -24.8540000
   0.8920000  23.0780000 -25.5600000   0.1716405  23.1407667 -26.3756234
   1.5840000  22.0540000 -25.0910000   1.5553774  21.1062951 -25.4390460
   2.3590000  22.4850000 -24.0420000   2.9963708  21.7792617 -23.5092776
   3.3790000  27.2030000 -22.4540000   4.3230000  27.9770000 -22.5770000
   2.6270000  27.2260000 -21.3750000   1.8334518  26.6094559 -21.2737381
   2.9230000  28.1440000 -20.2990000   2.5634581  27.7024378 -19.3695638
   4.0048334  28.2668673 -20.2476239   2.2790000  29.5070000 -20.4800000
   1.9300000  29.9290000 -21.5840000   2.1180000  30.1950000 -19.3520000
   2.3937295  29.8015546 -18.4635895   1.5180000  31.5210000 -19.3630000
   0.6235813  31.5062313 -19.9858132   1.1260000  31.9710000 -17.9560000
   0.5407983  32.8876330 -18.0296351   0.5219108  31.1911482 -17.4923110
   2.2800000  32.2090000 -17.1640000   2.0129581  32.4901257 -16.2857877
   2.4880000  32.5280000 -19.9510000   3.7170000  32.3940000 -19.8440000
   1.9190000  33.5560000 -20.5530000   0.9148728  33.6644096 -20.5443256
   2.7040000  34.5450000 -21.2340000   3.0120167  35.3233938 -20.5359112
   3.5872513  34.0826708 -21.6747019   1.8780000  35.1680000 -22.3300000
   0.7050000  34.8000000 -22.5410000   2.4530000  36.1760000 -23.0000000
   3.4750000  37.1120000 -22.4840000   4.4150006  36.5779032 -22.3452927
   3.1428818  37.5162560 -21.5277711   3.5630000  38.1780000 -23.5650000
   4.6054022  38.4657845 -23.7016628   2.9833327  39.0488415 -23.2588590
   2.9920000  37.5650000 -24.8190000   3.7651879  36.9842069 -25.3219501
   2.5586703  38.2771629 -25.5212457   1.9000000  36.6270000 -24.2830000
   0.9646091  37.1522754 -24.0900549   1.6390000  35.4530000 -25.2260000
   2.4020000  34.4870000 -25.2630000   0.5190000  35.5220000 -25.9570000
  -0.1753284  36.2192542 -25.7293071   0.2320000  34.5870000 -27.0440000
   0.6279678  33.5961315 -26.8215403  -1.2670000  34.4690000 -27.2860000
  -1.6764341  35.4519424 -27.5189981  -1.4485653  33.7929802 -28.1215427
  -1.7503596  34.0775059 -26.3909050   0.9690000  35.0870000 -28.2840000
   0.4230000  35.7950000 -29.1310000   2.2390000  34.7050000 -28.3830000
   2.5692871  34.0227600 -27.7154984   3.1890000  35.2360000 -29.3590000
   3.0175186  36.2996235 -29.5245246   4.6260000  35.0430000 -28.8640000
   5.3051359  35.6024429 -29.5073485   4.7560000  35.5420000 -27.4360000
   4.0774524  34.9826722 -26.7919297   5.7809286  35.4005770 -27.0930401
   4.5030809  36.6015105 -27.3963641   5.0060000  33.5790000 -28.9300000
   4.9326089  33.2301213 -29.9600483   6.0291265  33.4523438 -28.5760649
   4.3302393  32.9989973 -28.3014738   3.0020000  34.5550000 -30.7060000
   2.4820000  33.4390000 -30.7570000   3.4130000  35.1630000 -31.8110000
   4.0570000  36.4810000 -31.9340000   5.0270580  36.4552238 -31.4375896
   3.4273682  37.2346930 -31.4611261   4.1740000  36.6820000 -33.4230000
   5.2325448  36.6389919 -33.6793832   3.7847147  37.6735396 -33.6541006
   3.4110000  35.6440000 -34.1230000   4.0110988  35.3155085 -34.9715716
   2.4256535  35.9517962 -34.4729334   3.2730000  34.5030000 -33.1100000
   2.2996849  34.0148699 -33.1598501   4.3690000  33.4660000 -33.2930000
   5.3590000  33.4250000 -32.5680000   4.1740000  32.6050000 -34.2780000
   3.3706601  32.6464913 -34.8887559   5.1010000  31.4920000 -34.4310000
   5.5791383  31.2628297 -33.4786535   4.3430000  30.2690000 -34.8980000
   3.6502146  30.5638469 -35.6861706   5.0542118  29.5434602 -35.2928036
   3.5730000  29.6490000 -33.7580000   4.0630878  29.9044965 -32.8185128
   2.5726765  30.0816324 -33.7747722   3.4740000  28.1520000 -33.8810000
   3.4060000  27.6660000 -35.0390000   3.4880000  27.4690000 -32.8240000
   6.2500000  31.8120000 -35.3560000   6.6950000  30.9470000 -36.1230000
   6.7410000  33.0560000 -35.2790000   6.3104238  33.6778260 -34.6096451
   7.8120000  33.5780000 -36.1170000   8.3687114  32.7540186 -36.5633476
   7.2340000  34.4440000 -37.2410000   6.9690908  35.4079199 -36.8065109
   8.0208906  34.5840570 -37.9821392   6.0100000  33.8360000 -37.9100000
   6.2981664  32.8465495 -38.2650333   5.2424295  33.7367370 -37.1424817
   5.4610000  34.6540000 -39.0750000   4.4577702  34.9956770 -38.8202733
   6.1088121  35.5162919 -39.2327708   5.4050000  33.8190000 -40.3530000
   6.3055884  33.2071606 -40.4049004   4.5291481  33.1720138 -40.3040957
   5.3190000  34.6810000 -41.5680000   6.1307034  35.2802877 -41.6137338
   5.2837510  34.0984101 -42.3922854   4.4843401  35.2477165 -41.5203094
   8.7820000  34.3840000 -35.2520000   8.4010000  34.8950000 -34.1920000
  10.0490000  34.4770000 -35.6940000  10.3378167  33.9192961 -36.4849808
  11.0460000  35.3190000 -35.0400000  10.5514456  35.8659533 -34.2372814
  12.1860000  34.5060000 -34.4440000  12.6966914  33.9597034 -35.2370033
  12.8917009  35.1752575 -33.9518812  11.7873186  33.7998819 -33.7156116
  11.6100000  36.3370000 -36.0210000  11.4060000  36.2340000 -37.2300000
  12.2810000  37.3580000 -35.4710000  12.2209103  37.4694257 -34.4689656
  13.0850000  38.3180000 -36.2290000  13.2606450  37.9340723 -37.2339117
  12.4190000  39.6960000 -36.3400000  12.1028181  40.0298768 -35.3517417
  13.4120000  40.6870000 -36.9140000  13.7283123  40.3540152 -37.9025184
  12.9424898  41.6674043 -36.9944243  14.2802825  40.7532211 -36.2584072
  11.2210000  39.6000000 -37.2080000  10.5151052  38.8902276 -36.7766791
  10.7488344  40.5793175 -37.2860803  11.5169914  39.2597678 -38.2003366
  14.4150000  38.4760000 -35.5250000  14.4510000  38.5550000 -34.2940000
  15.5010000  38.5550000 -36.2930000  15.4124261  38.4141452 -37.2891997
  16.8360000  38.7600000 -35.7390000  16.7758522  38.9816371 -34.6734680
  17.6590000  37.4880000 -35.9270000  17.6619236  37.2408598 -36.9886084
  18.6781833  37.6930712 -35.5994159  17.0960000  36.3110000 -35.1320000
  17.4129799  36.4263165 -34.0955027  16.0085218  36.3611715 -35.1865527
  17.5660000  34.9710000 -35.6570000  17.6883115  34.2728112 -34.8289473
  16.8350715  34.5739442 -36.3614074  18.8500000  35.1130000 -36.3440000
  18.8242281  35.2533891 -37.3438630  20.0310000  35.0700000 -35.7410000
  20.1140000  34.8850000 -34.4160000  19.2708776  34.7772191 -33.8704471
  21.0192831  34.8542303 -33.9692167  21.1280000  35.2120000 -36.4700000
  21.0532610  35.3501492 -37.4677119  22.0340274  35.1814544 -36.0247136
  17.5320000  39.9760000 -36.3680000  17.5540000  40.1230000 -37.6000000
  18.0950000  40.8540000 -35.5210000  17.8525365  40.7969712 -34.5421954
  19.0120000  41.9140000 -35.9490000  19.0055057  41.9839278 -37.0367349
  18.5960000  43.2690000 -35.3690000  17.5078535  43.3191163 -35.3299517
  19.0016790  43.4051865 -34.3665142  19.0540000  44.4540000 -36.1850000
  20.3190000  44.9980000 -36.0070000  20.9914679  44.5464529 -35.2776222
  20.7340000  46.1070000 -36.7460000  21.7278369  46.5251494 -36.5861877
  19.8900000  46.6730000 -37.6760000  20.2110058  47.5319310 -38.2653154
  18.6250000  46.1420000 -37.8590000  17.9513840  46.5884013 -38.5904831
  18.2120000  45.0420000 -37.1130000  17.2124624  44.6311870 -37.2553274
  20.4310000  41.5610000 -35.5050000  20.6890000  41.3940000 -34.3100000
  21.3460000  41.4390000 -36.4570000  21.0956190  41.5444815 -37.4297704
  22.7320000  41.1190000 -36.1300000  22.8665383  41.1842588 -35.0503056
  23.1230000  39.6980000 -36.5910000  23.0743843  39.6875202 -37.6798645
  24.1511900  39.5270955 -36.2720691  22.2890000  38.6720000 -36.0700000
  22.5882152  37.8200447 -36.3959481  23.6720000  42.1260000 -36.7830000
  23.2950000  42.8180000 -37.7360000  24.9130000  42.1980000 -36.2650000
  25.1018186  41.7562981 -35.3765484  25.9880000  42.9630000 -36.9030000
  25.7021305  43.1553642 -37.9371053  26.2830000  44.3240000 -36.2070000
  26.9026854  44.9801427 -36.8182005  25.3164709  44.7967076 -36.0324462
  26.9640000  44.2180000 -34.8570000  28.3360000  44.0120000 -34.7600000
  28.9172952  43.9164964 -35.6771013  28.9630000  43.9280000 -33.5340000
  30.0362981  43.7448097 -33.4832720  28.2310000  44.0760000 -32.3700000
  28.7209989  44.0040416 -31.3990093  26.8730000  44.3160000 -32.4420000
  26.2901685  44.4366532 -31.5288459  26.2470000  44.4040000 -33.6860000
  25.1805739  44.6215286 -33.7453016  27.2510000  42.1170000 -36.9580000
  27.4840000  41.2670000 -36.0930000  28.0420000  42.3270000 -38.0100000
  27.6926367  42.9001754 -38.7646619  29.3790000  41.7450000 -38.1420000
  29.6146664  41.1685445 -37.2474277  29.4860000  40.8150000 -39.3710000
  29.5042998  41.4190461 -40.2781349  30.7500000  39.9940000 -39.2880000
  30.7322143  39.3892984 -38.3812921  30.8176214  39.3411464 -40.1582348
  31.6141823  40.6578788 -39.2644525  28.3650000  39.9290000 -39.4470000
  28.4557851  39.3634514 -40.2173981  30.4160000  42.8640000 -38.2630000
  30.2430000  43.7870000 -39.0720000  31.4860000  42.7880000 -37.4660000
  31.5231675  42.1109682 -36.7174375  32.6060000  43.7230000 -37.6140000
  32.2014124  44.7150373 -37.8146739  33.4720000  43.7930000 -36.3460000
  33.6656533  42.7837224 -35.9827419  34.7630000  44.4630000 -36.6600000
  34.5701686  45.4725623 -37.0229063  35.3759167  44.5118763 -35.7599751
  35.2899466  43.8960492 -37.4274605  32.7720000  44.5950000 -35.2650000
  31.8220918  44.1210084 -35.0177988  33.4007873  44.6331334 -34.3754653
  32.5894874  45.6078756 -35.6239889  33.4320000  43.2890000 -38.8190000
  33.9820000  42.1770000 -38.8370000  33.5230000  44.1770000 -39.8200000
  33.2139927  45.1197753 -39.6308216  33.9690000  43.8520000 -41.1750000
  33.9455905  42.7727159 -41.3256556  33.0480000  44.5100000 -42.2060000
  32.8336882  45.5188679 -41.8533596  33.5976904  44.5632543 -43.1457364
  31.7340000  43.7570000 -42.4260000  31.1773814  43.7996860 -41.4898085
  31.1827028  44.2902054 -43.2005099  31.9330000  42.0320000 -42.9200000
  31.8340000  42.1880000 -44.7050000  32.6328154  42.8401585 -45.0581038
  31.9396826  41.2043759 -45.1626193  30.8692813  42.6143559 -44.9800268
  35.4150000  44.2420000 -41.4680000  36.1590000  43.4280000 -42.0340000
  35.8140000  45.4810000 -41.1470000  35.1127415  46.1591762 -40.8854413
  37.2110000  45.9120000 -41.1970000  37.8384689  45.0943451 -40.8422852
  37.6690000  46.3050000 -42.6100000  38.7377261  46.5099988 -42.5475553
  37.5028600  45.4359204 -43.2465518  36.9560000  47.5100000 -43.2020000
  35.8841806  47.3123159 -43.2169975  37.1558110  48.3796555 -42.5759993
  37.4450000  47.7850000 -44.6300000  38.0588721  48.6855386 -44.6129614
  38.0515353  46.9384870 -44.9519162  36.3540000  47.9770000 -45.5960000
  35.9213417  48.8894497 -45.6144842  35.9060000  47.0410000 -46.4400000
  36.4400000  45.8130000 -46.4580000  37.1938356  45.5841460 -45.8259732
  36.0864612  45.1213260 -47.1035208  34.9100000  47.3360000 -47.2730000
  34.5025735  48.2600984 -47.2609233  34.5664957  46.6343158 -47.9131116
  37.4070000  47.0910000 -40.2600000  36.4780000  47.8650000 -40.0180000
  38.6300000  47.2130000 -39.7360000  39.2744884  46.4403940 -39.8243968
  39.0620000  48.3960000 -38.9860000  38.3102662  49.1767027 -39.1021842
  39.2760000  48.1080000 -37.4860000  40.3152649  47.8253557 -37.3182470
  38.9530000  49.3390000 -36.6760000  37.9136931  49.6220032 -36.8428862
  39.1062671  49.1286348 -35.6175311  39.6053265  50.1570723 -36.9814948
  38.4090000  46.9530000 -36.9890000  37.3677355  47.2079254 -37.1861856
  38.6788663  46.0635714 -37.5583756  38.5900000  46.6800000 -35.5120000
  38.3198643  47.5688883 -34.9419087  37.9497340  45.8496068 -35.2143328
  39.6309962  46.4245364 -35.3140983  40.3510000  48.9370000 -39.6100000
  41.3600000  48.2200000 -39.7000000  40.3140000  50.1970000 -40.0450000
  39.4281644  50.6820517 -40.0559306  41.4890000  50.8950000 -40.5450000
  42.3593476  50.2390539 -40.5631373  41.2740000  51.4680000 -41.9610000
  42.2216544  51.8711532 -42.3180978  40.7840000  50.4040000 -42.9220000
  39.8360859  50.0006767 -42.5657853  40.6432842  50.8428353 -43.9097863
  41.5196250  49.6019613 -42.9827486  40.3500000  52.5690000 -41.9260000
  40.2281180  52.9128007 -42.8140012  41.8650000  52.0280000 -39.5970000
  41.0050000  52.6510000 -38.9640000  43.1680000  52.2880000 -39.5150000
  43.8103339  51.6755050 -39.9970336  43.7170000  53.3820000 -38.7280000
  42.9434940  53.9437167 -38.2042997  44.7540000  52.8740000 -37.7160000
  44.3283062  52.0368178 -37.1628173  46.0140000  52.4210000 -38.4270000
  46.4405531  53.2578219 -38.9800662  46.7373304  52.0643407 -37.6937279
  45.7713285  51.6146745 -39.1191335  45.0440000  53.9330000 -36.6650000
  45.5439853  54.7693588 -37.1534869  44.0939832  54.2702131 -36.2504460
  45.9250000  53.4000000 -35.5450000  46.8754443  53.0630033 -35.9587495
  46.1062000  54.1907290 -34.8169798  45.4254428  52.5638555 -35.0557098
  44.3360000  54.3930000 -39.6760000  44.8440000  54.0320000 -40.7430000
  44.2750000  55.6710000 -39.2880000  43.8172428  55.8936756 -38.4156622
  44.7850000  56.7740000 -40.1060000  44.8961562  56.4409368 -41.1378975
  43.8320000  57.9630000 -40.0780000  42.8329437  57.5905313 -40.3043909
  43.8460281  58.3734246 -39.0683194  44.2040000  59.0510000 -41.0720000
  45.2885511  59.0610554 -41.1803915  43.7465459  58.7862357 -42.0252758
  43.7250000  60.4290000 -40.6460000  42.5950000  60.5270000 -40.1040000
  44.4900000  61.4090000 -40.8430000  46.1770000  57.1540000 -39.5980000
  46.3180000  57.7820000 -38.5430000  47.2080000  56.7740000 -40.3600000
  47.0057010  56.2991656 -41.2281629  48.6120000  56.9490000 -39.9740000
  48.6728842  57.5782036 -39.0860275  49.2560000  55.6080000 -39.6640000
  48.6035463  55.0247618 -39.0142026  49.4415296  55.0535798 -40.5839440
  50.5690000  55.7210000 -38.9610000  51.7110000  55.1030000 -39.4190000
  52.7130000  55.3740000 -38.5990000  53.7075037  54.9692790 -38.7867827
  52.2620000  56.1520000 -37.6300000  52.8032311  56.5198030 -36.8606563
  50.9230000  56.3860000 -37.8350000  50.3664938  57.0132853 -37.1386415
  49.3340000  57.6830000 -41.1060000  49.8300000  57.0760000 -42.0630000
  49.4030000  59.0050000 -40.9810000  49.1605305  59.4541851 -40.1094837
  49.8260000  59.8360000 -42.0860000  50.2758495  60.7456572 -41.6881830
  50.5667083  59.2907772 -42.6709638  48.6640000  60.2130000 -42.9880000
  47.5650000  60.5360000 -42.5110000  48.9000000  60.1880000 -44.2970000
  49.8579280  60.1250543 -44.6108649  47.8520000  60.3230000 -45.3000000
  46.9223081  60.6196971 -44.8144664  48.2140000  61.3730000 -46.3400000
  49.2483889  61.2255768 -46.6504918  47.5569315  61.2619111 -47.2025661
  48.0650000  62.6720000 -45.7980000  48.2960766  63.3246396 -46.4630300
  47.5920000  58.9700000 -45.9430000  47.4730000  58.8350000 -47.1600000
  47.5120000  57.9530000 -45.0960000  47.6444789  58.1578499 -44.1159055
  47.2900000  56.5750000 -45.4860000  46.8443866  56.5256386 -46.4795247
  48.6400000  55.8400000 -45.5160000  49.2184234  56.3079780 -46.3125690
  49.1137125  56.0439435 -44.5557378  48.5860000  54.3510000 -45.7430000
  47.8694586  53.9064961 -45.0522862  48.2657944  54.1640980 -46.7680064
  49.9470000  53.6890000 -45.5280000  50.9210000  54.3510000 -45.1390000
  50.0180000  52.3790000 -45.7730000  50.8935630  51.8915279 -45.6470565
  49.1958432  51.8810879 -46.0832309  46.3200000  55.9490000 -44.4880000
  46.3970000  56.2440000 -43.2900000  45.4010000  55.1030000 -44.9840000
  45.3384857  55.0263218 -45.9891427  44.4830000  54.3020000 -44.1670000
  44.4694087  54.6920968 -43.1492874  43.0610000  54.3460000 -44.7260000
  43.1256678  54.3549957 -45.8140425  42.5240726  53.4545330 -44.4018156
  42.2810000  55.5760000 -44.2740000  42.5080000  56.1020000 -43.1850000
  41.3460000  56.0320000 -45.1090000  40.8010010  56.8441631 -44.8570736
  41.1873411  55.5630121 -45.9893286  44.9640000  52.8540000 -44.1370000
  44.9430000  52.1860000 -45.1760000  45.3650000  52.3620000 -42.9530000
  45.2461820  52.9305440 -42.1267196  46.0290000  51.0630000 -42.8130000
  46.3861703  50.6796858 -43.7688236  47.2200000  51.1240000 -41.8290000
  46.8274155  51.2629260 -40.8216886  48.0670000  49.8310000 -41.8780000
  48.4603348  49.6916348 -42.8849588  48.8945298  49.9111877 -41.1731136
  47.4439642  48.9775486 -41.6105138  48.0840000  52.3350000 -42.0970000
  47.4881323  53.2401809 -41.9799903  48.9140656  52.3532314 -41.3907717
  48.4737217  52.2860904 -43.1137722  45.0220000  50.0030000 -42.3620000
  44.4710000  50.0710000 -41.2520000  44.8690000  48.9620000 -43.1750000
  45.3824997  48.9197257 -44.0436946  43.9290000  47.8950000 -42.8780000
  42.9695654  48.3158153 -42.5771697  43.7160000  47.0330000 -44.1070000
  43.5680933  47.7255929 -44.9355758  44.6474053  46.4860005 -44.2532044
  42.5650000  46.0600000 -44.0540000  42.8120226  45.2463944 -43.3719981
  41.6736533  46.5753553 -43.6962124  42.3010000  45.4950000 -45.4430000
  43.2070254  45.0212174 -45.8208186  41.5009654  44.7566757 -45.3889501
  41.8910000  46.6160000 -46.3760000  40.8868517  46.9434954 -46.1066793
  42.5882695  47.4446149 -46.2522593  41.9020000  46.1670000 -47.7930000
  41.2556397  45.3994710 -47.9079669  41.6253590  46.9325734 -48.3908855
  42.8324746  45.8638948 -48.0428866  44.4700000  47.0880000 -41.7040000
  45.1250000  46.0540000 -41.8670000  44.1490000  47.5700000 -40.5000000
  43.7006184  48.4715127 -40.4204511  44.5110000  46.8670000 -39.2740000
  45.5531563  46.5525647 -39.2179651  44.2050000  47.7750000 -38.0670000
  43.2488105  48.2694596 -38.2382035  44.1360000  46.9600000 -36.7530000
  45.0920493  46.4655892 -36.5808701  43.9186516  47.6293751 -35.9206556
  43.3486367  46.2102600 -36.8307857  45.2230000  48.8970000 -38.0040000
  45.1740291  49.4846249 -38.9207338  45.0052979  49.5382852 -37.1499165
  46.2225096  48.4757905 -37.8960006  43.7930000  45.5160000 -39.1810000
  44.3630000  44.5150000 -38.7210000  42.5280000  45.4590000 -39.5960000
  42.0745493  46.2709503 -39.9899778  41.7520000  44.2280000 -39.4640000
  42.4271317  43.3738196 -39.5156940  40.9910000  44.1710000 -38.1350000
  41.6938854  44.0807307 -37.3068075  40.3844256  45.0665275 -38.0000999
  40.0580000  43.0020000 -38.0350000  40.5280000  41.7440000 -37.6760000
  41.5883989  41.6119327 -37.4610298  39.6630000  40.6630000 -37.5900000
  40.0404452  39.6810907 -37.3045355  38.3210000  40.8330000 -37.8670000
  37.6411424  39.9836421 -37.8000319  37.8400000  42.0750000 -38.2280000
  36.7809025  42.2070620 -38.4492967  38.7040000  43.1540000 -38.3090000
  38.3243543  44.1362757 -38.5902533  40.7530000  44.0960000 -40.6010000
  40.1140000  45.0760000 -40.9920000  40.6170000  42.8740000 -41.1080000
  41.2582230  42.1551659 -40.8043389  39.5990000  42.5220000 -42.0900000
  38.7801083  43.2387581 -42.0285721  40.1550000  42.5360000 -43.5150000
  40.8026920  43.4093074 -43.5919968  40.7513219  41.6308001 -43.6295136
  39.1110000  42.5890000 -44.5980000  38.8230195  41.5643480 -44.8330667
  38.2493789  43.1261671 -44.2015662  39.6030000  43.2820000 -45.8650000
  39.0170000  44.3310000 -46.2350000  40.5720000  42.7790000 -46.4860000
  39.1090000  41.1330000 -41.7300000  39.9310000  40.2450000 -41.4830000
  37.7890000  40.9460000 -41.6820000  37.1482752  41.6941151 -41.9053715
  37.2310000  39.6490000 -41.2760000  37.6696624  39.3495032 -40.3241722
  35.7200000  39.7200000 -41.1140000  35.4882630  40.4370044 -40.3264075
  35.2853575  40.0603584 -42.0538628  35.1400000  38.3630000 -40.7500000
  34.0541018  38.4243109 -40.8218813  35.5112677  37.6385774 -41.4748940
  35.5330000  37.9200000 -39.3400000  35.4830000  38.7690000 -38.3950000
  35.8820000  36.7210000 -39.1900000  37.5530000  38.5640000 -42.2900000
  37.0980000  38.6590000 -43.4360000  38.2750000  37.5080000 -41.9090000
  38.5980000  37.1050000 -40.5340000  37.7456464  37.3030907 -39.8841126
  39.4621763  37.6674760 -40.1805612  38.8940000  35.6070000 -40.6770000
  37.9783198  35.0293696 -40.5506200  39.6251518  35.2958380 -39.9308789
  39.4460000  35.4600000 -42.0590000  39.2687364  34.4484816 -42.4243863
  40.5092231  35.6897972 -42.1286379  38.6380000  36.4640000 -42.8910000
  39.2141821  36.9448701 -43.6814912  37.4510000  35.7670000 -43.4910000
  37.4800000  35.3790000 -44.6650000  36.4120000  35.5650000 -42.6800000
  36.4636732  35.9573441 -41.7507555  35.2710000  34.7270000 -43.0120000
  35.2912388  34.4708277 -44.0712758  35.3160000  33.4350000 -42.1960000
  35.5611801  33.6593058 -41.1578898  34.3492368  32.9334921 -42.2402588
  36.4100000  32.5060000 -42.7980000  36.2139185  32.4947700 -43.8701599
  37.3531974  33.0178617 -42.6070069  36.4970000  31.0560000 -42.2760000
  35.5147928  30.6012317 -42.4046617  37.2247349  30.5282367 -42.8924149
  36.9110000  30.9650000 -40.8110000  37.7292513  31.6603381 -40.6237291
  36.0616732  31.2256352 -40.1794839  37.3570000  29.5760000 -40.4960000
  38.1442723  29.3344486 -41.0807692  37.6297335  29.5220496 -39.5250181
  36.5987996  28.9315753 -40.6690552  34.0320000  35.5880000 -42.7990000
  33.3490000  35.4820000 -41.7670000  33.7180000  36.4630000 -43.7630000
  34.2410000  36.4940000 -45.1360000  34.1189386  35.5121693 -45.5933946
  35.2988795  36.7558859 -45.1158571  33.4060000  37.5440000 -45.7980000
  32.6158350  37.0525735 -46.3656604  34.0393634  38.1147841 -46.4770859
  32.8510000  38.4110000 -44.7420000  31.8880108  38.8255033 -45.0402244
  33.5258598  39.2219163 -44.4679953  32.6640000  37.4620000 -43.5530000
  32.8662121  37.9449483 -42.5969825  31.2560000  36.8900000 -43.5430000
  30.3030000  37.6220000 -43.2520000  31.0640000  35.6300000 -43.8870000
  31.8123859  35.0312254 -44.2055701  29.7100000  35.1070000 -43.9030000
  29.0170650  35.8689355 -43.5460761  29.3060000  34.7050000 -45.3160000
  30.1310780  34.1397933 -45.7494591  28.4137615  34.0795881 -45.2864971
  29.0270000  35.9040000 -46.1950000  28.0940000  36.6590000 -45.9470000
  29.8210000  36.0680000 -47.2490000  29.6774718  36.8528620 -47.8682666
  30.5639539  35.4069489 -47.4254423  29.5540000  33.9530000 -42.9350000
  28.6190000  33.1660000 -43.0620000  30.4470000  33.8440000 -41.9640000
  31.2060281  34.5058279 -41.8868016  30.3800000  32.7590000 -41.0030000
  29.9924178  31.8654842 -41.4923962  31.7550000  32.4420000 -40.4290000
  32.3491056  31.9438436 -41.1951449  32.2401432  33.3754032 -40.1435276
  31.6460000  31.5970000 -39.2900000  32.5222182  31.4103017 -38.9450576
  29.4410000  33.1050000 -39.8640000  29.4190000  34.2440000 -39.3850000
  28.6720000  32.0990000 -39.4320000  28.5949549  31.2443149 -39.9646132
  27.9200000  32.2090000 -38.1930000  27.1362403  32.9587135 -38.3013956
  27.2770000  30.8840000 -37.8460000  26.6255312  31.0596524 -36.9899428
  26.6753191  30.5863961 -38.7047852  28.2620000  29.7810000 -37.5130000
  29.2176852  30.2432261 -37.2657884  27.8918412  29.2287784 -36.6492101
  28.4480000  28.8280000 -38.6810000  28.3280000  29.3070000 -39.8420000
  28.7030000  27.6140000 -38.4300000  28.7890000  32.6210000 -37.0250000
  28.2550000  33.1490000 -36.0380000  30.1120000  32.3960000 -37.1230000
  30.4940510  32.0469407 -37.9903488  31.0190000  32.6030000 -36.0030000
  30.5996290  32.1466721 -35.1063440  32.3790000  31.9780000 -36.2760000
  32.5872437  32.1819338 -37.3263070  33.1293851  32.4679752 -35.6555594
  32.4220000  30.4830000 -36.0340000  31.5174203  30.0200179 -36.4283145
  33.6150000  29.9130000 -36.7270000  34.5200588  30.3751954 -36.3328646
  33.6541295  28.8368510 -36.5582604  33.5431563  30.1101597 -37.7966106
  32.4600000  30.2170000 -34.5290000  31.5687141  30.6368359 -34.0626883
  32.4910160  29.1422217 -34.3501403  33.3474013  30.6820210 -34.0996128
  31.2290000  34.0630000 -35.6770000  31.6860000  34.3680000 -34.5690000
  30.9350000  34.9670000 -36.6010000  30.5506663  34.6999772 -37.4960340
  31.2110000  36.3640000 -36.3640000  31.4642723  36.5199065 -35.3153602
  32.3900000  36.8250000 -37.2260000  32.6748412  37.8460237 -36.9720799
  33.2464634  36.1647675 -37.0893852  32.0410000  36.8290000 -38.9840000
  33.2397894  37.2630076 -39.3627342  30.0160000  37.2420000 -36.6380000
  30.1360000  38.4700000 -36.5520000  28.8750000  36.6550000 -36.9780000
  28.8734370  35.6712835 -37.2069076  27.6220000  37.3880000 -37.0760000
  27.7916906  38.3642278 -37.5301844  26.6410000  36.6130000 -37.9420000
  27.1083188  36.2837650 -38.8700715  26.2420434  35.7491439 -37.4103175
  25.2470000  37.5830000 -38.4140000  24.6463935  36.6290493 -39.1197961
  27.0790000  37.6000000 -35.6660000  26.5900000  36.6560000 -35.0260000
  27.1650000  38.8350000 -35.1760000  27.4452264  39.7102290 -35.5949828
  26.8530000  38.8190000 -33.7520000  26.9852124  37.8139873 -33.3512901
  27.7900000  39.7740000 -33.0000000  27.5890107  40.7846497 -33.3553725
  27.5495488  39.7079918 -31.9389033  29.2930000  39.4400000 -33.2120000
  29.4379722  38.3860930 -32.9745892  29.5285267  39.6110116 -34.2624210
  30.2030000  40.2790000 -32.3500000  31.1995889  40.2660525 -32.7912957
  29.8221797  41.3002920 -32.3438293  30.2740000  39.7540000 -30.9180000
  30.7147347  40.5414169 -30.3065851  29.2508965  39.5698810 -30.5901913
  31.0740000  38.5060000 -30.7720000  32.0221751  38.6765114 -31.0752978
  31.0767084  38.2192187 -29.8035739  30.6655246  37.7761144 -31.3381395
  25.3860000  39.1810000 -33.4950000  24.8260000  40.0590000 -34.1630000
  24.7290000  38.5070000 -32.5560000  25.2620000  37.5320000 -31.5880000
  26.0976355  37.9760650 -31.0470565  25.6041858  36.6430964 -32.1179607
  24.0710000  37.2480000 -30.6900000  24.1519285  37.8508405 -29.7854930
  24.0671557  36.1913120 -30.4226106  22.8810000  37.5950000 -31.4560000
  22.1110036  37.9084535 -30.7510521  22.4891351  36.8013391 -32.0921163
  23.3150000  38.7820000 -32.3120000  22.8001499  38.8423648 -33.2708450
  23.1350000  40.0850000 -31.5600000  23.8890000  40.4060000 -30.6410000
  22.1070000  40.8290000 -31.9210000  21.5019031  40.6094551 -32.6993040
  21.8920000  42.0810000 -31.2120000  22.4714129  42.1076407 -30.2891402
  22.3480000  43.2260000 -32.1060000  23.4122113  43.0141872 -32.2093867
  21.8466930  43.0377490 -33.0553961  22.1580000  44.6770000 -31.7140000
  21.0998657  44.8657082 -31.5327770  22.9420000  44.9760000 -30.4640000
  24.0003583  44.7879562 -30.6445993  22.8011848  46.0208725 -30.1873898
  22.5928867  44.3359563 -29.6537134  22.6140000  45.5380000 -32.8720000
  22.0182459  45.3057895 -33.7547541  22.4875043  46.5897637 -32.6153032
  23.6651543  45.3394702 -33.0811877  20.4300000  42.2330000 -30.7730000
  20.1370000  42.8740000 -29.7550000  19.4970000  41.6270000 -31.5030000
  19.7209600  41.1449355 -32.3618103  18.0980000  41.7090000 -31.1010000
  18.0202913  41.7285249 -30.0139493  17.4770000  42.9800000 -31.6550000
  18.0161042  43.8776184 -31.3521021  17.3823090  42.9626756 -32.7407410
  15.8550000  43.1550000 -31.0300000  15.5860318  44.2956804 -31.6588105
  17.3140000  40.4820000 -31.5570000  17.2310000  40.1950000 -32.7560000
  16.7340000  39.7630000 -30.6020000  16.9077446  39.9957602 -29.6346661
  15.8650000  38.6350000 -30.8940000  15.8758766  38.4336070 -31.9651777
  16.3280000  37.3880000 -30.1610000  16.1251551  37.5614788 -29.1041848
  15.7280697  36.5486056 -30.5125689  17.7790000  37.0750000 -30.3450000
  18.3884268  37.9096015 -29.9983876  18.1050000  35.8460000 -29.5370000
  17.4962539  35.0108011 -29.8833667  19.1601179  35.6005194 -29.6576910
  17.8948319  36.0362020 -28.4845016  18.0180000  36.8570000 -31.8110000
  17.7530493  37.7599524 -32.3610704  19.0701479  36.6261728 -31.9777478
  17.4045759  36.0263703 -32.1600906  14.4460000  38.9790000 -30.4680000
  14.2230000  39.4280000 -29.3390000  13.4900000  38.7600000 -31.3570000
  13.7114267  38.4775339 -32.3010776  12.0930000  38.9560000 -31.0060000
  11.9779440  38.8986853 -29.9236062  11.5980000  40.3110000 -31.4750000
  10.8252885  40.6400581 -30.7802073  12.4394579  41.0027560 -31.4359832
  11.0390000  40.2820000 -32.8670000  11.6032130  39.5663101 -33.4649570
   9.9933536  39.9768322 -32.8270221  11.1510000  41.8960000 -33.6230000
  12.9410000  42.1210000 -33.5190000  13.4404388  41.3257041 -34.0723211
  13.2118716  43.0861578 -33.9470183  13.2519230  42.0870471 -32.4748375
  11.2490000  37.8540000 -31.6280000  11.5390000  37.3800000 -32.7310000
  10.2270000  37.4230000 -30.8990000  10.1812657  37.6603862 -29.9183596
   9.1880000  36.5600000 -31.4510000   9.6036662  35.9723979 -32.2695625
   8.6380000  35.6040000 -30.3940000   8.3577899  36.2252872 -29.5433627
   7.7652733  35.0523609 -30.7434888   9.7270000  34.6180000 -29.9680000
  10.6078317  35.2073645 -29.7132730   9.3520000  33.7410000 -28.7960000
   8.4714630  33.1509510 -29.0501567  10.1809049  33.0731892 -28.5613807
   9.1327429  34.3653433 -27.9298463  10.1010000  33.7800000 -31.1590000
  10.4729944  34.4248064 -31.9552062  10.8774229  33.0697337 -30.8747632
   9.2241035  33.2370791 -31.5116874   8.1330000  37.5020000 -32.0040000
   7.4180000  38.1550000 -31.2510000   8.0970000  37.6300000 -33.3200000
   8.7171966  37.0603234 -33.8776057   7.2300000  38.5740000 -34.0020000
   6.1901610  38.4277329 -33.7096988   7.6110000  40.0230000 -33.7350000
   8.6470347  40.1873101 -34.0311998   6.9604170  40.6821245 -34.3098017
   7.4988211  40.2388588 -32.6724935   7.3310000  38.2600000 -35.4780000
   8.1460000  37.4330000 -35.8960000   6.4950000  38.9210000 -36.2690000
   5.8538167  39.6023318 -35.8885131   6.4480000  38.6530000 -37.6940000
   7.0995379  37.8116234 -37.9299723   5.0360000  38.3110000 -38.1330000
   4.7842409  37.3468303 -37.6913062   4.3528346  39.0721753 -37.7561747
   4.9130000  38.2240000 -39.6290000   5.9050000  37.8610000 -40.2910000
   3.8360000  38.5350000 -40.1630000   6.9600000  39.8680000 -38.4490000
   6.3880000  40.9500000 -38.3240000   8.0120000  39.6760000 -39.2560000
   8.4742141  38.7792903 -39.3046737   8.5620000  40.7830000 -40.0380000
   9.0081626  41.5224285 -39.3729559   9.6480000  40.2670000 -40.9990000
  10.1388441  41.1417319 -41.4256326  10.3643768  39.7053109 -40.3994921
   9.1200000  39.3790000 -42.1260000   8.4676912  38.6372271 -41.6651670
   8.5313581  40.0253004 -42.7770727  10.2000000  38.6670000 -42.9530000
  11.2780000  39.2460000 -43.1460000   9.9640000  37.5140000 -43.4070000
   7.4790000  41.5260000 -40.8150000   7.5840000  42.7440000 -41.0260000
   6.4220000  40.8240000 -41.2230000   6.3507749  39.8346412 -41.0327491
   5.3770000  41.4500000 -42.0130000   5.8150521  42.1321390 -42.7416260
   4.5850000  40.3840000 -42.7590000   4.5540489  39.4747376 -42.1586808
   3.5695375  40.7432080 -42.9260495   5.1980000  40.1060000 -44.0050000
   4.6922900  39.4337169 -44.4674853   4.4350000  42.3080000 -41.1850000
   3.6230000  43.0410000 -41.7590000   4.5170000  42.2340000 -39.8610000
   5.1661650  41.5768622 -39.4525223   3.6660000  43.0140000 -38.9660000
   2.7236995  43.2540730 -39.4584774   3.3670000  42.2110000 -37.7100000
   2.5838150  41.4921692 -37.9508376   4.2779594  41.6776367 -37.4383816
   2.9190000  43.0760000 -36.5420000   2.3430000  44.1790000 -36.7520000
   3.1530000  42.6220000 -35.4000000   4.4010000  44.3160000 -38.6810000
   5.1360000  44.4400000 -37.7030000   4.1840000  45.3070000 -39.5510000
   3.4927376  45.2082864 -40.2807337   4.9770000  46.5320000 -39.5100000
   6.0316210  46.3044176 -39.6651771   4.5140000  47.4780000 -40.6160000
   4.0623601  46.8925373 -41.4168458   3.7866181  48.1957235 -40.2366735
   5.6190000  48.2760000 -41.2390000   6.5660000  47.7190000 -42.0760000
   7.3990000  48.6610000 -42.4890000   8.2200395  48.4202010 -43.1642844
   7.0300000  49.8090000 -41.9470000   7.4841337  50.7014995 -42.0785563
   5.9160000  49.5970000 -41.1650000   5.4550642  50.4308625 -40.6355543
   4.8820000  47.2100000 -38.1520000   5.8860000  47.6890000 -37.6170000
   3.6880000  47.2280000 -37.5640000   2.8898707  46.7889934 -38.0003051
   3.4850000  47.9380000 -36.3090000   3.7604409  48.9860011 -36.4270052
   2.0160000  47.8630000 -35.8880000   1.7114486  46.8221307 -35.9972649
   1.9769027  48.1438979 -34.8355420   1.0700000  48.7570000 -36.6890000
   0.1306543  48.7977927 -36.1375778   1.5111133  49.7529740 -36.7284221
   0.8050000  48.2610000 -38.1100000   0.0970000  48.9850000 -38.8480000
   1.2850000  47.1580000 -38.4940000   4.3810000  47.3880000 -35.2130000
   5.0470000  48.1470000 -34.5020000   4.4270000  46.0720000 -35.0580000
   3.8316856  45.4112720 -35.5366843   5.3330000  45.5700000 -34.0370000
   5.2713812  46.2001799 -33.1497708   4.9450000  44.1480000 -33.6520000
   4.8591046  43.5457500 -34.5564430   5.9810000  43.5500000 -32.7510000
   6.0671368  44.1514864 -31.8460723   5.6891573  42.5340524 -32.4849598
   6.9418306  43.5285909 -33.2652438   3.6920000  44.1870000 -32.9610000
   3.4357728  43.2958331 -32.7124651   6.7980000  45.6580000 -34.4670000
   7.6710000  45.8870000 -33.6200000   7.0910000  45.5330000 -35.7660000
   6.3801632  45.3661553 -36.4638346   8.4840000  45.5720000 -36.1940000
   9.0498996  44.8095334 -35.6587416   8.6080000  45.3090000 -37.6940000
   8.0731161  44.3805974 -37.8941678   8.1609925  46.1172845 -38.2727577
  10.0820000  45.1470000 -38.0950000  10.6387414  46.0366838 -37.8007168
  10.6620000  43.9400000 -37.4030000  10.1060312  43.0497963 -37.6971682
  11.7079084  43.8250623 -37.6875449  10.5920669  44.0710913 -36.3231737
  10.2780000  45.0250000 -39.5800000   9.8984988  45.9206133 -40.0718893
  11.3399301  44.9132005 -39.7988756   9.7379303  44.1525748 -39.9478288
   9.1200000  46.9060000 -35.8400000  10.1880000  46.9460000 -35.2200000
   8.4640000  48.0130000 -36.2090000   7.6028708  47.9656003 -36.7346512
   9.0280000  49.3260000 -35.9240000  10.0723788  49.3654921 -36.2335360
   8.2550000  50.4220000 -36.6670000   8.8199825  51.3514478 -36.5961357
   8.0490000  50.0650000 -38.1300000   7.4836489  49.1358389 -38.2016756
   7.4977604  50.8642412 -38.6254266   9.0176533  49.9385390 -38.6135482
   6.9800000  50.6190000 -36.0570000   6.5028012  51.3062088 -36.5277713
   9.0460000  49.5940000 -34.4260000  10.0310000  50.1120000 -33.8920000
   7.9780000  49.2190000 -33.7270000   7.1446891  48.8830406 -34.1883281
   7.9630000  49.3390000 -32.2750000   7.8705981  50.3930231 -32.0130907
   6.7650000  48.5900000 -31.7080000   6.8478865  47.5314294 -31.9542889
   6.7404476  48.7096622 -30.6248664   5.8477068  48.9918786 -32.1383092
   9.2500000  48.8200000 -31.6460000   9.8290000  49.4770000 -30.7790000
   9.7320000  47.6670000 -32.0950000   9.2839472  47.2034568 -32.8724803
  10.8570000  46.9970000 -31.4430000  10.9603527  47.2182039 -30.3806977
  10.7170000  45.4760000 -31.6390000  10.5772015  45.2657171 -32.6993480
  11.9890000  44.7450000 -31.1300000  12.1292096  44.9544461 -30.0695405
  11.8741799  43.6708874 -31.2755991  12.8577279  45.0958311 -31.6870714
   9.4390000  44.9650000 -30.9910000   8.6030372  45.4907590 -31.4523507
   9.3625048  43.8997900 -31.2091185   9.4030000  45.1750000 -29.5050000
   9.4789872  46.2400871 -29.2861046   8.4653828  44.7884892 -29.1055220
  10.2384567  44.6491196 -29.0428725  12.2150000  47.4980000 -31.9560000
  13.1700000  47.6390000 -31.1820000  12.3270000  47.7520000 -33.2610000
  11.5189814  47.6641401 -33.8605714  13.6010000  48.1030000 -33.8680000
  14.4149250  47.6315546 -33.3172146  13.6520000  47.6240000 -35.3220000
  12.7464674  48.0563106 -35.7476965  14.5243759  48.0413730 -35.8248520
  13.6310000  46.1110000 -35.5130000  12.5937605  45.7818203 -35.4507442
  14.2160000  45.6800000 -36.8330000  15.2534392  46.0084430 -36.8958016
  14.1739121  44.5937028 -36.9122957  13.6444379  46.1256277 -37.6471456
  14.3270000  45.4150000 -34.3640000  13.8197681  45.6581533 -33.4303557
  14.2998078  44.3367881 -34.5215465  15.3635665  45.7479166 -34.3111294
  13.8860000  49.5920000 -33.8250000  15.0590000  49.9810000 -33.8480000
  12.8580000  50.4390000 -33.7780000  11.9037561  50.1141475 -33.8411574
  13.0980000  51.8810000 -33.7330000  13.5898514  52.2073440 -34.6493411
  11.7670000  52.6280000 -33.5990000  11.1528987  52.1273306 -32.8504621
  11.9649819  53.6514152 -33.2803710  11.0800000  52.6440000 -34.8400000
  10.2493939  53.1148179 -34.7398809  14.0620000  52.3010000 -32.6310000
  14.9470000  53.1260000 -32.9080000  13.9660000  51.7940000 -31.3940000
  12.8480000  51.0350000 -30.7970000  12.8795377  50.0051020 -31.1525498
  11.9030309  51.4916467 -31.0912893  13.1000000  51.1430000 -29.3270000
  12.7652363  50.2268460 -28.8404877  12.5393050  51.9897638 -28.9311294
  14.5630000  51.3470000 -29.1530000  15.0732742  50.3847063 -29.1116468
  14.7995303  51.9218678 -28.2576341  15.0060000  52.1190000 -30.4030000
  14.9831350  53.1968825 -30.2425482  16.3940000  51.7040000 -30.8370000
  17.3820000  52.3010000 -30.4000000  16.5090000  50.6840000 -31.6810000
  15.6986836  50.1793211 -32.0108271  17.8260000  50.2350000 -32.1140000
  18.5194764  50.2246470 -31.2731180  17.7170000  48.8230000 -32.6720000
  16.8084762  48.3945059 -32.2488256  17.5991815  48.9308881 -33.7502296
  18.8870000  47.9100000 -32.3820000  19.7896266  48.3153713 -32.8392090
  19.0810000  47.8100000 -30.8910000  18.1788923  47.4042452 -30.4331096
  19.9236922  47.1525971 -30.6770091  19.2809432  48.8007214 -30.4828404
  18.5400000  46.5800000 -32.9660000  18.3833060  46.6837672 -34.0396754
  19.3547486  45.8790892 -32.7843132  17.6283240  46.2050517 -32.5008554
  18.3990000  51.1830000 -33.1520000  19.5870000  51.5060000 -33.1230000
  17.5500000  51.6470000 -34.0640000  16.6021015  51.2985594 -34.0773002
  17.9510000  52.5900000 -35.0920000  18.8775638  52.2783125 -35.5741095
  16.8350000  52.6900000 -36.1440000  15.9616453  53.1461191 -35.6778377
  17.2630000  53.5200000 -37.3300000  18.1360886  53.0642233 -37.7969952
  16.4487117  53.5685845 -38.0529626  17.5136910  54.5273704 -36.9976476
  16.4370000  51.2940000 -36.6100000  15.8728149  50.8387463 -35.7960344
  15.7859510  51.4238060 -37.4745144  17.6070000  50.3890000 -36.9860000
  18.2582881  50.2583427 -36.1217938  17.2280789  49.4179942 -37.3048507
  18.1714259  50.8434040 -37.8002728  18.2700000  53.9430000 -34.4820000
  19.1310000  54.6780000 -34.9940000  17.5830000  54.3100000 -33.4000000
  16.8054944  53.7707510 -33.0467368  17.9160000  55.5610000 -32.7320000
  17.8981149  56.3748665 -33.4568452  16.9040000  55.8640000 -31.6350000
  16.9167450  55.0622517 -30.8966659  17.1623148  56.8063038 -31.1518466
  15.9076030  55.9406148 -32.0702269  19.3230000  55.4950000 -32.1650000
  20.1660000  56.3460000 -32.4630000  19.6050000  54.4630000 -31.3700000
  18.8822669  53.8222319 -31.0747501  20.9530000  54.2680000 -30.8550000
  21.2170603  55.0706297 -30.1664095  21.0170000  52.9400000 -30.1040000
  20.7020933  52.1456942 -30.7807653  22.0483776  52.7671082 -29.7966424
  20.1300000  52.9470000 -28.8950000  20.4711723  53.7541320 -28.2467406
  19.1190846  53.1623207 -29.2411015  20.1320000  51.6470000 -28.1240000
  20.9670000  50.7600000 -28.4090000  19.2860000  51.5140000 -27.2170000
  21.9890000  54.3090000 -31.9700000  23.0820000  54.8590000 -31.8010000
  21.6560000  53.7470000 -33.1260000  20.7546552  53.3087456 -33.2509399
  22.6150000  53.6810000 -34.2230000  23.5968775  53.3809148 -33.8569881
  22.1340000  52.6440000 -35.2370000  22.3060071  51.6775735 -34.7631513
  21.0618657  52.8141621 -35.3353517  22.7700000  52.6540000 -36.6000000
  22.8786063  53.6788137 -36.9550526  23.7498799  52.1782921 -36.5595104
  21.8730000  51.8830000 -37.5490000  21.7342887  50.8746225 -37.1590859
  20.9076856  52.3860428 -37.6057062  22.4290000  51.7920000 -38.8860000
  23.0807912  51.0437694 -39.0741981  22.1270000  52.6310000 -39.8690000
  21.2530000  53.6260000 -39.6520000  20.8289148  53.7319110 -38.7414866
  21.0232894  54.2643958 -40.4001868  22.7050000  52.4700000 -41.0620000
  23.3621141  51.7162056 -41.2037571  22.4824048  53.1027615 -41.8170914
  22.8050000  55.0500000 -34.8590000  23.9420000  55.4620000 -35.1230000
  21.7000000  55.7670000 -35.1090000  20.7865106  55.3583596 -34.9724368
  21.7780000  57.1410000 -35.6050000  22.1849921  57.1484792 -36.6161383
  20.3850000  57.7730000 -35.6340000  19.6774985  56.9829622 -35.8857560
  20.1763688  58.1401913 -34.6291400  20.2470000  58.9010000 -36.6180000
  19.2327695  59.2864456 -36.5137458  20.9611018  59.6985487 -36.4128809
  20.4500000  58.3940000 -38.0250000  19.6650000  57.5280000 -38.4580000
  21.4180000  58.8090000 -38.6890000  22.6880000  57.9830000 -34.7330000
  23.5110000  58.7590000 -35.2330000  22.5380000  57.8470000 -33.4170000
  21.8227750  57.2421425 -33.0392435  23.3480000  58.6200000 -32.4890000
  23.1853073  59.6812357 -32.6771731  22.9260000  58.3080000 -31.0520000
  23.0915713  57.2506044 -30.8456008  23.5163721  58.9093853 -30.3606992
  21.8689563  58.5413946 -30.9243884  24.8360000  58.3510000 -32.6950000
  25.6500000  59.2770000 -32.6740000  25.2150000  57.0980000 -32.9170000
  24.5646140  56.3281795 -32.9838857  26.6360000  56.8060000 -32.9790000
  27.1633743  57.3209844 -32.1760264  26.8540000  55.3050000 -32.8210000
  26.3324619  54.7968910 -33.6321242  27.9229603  55.1054037 -32.8957347
  26.3410000  54.7990000 -31.5010000  26.7833844  55.3887760 -30.6981543
  25.2567152  54.9076242 -31.4759144  26.7630000  53.0850000 -31.2690000
  25.6130000  52.3620000 -32.4140000  25.8088345  52.7434642 -33.4161142
  25.7278932  51.2780811 -32.4095149  24.5956990  52.6202376 -32.1198685
  27.2880000  57.3170000 -34.2540000  28.5210000  57.3100000 -34.3360000
  26.5040000  57.7760000 -35.2310000  25.4966084  57.7510260 -35.1628983
  27.1010000  58.2850000 -36.4590000  27.8382871  57.5750962 -36.8338913
  26.0310000  58.4860000 -37.5270000  25.4248865  59.3377721 -37.2184388
  26.5462934  58.7253635 -38.4572031  25.1360000  57.2800000 -37.7410000
  25.5816290  56.4298478 -37.2245149  24.1609284  57.4985713 -37.3056104
  24.9690000  56.9460000 -39.2170000  25.9515189  56.9912982 -39.6867912
  24.5776472  55.9314109 -39.2915077  24.0350000  57.8960000 -39.9160000
  23.0740501  57.8923306 -39.4015464  24.4596605  58.8993742 -39.8843340
  23.8410000  57.4860000 -41.3280000  23.4471062  56.5564443 -41.3575587
  23.2125240  58.1326044 -41.7829952  24.7312589  57.4897471 -41.8049949
  27.8410000  59.5940000 -36.2210000  28.7640000  59.9280000 -36.9770000
  27.4650000  60.3290000 -35.1710000  26.7450536  59.9520645 -34.5712533
  27.9840000  61.6590000 -34.8760000  28.7035465  61.9581626 -35.6381377
  26.8500000  62.6620000 -34.8610000  26.3326475  62.6113028 -33.9029419
  27.2505370  63.6655491 -35.0043856  25.9480000  62.3660000 -35.8960000
  25.2292948  63.0023643 -35.8858408  28.7430000  61.7040000 -33.5520000
  28.6220000  62.6450000 -32.7750000  29.5390000  60.6860000 -33.2690000
  29.5533681  59.8593482 -33.8491205  30.3670000  60.7060000 -32.0830000
  30.7610398  61.7119970 -31.9387717  29.5820000  60.3070000 -30.8380000
  28.8379130  61.0750890 -30.6271136  29.0803934  59.3574548 -31.0246945
  30.4490000  60.1720000 -29.7260000  29.9398004  59.9209260 -28.9518699
  31.5450000  59.7750000 -32.3120000  31.5720000  58.9890000 -33.2660000
  32.5360000  59.8990000 -31.4390000  32.4682114  60.6122931 -30.7271594
  33.7280000  59.0800000 -31.4780000  33.6296283  58.3373334 -32.2697503
  34.9740000  59.9200000 -31.7490000  35.0680237  60.6199493 -30.9187412
  35.8220378  59.2352317 -31.7440621  34.9520000  60.6900000 -33.0610000
  34.5799803  60.0183009 -33.8346423  34.2695280  61.5330929 -32.9536430
  36.3370000  61.2030000 -33.4550000  37.3650000  60.5780000 -33.0600000
  36.3860000  62.2430000 -34.1580000  33.8310000  58.3760000 -30.1430000
  33.7050000  59.0080000 -29.0900000  34.0260000  57.0710000 -30.1860000
  34.1684637  56.6073838 -31.0719252  34.0010000  56.2600000 -28.9800000
  33.3748154  56.7418684 -28.2291373  33.4370000  54.8710000 -29.2670000
  32.3713232  55.0508881 -29.4086773  33.8496341  54.4102187 -30.1645042
  33.6410000  53.9390000 -28.0780000  34.5000540  54.2726955 -27.4959568
  32.4020000  53.9590000 -27.2060000  31.5425521  53.6249623 -27.7872633
  32.5452805  53.2932607 -26.3549050  32.2256052  54.9731858 -26.8476532
  34.0450000  52.5210000 -28.4970000  34.9810770  52.5590165 -29.0541481
  34.1761743  51.9026686 -27.6089905  33.2654473  52.0915225 -29.1262421
  35.4220000  56.1810000 -28.4570000  36.2970000  55.5990000 -29.1050000
  35.6710000  56.7810000 -27.3060000  35.0040183  57.4004308 -26.8683469
  36.9670000  56.6050000 -26.6720000  37.7038851  56.3579305 -27.4362357
  37.4230000  57.8770000 -25.9440000  38.4832963  57.7864773 -25.7080386
  37.1990000  59.1130000 -26.8180000  36.1387936  59.2044534 -27.0540050
  37.5293663  60.0025759 -26.2817053  37.7690594  59.0136114 -27.7417179
  36.6770000  58.0380000 -24.7350000  36.9662927  58.8346648 -24.2841837
  36.8530000  55.4210000 -25.7230000  35.8850000  55.3280000 -24.9590000
  37.8150000  54.5010000 -25.8100000  38.6020694  54.6679612 -26.4205284
  37.7530000  53.2340000 -25.0940000  37.3027461  53.3933662 -24.1142179
  36.9090000  52.1990000 -25.8610000  35.8960363  52.5180897 -25.6156727
  37.0763782  52.3143178 -26.9318811  37.0890000  50.7290000 -25.4720000
  38.1520481  50.4912335 -25.5106863  36.5550000  50.4460000 -24.0690000
  35.4918292  50.6831053 -24.0296593  36.7009061  49.3926335 -23.8297694
  37.0907010  51.0600480 -23.3450733  36.4630000  49.8250000 -26.5000000
  36.9351906  49.9928922 -27.4679606  36.6026600  48.7854039 -26.2036280
  35.3972078  50.0411719 -26.5738625  39.1690000  52.7180000 -24.8760000
  40.0390000  52.9040000 -25.7280000  39.3820000  52.0510000 -23.7430000
  38.5843664  51.7719259 -23.1898295  40.7150000  51.7650000 -23.2270000
  41.4485864  52.4148398 -23.7041356  40.7530000  52.0100000 -21.7200000
  40.7169492  53.0904071 -21.5802860  39.8486152  51.5607289 -21.3097031
  41.9620000  51.4500000 -21.0060000  41.7323563  50.4263602 -20.7101519
  42.8043011  51.4474244 -21.6978247  42.3200000  52.2620000 -19.7780000
  41.6610000  53.3050000 -19.5200000  43.2710000  51.8510000 -19.0800000
  41.1220000  50.3340000 -23.5700000  40.6440000  49.3720000 -22.9580000
  42.0460000  50.2100000 -24.5140000  42.4085850  51.0615606 -24.9183216
  42.5360000  48.9370000 -25.0290000  41.9792962  48.1105133 -24.5872989
  42.3500000  48.8960000 -26.5450000  41.8228203  49.8106179 -26.8163944
  43.3495947  48.9108795 -26.9793836  41.5990000  47.7160000 -27.0660000
  42.3046110  46.9005655 -27.2249986  40.8627883  47.4183320 -26.3193487
  40.7580000  48.0800000 -28.6130000  42.1240000  48.3380000 -29.7470000
  42.7302146  47.4335740 -29.7981515  41.7349887  48.5705817 -30.7383005
  42.7379289  49.1668243 -29.3945192  44.0070000  48.7980000 -24.6330000
  44.8540000  49.5960000 -25.0620000  44.3050000  47.7980000 -23.8010000
  43.5599527  47.2242704 -23.4324378  45.6710000  47.4970000 -23.3990000
  45.6213195  46.5786765 -22.8139249  46.2256948  47.3116117 -24.3188066
  46.3950000  48.5590000 -22.5910000  47.6260000  48.5960000 -22.6080000
  45.6700000  49.4240000 -21.8740000  44.6699255  49.2879411 -21.8360751
  46.2400000  50.5450000 -21.1490000  45.7714993  50.5747419 -20.1652715
  47.3078201  50.3572062 -21.0367814  46.0430000  51.8900000 -21.8320000
  45.7770000  52.8980000 -21.1580000  46.1230000  51.9170000 -23.1540000
  46.1966589  51.0434320 -23.6555503  46.1530000  53.1580000 -23.9190000
  46.3962189  54.0201569 -23.2980095  47.1490000  53.0700000 -25.0850000
  46.6835982  52.5286715 -25.9086898  47.5470000  54.4670000 -25.5550000
  48.0129235  55.0088121 -24.7319231  48.2529994  54.3854570 -26.3814480
  46.6596312  55.0055297 -25.8876583  48.3600000  52.2290000 -24.6860000
  48.0109807  51.2100349 -24.5186784  49.0577120  52.2406246 -25.5233544
  49.0540000  52.7310000 -23.4480000  48.3569995  52.7192270 -22.6100552
  49.9044765  52.0879483 -23.2215635  49.4037289  53.7498182 -23.6147306
  44.7430000  53.4360000 -24.4280000  44.1810000  52.5950000 -25.1470000
  44.1410000  54.5650000 -24.0780000  44.5280000  55.4490000 -22.9740000
  45.3487667  56.0934247 -23.2888954  44.8430577  54.8523754 -22.1179178
  43.2670000  56.2130000 -22.7050000  43.5186166  57.2079181 -22.3376771
  42.6789100  55.6866694 -21.9531838  42.5410000  56.2800000 -23.9910000
  42.9598870  57.0881768 -24.5905690  41.4635758  56.4172152 -23.8991919
  42.8410000  54.9340000 -24.6510000  42.1178485  54.1618831 -24.3883486
  42.9110000  55.0680000 -26.1620000  43.7800000  55.7480000 -26.7000000
  41.9640000  54.4350000 -26.8460000  41.3073040  53.8513421 -26.3478101
  41.8580000  54.5110000 -28.2950000  42.6613592  55.1292003 -28.6956764
  41.9670000  53.1190000 -28.9010000  40.9564225  52.7334132 -29.0357408
  42.4513170  53.2148682 -29.8727749  42.7630000  52.1600000 -28.0310000
  42.4704933  52.3235112 -26.9937899  42.5034395  51.1430438 -28.3251606
  44.2670000  52.3610000 -28.1720000  44.5441609  52.3121833 -29.2250421
  44.5439972  53.3350232 -27.7687002  45.0030000  51.3260000 -27.4450000
  44.6338486  51.0454552 -26.5477145  46.1090000  50.7310000 -27.8920000
  46.7070000  49.7940000 -27.1640000  46.3211865  49.5320350 -26.2681081
  47.5446136  49.3480467 -27.5098739  46.6130000  51.0650000 -29.0750000
  46.1556791  51.7708217 -29.6342615  47.4511537  50.6115561 -29.4096427
  40.5360000  55.1650000 -28.6810000  39.5750000  55.1800000 -27.9040000
  40.4840000  55.7280000 -29.8780000  41.3119966  55.8348351 -30.4464252
  39.2370000  56.2890000 -30.3660000  38.4350287  56.0880617 -29.6556726
  39.3210000  57.8130000 -30.5970000  38.3676489  58.1665709 -30.9896954
  39.6270000  58.5270000 -29.2960000  40.5804967  58.1742645 -28.9029080
  39.6831600  59.6007782 -29.4747333  38.8377761  58.3202985 -28.5731579
  40.3290000  58.1270000 -31.5660000  40.3644116  59.0777284 -31.6943035
  38.8200000  55.5670000 -31.6390000  39.6590000  55.2570000 -32.4990000
  37.5110000  55.2890000 -31.7270000  36.9260715  55.5948642 -30.9625360
  36.8860000  54.5710000 -32.8310000  37.6181164  54.3920685 -33.6184568
  36.3540000  53.2440000 -32.3580000  35.5967888  53.4447676 -31.6000932
  35.9123311  52.6619815 -33.1668777  37.3860000  52.3670000 -31.7120000
  38.2270000  51.5770000 -32.4870000  38.1479716  51.6295457 -33.5728607
  39.1520000  50.7350000 -31.9020000  39.8112125  50.1294331 -32.5239553
  39.2410000  50.6610000 -30.5230000  39.9693058  49.9992131 -30.0542690
  38.3990000  51.4330000 -29.7370000  38.4619542  51.3725356 -28.6505006
  37.4790000  52.2800000 -30.3310000  36.8183173  52.8871664 -29.7121727
  35.7440000  55.3890000 -33.4120000  34.9160000  55.9190000 -32.6690000
  35.7230000  55.5160000 -34.7310000  36.5437898  55.2352260 -35.2482712
  34.5890000  56.0410000 -35.4710000  33.8998673  56.5211782 -34.7762883
  35.0230000  57.0720000 -36.5230000  35.7073018  56.5397246 -37.1836915
  34.1149776  57.3262721 -37.0697551  35.6890000  58.3480000 -36.0240000
  35.0714050  58.7893685 -35.2417781  36.6695148  58.1017809 -35.6164845
  35.8520000  59.3590000 -37.1840000  36.9029091  59.3835232 -37.4722494
  35.2526792  59.0137230 -38.0264356  35.3970000  60.7780000 -36.7760000
  34.4672055  60.6532276 -36.2210094  36.1675918  61.1665946 -36.1102060
  35.1800000  61.7400000 -37.9030000  34.4656819  61.3803106 -38.5198248
  34.8864131  62.6323719 -37.5320833  36.0415608  61.8560857 -38.4171364
  33.9120000  54.8610000 -36.1570000  34.5670000  53.8630000 -36.4710000
  32.6040000  54.9730000 -36.4080000  32.1192316  55.8372948 -36.2128243
  31.8300000  53.8450000 -36.9120000  32.4882186  53.0014349 -37.1199551
  30.8120000  53.4200000 -35.8800000  30.2986534  54.3070073 -35.5087957
  30.0828068  52.7294642 -36.3037188  31.4030000  52.7400000 -34.6910000
  31.7710000  51.4080000 -34.7540000  31.6374045  50.8732275 -35.6943566
  32.3030000  50.7490000 -33.6470000  32.5851458  49.6984245 -33.7161785
  32.4700000  51.4240000 -32.4740000  32.8902078  50.9210299 -31.6030543
  32.1000000  52.7640000 -32.3930000  32.2335131  53.3036068 -31.4553973
  31.5630000  53.4140000 -33.4990000  31.2667447  54.4603888 -33.4254934
  31.1280000  54.1610000 -38.2320000  30.4850000  55.2050000 -38.3780000
  31.2510000  53.2470000 -39.1940000  31.9234969  52.5028403 -39.0753677
  30.4620000  53.2780000 -40.4230000  29.8124544  54.1532594 -40.4335176
  31.3280000  53.2720000 -41.6810000  32.0864228  52.4927557 -41.6056767
  30.4410000  52.9990000 -42.8790000  29.6825593  53.7781363 -42.9552559
  31.0460838  52.9917062 -43.7855987  29.9554533  52.0305178 -42.7590595
  32.0800000  54.5820000 -41.8260000  31.4288628  55.2904847 -42.3380259
  32.3063884  54.9540207 -40.8267761  33.3740000  54.4220000 -42.6130000
  33.1483616  54.0504277 -43.6125605  33.8752004  55.3869309 -42.6891945
  34.0258865  53.7139614 -42.1013114  29.5550000  52.0630000 -40.4580000
  30.0300000  50.9210000 -40.3930000  28.2610000  52.3080000 -40.6180000
  27.9590532  53.2658776 -40.7247610  27.2490000  51.2650000 -40.5950000
  27.6730235  50.3400524 -40.2041352  26.0920000  51.6860000 -39.7000000
  25.6864806  52.6464805 -40.0180103  25.3043567  50.9329902 -39.7263480
  26.4870000  51.8420000 -38.2660000  26.9710000  50.7530000 -37.5470000
  27.0626702  49.7860760 -38.0417267  27.3350000  50.8880000 -36.2150000
  27.7041381  50.0305188 -35.6523600  27.2260000  52.1280000 -35.5990000
  27.5148205  52.2473200 -34.5547561  26.7480000  53.2170000 -36.3160000
  26.6592913  54.1901231 -35.8330275  26.3860000  53.0680000 -37.6370000
  26.0140794  53.9240019 -38.2000593  26.7630000  50.9720000 -42.0050000
  26.2940000  51.8750000 -42.7080000  26.8700000  49.7090000 -42.4090000
  27.3550010  49.0468958 -41.8203647  26.3850000  49.2530000 -43.7140000
  25.8974290  50.0736329 -44.2402465  27.5490000  48.7620000 -44.5540000
  28.1065917  48.0392067 -43.9583823  27.1379271  48.2669995 -45.4338259
  28.4800000  49.8840000 -44.9920000  27.9170657  50.5703753 -45.6245304
  28.8253918  50.4108444 -44.1024824  29.6800000  49.3510000 -45.7640000
  30.3146481  50.1981132 -46.0242307  30.2280617  48.6752564 -45.1074192
  29.3300000  48.6310000 -46.9930000  29.4305113  47.6260675 -46.9826348
  28.9100000  49.2170000 -48.1150000  28.7540000  50.5510000 -48.1730000
  28.9562577  51.1158142 -47.3604873  28.4352475  50.9823508 -49.0288230
  28.6280000  48.4610000 -49.1730000  28.7341361  47.4582107 -49.1160010
  28.3091029  48.8934027 -50.0282375  25.3100000  48.1710000 -43.5460000
  25.6160000  47.0110000 -43.2450000  24.0500000  48.5500000 -43.7510000
  23.8217591  49.5203858 -43.9133478  22.9750000  47.5850000 -43.7470000
  23.1752611  46.8463981 -42.9708158  22.0437053  48.1046553 -43.5217270
  22.8340000  46.8750000 -45.0790000  22.1940000  47.3870000 -46.0140000
  23.4240000  45.6810000 -45.1700000  23.9238187  45.3050302 -44.3769506
  23.4110000  44.9130000 -46.4030000  22.7203507  45.3471191 -47.1259407
  24.8090000  44.8630000 -47.0300000  24.7982095  44.1594896 -47.8625004
  25.2190000  46.2380000 -47.5340000  25.2304693  46.9419979 -46.7019213
  26.2139903  46.1818964 -47.9755267  24.5068207  46.5770293 -48.2863033
  25.7560000  44.3880000 -46.0600000  26.6305141  44.3575524 -46.4548397
  22.9230000  43.4910000 -46.2480000  22.5880000  42.8740000 -47.2610000
  22.8810000  42.9350000 -45.0420000  23.2120804  43.4124849 -44.2158685
  22.3420000  41.5930000 -44.8930000  22.6554125  40.9988931 -45.7514339
  22.7507747  41.1571148 -43.9814043  20.8230000  41.5800000 -44.8100000
  20.2610000  41.1140000 -43.8130000  20.1520000  42.1060000 -45.8340000
  20.6841495  42.4935262 -46.5999893  18.7020000  42.1480000 -45.9120000
  18.2891786  41.5979386 -45.0663581  18.1570000  43.5680000 -45.8810000
  18.5865171  44.1078430 -46.7249099  17.0830855  43.4562894 -46.0304272
  18.4090000  44.3370000 -44.6140000  19.6880000  44.6860000 -44.2460000
  20.5151885  44.3785184 -44.8857764  19.9340000  45.4020000 -43.1070000
  20.9593789  45.6597513 -42.8419262  18.9020000  45.7990000 -42.3070000
  19.1940000  46.5190000 -41.1670000  20.1345410  46.6721628 -41.0507094
  17.6030000  45.4730000 -42.6430000  16.7717102  45.7771942 -42.0069782
  17.3610000  44.7510000 -43.8030000  16.3383933  44.5024507 -44.0868993
  18.2720000  41.5040000 -47.2130000  18.8680000  41.7620000 -48.2590000
  17.2380000  40.6760000 -47.1510000  16.8616543  40.2988656 -46.2929599
  16.7090000  40.1870000 -48.4050000  17.5215653  40.0244127 -49.1130976
  15.9740000  38.8570000 -48.1880000  15.7225837  38.4585380 -49.1709126
  16.6749792  38.1851943 -47.6926160  14.6850000  38.9790000 -47.3350000
  14.0830000  40.0760000 -47.2400000  14.2710000  37.9460000 -46.7570000
  15.8490000  41.2870000 -49.0360000  15.4840000  42.2690000 -48.3860000
  15.5570000  41.1530000 -50.3320000  15.8591777  40.3570972 -50.8754397
  14.8350000  42.2210000 -51.0130000  15.3738374  43.1619127 -50.9014803
  14.7030000  41.9090000 -52.4970000  15.7104562  41.9545320 -52.9105916
  14.3294037  40.8871761 -52.5633454  13.7910000  42.8330000 -53.2840000
  12.7552391  42.5506933 -53.0953124  13.9622834  43.8469753 -52.9225927
  14.0690000  42.7740000 -54.7840000  13.6390000  43.6690000 -55.5320000
  14.7410000  41.8300000 -55.2260000  13.4750000  42.4320000 -50.3840000
  12.9840000  43.5590000 -50.3220000  12.8590000  41.3660000 -49.8810000
  13.2369454  40.4335289 -49.9690585  11.5670000  41.5280000 -49.2330000
  10.8456081  41.9422841 -49.9373164  11.0520000  40.1750000 -48.7460000
  11.1975003  39.4581092 -49.5540819  11.6575926  39.8826094 -47.8881740
   9.5870000  40.1970000 -48.3470000   9.4303167  41.0277602 -47.6589675
   8.9882908  40.3514859 -49.2446544   9.1720000  38.9090000 -47.6820000
   8.3962810  38.4470121 -48.2926768  10.0413949  38.2527412 -47.6422982
   8.6430000  39.1330000 -46.2770000   9.4671808  39.3582061 -45.6001627
   7.9340575  39.9609417 -46.2734974   7.9510000  37.8800000 -45.8230000
   8.6078572  37.1127773 -45.8257620   7.5927442  38.0131398 -44.8881061
   7.1869946  37.6713773 -46.4497946  11.6620000  42.5150000 -48.0780000
  10.8450000  43.4390000 -47.9610000  12.6780000  42.3420000 -47.2290000
  13.3602072  41.6152208 -47.3917410  12.8130000  43.1600000 -46.0320000
  11.8446686  43.2680017 -45.5433599  13.7760000  42.5070000 -45.0600000
  13.5101746  41.4518191 -44.9965229  14.7849703  42.6034819 -45.4609617
  13.7210000  43.1240000 -43.6810000  14.1332380  44.1326018 -43.7107165
  12.2870000  43.1820000 -43.2320000  11.8741863  42.1736554 -43.2015886
  12.2347073  43.6255933 -42.2377208  11.7111987  43.7888519 -43.9307732
  14.5330000  42.2900000 -42.7260000  15.5679559  42.2516408 -43.0658444
  14.4939601  42.7340987 -41.7313375  14.1257670  41.2796281 -42.6884640
  13.2980000  44.5550000 -46.3640000  12.8740000  45.5340000 -45.7400000
  14.2190000  44.6640000 -47.3180000  14.6777067  43.8506552 -47.7029127
  14.6470000  45.9820000 -47.7770000  15.1367637  46.5546269 -46.9893902
  15.6140000  45.8530000 -48.9640000  15.2464596  45.0744884 -49.6325304
  15.7190000  47.1630000 -49.7230000  16.0869432  47.9419466 -49.0551969
  16.4093737  47.0452579 -50.5582373  14.7362017  47.4440103 -50.1014736
  16.9400000  45.4070000 -48.4580000  16.8344503  44.4420627 -47.9621600
  17.6347268  45.3120212 -49.2925258  17.3237367  46.1396761 -47.7480474
  13.4280000  46.8150000 -48.1320000  13.1560000  47.8400000 -47.5030000
  12.6450000  46.3380000 -49.1050000  12.8836357  45.4781133 -49.5780192
  11.4580000  47.0590000 -49.5410000  11.7443247  48.0034101 -50.0038249
  10.6840000  46.2260000 -50.5670000  10.2804987  45.3700931 -50.0259738
   9.8642068  46.8536517 -50.9164174  11.4910000  45.7370000 -51.7590000
  11.9991626  46.5859095 -52.2164105  12.2304754  45.0138937 -51.4149136
  10.5840000  45.0840000 -52.7780000  11.0773102  44.1923375 -53.1648876
   9.6535100  44.7995524 -52.2866983  10.2720000  45.9650000 -53.8930000
   9.5999327  46.7048544 -53.7479467  10.8280000  45.8400000 -55.0930000
  11.6940000  44.8660000 -55.3060000  11.9251488  44.2274596 -54.5583795
  12.1211617  44.7641337 -56.2155360  10.5330000  46.6740000 -56.0790000
   9.8729984  47.4224096 -55.9228555  10.9694383  46.5576242 -56.9823698
  10.5460000  47.4050000 -48.3740000   9.9230000  48.4690000 -48.3600000
  10.4710000  46.5300000 -47.3780000  11.0015214  45.6706044 -47.3872557
   9.5610000  46.7650000 -46.2720000   8.5735606  47.0329486 -46.6478538
   9.4350000  45.4960000 -45.4290000   9.8622223  44.6867050 -46.0211333
  10.0430095  45.6538627 -44.5382117   7.9850000  45.1200000 -45.0070000
   7.7159532  45.7672684 -44.1722795   7.3144282  45.3108079 -45.8448693
   7.8600000  43.6470000 -44.5750000   8.8990000  42.9890000 -44.2520000
   6.7130000  43.1420000 -44.5800000  10.0260000  47.9350000 -45.4260000
   9.2180000  48.8000000 -45.0580000  11.3280000  47.9830000 -45.1200000
  11.9451112  47.2686469 -45.4791277  11.8870000  48.9970000 -44.2260000
  11.1421342  49.3248112 -43.5008696  13.1150000  48.4570000 -43.4620000
  13.4482227  49.2091791 -42.7469556  12.7630000  47.1990000 -42.7340000
  12.4301023  46.4461429 -43.4484832  13.6388795  46.8303353 -42.2001256
  11.9630899  47.4023053 -42.0220222  14.2630000  48.1900000 -44.3910000
  14.5472945  49.1146875 -44.8932268  15.1114441  47.8108565 -43.8213575
  13.9652462  47.4502573 -45.1341179  12.2830000  50.2880000 -44.9340000
  12.6570000  51.2630000 -44.2600000  12.2190000  50.3400000 -46.2620000
  12.0032351  49.5094934 -46.7947322  12.5410000  51.5590000 -46.9860000
  12.8056628  52.3481916 -46.2822747  13.7190000  51.3260000 -47.9210000
  13.4834215  50.4646641 -48.5460620  13.8270145  52.2108238 -48.5483116
  15.0300000  51.0690000 -47.1710000  14.7986038  50.8643402 -46.1256910
  15.4818518  50.1856530 -47.6222507  16.0070000  52.2400000 -47.2560000
  17.2460000  52.0260000 -47.1800000  15.5210000  53.3770000 -47.4230000
  11.3390000  52.0950000 -47.7480000  11.4890000  52.7300000 -48.7860000
  10.1390000  51.8380000 -47.2480000  10.0473638  51.2701088 -46.4178183
   8.9330000  52.3540000 -47.8640000   8.1137178  52.0122628 -47.2314721
   9.0137537  53.4390237 -47.7984125   8.6410000  51.9660000 -49.3040000
   7.6810000  52.4830000 -49.8850000   9.4220000  51.0710000 -49.9030000
  10.2214543  50.6723583 -49.4317707   9.1620000  50.6720000 -51.2790000
   8.8689150  51.5448202 -51.8624255  10.3980000  50.0590000 -51.9110000
  10.6566535  49.1883271 -51.3084004  10.1532171  49.7394251 -52.9239428
  11.5760000  51.0120000 -51.9530000  11.2828537  51.9682092 -51.5196063
  12.7310000  50.4330000 -51.1630000  13.0250292  49.4769344 -51.5961100
  13.5755728  51.1212715 -51.1958630  12.4249069  50.2834572 -50.1276042
  11.9720000  51.2380000 -53.3860000  11.1322427  51.6677307 -53.9321123
  12.8191625  51.9227179 -53.4257286  12.2520375  50.2875972 -53.8403264
   8.0130000  49.6730000 -51.3650000   7.6070000  49.0380000 -50.3770000
   7.4840000  49.5430000 -52.5780000   7.7950144  50.1232902 -53.3439195
   6.3860000  48.6210000 -52.8140000   5.6433795  48.7100201 -52.0211007
   5.7190000  48.9450000 -54.1440000   6.4851201  49.0663197 -54.9097942
   5.0549954  48.1263688 -54.4215623   4.9200000  50.2230000 -54.0240000
   4.1300352  50.0564222 -53.2916693   5.6019718  50.9886802 -53.6542061
   4.3110000  50.6790000 -55.3240000   3.5350000  51.6790000 -55.3120000
   4.6210000  50.0430000 -56.3540000   6.8980000  47.1920000 -52.7590000
   8.1070000  46.9460000 -52.6530000   5.9700000  46.2370000 -52.8100000
   4.9863522  46.4585894 -52.8686040   6.3600000  44.8310000 -52.7350000
   7.1533724  44.7198471 -51.9958758   5.1820000  43.9740000 -52.3140000
   4.3827329  44.0676903 -53.0491831   5.4949524  42.9319104 -52.2491137
   4.8203365  44.3054923 -51.3406493   6.9010000  44.3420000 -54.0730000
   6.7230000  44.9730000 -55.1190000   7.5550000  43.1830000 -54.0380000
   7.5425034  42.5810006 -53.2271117   8.3760000  42.7870000 -55.1840000
   9.0260790  43.6121049 -55.4750297   9.2350000  41.5970000 -54.8330000
   8.6592210  40.6852587 -54.9920772  10.1119405  41.5898903 -55.4803213
   9.6470000  41.6640000 -53.4830000  10.1916229  40.9009096 -53.2764117
   7.5610000  42.4660000 -56.4230000   8.1400000  42.2780000 -57.4980000
   6.2360000  42.4010000 -56.3040000   5.7759151  42.4514834 -55.4062959
   5.4190000  42.2540000 -57.4840000   5.8014453  41.4046209 -58.0500299
   4.3998380  42.0443122 -57.1592860   5.4100000  43.4680000 -58.3700000
   5.2240000  43.3260000 -59.5820000   5.6640000  44.6460000 -57.7950000
   6.0607695  44.6693322 -56.8664910   5.3390000  45.9080000 -58.4370000
   4.2756326  45.9454369 -58.6735322   5.6710000  47.0650000 -57.5020000
   4.8487628  47.1850909 -56.7965899   6.5826343  46.8179564 -56.9579482
   5.8610000  48.2770000 -58.2180000   6.0679419  48.9835400 -57.6019025
   6.0810000  46.0650000 -59.7580000   7.0280000  45.3310000 -60.0600000
   5.6220000  47.0270000 -60.5670000   4.7185258  47.4515686 -60.4134575
   6.4010000  47.4550000 -61.7290000   6.6667322  46.5980079 -62.3479105
   5.6130000  48.4450000 -62.5800000   6.2987517  48.9797196 -63.2372053
   4.6010000  47.7170000 -63.4030000   3.9145646  47.1823753 -62.7464303
   4.0422821  48.4310586 -64.0080249   5.1066672  47.0056004 -64.0559264
   4.9410000  49.4360000 -61.6700000   5.6955384  49.9664130 -61.0891077
   4.3734056  50.1506099 -62.2660444   4.2663156  48.9102494 -60.9943610
   7.7310000  48.0920000 -61.3540000   8.6250000  48.1670000 -62.1930000
   7.8840000  48.5810000 -60.1300000   7.1320080  48.5573039 -59.4561708
   9.1220000  49.2500000 -59.7590000   9.6010460  49.6577535 -60.6491411
   8.8460000  50.3890000 -58.7910000   8.2854277  50.0160804 -57.9338017
   9.8124643  50.7659044 -58.4563511   8.0700000  51.5080000 -59.4530000
   8.6330000  52.2420000 -60.4950000   9.6494766  52.0096570 -60.8126341
   7.9320000  53.2410000 -61.1180000   8.3870006  53.8098353 -61.9288654
   6.6440000  53.5340000 -60.7050000   5.9360000  54.5450000 -61.3320000
   6.4331767  54.9716118 -62.0337246   6.0610000  52.8130000 -59.6780000
   5.0446205  53.0382291 -59.3549751   6.7720000  51.8060000 -59.0630000
   6.3158976  51.2302200 -58.2576752  10.0540000  48.1980000 -59.1950000
  10.1380000  47.9980000 -57.9880000  10.8000000  47.5470000 -60.0890000
  10.9187155  47.8922698 -61.0306978  11.3830000  46.2560000 -59.7480000
  10.6937014  45.7679944 -59.0589303  11.5180000  45.4130000 -61.0150000
  11.3181562  44.3653927 -60.7898739  10.5550000  45.8900000 -61.9850000
  10.7545031  46.9374858 -62.2109926  10.6355333  45.3001306 -62.8980549
   9.5488648  45.7920418 -61.5773295  12.8750000  45.5640000 -61.6660000
  12.9973331  46.6043806 -61.9672367  13.6384591  45.3066886 -60.9318198
  13.0180000  44.6700000 -62.8750000  12.2551153  44.9270457 -63.6098703
  14.0059865  44.8075231 -63.3143965  12.8962389  43.6293531 -62.5744534
  12.7040000  46.3900000 -59.0260000  13.0720000  45.5060000 -58.2470000
  13.4410000  47.4720000 -59.2520000  13.1656391  48.1589621 -59.9392842
  14.6990000  47.6630000 -58.5540000  15.1309687  46.6963112 -58.2951259
  15.6870000  48.4170000 -59.4430000  15.4608218  49.4829263 -59.4157136
  15.6042555  48.0546645 -60.4676786  17.4140000  48.2540000 -58.9850000
  14.4560000  48.4120000 -57.2420000  13.5350000  49.2330000 -57.1290000
  15.2430000  48.0560000 -56.2260000  15.7252273  47.1696465 -56.2699731
  15.3970000  48.8660000 -55.0280000  14.5524799  49.5451092 -54.9109710
  15.5000000  47.9890000 -53.7700000  15.5859479  48.6312135 -52.8934870
  14.2780000  47.1220000 -53.6380000  14.1916331  46.4791318 -54.5139914
  14.3639220  46.5059425 -52.7429080  13.3916338  47.7517413 -53.5613097
  16.6770000  47.1700000 -53.8280000  16.7289977  46.6280476 -53.0373141
  16.6170000  49.7630000 -55.1240000  16.9340000  50.4850000 -54.1710000
  17.3060000  49.7320000 -56.2600000  17.0320970  49.0887035 -56.9888663
  18.4860000  50.5480000 -56.4710000  18.7325376  51.0877769 -55.5566919
  19.6850000  49.6620000 -56.8580000  19.2580924  48.9866358 -57.5994394
  20.4054161  50.3222688 -57.3408518  20.3890000  48.8470000 -55.7720000
  20.6321637  49.5095315 -54.9413230  19.5180000  47.7340000 -55.2830000
  19.2747785  47.0707455 -56.1130817  20.0445667  47.1718910 -54.5117272
  18.5989208  48.1469982 -54.8672761  21.6800000  48.2950000 -56.2930000
  22.3290720  49.1152502 -56.5995853  22.1709342  47.7170364 -55.5100294
  21.4809562  47.6503814 -57.1491235  18.2750000  51.6210000 -57.5300000
  19.0570000  52.5750000 -57.5750000  17.2310000  51.5120000 -58.3520000
  16.6350079  50.6976814 -58.3098267  16.9830000  52.4940000 -59.3940000
  17.3478212  53.4714478 -59.0784032  17.7090000  52.0930000 -60.6820000
  18.7522849  51.8709853 -60.4575760  17.6585377  52.9128961 -61.3984663
  17.0630000  50.6350000 -61.5090000  15.4720000  52.6610000 -59.5800000
  14.6720000  51.9730000 -58.9470000  15.0830000  53.6190000 -60.4300000
  15.7951461  54.1493069 -60.9113749  13.6870000  53.9620000 -60.6680000
  13.0880178  53.6527358 -59.8114516  13.5080000  55.4760000 -60.8720000
  14.1888883  55.7787136 -61.6675217  12.4798968  55.6550957 -61.1866880
  13.8030000  56.2870000 -59.6150000  13.7130000  55.7070000 -58.5190000
  14.1150000  57.5000000 -59.7130000  13.1270000  53.2440000 -61.8730000
  12.0350000  53.5950000 -62.3430000  13.8590000  52.2700000 -62.4040000
  14.7443744  51.9853020 -62.0100983  13.4000000  51.6110000 -63.6160000
  13.2270810  52.3789464 -64.3699605  14.4260000  50.6120000 -64.1610000
  15.3913827  51.1123937 -64.2367809  14.5520000  49.4170000 -63.2650000
  13.5870526  48.9157867 -63.1890961  15.2874155  48.7274253 -63.6794271
  14.8732875  49.7375518 -62.2739796  13.9890000  50.1540000 -65.4470000
  14.6261896  49.5269508 -65.7968558  12.0960000  50.8870000 -63.3550000
  11.7260000  50.5830000 -62.2120000  11.3980000  50.6160000 -64.4420000
  11.7013461  50.9791561 -65.3342994  10.1620000  49.8670000 -64.3910000
   9.8858381  49.6958713 -63.3505439   9.0460000  50.6520000 -65.0680000
   9.1030925  51.6901406 -64.7407314   9.1670000  50.5920000 -66.5520000
   9.1095263  49.5541361 -66.8800776   8.3563782  51.1615966 -67.0064790
  10.1237322  51.0163148 -66.8565012   7.8000000  50.0760000 -64.6930000
   7.0846767  50.5600497 -65.1120569  10.3680000  48.5030000 -65.0390000
  11.2870000  48.3060000 -65.8350000   9.5120000  47.5480000 -64.6660000
   8.7882540  47.7440022 -63.9893359   9.6460000  46.1800000 -65.1600000
  10.5779675  45.7422194 -64.8023914   8.4820000  45.3290000 -64.6560000
   8.7151373  45.0312709 -63.6336969   7.5932742  45.9600834 -64.6563723
   8.2250000  44.0970000 -65.4930000   7.1620107  44.1301279 -65.7318665
   8.8061817  44.2434008 -66.4034377   8.5740000  42.7130000 -64.8720000
   7.6171358  42.1948298 -64.8086785   9.1997534  42.2290344 -65.6218729
   9.2460000  42.6220000 -63.5680000  10.2409488  42.4497173 -63.5902474
   8.6530000  42.7760000 -62.3830000   9.3540000  42.6200000 -61.2550000
  10.3351250  42.3849124 -61.3021985   8.8991406  42.7379708 -60.3609723
   7.3620000  43.1170000 -62.3250000   6.8408764  43.2566420 -63.1788328
   6.9134371  43.2334893 -61.4276036   9.7370000  46.1310000 -66.6810000
  10.6310000  45.4780000 -67.2460000   8.8320000  46.8350000 -67.3630000
   8.0585784  47.2903823 -66.8998096   8.9010000  46.8990000 -68.8190000
   8.8862423  45.8947226 -69.2424481   7.7030000  47.6680000 -69.3510000
   6.8520103  47.0726899 -69.0200595   7.6967664  48.6280873 -68.8349636
   7.6070000  47.8990000 -70.8540000   8.2255667  48.7627255 -71.0978327
   8.0650000  46.7080000 -71.6620000   7.4465607  45.8439401 -71.4190348
   7.9734729  46.9323703 -72.7247236   9.1059734  46.4869278 -71.4261995
   6.1670000  48.2320000 -71.1830000   5.8691196  49.1311663 -70.6436794
   6.0688151  48.4026809 -72.2550676   5.5249875  47.4022085 -70.8874243
  10.2080000  47.5260000 -69.2930000  10.8310000  47.0310000 -70.2370000
  10.6490000  48.6080000 -68.6440000  10.1173098  49.0273440 -67.8946299
  11.8910000  49.2570000 -69.0600000  11.8346188  49.5144103 -70.1176674
  12.1280000  50.5410000 -68.2550000  11.5908672  50.4304778 -67.3129955
  13.1983082  50.6005645 -68.0575348  11.6630000  51.8320000 -68.9640000
  12.5162348  52.2446033 -69.5023769  10.8941319  51.5335893 -69.6766655
  11.0940000  52.8970000 -68.0130000  10.3440000  53.7820000 -68.4980000
  11.3790000  52.8410000 -66.7880000  13.0820000  48.3210000 -68.9250000
  13.9420000  48.2720000 -69.8100000  13.1510000  47.5690000 -67.8260000
  12.4429624  47.6189373 -67.1074679  14.2980000  46.6950000 -67.6070000
  15.2056443  47.2880887 -67.7189234  14.2650000  46.1140000 -66.1920000
  13.3662372  45.5099818 -66.0675512  15.1454634  45.4912288 -66.0337583
  14.2597550  46.9262828 -65.4651793  14.3540000  45.5740000 -68.6290000
  15.4280000  45.0000000 -68.8550000  13.2210000  45.2710000 -69.2620000
  12.3634351  45.7477550 -69.0224454  13.1690000  44.2230000 -70.2680000
  13.7866990  43.3774265 -69.9654235  11.7280000  43.7420000 -70.4290000
  11.7296010  42.6541949 -70.4981136  11.1583074  44.0489812 -69.5518951
  11.1340000  44.2870000 -71.5910000  10.2313104  43.9694585 -71.6679328
  13.7120000  44.6810000 -71.6100000  14.2210000  43.8550000 -72.3780000
  13.5990000  45.9780000 -71.9110000  13.1681404  46.5789437 -71.2230131
  14.0150000  46.5670000 -73.1820000  13.9726520  45.8209592 -73.9755547
  13.0820000  47.7130000 -73.5420000  13.1141948  48.4461732 -72.7360721
  13.4422040  48.1706068 -74.4633843  11.6950000  47.2530000 -73.7320000
  11.6297682  46.7030652 -74.6708383  11.4198425  46.5960888 -72.9068588
  10.7260000  48.3960000 -73.7780000  11.0110000  49.4920000 -73.2850000
   9.5590000  48.1550000 -74.3720000   8.8661897  48.8873779 -74.4331393
   9.3719246  47.2409157 -74.7587222  15.4500000  47.0770000 -73.1750000
  16.1600000  46.9480000 -74.1780000  15.8900000  47.6750000 -72.0740000
  15.2903026  47.8290572 -71.2760471  17.2440000  48.1960000 -72.0280000
  17.5982694  48.4044515 -73.0375248  17.2790000  49.4990000 -71.2170000
  16.5008184  50.1624891 -71.5942465  17.0819706  49.2669629 -70.1703682
  18.6120000  50.2130000 -71.3120000  19.3880000  49.9950000 -72.2520000
  18.8910000  51.0690000 -70.3380000  19.7655867  51.5740544 -70.3488553
  18.2275791  51.2118275 -69.5899534  18.2090000  47.1630000 -71.4530000
  19.2960000  46.9400000 -72.0160000  17.8140000  46.5430000 -70.3320000
  16.9886114  46.9182511 -69.8870060  18.5120000  45.4340000 -69.6780000
  17.8486580  44.9732179 -68.9460461  18.9460000  44.3600000 -70.6940000
  19.4718394  45.0675469 -71.3350691  19.6709862  43.7389284 -70.1679152
  18.0320000  43.4640000 -71.5580000  18.6631589  42.7616001 -72.1024021
  17.0290000  42.6990000 -70.7260000  16.3971340  43.4007835 -70.1816250
  16.4093806  42.0834401 -71.3781185  17.5559694  42.0601792 -70.0172605
  17.3690000  44.2140000 -72.7310000  18.1401929  44.6208655 -73.3850806
  16.7412787  43.5244428 -73.2954272  16.7562279  45.0275758 -72.3427942
  19.7420000  45.8490000 -68.8600000  19.8880000  45.3920000 -67.7200000
  20.6360000  46.6830000 -69.4060000  20.4380722  47.1775100 -70.2641280
  21.9730000  46.8070000 -68.8270000  22.0848859  46.2651794 -67.8878455
  23.0240000  46.2770000 -69.8320000  23.0804225  46.9737791 -70.6683101
  24.4190000  46.1380000 -69.1830000  24.3634703  45.4409723 -68.3468363
  25.1280423  45.7633059 -69.9212166  24.7511620  47.1115095 -68.8223766
  22.5620000  44.9460000 -70.4140000  21.6111933  45.0843799 -70.9287035
  23.3069472  44.5795528 -71.1203071  22.4370348  44.2209864 -69.6097364
  22.3370000  48.2240000 -68.3550000  23.0760000  48.3870000 -67.3670000
  21.8280000  49.2660000 -69.0290000  21.1669554  49.1170779 -69.7779603
  22.2930000  50.6370000 -68.7720000  23.2590056  50.6137544 -68.2676271
  22.4470000  51.3930000 -70.0820000  21.4890645  51.5636501 -70.5732611
  22.9290325  52.3504336 -69.8843498  23.3070000  50.6780000 -71.0630000
  24.6430000  50.4490000 -70.7850000  25.0591577  50.8132737 -69.8457357
  25.4470000  49.7690000 -71.6790000  26.4988751  49.6020502 -71.4470794
  24.9180000  49.3000000 -72.8680000  25.5469531  48.7637676 -73.5786143
  23.5840000  49.5150000 -73.1520000  23.1617211  49.1496887 -74.0881241
  22.7790000  50.1970000 -72.2450000  21.7231897  50.3550995 -72.4649295
  21.3510000  51.3400000 -67.7990000  20.4200000  52.0420000 -68.1900000
  21.6130000  51.1350000 -66.5090000  22.3316410  50.4633946 -66.2796515
  20.9190000  51.8050000 -65.4160000  20.5341103  52.7617195 -65.7690537
  19.7480000  50.9700000 -64.8920000  20.1318923  50.0469188 -64.4576648
  19.1903992  51.5223999 -64.1356696  18.7610000  50.5700000 -65.9450000
  19.0070000  49.5640000 -66.8550000  17.9590000  49.4270000 -67.6520000
  17.9586121  48.6807028 -68.4464428  17.0410000  50.3060000 -67.2870000
  16.1347292  50.4309852 -67.7149624  17.5170000  51.0330000 -66.2210000
  16.8999874  51.8124292 -65.7739131  21.9320000  52.0360000 -64.3040000
  22.8390000  51.2190000 -64.1040000  21.8030000  53.1490000 -63.5990000
  21.0938744  53.8332377 -63.8204926  22.7230000  53.4370000 -62.5090000
  23.4267958  52.6100721 -62.4143378  23.5180000  54.7360000 -62.7400000
  24.1488760  54.9148150 -61.8692992  24.1452239  54.6053987 -63.6218353
  22.6550000  55.8450000 -62.9340000  23.1786718  56.6371496 -63.0749497
  21.9390000  53.5300000 -61.2130000  20.7150000  53.6830000 -61.2090000
  22.6670000  53.4490000 -60.1090000  23.6696346  53.3362856 -60.1550281
  22.0350000  53.4610000 -58.8020000  21.1366917  52.8436977 -58.7931028
  23.0110000  52.9540000 -57.7430000  23.8273268  53.6683243 -57.6359876
  22.3060000  52.7990000 -56.4260000  21.4897742  52.0844259 -56.5321129
  23.0100711  52.4369500 -55.6767975  21.9057544  53.7629681 -56.1118852
  23.6210000  51.6300000 -58.2000000  22.8048420  50.9224891 -58.3463394
  24.1223605  51.8074014 -59.1514546  24.6170000  51.0560000 -57.2010000
  24.1162228  50.8778872 -56.2493709  25.0148862  50.1159190 -57.5831433
  25.4337406  51.7628011 -57.0544844  21.5560000  54.8740000 -58.4860000
  22.3370000  55.8320000 -58.5230000  20.2660000  55.0100000 -58.1600000
  19.6653345  54.1983387 -58.1375008  19.6730000  56.3160000 -57.9000000
  20.4412821  57.0815835 -57.7917233  18.7120000  56.7390000 -59.0270000
  18.5285903  57.8097531 -58.9378428  19.2870000  56.4370000 -60.3990000
  19.4702532  55.3662976 -60.4890787  18.5795395  56.7498779 -61.1669233
  20.2246855  56.9776588 -60.5275870  17.4410000  56.0840000 -58.8840000
  16.8570943  56.3599784 -59.5942749  18.9360000  56.3630000 -56.5640000
  18.9350000  57.4080000 -55.9050000  18.2930000  55.2730000 -56.1520000
  18.2543779  54.4300367 -56.7069961  17.5850000  55.2940000 -54.8740000
  16.9959880  56.2087327 -54.8074558  16.6430000  54.0920000 -54.7220000
  17.2694971  53.2484408 -54.4321577  15.9646308  54.3377217 -53.9049712
  15.8450000  53.7270000 -55.9430000  15.4104696  54.6366886 -56.3574283
  16.5173190  53.2798420 -56.6752151  14.7420000  52.7490000 -55.6090000
  14.7779606  51.9145874 -56.3094009  14.8867035  52.3776101 -54.5944903
  13.4200000  53.3780000 -55.6950000  13.1801263  54.0265879 -54.9588657
  12.5330000  53.1610000 -56.6650000  12.7980000  52.3150000 -57.6550000
  13.6826216  51.8280620 -57.6758800  12.1135644  52.1628593 -58.3819806
  11.3670000  53.7900000 -56.6410000  11.1572608  54.4298755 -55.8882259
  10.6933538  53.6266666 -57.3755895  18.5710000  55.2980000 -53.7030000
  19.7060000  54.8240000 -53.7990000  18.1010000  55.8170000 -52.5730000
  17.1393939  56.1258856 -52.5713701  18.8710000  55.9500000 -51.3440000
  19.4406719  55.0364389 -51.1737667  19.8410000  57.1210000 -51.4210000
  20.5319676  57.0819901 -50.5788947  20.4027666  57.0723032 -52.3538167
  19.1040000  58.3390000 -51.3740000  19.7101748  59.0818529 -51.4221809
  17.8940000  56.2010000 -50.2190000  16.8320000  56.8040000 -50.4380000
  18.2740000  55.7750000 -49.0110000  19.1356340  55.2674274 -48.8693798
  17.4080000  56.0040000 -47.8580000  16.4933413  55.4215537 -47.9687017
  18.0970000  55.5880000 -46.5620000  18.3813970  54.5371044 -46.6152537
  18.9853716  56.1960794 -46.3913095  17.2330000  55.7380000 -45.3430000
  16.0890000  54.9960000 -45.1420000  15.5340000  55.3400000 -43.9920000
  14.6118284  54.8657265 -43.6561977  16.2810000  56.2760000 -43.4330000
  16.1058278  56.7291112 -42.5475031  17.3500000  56.5410000 -44.2570000
  18.0885480  57.2887964 -43.9681252  17.0040000  57.4560000 -47.7700000
  15.8720000  57.7780000 -47.3870000  17.9220000  58.3510000 -48.1360000
  18.8553525  58.0614040 -48.3911210  17.6240000  59.7760000 -48.1110000
  17.2113500  60.0518772 -47.1405821  18.9100000  60.5590000 -48.3330000
  19.3303663  60.3002603 -49.3048261  18.6953015  61.6272346 -48.3033415
  19.6266908  60.3110962 -47.5500586  16.5730000  60.1230000 -49.1520000
  15.5560000  60.7480000 -48.8340000  16.7930000  59.6970000 -50.4000000
  17.6331709  59.1907156 -50.6405999  15.8350000  59.9890000 -51.4590000
  15.7784699  61.0666737 -51.6123718  16.2530000  59.3290000 -52.7750000
  17.1854024  59.7872549 -53.1047383  16.4168786  58.2679376 -52.5868768
  15.1810000  59.4970000 -53.8730000  14.3345781  58.8778152 -53.5758790
  14.8800831  60.5446273 -53.8780327  15.6450000  59.0890000 -55.2860000
  16.2090000  59.9420000 -56.0140000  15.4390000  57.9160000 -55.6840000
  14.4570000  59.5120000 -51.0720000  13.4670000  60.2260000 -51.2470000
  14.3790000  58.2930000 -50.5410000  15.2110152  57.7534979 -50.3491992
  13.0810000  57.6830000 -50.2700000  12.4927724  57.6461920 -51.1869147
  13.2560000  56.2530000 -49.7420000  13.9253240  56.2772705 -48.8820491
  12.2758341  55.8934151 -49.4288330  13.8290000  55.2750000 -50.7840000
  14.2450000  54.1740000 -50.4080000  13.8410000  55.6590000 -52.0780000
  14.2111395  55.0372758 -52.7826670  13.4797836  56.5663111 -52.3357017
  12.3040000  58.5210000 -49.2740000  11.1330000  58.8490000 -49.4990000
  12.9630000  58.9040000 -48.1740000  13.8933939  58.5547762 -47.9936967
  12.3360000  59.7560000 -47.1670000  11.4932105  59.2413457 -46.7055501
  13.3560000  60.0900000 -46.0830000  14.3272856  60.0737088 -46.5774068
  13.1574319  61.0933689 -45.7062752  13.3610000  59.1030000 -44.9210000
  13.2236935  58.1020472 -45.3300736  14.6410000  59.1500000 -44.1290000
  14.7787694  60.1505892 -43.7191956  14.5913570  58.4278326 -43.3140702
  15.4806532  58.9056457 -44.7796719  12.1850000  59.4110000 -44.0260000
  11.2598691  59.3120743 -44.5938432  12.1728553  58.7137166 -43.1882950
  12.2719368  60.4299171 -43.6487084  11.7390000  61.0190000 -47.7830000
  10.6010000  61.3880000 -47.4610000  12.4760000  61.6850000 -48.6860000
  13.4438619  61.4536487 -48.8586823  11.8870000  62.7980000 -49.4270000
  11.6479021  63.6066622 -48.7363504  12.8480000  63.3290000 -50.4850000
  12.7947782  62.6316473 -51.3210418  12.4542524  64.2971440 -50.7944513
  14.2950000  63.4870000 -50.0490000  14.3676586  64.3605221 -49.4010951
  14.6190067  62.6016083 -49.5020053  15.2310000  63.6900000 -51.2560000
  14.7620000  63.8730000 -52.3940000  16.5510000  63.6390000 -51.0170000
  17.2039880  63.7663533 -51.7769272  16.8851280  63.4735101 -50.0783452
  10.5950000  62.3670000 -50.1020000   9.5390000  62.9840000 -49.9180000
  10.6650000  61.2810000 -50.8690000  11.4972610  60.7089665 -50.8837912
   9.5690000  60.9250000 -51.7530000   9.2720359  61.7895661 -52.3466640
  10.0020000  59.8110000 -52.6980000  10.1358919  58.9068272 -52.1041619
   9.1981128  59.6566279 -53.4177462  11.2760000  60.1220000 -53.4300000
  11.1236832  61.0196440 -54.0292792  12.0632430  60.3035223 -52.6982896
  11.6730000  58.9980000 -54.3150000  12.5770770  58.5353686 -53.9191265
  10.8692075  58.2621492 -54.3382521  11.9350000  59.4450000 -55.6740000
  11.6818757  60.3882403 -55.9315368  12.4940000  58.6680000 -56.5900000
  12.8350000  57.4290000 -56.2570000  12.6657478  57.0969073 -55.3182944
  13.2621238  56.8241404 -56.9438841  12.7090000  59.1160000 -57.8200000
  12.4445576  60.0597773 -58.0638332  13.1361409  58.5112453 -58.5069652
   8.3400000  60.5080000 -50.9800000   7.2190000  60.7570000 -51.4320000
   8.5150000  59.8640000 -49.8230000   9.4047097  59.5069635 -49.5051306
   7.3430000  59.6250000 -48.9990000   6.6523039  58.9938893 -49.5582293
   7.6670000  58.9380000 -47.6710000   7.8895546  57.8931984 -47.8876986
   8.5196792  59.3937481 -47.1676791   6.4480000  59.0190000 -46.7730000
   5.2010000  58.6280000 -47.2460000   5.1317009  58.2332875 -48.2596563
   4.0510000  58.7310000 -46.4550000   3.0847841  58.4247285 -46.8559070
   4.1390000  59.2280000 -45.1700000   2.9900000  59.3060000 -44.4060000
   2.2098376  58.9915444 -44.8686704   5.3730000  59.6270000 -44.6770000
   5.4563322  60.0136886 -43.6613090   6.5180000  59.5320000 -45.4900000
   7.4841650  59.8661067 -45.1118492   6.6570000  60.9390000 -48.7300000
   5.4770000  61.1080000 -49.0500000   7.4060000  61.9060000 -48.1920000
   8.3684241  61.7488642 -47.9290408   6.8070000  63.1930000 -47.8780000
   6.0036573  63.0634004 -47.1527802   7.8560000  64.1280000 -47.2820000
   8.3201284  63.5916121 -46.4543696   8.5974872  64.3046579 -48.0611590
   7.3090000  65.4810000 -46.7760000   8.1001197  65.9343296 -46.1787374
   7.1168682  66.0992494 -47.6528992   6.0350000  65.3760000 -45.9380000
   5.2570000  66.3560000 -45.9450000   5.8130000  64.3340000 -45.2750000
   6.1370000  63.7940000 -49.1080000   5.0380000  64.3490000 -49.0050000
   6.7520000  63.6340000 -50.2860000   7.6915294  63.2668667 -50.3369597
   6.1010000  64.0450000 -51.5270000   5.7869177  65.0884822 -51.5025771
   7.0240000  63.8390000 -52.7350000   7.3366689  62.7959638 -52.7841210
   6.2660000  64.2050000 -54.0140000   5.9533882  65.2480977 -53.9658135
   6.9166836  64.0607194 -54.8764931   5.3875429  63.5671061 -54.1114991
   8.2960000  64.6440000 -52.5870000   8.8231224  64.3291716 -51.6863740
   8.9331814  64.4806386 -53.4561448   8.0496299  65.7031169 -52.5116741
   4.8040000  63.2810000 -51.7190000   3.7730000  63.8540000 -52.0980000
   4.8450000  61.9630000 -51.5100000   5.7156784  61.4751779 -51.3549255
   3.6170000  61.1810000 -51.5750000   3.2049443  61.2282756 -52.5830051
   3.8910000  59.6970000 -51.2210000   4.5028234  59.2056510 -51.9775365
   4.4046049  59.6620779 -50.2602240   2.6230000  58.8560000 -51.0700000
   1.9530000  58.5710000 -49.9160000   2.3828253  58.9528441 -48.9899627
   0.8370000  57.8340000 -50.1900000   0.1697174  57.4953791 -49.5116422
   0.7710000  57.6280000 -51.5390000  -0.1640000  56.9540000 -52.2840000
  -1.0073561  56.4885121 -51.7739311   0.0280000  56.9120000 -53.6280000
  -0.6941926  56.3889276 -54.2548437   1.1240000  57.5200000 -54.2270000
   1.2639139  57.4753870 -55.3070617   2.0460000  58.1820000 -53.4950000
   2.8802771  58.6506267 -54.0169880   1.8820000  58.2490000 -52.1180000
   2.5880000  61.7980000 -50.6450000   1.5070000  62.2220000 -51.0740000
   2.9610000  61.9360000 -49.3710000   3.9230408  61.7998167 -49.0952629
   1.9780000  62.2290000 -48.3320000   1.1766706  61.4903430 -48.3508732
   2.6510000  62.1820000 -46.9670000   2.8967380  61.1411361 -46.7564902
   3.5693149  62.7655679 -47.0321644   1.7960000  62.7220000 -45.8710000
   1.2311763  63.5778110 -46.2406789   1.1049215  61.9483623 -45.5363401
   2.6640000  63.1540000 -44.7160000   2.8485261  62.3126965 -44.0479749
   3.6145384  63.5410694 -45.0830878   1.9910000  64.2040000 -43.9680000
   1.4928503  63.9394746 -43.1301620   1.9920000  65.4800000 -44.3270000
   2.6410000  65.8590000 -45.4170000   3.1335961  65.1736183 -45.9717081
   2.6404976  66.8317509 -45.6887628   1.3490000  66.3740000 -43.5930000
   0.8587046  66.0806142 -42.7601523   1.3515418  67.3455343 -43.8690677
   1.3240000  63.5790000 -48.5630000   0.1170000  63.7360000 -48.3770000
   2.1040000  64.5560000 -49.0010000   3.0739348  64.3721060 -49.2143278
   1.6210000  65.9190000 -49.1160000   0.8091153  66.0953754 -48.4104264
   2.7620000  66.8870000 -48.8000000   2.4129747  67.9069080 -48.9614570
   3.0496231  66.7629544 -47.7559762   3.8770000  66.6350000 -49.6280000
   4.5805164  67.2521188 -49.4139231   1.0260000  66.2200000 -50.4870000
   0.1400000  67.0830000 -50.5970000   1.4720000  65.5170000 -51.5220000
   2.2288786  64.8648761 -51.3737819   0.9630000  65.6880000 -52.8760000
   1.5735749  65.1144625 -53.5733896  -0.4760000  65.2010000 -52.9750000
  -0.5192525  64.1783396 -52.6003078  -1.1229543  65.8365949 -52.3703767
  -0.9780000  65.2150000 -54.3940000  -0.1910000  65.3300000 -55.3530000
  -2.2890000  65.1170000 -54.5470000  -2.6877118  65.1205777 -55.4749633
  -2.8846725  65.0390886 -53.7350856   1.0570000  67.1490000 -53.3370000
   0.0480000  67.7790000 -53.6230000   2.2730000  67.7030000 -53.4200000
   3.5970000  67.0690000 -53.2830000   3.6404323  66.1802091 -53.9124955
   3.7573446  66.7851248 -52.2429022   4.5400000  68.1390000 -53.7340000
   4.7116565  68.0525431 -54.8069205   5.4886093  68.0424933 -53.2058635
   3.8730000  69.4180000 -53.3940000   4.2031049  70.2246801 -54.0485204
   4.0545302  69.6958705 -52.3557638   2.3800000  69.1500000 -53.6100000
   1.7781304  69.6181510 -52.8310996   1.9190000  69.6410000 -54.9670000
   1.6340000  70.8340000 -55.0860000   1.8410000  68.7960000 -55.9930000
   2.1466414  67.8386094 -55.8925712   1.3710000  69.2370000 -57.2980000
   1.3957246  70.3259875 -57.3379260   2.2410000  68.6860000 -58.4310000
   2.1229778  67.6026318 -58.4529853   1.8147618  69.1158647 -59.3374422
   3.7110000  69.0310000 -58.3530000   4.4950000  68.5800000 -57.2990000
   4.0292807  67.9783485 -56.5184742   5.8290000  68.8780000 -57.2290000
   6.4186039  68.5280046 -56.3816676   6.4240000  69.6200000 -58.2200000
   7.7660000  69.8880000 -58.1050000   8.1569928  69.5123269 -57.3127917
   5.6870000  70.0720000 -59.2950000   6.1533322  70.6583192 -60.0867478
   4.3310000  69.7700000 -59.3600000   3.7364555  70.1120797 -60.2071118
  -0.0680000  68.8370000 -57.5360000  -0.4760000  68.7060000 -58.6970000
  -0.8290000  68.6270000 -56.4570000  -0.3778297  68.7102580 -55.5572151
  -2.2310000  68.2110000 -56.4940000  -2.4580858  67.5978114 -55.6219158
  -3.1520000  69.4350000 -56.4850000  -2.7799917  70.1907161 -57.1768109
  -4.1619032  69.1441464 -56.7741360  -3.2640000  70.1000000 -55.1410000
  -4.0780000  71.1920000 -54.9140000  -3.9720000  71.5630000 -53.6490000
  -4.5395174  72.4142056 -53.2728725  -3.1210000  70.7510000 -53.0430000
  -2.8456557  70.7926283 -52.0721486  -2.6630000  69.8280000 -53.9540000
  -1.9461464  69.0670667 -53.6454507  -2.5060000  67.3210000 -57.7000000
  -3.2660000  67.6890000 -58.6060000  -1.8520000  66.1540000 -57.7020000
  -1.3214777  65.9570078 -56.8654359  -1.8190000  65.1810000 -58.7860000
  -2.0712266  65.6627608 -59.7306626  -0.4050000  64.5770000 -58.9030000
   0.0931916  64.7974338 -57.9589061  -0.5467046  63.5002331 -58.9956983
   0.4540000  65.0780000 -60.0600000   0.2533092  64.4327233 -60.9152438
   0.1363143  66.0949227 -60.2903113   1.9660000  65.0690000 -59.7530000
   2.3380000  65.0480000 -58.5550000   2.7860000  65.0870000 -60.7100000
  -2.8350000  64.0690000 -58.5420000  -3.3410000  63.8850000 -57.4300000
  -3.1120000  63.3050000 -59.5970000  -2.8450348  63.5856310 -60.5297782
  -3.8640000  62.0630000 -59.4360000  -4.6468796  62.2050760 -58.6910080
  -4.5160000  61.6390000 -60.7570000  -5.2205332  60.8349486 -60.5443183
  -5.0550090  62.4967026 -61.1593873  -3.5570000  61.1900000 -61.7120000
  -4.0063219  60.9352456 -62.5212032  -2.9520000  60.9470000 -58.9140000
  -1.7180000  61.0370000 -58.9480000  -3.5740000  59.8710000 -58.4270000
  -4.5760550  59.7570081 -58.4816894  -2.8010000  58.8690000 -57.6930000
  -2.0936030  59.3073277 -56.9890415  -3.7400000  57.9300000 -56.9240000
  -4.2770919  58.5031201 -56.1682454  -4.7260000  57.2940000 -57.8650000
  -4.1896328  56.7202877 -58.6208210  -5.3860399  56.6303509 -57.3064146
  -5.3179077  58.0697921 -58.3506886  -2.9250000  56.9020000 -56.1720000
  -2.2622566  57.4065356 -55.4689232  -3.5934486  56.2359521 -55.6264211
  -2.3309694  56.3214337 -56.8778125  -1.8690000  58.1080000 -58.6260000
  -0.7400000  57.7620000 -58.2520000  -2.3110000  57.8450000 -59.8550000
  -3.2792883  57.9838941 -60.1064467  -1.4050000  57.2990000 -60.8630000
  -1.0246076  56.3310392 -60.5367291  -2.1440000  57.1120000 -62.1890000
  -2.3237026  58.1102723 -62.5880722  -1.4647298  56.5738368 -62.8501145
  -3.4780000  56.3500000 -62.0940000  -3.7478787  56.0604744 -63.1095990
  -3.3000479  55.4556111 -61.4969232  -4.6270000  57.1630000 -61.4700000
  -4.3620000  58.1750000 -60.7790000  -5.8040000  56.7830000 -61.6660000
  -0.2090000  58.2130000 -61.0490000   0.9430000  57.7790000 -60.9180000
  -0.4770000  59.4970000 -61.3220000  -1.4331022  59.7999334 -61.4411607
   0.5870000  60.4780000 -61.5040000   1.2712552  60.1437021 -62.2838326
  -0.0030000  61.8280000 -61.9170000  -0.7610347  62.0727134 -61.1729584
   0.8109376  62.5504907 -61.8568930  -0.6180000  61.8760000 -63.2970000
   0.1992856  61.9502456 -64.0143790  -1.1665417  60.9494738 -63.4665591
  -1.5580000  63.0620000 -63.4740000  -1.5010000  64.0210000 -62.6540000
  -2.3660000  63.0180000 -64.4330000   1.4150000  60.6400000 -60.2370000
   2.6430000  60.7560000 -60.2970000   0.7550000  60.6820000 -59.0790000
  -0.2540834  60.6610317 -59.0414445   1.4900000  60.8260000 -57.8290000
   2.0878203  61.7371281 -57.8525717   0.5180000  60.9090000 -56.6490000
  -0.0471605  61.8140993 -56.8714594  -0.1511292  60.0488366 -56.6710272
   1.1490000  61.0300000 -55.2560000   1.7260327  60.1246571 -55.0676166
   2.0510000  62.2360000 -55.1350000   1.4745336  63.1418219 -55.3228085
   2.4724150  62.2758596 -54.1305492   2.8577217  62.1616206 -55.8642244
   0.0900000  61.0510000 -54.1590000  -0.4891727  60.1282942 -54.1946704
   0.5749918  61.1375863 -53.1866898  -0.5738686  61.9021513 -54.3103900
   2.4610000  59.6730000 -57.6510000   3.6500000  59.8860000 -57.3800000
   1.9700000  58.4380000 -57.8510000   0.9909698  58.3166972 -58.0675292
   2.8030000  57.2450000 -57.7180000   3.2824871  57.2347541 -56.7391812
   1.9530000  55.9880000 -57.8570000   1.3157843  55.9272215 -56.9747521
   1.3327182  56.1114975 -58.7447494   2.7860000  54.6820000 -57.9850000
   3.0701946  54.5763445 -59.0319819   3.6819750  54.8042922 -57.3764152
   2.0210000  53.4160000 -57.5280000   1.9022491  53.4590273 -56.4453432
   1.0390307  53.4190425 -58.0011030   2.7060000  52.1680000 -57.8760000
   3.5368731  51.9429475 -57.3477002   2.3080000  51.3220000 -58.8270000
   3.0070000  50.2210000 -59.0580000   3.8357442  50.0291008 -58.5135206
   2.7080763  49.5783786 -59.7775707   1.2150000  51.5660000 -59.5460000
   0.6763190  52.4025147 -59.3723166   0.9292027  50.9135405 -60.2620413
   3.9180000  57.2230000 -58.7460000   5.0590000  56.8650000 -58.4260000
   3.6030000  57.5720000 -59.9940000   2.6408747  57.6765311 -60.2829421
   4.6480000  57.7580000 -60.9920000   5.1437065  56.8111828 -61.2062697
   4.0190000  58.2840000 -62.2840000   3.1985776  57.6120555 -62.5359860
   3.6248872  59.2821779 -62.0931700   5.0110000  58.3410000 -63.4540000
   4.5430000  58.6400000 -64.5810000   6.2340000  58.0780000 -63.2680000
   5.7250000  58.7140000 -60.4780000   6.9250000  58.4190000 -60.5570000
   5.2960000  59.8540000 -59.9140000   4.3055063  60.0188637 -59.8051810
   6.2230000  60.9000000 -59.4890000   6.8584422  61.1920511 -60.3250733
   5.4550000  62.1330000 -59.0040000   5.0174992  62.6128356 -59.8794714
   4.6592793  61.7860468 -58.3447944   6.3370000  63.1430000 -58.2540000
   6.8025161  62.6233354 -57.4165370   7.1093168  63.4878450 -58.9415397
   5.5440000  64.3470000 -57.7310000   4.7366568  63.9858984 -57.0938959
   6.2115989  64.9803241 -57.1467811   4.9680000  65.1440000 -58.8090000
   3.9649935  65.1153247 -58.9241305   5.6780000  65.9090000 -59.6290000
   6.9950000  65.9730000 -59.5110000   7.4612908  65.4368164 -58.7932395
   7.5274226  66.5577175 -60.1392764   5.0720000  66.5980000 -60.5780000
   4.0685097  66.5406191 -60.6770693   5.6146343  67.1793549 -61.2006341
   7.1480000  60.4110000 -58.3900000   8.3650000  60.6350000 -58.4400000
   6.5850000  59.7620000 -57.3660000   5.5819501  59.6769100 -57.2838426
   7.4130000  59.2370000 -56.2890000   8.3097510  59.8412399 -56.1517744
   6.6430000  59.1870000 -54.9530000   7.1462538  58.5021011 -54.2705424
   6.5990000  60.5610000 -54.3420000   6.0954433  61.2464044 -55.0237275
   6.0545070  60.5223894 -53.3985293   7.6151262  60.9111637 -54.1604109
   5.2330000  58.6500000 -55.1410000   5.2795744  57.6405038 -55.5494731
   4.7204271  58.6289570 -54.1792693   4.6867503  59.2950229 -55.8292279
   7.9870000  57.8640000 -56.6020000   8.6520000  57.2770000 -55.7320000
   7.7630000  57.3380000 -57.8140000   7.1014177  57.7937298 -58.4261426
   8.3720000  56.0790000 -58.2610000   7.9242989  55.7779853 -59.2081288
   9.8880000  56.2280000 -58.4600000  10.2840764  56.5785784 -57.5069431
  10.2652810  55.2257400 -58.6630614  10.3310000  57.1730000 -59.5730000
  10.1204310  58.1914992 -59.2467777  11.4058750  57.0492201 -59.7050013
   9.6280000  56.9090000 -60.8870000   9.9258123  55.9288567 -61.2594594
   8.5504461  56.9228778 -60.7233404   9.9990000  57.9730000 -61.9080000
  10.0647307  58.9233675 -61.3783005  10.9787184  57.7122407 -62.3083193
   9.0200000  58.0950000 -63.0290000   8.1122000  58.3370439 -62.6583066
   9.3264281  58.8158678 -63.6666138   8.9592610  57.2145983 -63.5202257
   8.0770000  54.9200000 -57.3010000   8.9380000  54.0780000 -57.0280000
   6.8520000  54.8690000 -56.7780000   6.1771819  55.5907022 -56.9874416
   6.4530000  53.7920000 -55.9040000   5.3778614  53.6659490 -56.0316214
   6.9672921  52.8968546 -56.2537395   6.7550000  53.9910000 -54.4320000
   6.3720000  53.1420000 -53.6230000   7.4220000  55.0720000 -54.0440000
   7.7270681  55.7848574 -54.6911995   7.7590000  55.2280000 -52.6360000
   7.9748482  54.2613337 -52.1809561   8.9590000  56.1540000 -52.4110000
   8.6960861  57.1729558 -52.6950856   9.3390000  56.1210000 -50.9450000
   9.6025070  55.1023770 -50.6602681  10.1925145  56.7774162 -50.7754971
   8.4957993  56.4594266 -50.3428525  10.1080000  55.7370000 -53.2900000
   9.8051530  55.7928814 -54.3355922  10.9549978  56.4020718 -53.1215544
  10.3968846  54.7137144 -53.0501393   6.5640000  55.7810000 -51.9000000
   6.4450000  56.9900000 -51.7250000   5.6810000  54.9190000 -51.4400000
   5.7947802  53.9204555 -51.5403111   4.4450000  55.4160000 -50.8670000
   4.4352131  56.5059556 -50.8665526   3.2760000  54.9200000 -51.7030000
   2.8865701  55.7361094 -52.3116124   3.6059272  54.1088340 -52.3520437
   2.2720000  54.4550000 -50.8510000   1.5301713  54.1400237 -51.3726128
   4.2900000  55.0500000 -49.3890000   3.1800000  55.1390000 -48.8450000
   5.3810000  54.6680000 -48.7130000   6.2225143  54.4125416 -49.2096830
   5.3740000  54.5520000 -47.2590000   4.5355346  55.1258845 -46.8643717
   5.2310000  53.1000000 -46.8010000   6.0683070  52.5145367 -47.1808024
   5.2254731  53.0609345 -45.7117142   4.2971482  52.6880978 -47.1835658
   6.6490000  55.1600000 -46.6950000   7.6410000  55.3150000 -47.4010000
   6.6240000  55.5040000 -45.4070000   5.8152603  55.2951331 -44.8391848
   7.7480000  56.2040000 -44.7830000   8.1859945  56.8983751 -45.5000099
   7.2990000  56.9860000 -43.5630000   6.5375869  57.6919763 -43.8945822
   6.8548509  56.2730763 -42.8683264   8.4210000  57.7410000 -42.8660000
   9.0661916  57.0180520 -42.3668258   8.9951421  58.2801154 -43.6195367
   7.8800000  58.7210000 -41.8480000   7.2396742  59.4366853 -42.3636321
   7.2908254  58.1687747 -41.1158662   9.0020000  59.4640000 -41.1390000
   9.5173571  58.7733448 -40.4715398   9.7033418  59.8401341 -41.8838100
   8.4540000  60.6120000 -40.3440000   7.8044227  60.2636378 -39.6534981
   9.2118430  61.0929516 -39.8809022   7.9767869  61.2523130 -40.9623576
   8.8180000  55.2150000 -44.3610000   8.5550000  54.3760000 -43.4940000
  10.0300000  55.3080000 -44.8910000  10.4780000  56.2690000 -45.9040000
  10.6495629  57.2422790 -45.4442235   9.7244520  56.3647905 -46.6857216
  11.7390000  55.6390000 -46.4020000  12.4237090  56.4271860 -46.7151062
  11.5000344  55.0055093 -47.2562168  12.3050000  54.8410000 -45.2960000
  12.9616776  55.4885519 -44.7150094  12.8596202  53.9616415 -45.6234519
  11.1090000  54.4160000 -44.4450000  10.7983097  53.3861184 -44.6208230
  11.4210000  54.6050000 -42.9720000  11.1630000  55.6520000 -42.3760000
  12.0270000  53.5920000 -42.3910000  12.1191128  52.6859592 -42.8276975
  12.4890000  53.7470000 -41.0280000  12.6875613  54.7985498 -40.8208390
  11.4180000  53.2440000 -40.0400000  11.5440640  53.7755897 -39.0968036
  10.4147344  53.4235815 -40.4264049  11.5000000  51.7760000 -39.7210000
  11.3230000  50.8240000 -40.7050000  11.1318553  51.1447290 -41.7290588
  11.3860000  49.4760000 -40.4030000  11.2486223  48.7363344 -41.1917477
  11.6230000  49.0650000 -39.1020000  11.6730576  48.0027344 -38.8628644
  11.7960000  50.0050000 -38.1070000  11.9899182  49.6918951 -37.0811047
  11.7220000  51.3550000 -38.4180000  11.8388883  52.1022872 -37.6331441
  13.8250000  53.0700000 -40.7660000  14.3020000  53.1240000 -39.6260000
  14.4600000  52.4650000 -41.7710000  14.0057290  52.3625713 -42.6672397
  15.7870000  51.8790000 -41.5960000  16.2582435  52.3684333 -40.7436598
  15.7410000  50.3610000 -41.3540000  15.0394341  49.9107122 -42.0562440
  17.0970000  49.7590000 -41.5490000  17.7990607  50.2084899 -40.8467392
  17.0465998  48.6843368 -41.3739015  17.4344878  49.9450396 -42.5686031
  15.2810000  50.0460000 -39.9370000  16.0218603  50.4570684 -39.2512525
  14.3255589  50.5471719 -39.7818919  15.1210000  48.5650000 -39.6770000
  16.0762077  48.0631856 -39.8314682  14.7913877  48.4094517 -38.6497417
  14.3799074  48.1532885 -40.3621097  16.6320000  52.1980000 -42.8230000
  16.1730000  52.0700000 -43.9640000  17.8670000  52.6170000 -42.5820000
  18.1767710  52.7050793 -41.6247209  18.7780000  53.0140000 -43.6390000
  18.2209176  53.4081717 -44.4889336  19.7180000  54.1040000 -43.1230000
  19.1014480  54.8390442 -42.6056290  20.3942914  53.6317309 -42.4104750
  20.5280000  54.7960000 -44.2080000  20.8301523  54.0401618 -44.9329230
  19.8733042  55.5211215 -44.6913958  21.7640000  55.5070000 -43.6710000
  22.0610000  55.3780000 -42.4560000  22.4380000  56.1910000 -44.4760000
  19.5380000  51.7770000 -44.1190000  20.3010000  51.1650000 -43.3610000
  19.3220000  51.3940000 -45.3710000  18.6032860  51.8352128 -45.9267705
  20.0910000  50.3190000 -45.9690000  20.8301400  49.9224384 -45.2729324
  19.2220000  49.1330000 -46.5050000  19.8914963  48.3973862 -46.9508108
  18.3950000  48.4650000 -45.3900000  17.7248874  49.1999358 -44.9439976
  17.8089488  47.6482051 -45.8112946  19.0652074  48.0735602 -44.6246912
  18.3660000  49.5640000 -47.5870000  17.8442970  48.8205090 -47.8978818
  20.9000000  50.8720000 -47.1240000  20.5060000  51.8530000 -47.7710000
  22.0330000  50.2190000 -47.3560000  22.3647255  49.5629425 -46.6634351
  22.8400000  50.4240000 -48.5610000  23.0625523  51.4676655 -48.7831080
  24.1500000  49.6630000 -48.4410000  23.9444129  48.5926015 -48.4499621
  25.0620000  50.0110000 -49.5980000  25.2684259  51.0812410 -49.5894276
  25.9977186  49.4602371 -49.5021287  24.5774806  49.7424594 -50.5367377
  24.8100000  49.9070000 -47.0800000  24.1410483  49.5742625 -46.2863430
  25.7450112  49.3495909 -47.0238858  25.0141452  50.9709833 -46.9601452
  22.0540000  49.9430000 -49.7670000  21.3270000  48.9420000 -49.6600000
  22.1410000  50.5990000 -50.8960000  22.5450000  51.9900000 -51.0950000
  23.5633223  52.1320569 -50.7331441  21.8706604  52.6499549 -50.5492669
  22.4320000  52.1610000 -52.5920000  23.3772382  51.8915502 -53.0631906
  22.1935945  53.1988919 -52.8244749  21.3650000  51.2810000 -53.0090000
  21.5403255  51.0003339 -54.0475502  20.3603251  51.6917193 -52.9088122
  21.5210000  50.0520000 -52.1030000  20.5671893  49.5993506 -51.8319796
  22.4090000  49.0090000 -52.7450000  23.2310000  49.3470000 -53.5960000
  22.2640000  47.7460000 -52.3720000  21.5656300  47.4637865 -51.6991447
  23.1670000  46.7350000 -52.8920000  23.6802400  47.1244158 -53.7712265
  24.2170000  46.3390000 -51.8470000  24.7871327  47.2236959 -51.5635195
  23.7106239  45.9371141 -50.9694061  25.1030000  45.3520000 -52.3790000
  25.7536691  45.1145141 -51.7142971  22.3770000  45.5130000 -53.3430000
  21.1620000  45.5400000 -53.5720000  23.0990000  44.4150000 -53.4810000
  24.0911787  44.4727585 -53.3011539  22.5490000  43.1410000 -53.8870000
  21.4599465  43.1727763 -53.8545656  23.0050000  42.7340000 -55.2880000
  24.0781932  42.9027928 -55.3766884  22.6990000  41.2540000 -55.5370000
  21.6258661  41.0845054 -55.4489327  23.0289736  40.9777056 -56.5384387
  23.2240875  40.6450654 -54.8010782  22.3280000  43.6140000 -56.3220000
  21.3858656  43.1525748 -56.6179227  22.1307189  44.5911982 -55.8812469
  23.1960000  43.7760000 -57.5160000  23.3933511  42.7991976 -57.9575989
  22.6944583  44.4100580 -58.2471126  24.1382059  44.2378193 -57.2209223
  23.0100000  42.1190000 -52.8840000  24.1850000  42.0960000 -52.5050000
  22.0810000  41.3000000 -52.4310000  21.1051294  41.4592094 -52.6369812
  22.4280000  40.1860000 -51.5830000  23.3290162  40.4403565 -51.0248138
  21.3380000  39.8360000 -50.6040000  21.4247231  40.5915728 -49.8231748
  20.3332370  39.8636626 -51.0256470  21.5940000  38.4940000 -50.0240000
  22.6970000  38.2900000 -49.5240000  20.7660000  37.6150000 -50.1560000
  22.7540000  38.9750000 -52.4480000  21.9610000  38.5710000 -53.3010000
  23.9580000  38.4340000 -52.2720000  24.6119711  38.7859919 -51.5875128
  24.3910000  37.3560000 -53.1500000  24.2179334  37.6662342 -54.1804862
  25.8880000  37.0730000 -52.9680000  26.0757423  36.7524311 -51.9432618
  26.1958656  36.2860574 -53.6565059  26.4573732  37.9791820 -53.1747546
  23.5590000  36.1020000 -52.9170000  23.0870000  35.4790000 -53.8770000
  23.3560000  35.7220000 -51.6500000  23.7029517  36.2637665 -50.8714032
  22.6800000  34.4600000 -51.3680000  23.2773699  33.6343011 -51.7546131
  22.4850000  34.2600000 -49.8640000  23.4867714  34.2346403 -49.4351526
  21.9339159  35.1038836 -49.4489497  21.7560000  32.9630000 -49.5290000
  20.7309960  33.0478502 -49.8899267  22.4200000  31.7460000 -50.1660000
  23.4449607  31.6602178 -49.8051735  21.8647700  30.8469438 -49.8985709
  22.4253246  31.8601443 -51.2499941  21.6850000  32.7760000 -48.0350000
  21.1471486  33.6124742 -47.5887644  21.1622736  31.8465822 -47.8090778
  22.6941624  32.7335262 -47.6252609  21.3500000  34.4040000 -52.0930000
  21.1270000  33.5240000 -52.9280000  20.4910000  35.3940000 -51.8460000
  20.7095338  36.1116301 -51.1697239  19.1860000  35.4200000 -52.4790000
  18.7041995  34.4466386 -52.3866151  18.3120000  36.4580000 -51.8080000
  18.8078475  37.3980172 -51.5659212  17.4844368  36.6497161 -52.4909964
  17.7130000  35.9560000 -50.5450000  18.4160000  35.8980000 -49.3650000
  17.6570000  35.3630000 -48.4280000  18.0279899  35.2442270 -47.4099831
  16.4940000  35.0520000 -48.9670000  15.7119328  34.6279916 -48.4887870
  16.5110000  35.3980000 -50.2950000  15.6408798  35.2000596 -50.9209486
  19.2870000  35.6710000 -53.9610000  18.4830000  35.1440000 -54.7240000
  20.2560000  36.4590000 -54.3920000  20.8203110  37.0026960 -53.7547817
  20.4950000  36.6040000 -55.8230000  19.6048239  36.9885164 -56.3208282
  21.6420000  37.5900000 -56.0430000  21.3267848  38.5944532 -55.7604893
  22.5028982  37.2973842 -55.4418924  22.2240000  37.7090000 -57.7070000
  23.1617674  38.6196158 -57.4615015  20.8050000  35.2540000 -56.4600000
  20.1820000  34.8550000 -57.4520000  21.7870000  34.5450000 -55.8970000
  22.3218412  34.9442091 -55.1389259  22.1490000  33.2170000 -56.3730000
  22.5519659  33.2668543 -57.3845494  23.2210000  32.6410000 -55.4480000
  23.6672720  33.4796213 -54.9135330  22.7361504  31.9734634 -54.7356688
  24.3030000  31.8840000 -56.1940000  24.0740000  31.4810000 -57.3750000
  25.3890000  31.6810000 -55.5770000  20.9330000  32.3060000 -56.4240000
  20.7360000  31.5770000 -57.3990000  20.1010000  32.3470000 -55.3840000
  20.3141468  32.9310751 -54.5880577  18.8940000  31.5210000 -55.3350000
  19.2067302  30.4888717 -55.4931459  18.2060000  31.6420000 -53.9750000
  18.0492644  32.6903916 -53.7212099  16.9270000  30.9720000 -54.0670000
  17.0829545  29.9233787 -54.3203223  16.4103908  31.0410364 -53.1096863
  16.3226959  31.4460927 -54.8404028  19.0250000  30.9510000 -52.9190000
  18.9113836  29.8744729 -53.0465992  20.0703121  31.2249509 -53.0617337
  18.6010000  31.3300000 -51.5680000  17.5558461  31.0559224 -51.4243521
  19.2166391  30.8099086 -50.8341113  18.7147726  32.4064015 -51.4394875
  17.9250000  31.9070000 -56.4380000  17.5520000  31.0820000 -57.2720000
  17.4670000  33.1510000 -56.4300000  17.7775672  33.8280136 -55.7478710
  16.4940000  33.5690000 -57.4190000  15.5588379  33.0471200 -57.2159919
  16.3410480  34.6428106 -57.3111309  16.9250000  33.2730000 -58.8400000
  16.1190000  32.8740000 -59.6830000  18.2030000  33.4430000 -59.1250000
  18.8744520  33.7890300 -58.4545413  18.6500000  33.2010000 -60.4840000
  18.0462995  33.7700584 -61.1909777  20.1010000  33.6420000 -60.6180000
  20.6503116  33.3017273 -59.7401786  20.5335870  33.1943306 -61.5127405
  20.2330000  35.1490000 -60.7180000  19.2260000  35.8710000 -60.7420000
  21.4780000  35.6340000 -60.7870000  21.6252907  36.6308868 -60.8549847
  22.2648822  35.0010274 -60.7707874  18.4620000  31.7400000 -60.8610000
  17.8420000  31.4220000 -61.8850000  18.9630000  30.8400000 -60.0160000
  19.4611786  31.1375373 -59.1893266  18.8410000  29.4110000 -60.2720000
  19.3623382  29.1521059 -61.1935636  19.4670000  28.6310000 -59.1230000
  18.9495994  28.8727801 -58.1945933  19.3803538  27.5622600 -59.3189274
  20.5196155  28.8990400 -59.0321460  17.3900000  29.0100000 -60.4370000
  17.0510000  28.2070000 -61.3160000  16.5230000  29.5620000 -59.5870000
  16.8555747  30.1331581 -58.8232777  15.0970000  29.3030000 -59.6830000
  14.9123291  28.2361951 -59.5568127  14.3780000  30.0560000 -58.5720000
  14.5460251  31.1264716 -58.6901442  13.3092101  29.8485399 -58.6244281
  14.7633124  29.7328168 -57.6049498  14.5600000  29.6850000 -61.0580000
  13.7480000  28.9500000 -61.6390000  15.0290000  30.8120000 -61.6110000
  15.6075220  31.4509577 -61.0845547  14.6810000  31.1650000 -62.9890000
  13.5970458  31.1765331 -63.1030586  15.2210000  32.5400000 -63.3430000
  16.0626569  32.7489014 -62.6826417  15.5693070  32.5068662 -64.3753199
  14.2020000  33.6100000 -63.1990000  13.9083262  33.6358034 -62.1496237
  14.6592429  34.5612556 -63.4712884  12.9850000  33.3750000 -64.0550000
  13.1240000  33.3570000 -65.3030000  11.8900000  33.2250000 -63.4650000
  15.2220000  30.1480000 -63.9840000  14.5110000  29.7140000 -64.8940000
  16.4950000  29.7930000 -63.8620000  17.1276126  30.2126850 -63.1958430
  17.0250000  28.8120000 -64.7900000  16.9274088  29.1741704 -65.8134294
  18.4970000  28.5660000 -64.5000000  18.6928415  28.7298232 -63.4403268
  18.7941338  27.5530371 -64.7715101  19.3890000  29.4810000 -65.2410000
  19.3920000  30.8270000 -64.9590000  18.7314049  31.2089600 -64.1806552
  20.2180000  31.6910000 -65.6480000  20.2136781  32.7542704 -65.4081290
  21.0450000  31.2130000 -66.6350000  21.7017122  31.8889414 -67.1826607
  21.0400000  29.8570000 -66.9330000  21.6914251  29.4663803 -67.7147684
  20.2090000  29.0040000 -66.2380000  20.1971846  27.9404222 -66.4762491
  16.2250000  27.5240000 -64.7350000  15.8620000  26.9680000 -65.7780000
  15.9180000  27.0530000 -63.5270000  16.3126325  27.4675381 -62.6948205
  15.0530000  25.8910000 -63.3760000  15.5408227  24.9990819 -63.7692052
  14.7610000  25.6740000 -61.8960000  15.7131692  25.6493880 -61.3660308
  14.2060365  26.5654573 -61.6037340  13.9600000  24.4470000 -61.5460000
  14.5390000  23.1830000 -61.5400000  15.5895897  23.0822986 -61.8124336
  13.7960000  22.0520000 -61.1920000  14.2533331  21.0626844 -61.2062436
  12.4780000  22.1940000 -60.8340000  11.7250000  21.1100000 -60.4830000
  12.2150655  20.2852977 -60.5190775  11.8950000  23.4320000 -60.8190000
  10.8487168  23.5392102 -60.5328218  12.6380000  24.5530000 -61.1690000
  12.1769956  25.5405041 -61.1487357  13.7630000  26.0560000 -64.1640000
  13.2410000  25.0820000 -64.7040000  13.2470000  27.2770000 -64.2740000
  13.6079535  28.0719066 -63.7661265  12.0580000  27.4630000 -65.0920000
  11.3551905  26.6476064 -64.9208531  11.3780000  28.7750000 -64.7300000
  11.5947336  28.9723615 -63.6801551  11.8285927  29.5532028 -65.3460086
   9.8710000  28.7680000 -64.9440000   9.5402566  29.8000796 -65.0602812
   9.6610718  28.2144377 -65.8592054   9.1230000  28.1210000 -63.7730000
   9.4403565  27.0814379 -63.6911806   9.3844917  28.6532278 -62.8584208
   7.5980000  28.1770000 -63.9810000   7.1217268  27.5386847 -63.2368105
   7.2655854  29.2058207 -63.8426975   7.2220000  27.7130000 -65.3470000
   7.5295528  26.7595460 -65.4752048   6.2188551  27.7605184 -65.4544350
   7.6628796  28.3046083 -66.0367274  12.3840000  27.4030000 -66.5840000
  11.6690000  26.7620000 -67.3520000  13.4540000  28.0590000 -67.0240000
  14.0116113  28.6379975 -66.4125011  13.8140000  27.9990000 -68.4420000
  13.0238625  28.3641758 -69.0980705  15.1040000  28.7930000 -68.7030000
  15.8787900  28.4485948 -68.0180285  15.5710000  28.5890000 -70.1440000
  14.7968679  28.9336275 -70.8296034  16.4854457  29.1573116 -70.3140348
  15.7641939  27.5303743 -70.3174555  14.8980000  30.2620000 -68.3560000
  14.1215217  30.6585465 -69.0101660  14.5647636  30.3214346 -67.3198917
  16.1570000  31.0700000 -68.5250000  16.4906107  31.0114207 -69.5610368
  15.9593701  32.1101068 -68.2657327  16.9338537  30.6743070 -67.8707636
  13.9750000  26.5530000 -68.8850000  13.5220000  26.1520000 -69.9650000
  14.6490000  25.7580000 -68.0540000  15.0448507  26.1391997 -67.2065991
  14.8730000  24.3480000 -68.3480000  15.5193259  24.2365620 -69.2185996
  15.5500000  23.6960000 -67.1540000  15.0196344  23.9734059 -66.2430348
  15.5605068  22.6104132 -67.2514209  16.9590000  24.1190000 -66.9700000
  17.6760000  24.6260000 -68.0320000  17.1908950  24.7385825 -69.0015866
  18.9760000  24.9840000 -67.8780000  19.5372689  25.3813269 -68.7237004
  19.5890000  24.8440000 -66.6450000  20.6336117  25.1325144 -66.5281848
  18.8910000  24.3460000 -65.5740000  19.3680854  24.2334211 -64.6004417
  17.5810000  23.9890000 -65.7390000  17.0127409  23.5964294 -64.8957505
  13.5690000  23.6400000 -68.6680000  13.4580000  22.9540000 -69.6900000
  12.5690000  23.8050000 -67.7900000  12.7520401  24.2738163 -66.9143249
  11.2250000  23.2970000 -68.0340000  11.2384918  22.2074226 -68.0611710
  10.2830000  23.7450000 -66.9220000  10.4865225  24.8028115 -66.7555286
   9.2716286  23.6269450 -67.3109613  10.4090000  23.0050000 -65.6310000
  10.0269681  21.9910188 -65.7492982  11.4616465  22.9657277 -65.3508301
   9.6390000  23.6850000 -64.5220000  10.2360000  24.1710000 -63.5540000
   8.3020000  23.7380000 -64.6570000   7.7425953  24.1819503 -63.9428040
   7.8633691  23.3336147 -65.4719705  10.6860000  23.7680000 -69.3750000
  10.2550000  22.9580000 -70.1950000  10.6910000  25.0810000 -69.6160000
  11.0430502  25.7343712 -68.9309700  10.1210000  25.6110000 -70.8460000
   9.1541046  25.1469819 -71.0406784   9.9220000  27.1170000 -70.7200000
  10.8987702  27.5202590 -70.4527898   9.6017402  27.5422980 -71.6711337
   8.9080000  27.4770000 -69.6340000   8.8616998  26.6652517 -68.9080373
   9.3100000  28.7410000 -68.9430000   9.3560695  29.5533610 -69.6682903
   8.5777605  28.9833492 -68.1728098  10.2895700  28.6088172 -68.4835756
   7.5000000  27.6120000 -70.1800000   7.1915234  26.6676024 -70.6283913
   6.8183004  27.8683882 -69.3690425   7.4765091  28.3972001 -70.9356507
  10.9670000  25.2960000 -72.0670000  10.5040000  25.5050000 -73.1900000
  12.1880000  24.8110000 -71.8840000  12.6264144  24.8103623 -70.9741144
  12.9620000  24.3480000 -73.0210000  12.7060481  24.9102600 -73.9190264
  14.4470000  24.5640000 -72.7150000  14.4831191  25.2214378 -71.8463400
  14.8446864  23.5853963 -72.4461499  15.2890000  25.1640000 -73.8440000
  16.2753031  25.3643986 -73.4254939  15.3739268  24.4131426 -74.6295570
  14.7180000  26.4430000 -74.4270000  13.5890000  26.8620000 -74.0900000
  15.4050000  27.0510000 -75.2590000  12.6370000  22.8970000 -73.3440000
  12.6770000  22.4860000 -74.5100000  12.2900000  22.1340000 -72.3150000
  12.4114558  22.4992247 -71.3812127  11.8050000  20.7670000 -72.4650000
  12.4176881  20.1436233 -73.1162403  11.7130000  20.1180000 -71.0720000
  11.4579741  20.8907950 -70.3468448  10.6710000  19.0350000 -71.0370000
  10.9256067  18.2615608 -71.7616157  10.6330779  18.5986909 -70.0388532
   9.6977102  19.4583714 -71.2851186  13.0790000  19.6120000 -70.6210000
  13.2990720  18.6916209 -71.1618986  13.8239428  20.3671695 -70.8717563
  13.1150000  19.3460000 -69.1500000  12.3705925  18.5905389 -68.8985328
  14.1052237  18.9871968 -68.8692574  12.8954608  20.2660877 -68.6083904
  10.4600000  20.7360000 -73.1890000  10.2320000  19.8990000 -74.0700000
   9.5410000  21.6140000 -72.8180000   9.6771037  22.2739568 -72.0656490
   8.2830000  21.6300000 -73.5220000   7.9813521  20.5925978 -73.6665835
   7.5600728  22.1317739 -72.8788059   8.3130000  22.3220000 -74.8580000
   7.2610000  22.4600000 -75.4910000   9.4910000  22.7710000 -75.3020000
  10.3028721  22.6932871 -74.7062452   9.6380000  23.4490000 -76.5890000
  10.6512214  23.8399649 -76.6818874   9.3790000  22.4910000 -77.7420000
   8.4957778  21.9065987 -77.4841379   9.1688179  23.0962743 -78.6237973
  10.5140000  21.5730000 -78.0300000  11.4438122  22.1418060 -78.0268625
  10.5421642  20.8273189 -77.2354777  10.3520000  20.8840000 -79.3590000
   9.3130000  20.2070000 -79.5400000  11.2530000  21.0380000 -80.2230000
   8.7310000  24.6770000 -76.7100000   8.2040000  24.9680000 -77.7810000
   8.5580000  25.4160000 -75.6070000   8.9537518  25.1138625 -74.7282550
   7.7210000  26.6190000 -75.6150000   6.7225910  26.4148292 -76.0017725
   7.5900000  27.1770000 -74.1790000   8.5911836  27.3373149 -73.7789627
   6.8170000  28.4920000 -74.1560000   5.8154871  28.3323718 -74.5554893
   6.7450745  28.8538879 -73.1303468   7.3373443  29.2306458 -74.7657096
   6.9010000  26.1550000 -73.3030000   7.4883485  25.2369793 -73.2839804
   6.8080797  26.5473174 -72.2903043   5.9092119  25.9429630 -73.7023715
   8.2590000  27.6700000 -76.5790000   7.5130000  28.5510000 -77.0260000
   9.5370000  27.5730000 -76.9500000  10.1654121  26.9136031 -76.5136591
  10.0750000  28.4770000 -77.9560000   9.8991569  29.5125389 -77.6647310
  11.5870000  28.2560000 -78.0920000  12.0244303  29.2195111 -78.3535345
  11.9581097  27.9418766 -77.1164468  11.9730000  27.2280000 -79.1330000
  11.7010000  25.8850000 -78.9360000  11.2044668  25.5838492 -78.0135779
  12.0440000  24.9360000 -79.8760000  11.8125094  23.8856643 -79.6990568
  12.6750000  25.3130000 -81.0320000  13.0000000  24.3310000 -81.9440000
  12.7381640  23.4525819 -81.6586525  12.9700000  26.6460000 -81.2600000
  13.4763455  26.9525763 -82.1752736  12.6150000  27.5970000 -80.3100000
  12.8394542  28.6496356 -80.4822752   9.3860000  28.3090000 -79.3060000
   9.5480000  29.1610000 -80.1870000   8.6160000  27.2360000 -79.4800000
   8.5170110  26.6133753 -78.6909252   7.9740000  26.8680000 -80.7350000
   8.0797720  27.6691261 -81.4665111   8.6530000  25.5870000 -81.2990000
   9.6527761  25.8984998 -81.6015144   8.7264341  24.9022947 -80.4540822
   7.9630000  24.8810000 -82.4690000   6.9235013  24.7050633 -82.1922517
   8.0010946  25.5435275 -83.3337012   8.6400000  23.5290000 -82.8230000
   9.6721920  23.7209219 -83.1159927   8.6262960  22.8894110 -81.9404823
   7.9040000  22.8290000 -83.9730000   6.9955733  22.3934461 -83.5568819
   7.6383513  23.5961446 -84.7003369   8.7010000  21.7670000 -84.6420000
   8.9468930  21.0558305 -83.9682981   8.1548764  21.3533246 -85.3841062
   9.5426065  22.1704635 -85.0280244   6.4640000  26.6570000 -80.6050000
   5.7340000  26.9740000 -81.5460000   5.9780000  26.1640000 -79.4620000
   6.6330313  25.9209422 -78.7326467   4.5500000  25.9240000 -79.2230000
   3.9870334  26.2042218 -80.1133053   4.2650000  24.4580000 -78.9070000
   4.7704877  24.1744405 -77.9838665   3.1926182  24.2961534 -78.7978988
   4.7360000  23.5080000 -79.9620000   5.7330000  22.5800000 -79.7360000
   5.9400000  21.8790000 -80.8380000   6.6959644  21.0941936 -80.8643781
   5.1090000  22.3150000 -81.7700000   5.0381126  21.9632978 -82.7141294
   4.3460000  23.3350000 -81.2480000   3.5980469  23.8285975 -81.8685069
   4.0700000  26.7930000 -78.0720000   4.3120000  26.4540000 -76.8990000
   3.3490000  27.8770000 -78.3450000   2.9980000  28.3670000 -79.6850000
   2.0107256  28.0009299 -79.9667485   3.7339754  28.0209941 -80.4107542
   3.0300000  29.8490000 -79.5040000   2.3877783  30.3382100 -80.2363413
   4.0480469  30.2249760 -79.6056067   2.5150000  30.0540000 -78.0900000
   1.4263886  30.0314667 -78.0398347   2.8777651  30.9957428 -77.6781485
   3.0990000  28.8750000 -77.2960000   4.0707809  29.1285849 -76.8724024
   2.1610000  28.4300000 -76.1820000   2.3860000  28.8180000 -75.0300000
   1.1110000  27.6600000 -76.4660000   0.9807165  27.3002623 -77.4007269
   0.1040000  27.3420000 -75.4540000   0.2094330  28.0260289 -74.6119266
  -1.3070000  27.4730000 -76.0140000  -1.5650668  26.5450932 -76.5243819
  -2.0007764  27.6388135 -75.1898154  -1.4390000  28.6150000 -76.9930000
  -0.5560000  28.8370000 -77.8290000  -2.5440000  29.3560000 -76.8960000
  -2.6842181  30.1329808 -77.5258727  -3.2353494  29.1366570 -76.1931305
   0.3030000  25.9290000 -74.9270000   0.6860000  25.0310000 -75.6810000
   0.0240000  25.7300000 -73.6360000  -0.2793165  26.4857678 -73.0385777
   0.2020000  24.4100000 -73.0440000  -0.1851460  23.6571422 -73.7306019
   1.6770000  24.1240000 -72.7890000   2.0766615  24.8643199 -72.0959652
   1.7854948  23.1284246 -72.3586992   2.2253282  24.1744058 -73.7296884
  -0.5800000  24.2950000 -71.7460000  -0.4690000  25.1610000 -70.8730000
  -1.3430000  23.2120000 -71.6150000  -1.3386400  22.5036251 -72.3349204
  -2.2120000  23.0190000 -70.4610000  -2.8883351  23.8674567 -70.3571186
  -3.0430000  21.7520000 -70.6380000  -3.5464357  21.5121615 -69.7014482
  -3.7863382  21.9095196 -71.4194959  -2.1920000  20.6790000 -71.0050000
  -2.7135221  19.8808034 -71.1167888  -1.4080000  22.9060000 -69.1740000
  -0.2380000  22.5200000 -69.1840000  -2.0580000  23.2220000 -68.0460000
  -2.9834310  23.6264903 -68.0540221  -1.3910000  23.0460000 -66.7600000
  -0.5231403  23.7035683 -66.7097746  -2.3280000  23.3820000 -65.5950000
  -1.7811358  23.1375033 -64.6843628  -2.4954680  24.4581271 -65.6397774
  -3.6700000  22.6590000 -65.5910000  -4.2560719  23.0142930 -66.4385774
  -3.4865483  21.5900264 -65.6993652  -4.4480000  22.9170000 -64.2840000
  -4.0691470  22.2310314 -63.5263613  -4.2530967  23.9436274 -63.9739221
  -5.9620000  22.7110000 -64.4500000  -6.4287311  22.8748255 -63.4786999
  -6.3239921  23.4574641 -65.1570023  -6.3110000  21.3450000 -64.9460000
  -5.9760358  20.6531791 -64.2908034  -7.3138315  21.2656105 -65.0361464
  -5.8789641  21.1931542 -65.8462149  -0.8630000  21.6300000 -66.6250000
   0.2600000  21.4260000 -66.1560000  -1.6520000  20.6420000 -67.0680000
  -2.5801349  20.8419124 -67.4125285  -1.2190000  19.2490000 -67.0140000
  -0.9388384  18.9890996 -65.9931864  -2.3490000  18.3170000 -67.4640000
  -2.8903441  18.8444689 -68.2493804  -1.8709158  17.4321715 -67.8842548
  -3.3290000  17.8940000 -66.3640000  -3.4718577  16.8159503 -66.4381717
  -2.8723846  18.1342684 -65.4038580  -4.6830000  18.5960000 -66.4740000
  -4.7700000  19.6030000 -67.2240000  -5.6550000  18.1390000 -65.8150000
   0.0130000  19.0240000 -67.8700000   0.8990000  18.2500000 -67.4960000
   0.0950000  19.7000000 -69.0180000  -0.6548051  20.3042267 -69.3226338
   1.2510000  19.5340000 -69.8960000   1.4603058  18.4757667 -70.0523093
   0.9550000  20.1760000 -71.2450000  -0.1283505  20.1743019 -71.3652004
   1.3124553  21.2043124 -71.1911548   1.5920000  19.4840000 -72.4230000
   2.6042806  19.8738893 -72.5296548   1.6345222  18.4120274 -72.2302157
   0.8160000  19.7370000 -73.7010000   0.0970000  20.7670000 -73.7560000
   0.9150000  18.8980000 -74.6330000   2.5160000  20.1290000 -69.2850000
   3.6200000  19.6220000 -69.5150000   2.3720000  21.2030000 -68.5090000
   1.4631026  21.6286695 -68.3958171   3.5090000  21.8190000 -67.8450000
   4.3629561  21.8529277 -68.5215406   3.1610000  23.2450000 -67.4270000
   2.4565683  23.1683746 -66.5987465   4.0845486  23.7056716 -67.0763726
   2.5580000  24.0960000 -68.5250000   3.2498062  24.1100486 -69.3672040
   1.6178605  23.6399790 -68.8352977   2.2990000  25.5270000 -68.0550000
   1.3097732  25.8491747 -68.3801659   2.3568830  25.5747438 -66.9675859
   3.2970000  26.4370000 -68.6180000   4.1775767  26.5187626 -68.1301486
   3.1160000  27.1520000 -69.7260000   1.9590000  27.0780000 -70.3800000
   1.2233823  26.4794884 -70.0325082   1.8220360  27.6207006 -71.2207238
   4.0890000  27.9440000 -70.1770000   4.9638466  27.9998016 -69.6753729
   3.9468203  28.4845739 -71.0182274   3.9420000  21.0160000 -66.6320000
   5.1380000  20.9220000 -66.3540000   2.9920000  20.4460000 -65.8900000
   2.0127619  20.5919582 -66.0897204   3.3480000  19.6120000 -64.7470000
   3.8165290  20.2294203 -63.9805981   2.1150000  18.9380000 -64.1450000
   1.6856751  18.3103258 -64.9258998   2.4668211  18.3095413 -63.3268548
   1.0740000  19.8810000 -63.6360000   0.7286954  20.4907527 -64.4709055
   0.2422260  19.2933679 -63.2474866   1.6100000  20.7800000 -62.5430000
   1.7158161  20.2021216 -61.6248723   2.5842663  21.1656667 -62.8432764
   0.6500000  21.9500000 -62.3020000  -0.3627141  21.5529331 -62.2323682
   0.9192252  22.4247775 -61.3584941   0.7150000  22.9630000 -63.4080000
   0.4651465  22.5233635 -64.2822956   0.0703631  23.7157669 -63.2133588
   1.6532194  23.3313675 -63.4724107   4.3380000  18.5420000 -65.1470000
   5.2430000  18.2080000 -64.3790000   4.1760000  17.9880000 -66.3460000
   3.4420677  18.2798613 -66.9754916   5.0090000  16.8640000 -66.7340000
   5.2083703  16.2286155 -65.8710763   4.2930000  16.0330000 -67.7970000
   3.6369547  16.6995088 -68.3568838   5.0492184  15.6221214 -68.4658890
   3.4710000  14.8950000 -67.1990000   4.1188711  14.3041062 -66.5515370
   2.6630180  15.3260916 -66.6078763   2.8860000  14.0020000 -68.2810000
   3.6648170  13.3368348 -68.6539590   2.0762121  13.4095876 -67.8551003
   2.3570000  14.7820000 -69.4040000   3.0047940  15.0357298 -70.1361772
   1.0890000  15.1710000 -69.5150000   0.2130000  14.8490000 -68.5590000
   0.5175983  14.3131175 -67.7589064  -0.7498179  15.1429323 -68.6407633
   0.7010000  15.8800000 -70.5800000   1.3721102  16.1176630 -71.2963989
  -0.2614491  16.1747102 -70.6632843   6.3860000  17.3170000 -67.2070000
   7.3740000  16.5920000 -67.0200000   6.4750000  18.5020000 -67.8110000
   5.6526864  19.0024999 -68.1166133   7.7790000  19.0940000 -68.0700000
   8.3291399  18.4822700 -68.7850046   7.6180000  20.4870000 -68.6470000
   7.0699291  21.1223501 -67.9512646   8.5966646  20.9245831 -68.8440700
   6.8900000  20.5190000 -69.8990000   6.6470000  19.4810000 -70.7350000
   7.0335048  18.5060401 -70.4380706   5.9340000  19.9110000 -71.8210000
   5.6388360  19.3396869 -72.5998319   5.6930000  21.2510000 -71.6820000
   5.0120000  22.1310000 -72.5090000   4.5726786  21.7478349 -73.4300211
   4.9350000  23.4390000 -72.1100000   4.4104356  24.1589955 -72.7381230
   5.5120000  23.8760000 -70.9170000   5.4408071  24.9183076 -70.6061529
   6.1880000  23.0030000 -70.0980000   6.6141409  23.3892220 -69.1720749
   6.2890000  21.6610000 -70.4820000   8.6030000  19.1710000 -66.7990000
   9.7880000  18.8380000 -66.8000000   7.9890000  19.6200000 -65.7010000
   7.0457552  19.9793415 -65.7365299   8.7020000  19.6740000 -64.4300000
   9.6621393  20.1719770 -64.5650951   7.8940000  20.4480000 -63.4020000
   7.8407564  21.4833955 -63.7384827   6.8914675  20.0205929 -63.3832449
   8.4870000  20.4000000 -62.0150000   8.4874398  19.3772234 -61.6381331
   9.5114836  20.7689177 -62.0643465   7.7150000  21.2590000 -61.0650000
   8.0990000  22.3840000 -60.7960000   6.5970000  20.7440000 -60.5610000
   6.0413313  21.2861642 -59.9149414   6.3088590  19.8131416 -60.8266667
   9.0400000  18.2790000 -63.9040000  10.1490000  18.0620000 -63.4070000
   8.1210000  17.3160000 -64.0150000   7.1875382  17.5063269 -64.3504462
   8.4370000  15.9580000 -63.5800000   8.7627420  16.0016972 -62.5407301
   7.2050000  15.0720000 -63.6660000   6.8722518  15.0110812 -64.7021793
   7.4490927  14.0732609 -63.3040065   6.4088897  15.4953735 -63.0535765
   9.5790000  15.3530000 -64.3950000  10.4490000  14.6620000 -63.8380000
   9.5870000  15.5840000 -65.7150000   8.8295088  16.0817777 -66.1605601
  10.6810000  15.0950000 -66.5510000  10.7143317  14.0060664 -66.5161875
  10.4940000  15.5330000 -68.0080000  10.6640258  16.6071264 -68.0817831
  11.4490000  14.8220000 -68.8840000  11.2792672  13.7477673 -68.8110996
  11.3047788  15.1429184 -69.9156544  12.4681825  15.0502694 -68.5721335
   9.1670000  15.2520000 -68.4620000   9.0745545  15.5345381 -69.3748123
  12.0070000  15.6180000 -66.0320000  12.9150000  14.8540000 -65.6910000
  12.1190000  16.9400000 -65.9640000  11.3556521  17.5283795 -66.2660080
  13.3370000  17.5770000 -65.5030000  14.1758533  17.3013141 -66.1420787
  13.1630000  19.0860000 -65.5540000  13.2749543  19.3365614 -66.6088860
  12.1669091  19.3726338 -65.2167404  14.2050000  19.8330000 -64.7440000
  14.2734127  19.3805014 -63.7547247  15.5750000  19.7690000 -65.4310000
  15.5074869  20.2217591 -66.4202169  16.3075556  20.3111642 -64.8330694
  15.8848497  18.7285333 -65.5285840  13.7330000  21.2500000 -64.5320000
  12.7847927  21.2410844 -63.9944845  14.4746841  21.7973711 -63.9502864
  13.5979867  21.7368753 -65.4978275  13.6870000  17.1340000 -64.0970000
  14.8670000  16.9830000 -63.7640000  12.6790000  16.9280000 -63.2500000
  11.7150549  17.0862227 -63.5066606  12.9730000  16.5350000 -61.8780000
  13.7109266  17.2172698 -61.4560149  11.7240000  16.5750000 -61.0130000
  10.8873450  16.2111480 -61.6094221  11.8744599  15.9152328 -60.1585007
  11.4240000  17.9670000 -60.5250000  12.0410000  18.9130000 -61.0590000
  10.5870000  18.1280000 -59.6160000  13.6060000  15.1620000 -61.8340000
  14.6680000  14.9810000 -61.2260000  12.9710000  14.1820000 -62.4830000
  12.0560949  14.3250482 -62.8862185  13.5580000  12.8490000 -62.5560000
  13.6204550  12.4165451 -61.5574103  12.6970000  11.9350000 -63.4320000
  12.2136041  12.5553578 -64.1867078  13.3595835  11.2201749 -63.9199634
  11.6330000  11.1810000 -62.6350000  12.1480815  10.6591202 -61.8285055
  10.9610096  11.9281292 -62.2127099  10.8250000  10.1760000 -63.4580000
  11.5033652   9.6841207 -64.1551186  10.4067716   9.4360612 -62.7755962
   9.6930000  10.8480000 -64.2370000  10.1393820  11.6100008 -64.8759041
   9.2213363  10.0855441 -64.8569141   8.6700000  11.4750000 -63.3590000
   9.1067697  12.1818389 -62.7847956   7.9523826  11.9000609 -63.9286038
   8.2559472  10.7690076 -62.7671942  14.9870000  12.9120000 -63.0720000
  15.8850000  12.2800000 -62.5080000  15.2300000  13.7130000 -64.1080000
  14.5216603  14.3128697 -64.5061338  16.5380000  13.6730000 -64.7450000
  16.8312753  12.6390036 -64.9264942  16.4980000  14.4070000 -66.0750000
  15.5095935  14.3674377 -66.5328064  16.7817972  15.4469812 -65.9137601
  17.4530000  13.8550000 -67.0750000  17.1520000  12.7690000 -67.8650000
  18.1820000  12.4980000 -68.6480000  18.1363274  11.6747331 -69.3609128
  19.1470000  13.3620000 -68.3810000  20.0541944  13.3980412 -68.8234921
  18.7170000  14.2160000 -67.3930000  19.3787026  14.9995938 -67.0239043
  17.6190000  14.2510000 -63.8440000  18.7110000  13.6780000 -63.7320000
  17.3380000  15.3880000 -63.1980000  16.4828591  15.8934758 -63.3805586
  18.2990000  15.9670000 -62.2590000  19.2222018  16.2196615 -62.7804977
  17.7260000  17.2410000 -61.6340000  16.7977179  16.9245027 -61.1583730
  18.4222196  17.5926923 -60.8726257  17.4330000  18.3750000 -62.6200000
  16.6383242  18.0572197 -63.2949866  17.0060000  19.6150000 -61.8950000
  17.8004039  19.9336726 -61.2201156  16.8033951  20.4066772 -62.6163177
  16.1031651  19.4078911 -61.3204607  18.6390000  18.6760000 -63.4780000
  18.9145819  17.7858097 -64.0434338  18.4014683  19.4852875 -64.1684591
  19.4725342  18.9744369 -62.8421893  18.6850000  14.9640000 -61.1820000
  19.8320000  14.9560000 -60.7110000  17.7500000  14.0910000 -60.8080000
  16.7927033  14.1926911 -61.1135181  18.0690000  13.0110000 -59.8850000
  18.6070145  13.3913095 -59.0166658  16.7650000  12.3760000 -59.4110000
  16.0716054  13.1916193 -59.2058945  16.3854060  11.7764912 -60.2384041
  16.8980000  11.5190000 -58.1960000  17.5616128  10.6854948 -58.4261912
  17.3298726  12.1153418 -57.3922808  15.5580000  10.9880000 -57.7620000
  14.7719695  11.6601692 -58.1061563  15.4028580   9.9982967 -58.1915553
  15.4810000  10.8840000 -56.3070000  16.2404509  10.4344228 -55.8158645
  14.4800000  11.3900000 -55.5980000  13.4820000  11.9840000 -56.2340000
  13.4943957  12.0443516 -57.2421191  12.7129760  12.3739886 -55.7080621
  14.4430000  11.2730000 -54.2790000  15.1878289  10.7904988 -53.7967941
  13.6701314  11.6668335 -53.7616336  19.0020000  11.9750000 -60.5230000
  19.9570000  11.5220000 -59.8850000  18.7460000  11.5850000 -61.7780000
  17.9688750  11.9625334 -62.3011105  19.5520000  10.5350000 -62.3960000
  19.6779443   9.7068322 -61.6985939  18.8650000  10.0080000 -63.6650000
  17.9734243   9.4658878 -63.3498709  18.5721853  10.8739151 -64.2587598
  19.7570000   9.0800000 -64.5150000  19.1536795   8.6445906 -65.3115701
  20.5632221   9.6695961 -64.9514452  20.3660000   7.9330000 -63.6340000
  20.6776448   8.4002385 -62.6998348  19.5514091   7.2360563 -63.4369958
  21.5640000   7.1660000 -64.2530000  21.6364055   6.2094195 -63.7354947
  21.3283764   6.9934594 -65.3031478  22.8750000   7.8930000 -64.1470000
  23.0937291   8.0525981 -63.1739709  23.6040465   7.3357374 -64.5689592
  22.8082542   8.7792298 -64.6268341  20.9580000  11.0340000 -62.7080000
  21.9450000  10.3370000 -62.4390000  21.0700000  12.2440000 -63.2620000
  20.2545190  12.8306544 -63.3665314  22.3450000  12.7380000 -63.7640000
  22.9917258  11.8999779 -64.0239308  22.1270000  13.5910000 -65.0110000
  21.4497694  14.3958497 -64.7252120  23.0972915  14.0104792 -65.2768413
  21.5550000  12.8490000 -66.2010000  21.0342620  11.9654874 -65.8317599
  20.8440483  13.5065756 -66.7012440  22.6350000  12.4260000 -67.1870000
  22.2949417  12.6313981 -68.2020226  23.5448841  12.9921055 -66.9876636
  22.9350000  11.0060000 -67.0740000  23.6652550  10.7372186 -66.4301183
  22.3090000  10.0520000 -67.7580000  21.3470000  10.3650000 -68.6210000
  21.0904896  11.3322794 -68.7576491  20.8772411   9.6340224 -69.1358767
  22.6520000   8.7830000 -67.5780000  23.3851251   8.5491390 -66.9238313
  22.1783980   8.0567086 -68.0959775  23.1130000  13.5600000 -62.7490000
  24.3450000  13.6060000 -62.8220000  22.4240000  14.2100000 -61.8020000
  21.4216740  14.0947435 -61.7555473  23.0610000  15.1320000 -60.8600000
  24.1428782  15.1132348 -60.9914783  22.5610000  16.5630000 -61.1090000
  21.5481657  16.6075240 -60.7086458  23.2096364  17.2193398 -60.5288372
  22.5520000  17.0130000 -62.5570000  22.1697226  16.1983313 -63.1720445
  21.8934457  17.8767091 -62.6487325  24.2000000  17.4620000 -63.1270000
  24.9270000  18.1690000 -61.6490000  24.9389185  17.4213189 -60.8559490
  25.9472195  18.4880648 -61.8621912  24.3375833  19.0281622 -61.3287977
  22.8450000  14.7910000 -59.3830000  23.3180000  15.5390000 -58.5170000
  22.1320000  13.7100000 -59.0660000  21.7003697  13.1710552 -59.8031114
  21.8800000  13.3150000 -57.6780000  21.2114976  12.4542714 -57.6592924
  23.1780000  12.9390000 -56.9730000  23.8622444  13.7836851 -57.0530993
  22.9672064  12.7412331 -55.9220222  23.8380000  11.7300000 -57.5650000
  23.2520000  11.0020000 -58.3700000  25.0780000  11.4930000 -57.1570000
  25.5807287  10.6942444 -57.5166570  25.5135297  12.1124284 -56.4886265
  21.1470000  14.4000000 -56.8830000  21.3980000  14.5960000 -55.6880000
  20.2320000  15.1150000 -57.5260000  20.1065582  14.9922168 -58.5206296
  19.4280000  16.1180000 -56.8490000  19.8609259  16.3409205 -55.8738175
  19.3780000  17.4100000 -57.6690000  19.0694051  17.1326930 -58.6769530
  18.6207499  18.0541132 -57.2220207  20.7140000  18.1600000 -57.7320000
  21.4893346  17.4525605 -58.0260858  20.6740000  19.2900000 -58.7100000
  19.8991597  19.9981388 -58.4162981  21.6402640  19.7942451 -58.7230935
  20.4533696  18.9026750 -59.7046869  21.0300000  18.7060000 -56.3730000
  21.1021566  17.8855635 -55.6590134  21.9788284  19.2413784 -56.4075812
  20.2392314  19.3888371 -56.0623273  18.0290000  15.5550000 -56.6220000
  17.3460000  15.1890000 -57.5800000  17.6120000  15.4620000 -55.3620000
  18.2396528  15.5484627 -54.5754407  16.2020000  15.2040000 -55.0960000
  15.8314262  14.4748989 -55.8165455  15.9770000  14.6570000 -53.6890000
  14.9060503  14.4906367 -53.5728565  16.5014416  13.7036937 -53.6236696
  16.4620000  15.5700000 -52.6010000  17.4912109  15.2927049 -52.3731112
  16.4382055  16.5877676 -52.9904676  15.6280000  15.4930000 -51.3400000
  14.5703433  15.4993351 -51.6034789  15.8631280  14.5728806 -50.8050285
  15.9410000  16.7080000 -50.4370000  17.0169731  16.6884169 -50.2637977
  15.6831956  17.5930419 -51.0186673  15.2240000  16.7490000 -49.1210000
  15.4630870  15.9291991 -48.5816822  15.4989335  17.5778371 -48.6135155
  14.2269720  16.7675826 -49.2812779  15.4150000  16.4990000 -55.2600000
  15.9490000  17.5860000 -55.0280000  14.1500000  16.4220000 -55.6690000
  13.4820000  15.3110000 -56.3520000  13.0788650  14.6096403 -55.6214680
  14.1866049  14.7925493 -57.0022613  12.4050000  16.0230000 -57.1250000
  11.5722002  15.3435236 -57.3062605  12.8045588  16.3695503 -58.0780777
  12.0100000  17.1260000 -56.3060000  11.3767330  16.7524609 -55.5013010
  11.4951849  17.9324237 -56.8282508  13.3310000  17.6360000 -55.7330000
  13.8289609  18.3569904 -56.3813101  13.1370000  18.2440000 -54.3570000
  12.9400000  17.5280000 -53.3700000  13.1840000  19.5770000 -54.2980000
  13.5224212  20.1198702 -55.0795768  12.8280000  20.2780000 -53.0740000
  12.4284579  19.5328790 -52.3860610  14.0340000  20.9560000 -52.4420000
  13.7020906  21.6209739 -51.6446630  14.9360000  19.9300000 -51.8830000
  15.2687166  19.2648812 -52.6798797  15.8009939  20.4140375 -51.4295754
  14.4053206  19.3523509 -51.1261644  14.7960000  21.7210000 -53.4930000
  15.2270048  21.0178524 -54.2056844  14.1126212  22.3920132 -54.0134174
  15.8720000  22.5060000 -52.8670000  16.5560845  21.8355807 -52.3467441
  16.4162806  23.0549113 -53.6354752  15.4417007  23.2097403 -52.1544750
  11.7180000  21.2910000 -53.3330000  11.5070000  21.7630000 -54.4560000
  11.0140000  21.6350000 -52.2500000  11.2925321  21.3273306 -51.3292075
   9.7820000  22.3970000 -52.3790000   9.1815629  21.9955844 -53.1953578
   8.9700000  22.3140000 -51.0900000   9.6869337  22.1899337 -50.2783887
   8.4608373  23.2715996 -50.9811128   7.9280000  21.1660000 -51.0390000
   8.4850734  20.2415522 -50.8867950   7.2939934  21.3543818 -50.1725994
   6.8830000  20.9980000 -52.5200000   6.1840000  22.6510000 -52.7180000
   6.9893878  23.3726429 -52.8546785   5.5301885  22.6675172 -53.5899853
   5.6098530  22.9121351 -51.8290315  10.0630000  23.8430000 -52.7500000
   9.4680000  24.3710000 -53.6960000  10.9660000  24.5030000 -52.0170000
  11.3086282  24.0725526 -51.1699933  11.4120000  25.8560000 -52.3350000
  10.9866406  26.1656696 -53.2896064  10.9580000  26.8670000 -51.2350000
   9.9369688  27.1577827 -51.4820628  10.9617030  26.3220491 -50.2910112
  11.8330000  28.1280000 -51.1030000  12.6689823  27.8387311 -50.4661657
  12.1982698  28.3372664 -52.1084290  11.1580000  29.3980000 -50.5240000
  10.4363696  29.7571118 -51.2577487  10.6355351  29.1122318 -49.6110562
  12.1020000  30.4990000 -50.2070000  12.0398770  30.8391452 -49.2580314
  13.0000000  31.0750000 -51.0430000  13.1470000  30.6840000 -52.3170000
  12.5756407  29.9350459 -52.6813026  13.8284280  31.1401870 -52.9066176
  13.7870000  32.0690000 -50.5960000  13.7055421  32.3820778 -49.6392101
  14.4561561  32.4982025 -51.2189880  12.9280000  25.8550000 -52.5300000
  13.6440000  25.0670000 -51.9120000  13.4010000  26.7510000 -53.4020000
  12.7530713  27.4272767 -53.7800708  14.7810000  26.7710000 -53.8810000
  15.0833310  25.7736406 -54.2003265  14.8980000  27.7200000 -55.0700000
  14.2331986  27.3175949 -55.8343354  14.5120563  28.6778563 -54.7212037
  16.2700000  27.9150000 -55.6520000  16.1563876  28.7042964 -56.3951044
  16.8821088  28.2789736 -54.8268042  17.0910000  26.4840000 -56.4200000
  16.0310000  26.1940000 -57.8420000  16.0226154  27.0803531 -58.4763554
  16.4092975  25.3444694 -58.4105854  15.0172669  25.9810382 -57.5027454
  15.7800000  27.1740000 -52.7930000  15.5210000  28.0320000 -51.9390000
  16.9720000  26.6050000 -52.9300000  17.1887287  26.4124533 -53.8974987
  17.9870000  26.3310000 -51.9300000  17.6415271  26.6195485 -50.9372828
  18.2690000  24.8380000 -51.9310000  17.6154886  24.3689068 -52.6665091
  19.3080625  24.7077000 -52.2334418  18.0700000  24.1730000 -50.6330000
  17.2800000  24.5920000 -49.7960000  18.8180000  23.0570000 -50.4470000
  18.7419055  22.5400253 -49.5826815  19.4477379  22.7479488 -51.1736487
  19.2970000  26.9980000 -52.3340000  19.6450000  27.0560000 -53.5210000
  20.0820000  27.4160000 -51.3560000  19.7890091  27.4890765 -50.3921974
  21.4410000  27.7900000 -51.6910000  21.3825753  28.6453780 -52.3640633
  21.9297067  28.0903527 -50.7641487  22.2650000  26.6940000 -52.3530000
  22.8170000  26.8940000 -53.4410000  22.3670000  25.5230000 -51.7200000
  21.9318337  25.3308458 -50.8290419  23.2160000  24.4960000 -52.3100000
  24.1786267  24.9306090 -52.5793770  23.4550000  23.3510000 -51.3310000
  22.4991357  23.0278433 -50.9186985  23.9129020  22.5253478 -51.8757240
  24.3660000  23.7410000 -50.1900000  24.9360000  24.8210000 -50.1940000
  24.4970000  22.8660000 -49.2030000  25.0948721  23.0808148 -48.4178227
  23.9983414  21.9884908 -49.2406575  22.6130000  23.9800000 -53.6060000
  23.3340000  23.7500000 -54.5800000  21.2910000  23.8050000 -53.6500000
  20.7052183  23.9168951 -52.8348689  20.6670000  23.3770000 -54.8960000
  21.0126552  22.3780049 -55.1617638  19.1450000  23.3420000 -54.7380000
  18.8840643  22.8817789 -53.7850004  18.7384106  24.3526045 -54.7762579
  18.4420000  22.5580000 -55.7980000  18.3200000  23.0460000 -57.0790000
  18.7349687  24.0249358 -57.3189698  17.6850000  22.3150000 -58.0480000
  17.6006860  22.6990206 -59.0646219  17.1600000  21.1070000 -57.7350000
  16.6473176  20.5234215 -58.4996521  17.2720000  20.6180000 -56.4610000
  16.8511108  19.6422442 -56.2184037  17.8990000  21.3370000 -55.5090000
  17.9778103  20.9464816 -54.4944143  21.0800000  24.3040000 -56.0290000
  21.5300000  23.8530000 -57.0900000  20.9520000  25.6160000 -55.8020000
  20.4969601  25.9584027 -54.9678547  21.4170000  26.5870000 -56.7830000
  20.8772706  26.4473108 -57.7196313  21.1610000  28.0020000 -56.2800000
  21.7023076  28.1600734 -55.3472090  21.5037670  28.7204344 -57.0246228
  20.0934971  28.1393667 -56.1077581  22.8950000  26.3810000 -57.0780000
  23.3090000  26.3360000 -58.2460000  23.7070000  26.2320000 -56.0210000
  23.3495772  26.2936727 -55.0783735  25.1440000  26.0570000 -56.2060000
  25.5737925  26.9421786 -56.6748672  25.8160000  25.8480000 -54.8490000
  25.0437812  25.5107347 -54.1576033  26.5578996  25.0597520 -54.9768680
  26.4750000  27.0650000 -54.3010000  27.2345050  27.3951646 -55.0096919
  25.7213987  27.8443048 -54.1875490  27.1220000  26.7900000 -52.9600000
  27.4773180  25.7602144 -52.9227207  27.9605829  27.4689685 -52.8054683
  26.1590000  26.9890000 -51.8910000  25.5840617  26.1963592 -51.6434805
  25.9820000  28.1280000 -51.2360000  26.7120000  29.1750000 -51.5200000
  27.4149959  29.1156702 -52.2427564  26.5694598  30.0381582 -51.0152823
  25.0720000  28.2040000 -50.2860000  24.5127651  27.3937122 -50.0606334
  24.9379590  29.0721872 -49.7876200  25.4360000  24.9010000 -57.1580000
  26.3430000  24.9880000 -57.9950000  24.6390000  23.8310000 -57.0810000
  23.8703771  23.8553374 -56.4262284  24.8570000  22.6100000 -57.8450000
  25.9083221  22.5103086 -58.1149678  24.4560000  21.4070000 -56.9870000
  25.0651257  21.4556791 -56.0843952  23.4076839  21.5509517 -56.7254446
  24.6290000  20.0700000 -57.6330000  24.0962424  19.3240907 -57.0431784
  24.2061578  20.1083578 -58.6369100  26.1010000  19.6930000 -57.7170000
  26.6192183  20.4700120 -58.2789619  26.4994811  19.6514200 -56.7033021
  26.3130000  18.3300000 -58.4090000  26.0405254  18.4552648 -59.4569346
  27.3745409  18.0935992 -58.3358915  25.5110000  17.2130000 -57.8150000
  24.5273038  17.4316623 -57.8830324  25.7013215  16.3577371 -58.3173973
  25.7636372  17.0964802 -56.8440743  24.1020000  22.5860000 -59.1680000
  24.5600000  21.9460000 -60.1200000  22.9730000  23.2920000 -59.2640000
  22.6015231  23.7956815 -58.4712774  22.2200000  23.3150000 -60.5120000
  22.1449548  22.3059795 -60.9173948  20.8110000  23.8510000 -60.2740000
  20.3437592  23.2188353 -59.5189152  20.8756220  24.8734302 -59.9017628
  19.9710000  23.8260000 -61.5490000  20.6436594  23.8229375 -62.4066834
  19.0860000  22.6080000 -61.6010000  18.4126962  22.6106043 -60.7438220
  18.5019163  22.6216567 -62.5211959  19.7021392  21.7092060 -61.5756591
  19.1270000  25.0370000 -61.6260000  19.7618129  25.9230303 -61.6338878
  18.5323299  25.0085946 -62.5390508  18.4635796  25.0736759 -60.7619240
  22.9150000  24.1600000 -61.5660000  23.0130000  23.7540000 -62.7220000
  23.3860000  25.3500000 -61.1870000  23.2734762  25.6304258 -60.2232578
  24.0380000  26.2800000 -62.1080000  23.4728630  26.3304838 -63.0386829
  24.1100000  27.6770000 -61.5060000  24.7245745  27.5998001 -60.6090955
  24.6143483  28.3075190 -62.2382422  22.8080000  28.2730000 -61.1590000
  22.3286410  27.6504116 -60.4035534  22.9770270  29.2704326 -60.7532166
  21.7370000  28.3930000 -62.5890000  22.3520000  29.8480000 -63.4260000
  23.3973619  29.6979696 -63.6958304  21.7660487  30.0237456 -64.3281503
  22.2681045  30.7107014 -62.7650847  25.4550000  25.8320000 -62.4590000
  26.4320000  26.5540000 -62.1930000  25.5850000  24.6390000 -63.0380000
  24.8055413  23.9969049 -63.0540442  26.8390000  24.2130000 -63.6290000
  27.5578147  25.0302813 -63.5702126  27.4280000  22.9940000 -62.9250000
  28.4187033  22.8017557 -63.3368851  27.5370000  23.2160000 -61.4350000
  26.5465605  23.4078603 -61.0223030  27.9602264  22.3283283 -60.9648751
  28.1829862  24.0722523 -61.2410041  26.5850000  21.8740000 -63.1700000
  26.9457851  21.0999568 -62.7314895  26.5900000  23.8920000 -65.0920000
  25.4500000  23.7890000 -65.5550000  27.6850000  23.7540000 -65.8290000
  28.6016650  23.9534594 -65.4547801  27.5770000  23.3940000 -67.2360000
  26.7207595  23.8887653 -67.6944306  28.8500000  23.8460000 -67.9610000
  29.0906150  24.8401518 -67.5843491  29.6385803  23.1494649 -67.6762545
  28.7380000  23.8920000 -69.4750000  29.7498768  23.9248798 -69.8788874
  28.2368745  22.9894458 -69.8248159  27.9780000  25.0920000 -69.9810000
  26.8930000  24.9490000 -70.5390000  28.5510000  26.2800000 -69.8090000
  28.0820915  27.1147308 -70.1306376  29.4523668  26.3418872 -69.3575476
  27.3180000  21.9000000 -67.3960000  26.6990000  21.4760000 -68.3790000
  27.7640000  21.1040000 -66.4250000  28.3921244  21.4558204 -65.7166346
  27.3910000  19.6960000 -66.3800000  27.7433235  19.1857730 -67.2764573
  28.0220000  19.0330000 -65.1630000  29.1006181  19.0370908 -65.3200522
  27.7787287  19.6521973 -64.2995686  27.5530000  17.6120000 -64.9140000
  26.4651544  17.6217836 -64.8461983  27.8583587  16.9937412 -65.7581631
  28.1380000  17.0380000 -63.6250000  28.0020000  15.8090000 -63.4020000
  28.7280000  17.8230000 -62.8370000  25.8860000  19.5250000 -66.3340000
  25.3410000  18.6130000 -66.9610000  25.1990000  20.3780000 -65.5760000
  25.6677130  21.0789549 -65.0200596  23.7430000  20.2980000 -65.5050000
  23.4175774  19.2833036 -65.2756736  23.2120000  21.2350000 -64.4270000
  23.4662215  22.2600926 -64.6965494  21.7130000  21.1070000 -64.2930000
  21.4580239  20.0822162 -64.0229907  21.3577552  21.7856183 -63.5175147
  21.2399166  21.3606602 -65.2416565  23.8380000  20.9360000 -63.1720000
  23.5001808  21.5287747 -62.4966507  23.1060000  20.6530000 -66.8310000
  22.0470000  20.1220000 -67.1720000  23.7260000  21.5550000 -67.5890000
  24.5358178  22.0661898 -67.2680958  23.1690000  21.8910000 -68.8930000
  22.0954503  22.0745467 -68.8494011  23.8580000  23.1340000 -69.4970000
  24.8243076  22.8403118 -69.9069951  22.9900000  23.7400000 -70.6140000
  22.0236307  24.0343750 -70.2046411  23.4899928  24.6151208 -71.0290557
  22.8407145  23.0003294 -71.4005767  24.1640000  24.1640000 -68.4200000
  24.8266648  23.7248075 -67.6742873  24.6489389  25.0294802 -68.8715285
  23.2359484  24.4767304 -67.9414389  23.2670000  20.6910000 -69.8170000
  22.3190000  20.3950000 -70.5550000  24.4080000  19.9780000 -69.7790000
  25.2119145  20.3449156 -69.2899257  24.5400000  18.6880000 -70.4640000
  24.5183293  18.8412104 -71.5429607  25.8600000  18.0110000 -70.0930000
  25.9629374  18.0479126 -69.0084998  25.8036518  16.9717736 -70.4169343
  27.0470000  18.6690000 -70.7300000  26.8820000  19.7930000 -71.2630000
  28.1450000  18.0670000 -70.6980000  23.3800000  17.7620000 -70.1170000
  22.6770000  17.2490000 -71.0000000  23.1830000  17.5260000 -68.8200000
  23.8459210  17.8336253 -68.1228617  22.0360000  16.7490000 -68.3840000
  22.1709583  15.7073087 -68.6751437  21.9060000  16.8180000 -66.8630000
  21.7611691  17.8540420 -66.5568284  21.0508896  16.2223357 -66.5435152
  22.8130799  16.4269112 -66.4021803  20.7750000  17.2400000 -69.0720000
  20.0570000  16.4580000 -69.6970000  20.5280000  18.5500000 -69.0330000
  21.1591555  19.2001157 -68.5868030  19.2650000  19.0560000 -69.5430000
  18.4427740  18.4183631 -69.2182496  19.0090000  20.4850000 -69.0350000
  19.8591984  21.1096816 -69.3089248  17.7390000  21.0640000 -69.6400000
  16.8882396  20.4400691 -69.3661059  17.5841277  22.0747384 -69.2624779
  17.8333544  21.0926476 -70.7255313  18.8790000  20.4700000 -67.5240000
  19.7998755  20.0880067 -67.0833510  18.6975872  21.4828347 -67.1643404
  18.0459756  19.8283592 -67.2368272  19.1970000  18.9790000 -71.0540000
  18.1030000  18.8750000 -71.6090000  20.3240000  18.9710000 -71.7500000
  21.2419962  19.0909342 -71.3462698  20.2120000  18.8960000 -73.1990000
  19.4589712  19.6011009 -73.5509654  21.5460000  19.2440000 -73.8480000
  22.3659979  18.7181827 -73.3589001  21.5387387  18.9972373 -74.9096758
  21.9550000  21.0400000 -73.7430000  23.1196352  20.9548118 -74.3796051
  19.6950000  17.5340000 -73.6520000  18.9740000  17.4560000 -74.6560000
  19.9870000  16.4640000 -72.9000000  20.6238585  16.5716221 -72.1235156
  19.4710000  15.1220000 -73.1960000  19.8333339  14.7888861 -74.1685474
  19.9500000  14.1230000 -72.1230000  19.5226072  14.4575553 -71.1777448
  19.5252195  13.1556270 -72.3910504  21.4760000  13.9900000 -71.9770000
  21.8463622  13.5334264 -72.8948634  21.8915075  14.9927508 -71.8772833
  21.9050000  13.1330000 -70.7670000  21.0230000  12.5370000 -70.1020000
  23.1300000  13.0660000 -70.4770000  17.9370000  15.0780000 -73.3000000
  17.3680000  14.0580000 -73.7000000  17.2600000  16.1670000 -72.9500000
  17.7773750  16.9844251 -72.6597612  15.8060000  16.2230000 -72.9170000
  15.3909844  15.2470574 -73.1687881  15.3200000  16.6160000 -71.5120000
  15.8496088  17.5519498 -71.3342030  14.2586807  16.8207379 -71.6526551
  15.5050000  15.6900000 -70.3100000  15.0069397  14.7471415 -70.5359527
  16.9340000  15.4320000 -69.9960000  17.4326495  16.3744080 -69.7694724
  17.0030700  14.7685911 -69.1338987  17.4161986  14.9634431 -70.8539274
  14.8620000  16.2830000 -69.0950000  13.7962607  16.4204603 -69.2777672
  15.0011555  15.6134277 -68.2462304  15.3197672  17.2474732 -68.8751372
  15.2270000  17.1980000 -73.9380000  13.9980000  17.2320000 -74.1230000
  16.0720000  17.9910000 -74.5840000  17.0524589  17.9140934 -74.3540324
  15.6690000  18.9840000 -75.5800000  14.5836005  19.0741696 -75.6233186
  16.2890000  20.3690000 -75.3030000  17.3342857  20.3581428 -75.6118047
  15.5350000  21.4620000 -76.0830000  14.4896702  21.4737772 -75.7743781
  15.9853082  22.4328578 -75.8762189  15.5955811  21.2540886 -77.1512705
  16.3030000  20.6800000 -73.8090000  15.2799222  20.9059078 -73.5083702
  16.6451962  19.7858190 -73.2879995  17.2000000  21.8430000 -73.4550000
  16.8581254  22.7377122 -73.9752996  17.1665606  22.0139337 -72.3790062
  18.2233996  21.6176240 -73.7549313  16.1030000  18.4840000 -76.9520000
  17.2930000  18.1870000 -77.1460000  15.1960000  18.4030000 -77.9210000
  13.7590000  18.6850000 -77.7910000  13.6160192  19.6487222 -77.3022298
  13.2829473  17.9035953 -77.1986491  13.2940000  18.6870000 -79.2090000
  13.3921356  19.6875305 -79.6301972  12.2511987  18.3734905 -79.2577704
  14.1860000  17.7010000 -79.9190000  14.2759979  17.9498622 -80.9763869
  13.8228627  16.6783853 -79.8165792  15.5480000  17.8430000 -79.2330000
  16.0167592  16.8755966 -79.0527396  16.4870000  18.7160000 -80.0540000
  17.4640000  18.2170000 -80.6170000  16.2060000  20.0150000 -80.1270000
  15.5000267  20.4149298 -79.5255375  16.8760000  20.8880000 -81.0800000
  17.0148636  20.3682229 -82.0279704  16.0370000  22.1350000 -81.3270000
  15.0861887  21.8536681 -81.7796692  15.8519139  22.6457037 -80.3820001
  16.7360000  22.9980000 -82.1990000  16.2111844  23.7859643 -82.3579992
  18.2440000  21.2880000 -80.5600000  18.3400000  21.9170000 -79.5070000
  19.3010000  20.9530000 -81.2970000  19.2358806  20.3625354 -82.1138294
  20.6250000  21.3790000 -80.8550000  20.6861133  21.3033775 -79.7693455
  21.7290000  20.5020000 -81.4720000  22.5759581  20.5507153 -80.7876112
  21.3362961  19.4853861 -81.4914908  22.1870000  20.9000000 -82.8810000
  21.4222328  20.5714121 -83.5847485  22.2603463  21.9872324 -82.9064021
  23.5390000  20.2870000 -83.2720000  24.5690000  20.9990000 -83.1700000
  23.5710000  19.0970000 -83.6760000  20.8980000  22.8510000 -81.1510000
  21.9010000  23.3820000 -80.6540000  20.0420000  23.5220000 -81.9420000
  19.3711829  23.0474681 -82.5293017  20.1170000  24.9770000 -82.0140000
  21.1216274  25.2730112 -82.3159941  19.1120000  25.5390000 -83.0330000
  19.5629059  26.4211680 -83.4874917  18.9566613  24.7767499 -83.7965082
  17.7520000  25.9220000 -82.4030000  17.3264192  24.9774869 -82.0640652
  17.9575127  26.5572693 -81.5414336  16.7490000  26.6320000 -83.3380000
  17.0680000  27.7440000 -83.8410000  15.6280000  26.0810000 -83.5350000
  19.8780000  25.5830000 -80.6390000  20.4120000  26.6530000 -80.3220000
  19.1180000  24.8960000 -79.7940000  18.6685847  24.0375297 -80.0788754
  18.8580000  25.3970000 -78.4620000  19.0561878  26.4679498 -78.4185556
  17.4010000  25.1570000 -78.0960000  17.2581048  24.0937511 -77.9031736
  17.1675788  25.7237734 -77.1946774  16.5040000  25.5840000 -79.1930000
  16.9245082  26.4679779 -79.6724338  16.4260190  24.7779954 -79.9226421
  15.1570000  25.9030000 -78.6640000  14.5145738  26.2065320 -79.4905930
  14.7425988  25.0130756 -78.1902853  15.1950000  26.9780000 -77.6840000
  14.9949564  26.7286618 -76.7259226  15.4660000  28.2510000 -77.9660000
  15.7550000  28.6200000 -79.2120000  15.7690193  27.9299527 -79.9493861
  15.9589176  29.5883094 -79.4142229  15.4520000  29.1510000 -76.9880000
  15.2370276  28.8631880 -76.0440449  15.6563965  30.1185616 -77.1932931
  19.7590000  24.7870000 -77.4110000  19.8360000  25.3160000 -76.2990000
  20.4330000  23.6880000 -77.7190000  20.1963893  23.0863320 -78.4949577
  21.5330000  23.2990000 -76.8580000  21.1777352  23.1773561 -75.8347264
  22.1310000  21.9760000 -77.3270000  22.4940763  22.0811152 -78.3493628
  22.9539478  21.6746004 -76.6789141  21.1540000  20.8420000 -77.3340000
  21.4840000  19.5800000 -77.7750000  20.4300000  18.7910000 -77.6680000
  20.4867104  17.7469300 -77.9758974  19.4320000  19.4920000 -77.1640000
  18.5020964  19.1494950 -76.9688857  19.8600000  20.7770000 -76.9430000
  19.1763107  21.5144207 -76.5224279  22.5780000  24.3990000 -76.8440000
  23.1370000  24.7320000 -75.7900000  22.8110000  25.0120000 -78.0100000
  22.3211659  24.7163913 -78.8423325  23.8070000  26.0700000 -78.1330000
  24.7582762  25.7404046 -77.7152205  24.0150000  26.4170000 -79.6080000
  23.8914402  25.4902800 -80.1683768  23.2227584  27.1142265 -79.8806324
  25.3690000  27.0330000 -79.9380000  25.7378959  27.5347954 -79.0434510
  26.0423529  26.2168664 -80.1999562  25.3060000  28.0390000 -81.1010000
  24.1810000  28.4980000 -81.4290000  26.3790000  28.3730000 -81.6770000
  23.3900000  27.3000000 -77.3430000  24.2200000  27.9140000 -76.6630000
  22.1060000  27.6650000 -77.4130000  21.4670469  27.1803390 -78.0269560
  21.6060000  28.8100000 -76.6580000  22.1905293  29.6912372 -76.9222833
  20.1440000  29.0680000 -77.0180000  19.5444623  28.1977884 -76.7508180
  19.7829150  29.9390893 -76.4712630  20.0599568  29.2514742 -78.0891551
  21.7610000  28.5970000 -75.1550000  22.2750000  29.4670000 -74.4460000
  21.3030000  27.4490000 -74.6460000  20.8129460  26.7757003 -75.2175014
  21.4600000  27.1650000 -73.2240000  20.9621334  27.9377699 -72.6382913
  20.8460000  25.8160000 -72.8720000  21.1126907  25.1797915 -73.7159277
  21.3894705  25.4893573 -71.9854086  19.3510000  25.7160000 -72.6150000
  18.8176996  25.6123563 -73.5599601  19.0890000  24.4980000 -71.7510000
  19.6216375  24.6011361 -70.8056117  18.0197323  24.4123294 -71.5575373
  19.4370029  23.6036271 -72.2678090  18.8680000  26.9410000 -71.9270000
  19.0656263  27.8115065 -72.5525091  17.7959846  26.8589039 -71.7477112
  19.3875236  27.0526124 -70.9752979  22.9230000  27.1840000 -72.8220000
  23.3050000  27.8770000 -71.8750000  23.7650000  26.4320000 -73.5360000
  23.4329025  25.8516419 -74.2929644  25.1870000  26.3840000 -73.1980000
  25.3200089  25.9320610 -72.2150662  25.9440000  25.5520000 -74.2220000
  25.6647695  25.9093925 -75.2131610  27.0095670  25.7178622 -74.0633913
  25.6480000  24.0980000 -74.1180000  24.7941059  23.9735929 -73.4520506
  25.3888800  23.7337702 -75.1121305  26.8410000  23.2980000 -73.5750000
  27.6493500  23.3006166 -74.3062061  27.1915801  23.7455178 -72.6449888
  26.4520000  21.9120000 -73.3110000  26.4551971  21.6082124 -72.3477751
  26.1080000  21.0330000 -74.2550000  26.1110000  21.3760000 -75.5470000
  26.3765807  22.3122595 -75.8171576  25.8476706  20.6973303 -76.2471176
  25.7480000  19.8060000 -73.9000000  25.7373661  19.5487990 -72.9233554
  25.4863095  19.1350221 -74.6080999  25.8060000  27.7720000 -73.1040000
  26.6000000  28.0350000 -72.1920000  25.4700000  28.6730000 -74.0410000
  24.8707654  28.4382561 -74.8194038  26.0410000  30.0170000 -73.9870000
  27.1190710  29.9469948 -73.8422192  25.7700000  30.7890000 -75.2830000
  25.7621290  30.0652303 -76.0979814  24.7833756  31.2432253 -75.1916128
  26.8150000  31.8850000 -75.5790000  26.9471327  32.4629965 -74.6643624
  27.7503947  31.3851981 -75.8306626  26.4140000  32.8230000 -76.7220000
  27.1400000  33.8190000 -76.9770000  25.3680000  32.5630000 -77.3660000
  25.5020000  30.7820000 -72.7850000  26.2820000  31.3050000 -71.9750000
  24.1690000  30.8420000 -72.6490000  23.5641627  30.4495648 -73.3562947
  23.5550000  31.5230000 -71.5140000  23.7092816  32.5987499 -71.5980151
  22.0460000  31.2450000 -71.4820000  21.7026260  31.5557680 -72.4687202
  21.8944181  30.1717921 -71.3664674  21.2510000  31.9910000 -70.4070000
  21.8560295  32.0955340 -69.5063820  20.8900000  33.3490000 -70.9260000
  20.2845345  33.2452723 -71.8264171  20.3231474  33.8893981 -70.1678782
  21.7992591  33.9019010 -71.1618999  20.0140000  31.2550000 -69.9660000
  20.2947904  30.2857382 -69.5539469  19.4965802  31.8372577 -69.2035343
  19.3537166  31.1083511 -70.8207625  24.2030000  31.0940000 -70.2030000
  24.4840000  31.9270000 -69.3330000  24.4810000  29.8010000 -70.0550000
  24.2403745  29.1061198 -70.7473440  25.0970000  29.3560000 -68.8190000
  24.6250543  29.8580341 -67.9744124  24.9380000  27.8530000 -68.6420000
  23.8702126  27.6416136 -68.5850353  25.3560716  27.3734859 -69.5270889
  25.6280000  27.3130000 -67.4000000  25.5964603  26.2252457 -67.4624239
  26.6643871  27.6486273 -67.4368543  24.8910000  27.8380000 -65.8440000
  23.2160000  27.2300000 -65.9990000  23.2317715  26.1467443 -66.1190303
  22.6510587  27.4875833 -65.1031245  22.7429823  27.6846353 -66.8694379
  26.5650000  29.7310000 -68.7600000  27.0770000  30.0070000 -67.6700000
  27.2550000  29.7610000 -69.9030000  26.8568364  29.4345868 -70.7719186
  28.6430000  30.2110000 -69.9040000  29.2302750  29.6084239 -69.2111008
  29.2410000  30.0690000 -71.3020000  29.0678330  29.0478161 -71.6415524
  28.7242067  30.7639691 -71.9638479  30.7290000  30.3630000 -71.3230000
  31.4490000  29.7750000 -70.4820000  31.1800000  31.1750000 -72.1710000
  28.7450000  31.6520000 -69.4130000  29.5110000  31.9560000 -68.4870000
  27.9540000  32.5480000 -70.0150000  27.3853277  32.2699355 -70.8020142
  27.9300000  33.9500000 -69.6040000  28.9022828  34.4092292 -69.7825328
  26.8760000  34.7100000 -70.4080000  25.9646711  34.1135831 -70.3648056
  26.6790060  35.7032904 -70.0046793  27.3350000  34.8320000 -71.8570000
  27.7277973  33.8617680 -72.1610739  26.2360000  35.2420000 -72.7930000
  25.8429884  36.2124238 -72.4898194  26.6287311  35.3104741 -73.8074823
  25.4368913  34.5013268 -72.7625231  28.4900000  35.8060000 -71.9330000
  29.3134650  35.4425942 -71.3182308  28.8219453  35.8967825 -72.9672495
  28.1679880  36.7814194 -71.5683573  27.6630000  34.0860000 -68.1150000
  28.3690000  34.8200000 -67.4120000  26.6470000  33.3720000 -67.6180000
  26.0452963  32.8330248 -68.2242655  26.3250000  33.4290000 -66.1990000
  26.1159079  34.4563534 -65.9007976  25.0860000  32.5770000 -65.9190000
  24.3229639  32.9092459 -66.6229090  25.3479228  31.5402796 -66.1304407
  24.5500000  32.6840000 -64.5060000  25.0850000  31.9100000 -63.4960000
  25.8920853  31.2214972 -63.7463531  24.6280000  31.9900000 -62.2070000
  25.0833177  31.3801451 -61.4267022  23.6080000  32.8380000 -61.9000000
  23.1770000  32.8690000 -60.5920000  23.6620913  32.2670418 -60.0228493
  23.0390000  33.6220000 -62.8830000  22.2248187  34.3047541 -62.6399854
  23.5080000  33.5380000 -64.1850000  23.0560627  34.1475844 -64.9674702
  27.5190000  32.9990000 -65.3480000  27.8500000  33.6540000 -64.3510000
  28.2090000  31.9310000 -65.7410000  27.9598731  31.3994169 -66.5628604
  29.3050000  31.4470000 -64.9110000  29.0265006  31.5069874 -63.8588884
  29.6280000  29.9900000 -65.2490000  29.6895065  29.9499230 -66.3365247
  30.5698271  29.6485325 -64.8195099  28.4910000  29.0850000 -64.7690000
  27.5453698  29.4916273 -65.1275229  28.6610000  27.6890000 -65.2840000
  29.6062618  27.2815097 -64.9254883  27.8395602  27.0672667 -64.9279309
  28.6610825  27.7007567 -66.3739368  28.3630000  29.1010000 -63.2420000
  28.1590302  30.1171970 -62.9045991  27.5455195  28.4469890 -62.9385261
  29.2932767  28.7502113 -62.7951985  30.5440000  32.3170000 -65.0270000
  31.3790000  32.3060000 -64.1120000  30.6700000  33.0650000 -66.1270000
  30.1071530  32.8648729 -66.9414027  31.6440000  34.1510000 -66.2080000
  32.6350612  33.7891924 -65.9341532  31.6980000  34.6880000 -67.6380000
  30.6652517  34.7704924 -67.9767110  32.1408658  35.6822051 -67.5786187
  32.4930000  33.8340000 -68.6290000  33.5574814  33.9763969 -68.4427116
  32.2351908  32.7858196 -68.4774935  32.1690000  34.2360000 -70.0720000
  31.4110675  33.5497125 -70.4496860  31.7659406  35.2486149 -70.0560759
  33.3860000  34.1910000 -70.9750000  33.1134008  34.6224206 -71.9381545
  34.1730907  34.7910738 -70.5183833  33.8770000  32.7980000 -71.1760000
  33.1479584  32.2418993 -71.5994975  34.6856575  32.8100924 -71.7810014
  34.1300527  32.3982022 -70.2836855  31.3000000  35.2740000 -65.2360000
  32.1890000  35.8020000 -64.5550000  30.0020000  35.6370000 -65.1570000
  29.3419802  35.1368003 -65.7351639  29.5070000  36.7450000 -64.3380000
  30.1507034  37.6167695 -64.4553160  28.0940000  37.1190000 -64.7790000
  27.4682443  36.2400467 -64.6241769  27.7579356  37.9234297 -64.1247420
  27.9890000  37.5640000 -66.2180000  28.9031276  38.1007889 -66.4716320
  27.9068828  36.6729972 -66.8404732  26.5620000  38.6390000 -66.5250000
  25.2490000  37.5000000 -66.8820000  25.0948662  36.8426286 -66.0263104
  24.3320234  38.0535496 -67.0840829  25.5124298  36.9031734 -67.7552148
  29.5240000  36.4260000 -62.8430000  30.1590000  37.1430000 -62.0660000
  28.8380000  35.3520000 -62.4240000  28.3434305  34.7932291 -63.1046434
  28.6980000  35.0040000 -61.0020000  27.9278608  35.6272844 -60.5475759
  28.2990000  33.5300000 -60.8340000  27.4060665  33.3616034 -61.4360062
  29.1173382  32.9228733 -61.2210656  28.0160000  33.1380000 -59.3810000
  28.9401720  32.7665995 -58.9382035  27.6871189  34.0266783 -58.8423069
  26.9260000  32.0470000 -59.2880000  26.4119948  32.1751898 -58.3353904
  26.2233309  32.2128674 -60.1046049  27.4860000  30.6250000 -59.3780000
  26.6461980  29.9416471 -59.5039441  28.1302932  30.5736803 -60.2556968
  28.2710000  30.2340000 -58.1570000  27.6740499  30.2810724 -57.3436523
  28.6168473  29.2914216 -58.2667070  29.0494745  30.8668279 -58.0403580
  29.9290000  35.2870000 -60.1430000  29.7660000  35.9460000 -59.1070000
  31.1650000  34.8690000 -60.4960000  31.6410000  34.1460000 -61.6860000
  31.8098644  34.8481089 -62.5024730  30.9001780  33.4067329 -61.9905750
  32.8950000  33.5230000 -61.2030000  33.5540052  33.2881918 -62.0388686
  32.6804112  32.6126111 -60.6433170  33.4860000  34.5590000 -60.3220000
  33.9597640  35.3495222 -60.9039978  34.2066887  34.1467702 -59.6157606
  32.2820000  35.1190000 -59.5700000  32.0890547  34.5471401 -58.6623400
  32.4580000  36.5890000 -59.2150000  32.9110000  36.8780000 -58.0980000
  32.0800000  37.5150000 -60.1020000  31.7969255  37.2745465 -61.0412286
  32.1860000  38.9300000 -59.7510000  33.2177217  39.1670537 -59.4912790
  31.7540000  39.8310000 -60.9350000  30.7498254  39.5406199 -61.2438885
  31.7580000  41.2690000 -60.5500000  32.7620141  41.5602547 -60.2414108
  31.4503772  41.8747340 -61.4023820  31.0645414  41.4264226 -59.7239038
  32.7210000  39.6230000 -62.0820000  32.7032955  38.5768880 -62.3876769
  32.4285782  40.2517313 -62.9230030  33.7280401  39.8904736 -61.7619549
  31.3880000  39.2270000 -58.4720000  31.9450000  39.7440000 -57.4800000
  30.1080000  38.7970000 -58.4100000  29.6729957  38.2511732 -59.1400299
  29.2900000  39.2160000 -57.2810000  29.7106993  40.1125273 -56.8256429
  27.8480000  39.5340000 -57.7630000  27.2628409  39.5386678 -56.8433988
  27.7950685  40.5166533 -58.2317117  27.1620000  38.5630000 -58.7100000
  27.0150000  38.6820000 -60.0730000  27.4716114  39.5578605 -60.5339492
  26.2900000  37.6200000 -60.5800000  26.0520990  37.4607460 -61.5485767
  25.9380000  36.8150000 -59.5340000  25.2160000  35.6510000 -59.5280000
  24.8450755  35.2577971 -60.4745227  25.0060000  35.0510000 -58.3140000
  24.4305345  34.1262804 -58.2711864  25.5060000  35.5880000 -57.1350000
  25.3330807  35.0937500 -56.1790108  26.2250000  36.7440000 -57.1360000
  26.6227190  37.1054580 -56.1877023  26.4520000  37.3880000 -58.3470000
  29.2400000  38.2200000 -56.1310000  28.5300000  38.4830000 -55.1570000
  30.0330000  37.1440000 -56.1660000  30.5445320  36.9274723 -57.0095343
  30.1300000  36.2160000 -55.0380000  29.3988247  36.4889732 -54.2771009
  29.8550000  34.7710000 -55.4880000  29.9372060  34.7714807 -56.5748952
  30.6551018  34.1643051 -55.0639028  28.4530000  34.1660000 -55.0650000
  27.6974246  34.6107464 -55.7126166  28.4952153  33.0912431 -55.2416851
  28.0820000  34.4330000 -53.5750000  28.9476901  34.9259503 -53.1326430
  27.2403605  35.1253874 -53.5934943  27.7220000  33.2760000 -52.7420000
  28.4605747  32.6331543 -52.4942981  26.4890000  33.0340000 -52.2910000
  25.5060000  33.8370000 -52.6310000  25.6894908  34.6295806 -53.2295376
  24.5715260  33.6578900 -52.2922115  26.2250000  31.9920000 -51.5110000
  26.9685265  31.3614537 -51.2470309  25.2819214  31.8349168 -51.1853832
  31.4700000  36.2590000 -54.3070000  31.4960000  35.9810000 -53.1000000
  32.5760000  36.6130000 -54.9770000  32.5391088  36.8998580 -55.9447039
  33.8830000  36.5480000 -54.3220000  33.9438276  35.6369890 -53.7266361
  35.0230000  36.5400000 -55.3480000  35.9629525  36.7242142 -54.8277562
  35.0579084  35.5601869 -55.8242853  34.8260000  37.5390000 -56.3360000
  35.5506911  37.5141433 -56.9651302  34.1000000  37.7130000 -53.3600000
  33.4350000  38.7570000 -53.4260000  35.0820000  37.5290000 -52.4840000
  35.5889739  36.6564529 -52.4423063  35.3970000  38.5580000 -51.5030000
  34.4807836  38.9899333 -51.1004080  36.1940000  37.9380000 -50.3500000
  37.2313588  37.8074596 -50.6581316  36.1528920  38.6011092 -49.4858841
  35.6440000  36.6840000 -50.0070000  36.1470249  36.3007333 -49.2847310
  36.1550000  39.7310000 -52.1360000  35.8860000  40.8990000 -51.8240000
  37.1010000  39.4510000 -53.0250000  37.3299799  38.4861254 -53.2165319
  37.8690000  40.4950000 -53.7060000  37.3433224  41.4462639 -53.6231791
  39.2600000  40.6490000 -53.0850000  39.1886340  40.5994843 -51.9984668
  39.9155825  39.8547792 -53.4421063  40.1180000  42.2290000 -53.4680000
  41.2204365  41.9602559 -52.7742358  37.9740000  40.1580000 -55.1830000
  38.9960000  39.6410000 -55.6480000  36.9330000  40.4570000 -55.9630000
  35.7100000  41.1830000 -55.5980000  35.9502906  41.9822895 -54.8969315
  34.9976919  40.4984334 -55.1374734  35.2290000  41.7040000 -56.9260000
  35.6562078  42.6906046 -57.1054545  34.1414275  41.7759725 -56.9156421
  35.6890000  40.7150000 -57.9500000  35.8761555  41.2129121 -58.9013965
  34.9601900  39.9175658 -58.0950319  36.9980000  40.1340000 -57.3990000
  37.0055572  39.0479926 -57.4918933  38.2290000  40.7120000 -58.0930000
  38.8530000  40.0260000 -58.9160000  38.6060000  41.9510000 -57.7620000
  38.0343576  42.5023339 -57.1380166  39.8120000  42.5590000 -58.3140000
  39.6327310  42.8022676 -59.3612739  40.1390000  43.8440000 -57.5650000
  40.3299801  43.6154471 -56.5164819  41.0242563  44.3051662 -58.0028896
  39.2971471  44.5324338 -57.6387679  41.0010000  41.6230000 -58.2510000
  41.7400000  41.4830000 -59.2300000  41.1850000  40.9600000 -57.1060000
  40.5676469  41.1454771 -56.3284572  42.2710000  40.0070000 -56.9140000
  43.1430261  40.3164304 -57.4901271  42.6610000  39.9390000 -55.4340000
  41.7843882  39.5796615 -54.8949947  43.4622489  39.2043159 -55.3543787
  43.1190000  41.2520000 -54.8340000  43.9075133  41.6634068 -55.4641525
  42.2723901  41.9383583 -54.8176927  43.6510000  41.0630000 -53.4080000
  42.8929197  40.5422065 -52.8230321  44.5544895  40.4550144 -53.4544725
  43.9730000  42.4050000 -52.7460000  44.4104155  42.2098850 -51.7668685
  44.6967832  42.9311905 -53.3683830  42.7450000  43.2500000 -52.5850000
  42.0743696  42.7627830 -52.0079608  42.9936758  44.1251419 -52.1463806
  42.3397671  43.4312707 -53.4922080  41.9570000  38.5890000 -57.3880000
  42.8870000  37.8500000 -57.7160000  40.6850000  38.1820000 -57.4270000
  39.9348460  38.8547015 -57.3574228  40.3390000  36.7690000 -57.5350000
  41.2259849  36.1577312 -57.3685441  39.2850000  36.3950000 -56.4920000
  38.5630280  37.2109678 -56.4595616  38.7927302  35.4888087 -56.8449698
  39.8360000  36.1610000 -55.1180000  40.6678352  35.4618843 -55.2039548
  40.2018091  37.1153473 -54.7391805  38.8010000  35.6000000 -54.1600000
  37.7720000  36.2830000 -53.9110000  39.0310000  34.4690000 -53.6640000
  39.8060000  36.3460000 -58.8850000  39.8670000  35.1550000 -59.2050000
  39.2330000  37.2530000 -59.6410000  39.0196180  38.1710423 -59.2780044
  38.8270000  36.9380000 -61.0020000  39.5363679  36.2412894 -61.4486438
  37.4430000  36.2950000 -61.0070000  37.0325365  36.2438700 -62.0154665
  37.4682489  35.2948315 -60.5744199  36.2470000  37.2370000 -60.0250000
  35.2159697  36.4266745 -60.2469173  38.8680000  38.2250000 -61.8240000
  37.8610000  38.6440000 -62.4120000  40.0180000  38.8830000 -61.8830000
  41.3570000  38.4300000 -61.4620000  41.4427069  37.3516956 -61.5962172
  41.5198841  38.6791808 -60.4134407  42.2420000  39.1820000 -62.3600000
  42.3268510  38.6792364 -63.3233941  43.2327577  39.2899741 -61.9185907
  41.5600000  40.5310000 -62.4970000  41.8547513  41.0194447 -63.4257855
  41.7681902  41.1934092 -61.6567795  40.0650000  40.1920000 -62.5380000
  39.4765525  40.8808924 -61.9319843  39.5290000  40.1820000 -63.9530000
  38.9380000  41.1770000 -64.3880000  39.7010000  39.0910000 -64.6910000
  40.1982761  38.2697233 -64.3774393  39.2020000  39.1150000 -66.0550000
  39.4068168  40.0893936 -66.4985160  39.8700000  38.0410000 -66.9080000
  40.8853084  37.8882142 -66.5420702  39.3044428  37.1147753 -66.8062502
  39.9150000  38.4460000 -68.3630000  39.1600436  39.2146357 -68.5283507
  40.9041159  38.8616242 -68.5553678  39.6670000  37.2920000 -69.2940000
  40.2260000  36.2020000 -69.0470000  38.9040000  37.4620000 -70.2720000
  37.7010000  38.9480000 -66.0880000  37.0460000  39.4830000 -66.9850000
  37.1380000  38.2350000 -65.1150000  37.6769313  37.6637378 -64.4799316
  35.6890000  38.2190000 -64.9960000  35.2458378  37.9505636 -65.9549830
  35.2390000  37.1970000 -63.9450000  35.7677314  37.4118955 -63.0163654
  34.1673532  37.3214810 -63.7895081  35.5080000  35.8560000 -64.3450000
  35.2112797  35.2521846 -63.6601906  35.1660000  39.6050000 -64.6530000
  34.1530000  40.0470000 -65.2110000  35.8500000  40.3120000 -63.7440000
  36.6427991  39.9185381 -63.2574235  35.4150000  41.6660000 -63.3840000
  34.3579547  41.6555014 -63.1182101  36.2160000  42.1870000 -62.1860000
  35.7986369  41.6194154 -61.3542818  37.2607351  41.9096951 -62.3264656
  36.1220000  43.6920000 -61.8780000  36.7091563  44.2159332 -62.6322163
  34.6920000  44.2300000 -61.8820000  34.1043122  43.7068314 -61.1276682
  34.7038737  45.2965271 -61.6573229  34.2461779  44.0710041 -62.8638673
  36.7920000  43.9810000 -60.5330000  37.8399677  43.6845329 -60.5773892
  36.7254036  45.0468806 -60.3149066  36.2885725  43.4177437 -59.7472506
  35.5450000  42.6200000 -64.5630000  34.6530000  43.4490000 -64.8130000
  36.6480000  42.5030000 -65.3020000  37.3527514  41.8187125 -65.0671054
  36.8980000  43.3930000 -66.4260000  36.8713417  44.4326435 -66.0996108
  38.2760000  43.1000000 -67.0060000  39.0520640  43.1424915 -66.2417891
  38.3067331  42.1292220 -67.5007178  38.7350000  44.3030000 -68.2460000
  39.9228001  43.7720313 -68.5218648  35.8240000  43.2600000 -67.5010000
  35.3770000  44.2650000 -68.0700000  35.3880000  42.0330000 -67.7810000
  35.7151605  41.2435270 -67.2426714  34.4750000  41.7840000 -68.8840000
  34.6325145  42.5238757 -69.6687753  34.7120000  40.3990000 -69.4670000
  34.5115084  39.6701429 -68.6817168  34.0034330  40.2572656 -70.2830541
  36.0990000  40.2110000 -69.9760000  36.7861124  40.1796902 -69.1304250
  36.1569141  39.2714503 -70.5255402  36.5140000  41.3290000 -70.8910000
  37.4500000  42.0660000 -70.5900000  35.8190000  41.4700000 -72.0180000
  36.0583913  42.2063212 -72.6665556  35.0556329  40.8399813 -72.2191180
  33.0110000  41.8970000 -68.5070000  32.1670000  41.6370000 -69.3700000
  32.6820000  42.2700000 -67.2610000  33.3738419  42.5994940 -66.6030579
  31.2980000  42.1280000 -66.8010000  30.9877740  41.0886127 -66.9083924
  31.1500000  42.5330000 -65.3340000  32.0196583  42.1703669 -64.7860119
  31.1269449  43.6221719 -65.2983202  29.8830000  41.9780000 -64.6990000
  28.6450000  42.5580000 -64.9510000  28.5970830  43.4302077 -65.6029640
  27.4820000  42.0460000 -64.3890000  26.5160330  42.5070574 -64.5949990
  27.5580000  40.9510000 -63.5650000  26.4070000  40.4620000 -63.0140000
  25.6270219  40.9584378 -63.2724248  28.7760000  40.3480000 -63.2970000
  28.8311818  39.4735130 -62.6486730  29.9260000  40.8640000 -63.8590000
  30.8902066  40.4007977 -63.6495979  30.3350000  42.9310000 -67.6620000
  29.2970000  42.4200000 -68.0860000  30.6570000  44.1930000 -67.9310000
  31.4639280  44.6484987 -67.5291450  29.7730000  44.9780000 -68.7800000
  28.7695463  44.9981552 -68.3548253  30.2840000  46.4080000 -68.8890000
  30.2634829  46.8794473 -67.9064443  31.3060470  46.4031268 -69.2678088
  29.4540000  47.1350000 -69.7790000  29.7738228  48.0373856 -69.8498054
  29.6200000  44.3550000 -70.1640000  28.5660000  44.4900000 -70.7910000
  30.6470000  43.6550000 -70.6460000  31.5082851  43.5766230 -70.1243255
  30.5790000  43.0370000 -71.9650000  30.0658142  43.7026861 -72.6589752
  31.9900000  42.7620000 -72.5020000  32.5169336  43.7033945 -72.6576169
  32.5495419  42.1449288 -71.7989807  32.0070000  42.0340000 -73.8240000
  31.9160000  42.7310000 -75.0090000  31.8319963  43.8172953 -74.9772854
  31.9300000  42.0720000 -76.2290000  31.8681436  42.6445918 -77.1544259
  32.0220000  40.6940000 -76.2740000  32.0252025  40.1749826 -77.2324939
  32.1100000  39.9750000 -75.1000000  32.1808077  38.8875490 -75.1231703
  32.1080000  40.6480000 -73.8780000  32.1863751  40.0870205 -72.9467324
  29.7660000  41.7490000 -71.9290000  28.9170000  41.5210000 -72.7990000
  30.0350000  40.8850000 -70.9440000  30.7593682  41.0714209 -70.2652973
  29.3230000  39.6150000 -70.8640000  29.3652742  39.1074030 -71.8276687
  29.9560000  38.7100000 -69.8070000  29.9713355  39.2533028 -68.8621793
  29.3477589  37.8119260 -69.6992694  31.3930000  38.2910000 -70.1560000
  31.7030000  37.9540000 -71.3060000  32.2770000  38.3010000 -69.1490000
  33.2361063  38.0348365 -69.3203822  31.9801597  38.5746566 -68.2232037
  27.8520000  39.8430000 -70.5570000  26.9760000  39.1950000 -71.1440000
  27.5560000  40.7870000 -69.6630000  28.2758626  41.2975197 -69.1718108
  26.1670000  41.0510000 -69.3200000  25.6641255  40.1175489 -69.0672441
  26.0850000  41.9930000 -68.1150000  25.0438795  42.0628629 -67.7999024
  26.6816911  41.5728228 -67.3053637  26.5670000  43.2810000 -68.4350000
  26.5032831  43.8475233 -67.6626068  25.3920000  41.6260000 -70.4940000
  24.1660000  41.5280000 -70.5200000  26.0680000  42.2290000 -71.4630000
  27.0576307  42.4229088 -71.4070561  25.3400000  42.6950000 -72.6300000
  24.4270791  43.2026057 -72.3185340  26.1920000  43.6730000 -73.4320000
  27.2338274  43.4219647 -73.2328112  25.9709238  43.4957128 -74.4845182
  25.9510000  45.1470000 -73.1020000  24.9304537  45.3975390 -73.3915104
  26.0737787  45.3065441 -72.0307516  26.9140000  46.0760000 -73.8490000
  26.9910000  46.0540000 -75.0830000  27.6650000  46.8830000 -73.0980000
  28.3170229  47.5160294 -73.5387282  27.5781831  46.8573252 -72.0920651
  24.9000000  41.5280000 -73.4980000  23.7680000  41.5120000 -73.9970000
  25.7720000  40.5380000 -73.6880000  26.6959146  40.5547690 -73.2803238
  25.4260000  39.4310000 -74.5690000  24.9865452  39.8097773 -75.4917711
  26.6820000  38.6320000 -74.9180000  27.3429533  39.3112617 -75.4563712
  27.1440231  38.3501213 -73.9718610  26.4420000  37.3750000 -75.7640000
  27.3841130  36.8277117 -75.7956157  25.6932140  36.7785110 -75.2428259
  25.9660000  37.6560000 -77.1950000  25.0298307  38.2134528 -77.1644633
  26.7199373  38.2415418 -77.7211357  25.7450000  36.4070000 -77.9290000
  26.5589876  35.8569573 -78.1634708  24.5490000  35.9550000 -78.2900000
  23.4670000  36.6650000 -78.0020000  23.5586928  37.5429218 -77.5111377
  22.5560284  36.3246822 -78.2747897  24.4340000  34.8040000 -78.9470000
  25.2611045  34.2701820 -79.1729128  23.5201132  34.4692300 -79.2168862
  24.3650000  38.5460000 -73.9350000  23.4630000  38.0630000 -74.6250000
  24.4610000  38.3270000 -72.6210000  25.2851924  38.6222306 -72.1173681
  23.4070000  37.6390000 -71.8810000  23.3127732  36.6073689 -72.2200541
  23.7640000  37.6340000 -70.3940000  24.7817797  37.2557633 -70.2982886
  23.7062552  38.6333344 -69.9626112  22.8990000  36.7530000 -69.5500000
  21.6250000  37.1350000 -69.2010000  21.2406124  38.0894128 -69.5607810
  20.8430000  36.3360000 -68.4140000  19.8283171  36.6413706 -68.1585239
  21.3360000  35.1550000 -67.9490000  20.7147581  34.5155840 -67.3218592
  22.6250000  34.7660000 -68.2720000  23.0256909  33.8261383 -67.8922541
  23.3900000  35.5590000 -69.0640000  24.4042627  35.2548659 -69.3225993
  22.0710000  38.3260000 -72.0970000  21.0680000  37.6990000 -72.4430000
  22.0460000  39.6290000 -71.8750000  22.8524452  40.1132820 -71.5072822
  20.8340000  40.3860000 -72.0970000  20.0450240  40.0340052 -71.4323830
  21.1100000  41.8520000 -71.7910000  21.8916710  42.2213510 -72.4548300
  20.2003621  42.4329605 -71.9431317  21.4358037  41.9525138 -70.7556990
  20.3300000  40.2030000 -73.5200000  19.1210000  40.0880000 -73.7470000
  21.2390000  40.1720000 -74.4940000  22.2273697  40.2564494 -74.3040184
  20.8090000  40.0610000 -75.8830000  19.9590893  40.7202437 -76.0594900
  21.9420000  40.4600000 -76.8300000  22.2354808  41.4781921 -76.5745531
  22.7760243  39.7839543 -76.6416765  21.5570000  40.3960000 -78.3150000
  20.8828660  39.5505403 -78.4522664  21.0309611  41.3213255 -78.5498508
  22.7610000  40.2440000 -79.2460000  23.9180000  40.3520000 -78.7630000
  22.5460000  40.0050000 -80.4610000  20.3450000  38.6560000 -76.2130000
  19.4340000  38.4830000 -77.0300000  20.9620000  37.6510000 -75.5970000
  21.7933772  37.8138211 -75.0470904  20.4940000  36.2820000 -75.7510000
  20.4833751  35.9957306 -76.8026825  21.4420000  35.3510000 -75.0020000
  22.4108031  35.8249369 -75.1598088  21.1581297  35.4458375 -73.9538953
  21.5320000  33.8830000 -75.3700000  20.8058785  33.3188430 -74.7847007
  21.2390000  33.7060000 -76.8410000  21.9650433  34.2695327 -77.4269955
  21.3049046  32.6494093 -77.1005641  20.2352900  34.0711349 -77.0585846
  22.9300000  33.3900000 -75.0200000  23.1047868  33.5197597 -73.9519591
  23.0183370  32.3342916 -75.2764715  23.6687463  33.9626431 -75.5807431
  19.0620000  36.1490000 -75.2490000  18.2000000  35.5940000 -75.9380000
  18.7820000  36.6940000 -74.0570000  19.5123492  37.1077778 -73.4953263
  17.4240000  36.6610000 -73.5140000  17.0873931  35.6278566 -73.4279206
  17.3810000  37.3070000 -72.1260000  17.7742598  38.3000856 -72.3433177
  16.3179359  37.3799716 -71.8965007  18.1210000  36.7180000 -70.9270000
  19.1929159  36.7151057 -71.1247086  17.8360000  37.5610000 -69.6980000
  16.7642549  37.5639943 -69.4993742  18.3628286  37.1432519 -68.8400729
  18.1758913  38.5821966 -69.8704290  17.7140000  35.2780000 -70.6890000
  17.9500711  34.6826456 -71.5709995  18.2562653  34.8839369 -69.8294863
  16.6424645  35.2300550 -70.4950620  16.4390000  37.3660000 -74.4380000
  15.2850000  36.9420000 -74.5720000  16.8740000  38.4470000 -75.0790000
  17.8379031  38.7363804 -74.9938585  15.9750000  39.2700000 -75.8700000
  15.0055775  39.3530831 -75.3786586  16.5680000  40.6680000 -76.0180000
  17.3757667  40.6354757 -76.7491323  15.7907739  41.3483485 -76.3660595
  17.0770000  41.1280000 -74.7680000  17.4462032  42.0074403 -74.8769657
  15.6970000  38.6780000 -77.2400000  14.6970000  39.0430000 -77.8580000
  16.5500000  37.7770000 -77.7270000  17.3799592  37.5430775 -77.2011223
  16.3710000  37.1720000 -79.0400000  15.5561181  37.6678248 -79.5674699
  17.6640000  37.3650000 -79.8430000  17.5152813  37.0339318 -80.8708020
  18.0260000  38.8380000 -79.8340000  18.1753394  39.1697037 -78.8064933
  18.9439941  38.9905480 -80.4015519  17.2191648  39.4137396 -80.2874770
  18.7460000  36.6340000 -79.2510000  19.5436458  36.7683518 -79.7680214
  15.9770000  35.6980000 -78.9310000  14.8500000  35.3050000 -79.2970000
  16.8810000  34.8490000 -78.4460000  17.7916108  35.1837630 -78.1652492
  16.6330000  33.4200000 -78.4120000  16.0552380  33.1172612 -79.2852923
  17.9690000  32.6630000 -78.4210000  18.6392072  33.1381417 -77.7046468
  17.7835850  31.6329815 -78.1163966  18.6160000  32.6760000 -79.8130000
  17.8254472  32.4945811 -80.5411581  19.0318980  33.6713221 -79.9694121
  19.7080000  31.6400000 -79.9850000  19.6897758  30.9702881 -79.1252018
  19.5067871  31.0708293 -80.8925558  21.0820000  32.2950000 -80.0900000
  21.1356323  32.7839288 -81.0627142  21.1452380  33.0459517 -79.3024902
  22.2260000  31.3260000 -79.9520000  22.1678311  30.6303170 -80.6818913
  23.1008363  31.8245212 -80.0309817  22.1767323  30.8731519 -79.0505565
  15.7590000  33.0190000 -77.2390000  15.4620000  31.8370000 -77.0900000
  15.3060000  33.9670000 -76.4320000  15.6149920  34.9251716 -76.5128109
  14.4070000  33.6240000 -75.3480000  13.9587390  32.6497894 -75.5431281
  15.1480000  33.5620000 -74.0130000  15.7445552  34.4619698 -73.8637504
  14.4334999  33.4607173 -73.1960964  16.0950000  32.3940000 -73.9050000
  15.6250000  31.1370000 -73.5680000  14.5593937  31.0079771 -73.3784315
  16.4800000  30.0560000 -73.4700000  16.0908581  29.0743885 -73.1996147
  17.8340000  30.2210000 -73.7160000  18.5135913  29.3718406 -73.6440003
  18.3200000  31.4660000 -74.0530000  19.3837282  31.6054997 -74.2456717
  17.4480000  32.5470000 -74.1470000  17.8286931  33.5326171 -74.4148277
  13.2500000  34.6070000 -75.2820000  12.7310000  34.8870000 -74.1960000
  12.8310000  35.1260000 -76.4400000  13.3045345  34.9073798 -77.3049102
  11.7050000  36.0530000 -76.4830000  12.0013617  37.0095059 -76.0524591
  11.2460000  36.2870000 -77.9280000  11.5040873  35.3793305 -78.4735514
  10.1615695  36.3877812 -77.8837990  11.8320000  37.4800000 -78.6340000
  11.7447857  38.3507751 -77.9841960  12.8844617  37.2847219 -78.8396525
  11.0960000  37.7500000 -79.9510000  10.0962291  37.3236175 -79.8688109
  11.0205894  38.8301172 -80.0765367  11.8160000  37.1400000 -81.1710000
  12.8065156  37.5884537 -81.2476076  11.9151836  36.0661579 -81.0124915
  11.0510000  37.3910000 -82.4460000  10.9593564  38.3859913 -82.5932868
  11.5479920  36.9799536 -83.2232643  10.1332891  36.9751643 -82.3753858
  10.5260000  35.5490000 -75.6650000   9.8480000  36.3370000 -74.9990000
  10.2510000  34.2420000 -75.7040000  10.8581529  33.5647212 -76.1430423
   8.9820000  33.7790000 -75.1540000   8.1598296  34.3060986 -75.6380475
   8.8040000  32.2890000 -75.3820000   7.8571557  32.0305739 -74.9078680
   8.7306078  32.1177982 -76.4559663   9.8960000  31.4350000 -74.8140000
  11.0590000  31.2060000 -75.5340000  11.1708007  31.6693206 -76.5142725
  12.0680000  30.4050000 -75.0280000  12.9807441  30.2320796 -75.5981742
  11.9080000  29.8210000 -73.7880000  12.9150000  29.0290000 -73.2930000
  13.6643171  28.9587634 -73.8889785  10.7530000  30.0300000 -73.0520000
  10.6295692  29.5698401 -72.0716337   9.7560000  30.8270000 -73.5690000
   8.8395324  30.9901166 -73.0019196   8.8510000  34.0970000 -73.6740000
   7.7330000  34.3150000 -73.1820000   9.9690000  34.1550000 -72.9520000
  10.8681912  33.9166668 -73.3453850   9.9030000  34.4980000 -71.5390000
   8.8761286  34.4040786 -71.1857112  10.7910000  33.5650000 -70.7140000
  10.5538880  32.5352888 -70.9815295  11.8326993  33.7727253 -70.9585664
  10.5750000  33.7610000 -69.2470000  10.9859459  34.7368426 -68.9882422
   9.4982904  33.7641755 -69.0773287  11.2080000  32.7150000 -68.3970000
  10.9700683  31.7226858 -68.7801449  12.2898012  32.8472321 -68.3791037
  10.7030000  32.8230000 -67.0380000  11.3307837  33.1649229 -66.3245046
   9.4650000  32.4940000 -66.6880000   8.6170000  32.0430000 -67.6050000
   8.9174138  31.9521392 -68.5649979   7.6755145  31.7929154 -67.3382371
   9.0680000  32.6160000 -65.4250000   9.7119122  32.9609964 -64.7275370
   8.1243273  32.3631205 -65.1688116  10.2840000  35.9430000 -71.2510000
   9.7230000  36.5450000 -70.3310000  11.1830000  36.5420000 -72.0250000
  11.5288553  36.1008292 -72.8651498  11.7940000  37.7950000 -71.6010000
  11.4252472  38.0951850 -70.6201792  13.3080000  37.5840000 -71.5110000
  13.7142702  37.2046172 -72.4486100  13.7564046  38.5518030 -71.2865215
  13.6240000  36.6080000 -70.3910000  13.2250000  36.8930000 -69.0980000
  12.7106874  37.8372930 -68.9194144  13.4570000  36.0330000 -68.0590000
  13.1309628  36.2961743 -67.0527491  14.0880000  34.8510000 -68.2810000
  14.2900000  34.0400000 -67.1800000  13.9502765  34.4202738 -66.3666247
  14.5000000  34.5120000 -69.5670000  15.0050559  33.5646987 -69.7557835
  14.2610000  35.3980000 -70.6200000  14.5759552  35.1403457 -71.6311961
  11.4140000  38.9960000 -72.4740000  12.0640000  40.0410000 -72.3970000
  10.3490000  38.8900000 -73.2700000   9.9084441  37.9891406 -73.3902590
   9.8110000  40.0280000 -74.0100000  10.6272545  40.7050509 -74.2618528
   9.1160000  39.5980000 -75.3030000   9.8807259  39.5203823 -76.0758319
   8.6763263  38.6161293 -75.1277376   8.0120000  40.5830000 -75.7660000
   7.1605657  40.4070120 -75.1085894   8.3902272  41.5928884 -75.6073530
   7.5700000  40.4260000 -77.2290000   8.4060000  40.0860000 -78.1050000
   6.3700000  40.6660000 -77.5000000   8.8360000  40.7460000 -73.0920000
   7.7960000  40.1860000 -72.7120000   9.1720000  41.9840000 -72.7350000
  10.0438411  42.3837984 -73.0514707   8.3170000  42.7860000 -71.8970000
   8.5797168  43.8285033 -72.0766271   7.2921090  42.6087615 -72.2230126
   8.4180000  42.5020000 -70.4190000   7.7680000  43.2010000 -69.6320000
   9.1980000  41.5030000 -70.0080000   9.6317346  40.8794378 -70.6736904
   9.3800000  41.2330000 -68.5900000   9.3122570  42.1695779 -68.0365273
   8.3170000  40.2680000 -68.0520000   8.7838999  39.7243325 -67.2307026
   7.5086438  40.8876419 -67.6637936   7.7560000  39.2770000 -69.0620000
   7.3380237  39.8256451 -69.9060291   8.5605207  38.6303231 -69.4122248
   6.6620000  38.4250000 -68.4160000   6.6184347  38.6759665 -67.3561807
   5.7125528  38.6776929 -68.8880125   6.9280000  36.9210000 -68.5750000
   6.2891785  36.5627952 -69.3822775   7.9734110  36.8055812 -68.8611704
   6.6570000  36.1180000 -67.3250000   5.6882446  36.2244692 -67.0599020
   6.8523747  35.1430530 -67.5022207   7.2491513  36.4494792 -66.5769509
  10.7790000  40.6920000 -68.3250000  11.4760000  40.2010000 -69.2180000
  11.1710000  40.8100000 -67.0600000  10.5563999  41.2803750 -66.4110675
  12.4500000  40.3240000 -66.5690000  12.6599252  39.3437634 -66.9969798
  13.5940000  41.3020000 -66.9340000  13.4847752  41.6009746 -67.9764896
  13.5470000  42.5280000 -66.0510000  13.6566342  42.2298482 -65.0083177
  14.3584167  43.2032684 -66.3225075  12.5920098  43.0361902 -66.1845498
  14.9610000  40.6610000 -66.7950000  15.5906569  41.3292024 -66.2075152
  14.8402420  39.7165126 -66.2644715  15.5980000  40.4110000 -68.1090000
  15.7195190  41.3551493 -68.6399567  16.5747072  39.9511945 -67.9582644
  14.9691024  39.7424608 -68.6969142  12.2600000  40.1930000 -65.0700000
  11.3730000  40.8100000 -64.4900000  13.0550000  39.3610000 -64.4370000
  13.7424945  38.7932855 -64.9115007  12.9030000  39.2020000 -63.0010000
  11.8509270  39.3312719 -62.7469716  13.3390000  37.8040000 -62.5750000
  13.0072328  37.6059303 -61.5557850  12.7190000  36.8050000 -63.5050000
  13.0506907  37.0021587 -64.5244162  13.0216809  35.7993864 -63.2130673
  11.6331822  36.8860475 -63.4546854  14.7690000  37.6810000 -62.6710000
  15.0330940  36.7984193 -62.4009890  13.7050000  40.2680000 -62.2620000
  14.7320000  40.7500000 -62.7500000  13.2100000  40.6450000 -61.0800000
  12.3019774  40.3213050 -60.7786435  13.9330000  41.5750000 -60.2200000
  13.8431851  42.5886392 -60.6105997  13.3560000  41.5440000 -58.8040000
  13.4391153  40.5296291 -58.4138171  13.9351061  42.2223324 -58.1774209
  11.9100000  41.9610000 -58.7560000  11.2240000  42.0120000 -59.7790000
  11.4290000  42.2640000 -57.5560000  10.4654394  42.5508591 -57.4592392
  12.0289107  42.2062164 -56.7455254  15.4300000  41.2690000 -60.1780000
  16.2640000  42.1630000 -60.3510000  15.7970000  40.0070000 -59.9700000
  15.1331658  39.2483086 -59.9082685  17.1980000  39.7170000 -59.7260000
  17.6628343  40.5384426 -59.1807842  17.3220000  38.4510000 -58.8950000
  16.4644021  37.8262889 -59.1447220  18.2395238  37.9435657 -59.1929271
  17.3460000  38.7010000 -57.4030000  18.4970000  39.1450000 -56.7700000
  19.3926993  39.3191126 -57.3662441  18.5210000  39.3680000 -55.3990000
  19.4318916  39.7187741 -54.9138856  17.3850000  39.1350000 -54.6490000
  17.3920000  39.3490000 -53.2870000  18.2393396  39.6605753 -52.9606013
  16.2350000  38.6950000 -55.2580000  15.3343977  38.5157625 -54.6707268
  16.2240000  38.4790000 -56.6270000  15.3159653  38.1258740 -57.1157486
  18.0160000  39.6090000 -61.0090000  19.2240000  39.8540000 -60.9790000
  17.4080000  39.2480000 -62.1390000  16.4684610  38.8778127 -62.1570865
  18.1350000  39.3520000 -63.4000000  19.0384490  38.7441323 -63.3512572
  17.2770000  38.8610000 -64.5710000  16.2216805  38.9175611 -64.3041653
  17.4627884  39.4791730 -65.4493193  17.5430000  37.4290000 -64.9850000
  18.2110000  36.5520000 -64.1430000  18.5486388  36.9080210 -63.1696815
  18.4500000  35.2470000 -64.5210000  18.9741705  34.5677492 -63.8487170
  18.0260000  34.8060000 -65.7460000  18.2166820  33.7763717 -66.0486644
  17.3550000  35.6670000 -66.6010000  17.0141295  35.3116979 -67.5734546
  17.1200000  36.9650000 -66.2240000  16.5970563  37.6424305 -66.8990687
  18.5560000  40.7880000 -63.6380000  19.7070000  41.0640000 -63.9890000
  17.6290000  41.7220000 -63.4340000  16.6751133  41.4661454 -63.2224852
  17.9530000  43.1340000 -63.5560000  18.2631376  43.3664122 -64.5747734
  16.7280000  43.9570000 -63.2240000  15.9322670  43.7560428 -63.9413041
  16.3774845  43.7239644 -62.2185482  16.9730000  45.4240000 -63.2600000
  17.0860000  46.1240000 -64.4390000  17.0224998  45.7183875 -65.3617926
  17.2890000  47.4000000 -64.1640000  17.3998586  48.1265618 -64.9689338
  17.3190000  47.5490000 -62.8520000  17.1270000  46.3260000 -62.2630000
  17.1223951  46.2390597 -61.1764825  19.1110000  43.5240000 -62.6470000
  20.1560000  43.9880000 -63.1150000  18.9340000  43.3600000 -61.3350000
  18.0373165  43.0600362 -60.9799228  19.9900000  43.6580000 -60.3790000
  20.1329184  44.7374778 -60.3299984  19.6490000  43.1420000 -58.9680000
  19.3423402  42.1062478 -59.1138641  20.5928951  43.1676692 -58.4234790
  18.5580000  43.8960000 -58.1510000  18.8698007  44.9310961 -58.0115106
  17.6189250  43.8713188 -58.7038391  18.3610000  43.2270000 -56.7710000
  17.9171547  42.2467001 -56.9445294  19.3477508  43.1045956 -56.3244135
  17.4650000  44.0330000 -55.8190000  17.3422835  43.4533632 -54.9040889
  17.9759858  44.9682245 -55.5902035  16.1160000  44.3310000 -56.4070000
  15.6421681  43.4645278 -56.6186815  15.5689644  44.8604548 -55.7432759
  16.2294689  44.8684649 -57.2545585  21.2920000  43.0470000 -60.8710000
  22.3400000  43.6930000 -60.8270000  21.2440000  41.8180000 -61.3880000
  20.3742600  41.3179843 -61.5047728  22.4890000  41.1390000 -61.7510000
  23.2226035  41.3087046 -60.9628849  22.2690000  39.6360000 -61.8970000
  21.6483151  39.4501144 -62.7735255  23.5850000  38.9300000 -62.0570000
  24.2060953  39.1150521 -61.1805891  23.4129595  37.8586119 -62.1600952
  24.0923488  39.3032530 -62.9465954  21.6310000  39.1330000 -60.7200000
  21.4920258  38.1874442 -60.8106127  23.0870000  41.6800000 -63.0330000
  24.3120000  41.7310000 -63.1590000  22.2570000  42.0980000 -63.9800000
  21.2576114  42.0677876 -63.8371401  22.7560000  42.5630000 -65.2640000
  23.6935321  42.0624577 -65.5060541  21.7410000  42.2500000 -66.3560000
  20.8043167  42.7033405 -66.0316452  22.1075492  42.7687743 -67.2417849
  21.5070000  40.7890000 -66.6870000  21.2052650  40.2425664 -65.7934301
  20.4220000  40.7190000 -67.7000000  20.7232141  41.2648575 -68.5940964
  20.2316269  39.6771906 -67.9578605  19.5141826  41.1635353 -67.2921319
  22.7540000  40.1690000 -67.2510000  23.5589188  40.2407701 -66.5195260
  22.5664368  39.1204836 -67.4823754  23.0425774  40.6953232 -68.1608384
  23.0750000  44.0550000 -65.3090000  23.8660000  44.4730000 -66.1640000
  22.4910000  44.8670000 -64.4250000  21.9647011  44.4754896 -63.6569971
  22.5310000  46.3160000 -64.5670000  22.9845314  46.5163434 -65.5377065
  21.1070000  46.8810000 -64.5660000  20.6428859  46.6961321 -63.5972265
  21.1412767  47.9542954 -64.7529823  20.5222318  46.3951368 -65.3470777
  23.3480000  47.0390000 -63.5030000  23.8620000  48.1270000 -63.7760000
  23.5060000  46.4720000 -62.3120000  23.2021832  45.5223473 -62.1508943
  24.0870000  47.2090000 -61.1990000  24.4128817  48.1910817 -61.5416612
  23.0620000  47.3980000 -60.0710000  22.7534452  46.4272913 -59.6829038
  23.5028326  47.9868665 -59.2666351  21.8170000  48.1070000 -60.4860000
  21.7660000  48.9410000 -61.5790000  22.5489402  49.1448877 -62.1835945
  20.5420000  49.4230000 -61.7040000  20.2958324  50.1082831 -62.5151033
  19.7980000  48.9300000 -60.7300000  20.5730000  48.1070000 -59.9510000
  20.1374264  47.6059611 -59.0865142  25.3130000  46.5540000 -60.5940000
  25.8390000  47.0720000 -59.6060000  25.7630000  45.4250000 -61.1140000
  25.3182736  44.9954380 -61.9126202  26.8610000  44.7110000 -60.4650000
  26.6997399  44.6460920 -59.3889511  26.9980000  43.2870000 -61.0280000
  26.9148608  43.3289303 -62.1140152  28.3100000  42.6940000 -60.6540000
  28.3936859  42.6513105 -59.5680556  28.3839141  41.6865430 -61.0634722
  29.1151224  43.3090166 -61.0560376  25.8610000  42.4100000 -60.5000000
  24.9038972  42.8294921 -60.8099721  25.9624495  41.4018429 -60.9017797
  25.9054410  42.3729583 -59.4115361  28.1810000  45.4760000 -60.5660000
  28.9150000  45.5480000 -59.5660000  28.5570000  46.0510000 -61.7230000
  27.9530000  45.9630000 -63.0670000  27.2421037  46.7776169 -63.2052967
  27.4375047  45.0089545 -63.1772760  29.1370000  46.0770000 -63.9670000
  28.8309298  46.4705252 -64.9363080  29.5972686  45.0981735 -64.1017328
  30.0510000  46.9950000 -63.2810000  29.7741069  48.0256937 -63.5025844
  31.0898181  46.8290404 -63.5663314  29.8690000  46.7170000 -61.7860000
  30.6167573  46.0127835 -61.4212585  29.9280000  47.9940000 -60.9570000
  30.9220000  48.2310000 -60.2520000  28.8850000  48.8270000 -61.0240000
  28.1223263  48.6843592 -61.6705924  28.8660000  50.0190000 -60.1850000
  29.7072608  50.6605826 -60.4472044  27.5730000  50.8080000 -60.3750000
  27.5171744  51.1348941 -61.4133270  26.7317077  50.1504873 -60.1559011
  27.5200000  52.0280000 -59.4530000  27.4039258  51.6578280 -58.4343733
  28.4867156  52.5217934 -59.5516312  26.3980000  53.0320000 -59.7640000
  25.5160000  52.7510000 -60.6110000  26.3970000  54.1170000 -59.1330000
  29.0440000  49.6460000 -58.7240000  29.8850000  50.2160000 -58.0240000
  28.2710000  48.6690000 -58.2520000  27.5683530  48.2234880 -58.8246304
  28.3700000  48.2790000 -56.8520000  28.1347169  49.1532340 -56.2449942
  27.3830000  47.1450000 -56.5220000  27.5224738  46.3356273 -57.2386332
  27.6190000  46.6220000 -55.1160000  27.4792430  47.4307522 -54.3987214
  26.9112815  45.8210589 -54.9021573  28.6361126  46.2382572 -55.0364856
  25.9550000  47.6550000 -56.5880000  25.8900821  48.5454111 -55.9626565
  25.7444420  47.9226960 -57.6234244  24.9610000  46.6500000 -56.1240000
  25.1706472  46.3821395 -55.0884332  23.9580487  47.0710673 -56.1939301
  25.0250089  45.7594229 -56.7492002  29.7950000  47.8870000 -56.5290000
  30.3340000  48.2690000 -55.4860000  30.4470000  47.1670000 -57.4480000
  30.0104905  46.9380321 -58.3295512  31.7690000  46.6070000 -57.1620000
  31.6783783  46.1237850 -56.1891741  32.1600000  45.5630000 -58.2170000
  31.9578421  45.9668187 -59.2090499  33.6350000  45.2210000 -58.1010000
  33.8378550  44.8166613 -57.1093041  33.8970191  44.4794791 -58.8557142
  34.2303617  46.1210283 -58.2545988  31.4060000  44.2850000 -57.9310000
  30.3380409  44.5015325 -57.9049654  31.6113388  43.5668310 -58.7248317
  31.8380000  43.6990000 -56.5920000  31.6325315  44.4164647 -55.7975650
  31.2850319  42.7790880 -56.4020332  32.9058306  43.4817652 -56.6174307
  32.8140000  47.7000000 -57.0500000  33.7490000  47.5870000 -56.2420000
  32.6690000  48.7820000 -57.8240000  31.9479854  48.8484075 -58.5281501
  33.6090000  49.8850000 -57.6930000  34.6106181  49.4958970 -57.5100812
  33.6360000  50.7160000 -58.9620000  34.6367601  51.1378884 -59.0546751
  33.4475987  50.0419689 -59.7976358  32.6230000  51.8240000 -58.9750000
  31.6572941  51.3898155 -58.7161626  32.8922710  52.5772892 -58.2346300
  32.5360000  52.4680000 -60.3400000  31.4190000  52.9250000 -60.7150000
  33.5900000  52.4870000 -61.0400000  33.2820000  50.7780000 -56.5130000
  34.1730000  51.4540000 -55.9890000  32.0290000  50.8100000 -56.0790000
  31.2676362  50.3580070 -56.5649289  31.7220000  51.5900000 -54.8900000
  32.2193376  52.5586299 -54.9401064  30.2190000  51.8190000 -54.7900000
  29.9016969  52.2530134 -55.7381827  29.7575530  50.8391858 -54.6669923
  29.7960000  52.7160000 -53.6630000  30.3097788  52.4101092 -52.7516477
  30.0666175  53.7438863 -53.9044910  28.2910000  52.6240000 -53.4520000
  27.9971602  53.3514636 -52.6953271  27.7896422  52.8553864 -54.3917873
  27.8700000  51.2920000 -53.0110000  28.5790035  50.7067602 -52.5927801
  26.6290000  50.8140000 -53.1130000  25.6490000  51.5440000 -53.6520000
  25.8447097  52.4753361 -53.9902467  24.7166834  51.1613621 -53.7188854
  26.3760000  49.5880000 -52.6810000  27.1195947  49.0328775 -52.2822444
  25.4406160  49.2137331 -52.7522726  32.2550000  50.9080000 -53.6330000
  32.7360000  51.5810000 -52.7220000  32.2080000  49.5760000 -53.5700000
  32.0469343  49.0270503 -54.4023530  32.3470000  48.8790000 -52.3000000
  32.5710638  49.5974565 -51.5115110  31.0380000  48.1310000 -51.9320000
  30.9098219  47.3724293 -52.7041658  31.1748133  47.6455863 -50.9656896
  29.7740000  49.0390000 -51.8820000  29.8610000  50.2810000 -51.6930000
  28.6600000  48.4700000 -52.0000000  33.4810000  47.8630000 -52.2590000
  33.9020000  47.4730000 -51.1550000  33.9590000  47.3930000 -53.4110000
  33.5708477  47.7437170 -54.2749645  35.0120000  46.4000000 -53.4840000
  35.5901284  46.6119293 -54.3834180  35.6432601  46.5376133 -52.6061204
  34.5380000  44.9610000 -53.5300000  35.2040000  44.1090000 -54.1350000
  33.4070000  44.6630000 -52.9000000  32.9170194  45.3860648 -52.3928553
  32.8500000  43.3180000 -52.8950000  33.1855827  42.7878998 -53.7863345
  33.2900000  42.5280000 -51.6620000  34.3685244  42.6330600 -51.5443280
  32.7878206  42.9372058 -50.7853778  32.9610000  41.1550000 -51.7970000
  33.2457118  40.6791829 -51.0133310  31.3350000  43.4180000 -52.9180000
  30.7580000  44.4380000 -52.5340000  30.6970000  42.3380000 -53.3700000
  31.1814357  41.7072705 -53.9925767  29.3010000  42.0730000 -53.0710000
  28.8908859  42.9016698 -52.4937548  28.4880000  41.8960000 -54.3590000
  28.8780556  41.0501619 -54.9251403  27.0690000  41.6440000 -54.0090000
  26.6780868  42.4896732 -53.4432046  26.4861740  41.5173520 -54.9213458
  26.9983595  40.7395049 -53.4048496  28.6150000  43.1530000 -55.1950000
  28.0598556  43.9371195 -54.6801485  29.6728383  43.4145530 -55.2208390
  28.1020000  43.0150000 -56.5920000  27.0440321  42.7538917 -56.5669747
  28.2302942  43.9589964 -57.1216324  28.6570138  42.2313231 -57.1076647
  29.1510000  40.8630000 -52.1660000  28.4870000  40.9330000 -51.1310000
  29.8220000  39.7710000 -52.5140000  30.4649313  39.8098278 -53.2919660
  29.6670000  38.5180000 -51.8170000  28.6502806  38.1725230 -52.0041537
  30.3754015  37.8173566 -52.2590018  29.9000000  38.5770000 -50.3220000
  29.4160000  37.6940000 -49.6020000  30.6380000  39.5750000 -49.8270000
  31.0628360  40.2782637 -50.4143959  30.9060000  39.6170000 -48.3940000
  30.8156652  38.5948249 -48.0264446  32.3190000  40.1180000 -48.1010000
  32.4221119  41.1436915 -48.4551539  32.5013183  40.0849891 -47.0268629
  33.0432633  39.4833222 -48.6116133  29.9040000  40.4710000 -47.6450000
  29.8240000  40.3790000 -46.4190000  29.1300000  41.2810000 -48.3350000
  29.2933496  41.4682117 -49.3139627  28.0840000  42.0150000 -47.6630000
  28.3067698  42.1160142 -46.6008000  27.9900000  43.4130000 -48.2780000
  27.8282442  43.2943009 -49.3493752  27.2778225  44.1366824 -47.8815319
  29.3460000  44.0150000 -48.1150000  30.4030000  43.9290000 -48.9850000
  30.2224793  43.4202761 -49.9319488  31.5060000  44.5310000 -48.4450000
  32.4103912  44.6094262 -48.8877476  31.1860000  45.0030000 -47.1950000
  31.9660000  45.6760000 -46.2640000  33.0027547  45.8989904 -46.5160191
  31.3780000  46.0180000 -45.0820000  31.9607612  46.5473955 -44.3281898
  30.0540000  45.7090000 -44.8130000  29.5969771  45.9917036 -43.8646814
  29.2790000  45.0400000 -45.7280000  28.2423580  44.8266283 -45.4673341
  29.8440000  44.6790000 -46.9490000  26.7800000  41.2550000 -47.7090000
  25.7320000  41.8110000 -47.3880000  26.8440000  39.9930000 -48.1050000
  27.7430854  39.5673655 -48.2798717  25.6550000  39.2170000 -48.3730000
  24.9262085  39.8313786 -48.9016785  26.0060000  38.0160000 -49.2470000
  26.7281390  37.3863825 -48.7271951  25.1039736  37.4396941 -49.4527183
  26.4369158  38.3629933 -50.1861520  25.0030000  38.7960000 -47.0620000
  25.6450000  38.7560000 -46.0010000  23.7150000  38.4540000 -47.1520000
  23.1977034  38.5541613 -48.0136677  23.0010000  38.0100000 -45.9680000
  23.1931050  38.6826709 -45.1321120  21.5070000  38.0090000 -46.2580000
  20.9850894  37.9016670 -45.3071119  21.2553950  38.9715301 -46.7033435
  21.1160000  36.9750000 -47.1260000  20.1685475  37.0220427 -47.2733792
  23.4520000  36.6400000 -45.4520000  23.0700000  36.2530000 -44.3420000
  24.2370000  35.8900000 -46.2100000  24.7153997  36.2492661 -47.0237327
  24.3430000  34.4670000 -45.9190000  23.3558522  34.0056544 -45.8907405
  25.1620000  33.8000000 -47.0220000  24.6019006  33.9228635 -47.9489803
  26.1024230  34.3467401 -47.0911367  25.4430000  32.3580000 -46.8010000
  26.3916256  32.2820686 -46.2695447  24.6495849  31.9268461 -46.1905100
  25.5370000  31.6060000 -48.1090000  25.5510000  32.2650000 -49.1770000
  25.5790000  30.3610000 -48.0760000  24.9330000  34.2100000 -44.5310000
  24.6070000  33.2190000 -43.8860000  25.7720000  35.0960000 -44.0330000
  26.1120277  35.8754467 -44.5779250  26.2320000  34.9620000 -42.6590000
  26.7524580  34.0087004 -42.5671169  26.9269664  35.7760986 -42.4531736
  25.1060000  35.0080000 -41.6480000  25.0660000  34.2100000 -40.7080000
  24.1490000  35.8960000 -41.8560000  24.1716302  36.5270979 -42.6442275
  23.0500000  36.0160000 -40.9060000  23.4362406  36.0144552 -39.8867282
  22.2980000  37.3180000 -41.1390000  23.0289464  38.1260241 -41.1087712
  21.8079842  37.3082703 -42.1125964  21.2950000  37.5610000 -40.1170000
  21.5410000  37.2990000 -38.9280000  20.1220000  38.0280000 -40.5420000
  19.3857207  38.2159619 -39.8766708  19.9743289  38.1919618 -41.5276016
  22.0970000  34.8360000 -41.0150000  21.6100000  34.3340000 -39.9900000
  21.7630000  34.4210000 -42.2490000  22.0325674  34.9553297 -43.0625874
  20.9370000  33.2370000 -42.4430000  19.9518604  33.3983828 -42.0053303
  20.7670000  32.9410000 -43.9330000  21.7710035  32.9296891 -44.3572030
  20.3347307  31.9424408 -43.9972089  19.8930000  33.9270000 -44.7160000
  20.2248834  34.9126505 -44.3897372  20.1247129  33.7977033 -45.7732089
  18.3510000  33.8000000 -44.5020000  17.5730000  34.3500000 -45.3340000
  17.8910000  33.1920000 -43.5080000  21.5420000  32.0580000 -41.7040000
  20.8520000  31.3780000 -40.9430000  22.8520000  31.8440000 -41.8560000
  23.3819619  32.3545134 -42.5478206  23.5450000  30.8340000 -41.0590000
  23.1452731  29.8431709 -41.2748129  25.0220000  30.8450000 -41.3990000
  25.2855497  31.7945935 -41.8647392  25.6098563  30.7107350 -40.4909813
  25.2940000  29.7920000 -42.2940000  26.2284081  29.7925095 -42.5141840
  23.3730000  31.0380000 -39.5550000  23.5010000  30.0790000 -38.7750000
  23.1000000  32.2710000 -39.1360000  23.0533105  33.0492995 -39.7780042
  22.8610000  32.5250000 -37.7310000  23.6635445  32.0666586 -37.1531205
  22.8652216  33.6025188 -37.5665775  21.5400000  31.9630000 -37.2680000
  21.4390000  31.4370000 -36.1520000  20.5100000  32.0670000 -38.1190000
  20.5936003  32.6575919 -38.9340531  19.2250000  31.4160000 -37.8630000
  18.7067450  31.9023613 -37.0365839  18.3580000  31.5250000 -39.1140000
  18.8513648  31.0143760 -39.9410148  17.3968516  31.0504757 -38.9162112
  18.1140000  32.9640000 -39.5110000  18.1880000  33.8570000 -38.6700000
  17.8300000  33.2050000 -40.7900000  17.6603018  34.1522500 -41.0966264
  17.7856785  32.4393661 -41.4472222  19.4110000  29.9590000 -37.4210000
  18.8490000  29.5330000 -36.4060000  20.2570000  29.1970000 -38.1330000
  20.6613512  29.5410315 -38.9922100  20.5540000  27.8220000 -37.7280000
  19.6526347  27.2110990 -37.7773949  21.6030000  27.2240000 -38.6710000
  21.2067422  27.3296284 -39.6809117  22.4980045  27.8372977 -38.5664396
  21.9500000  25.7860000 -38.4180000  22.7254516  25.7498094 -37.6528426
  21.0575237  25.2766671 -38.0544508  22.4550000  25.0880000 -39.6930000
  21.5908525  24.8708996 -40.3208659  23.1172580  25.7796069 -40.2137627
  23.2230000  23.7620000 -39.3880000  24.0338359  24.0482599 -38.7181485
  22.5113099  23.1362271 -38.8494791  23.7880000  22.9880000 -40.5630000
  24.4478143  23.5675303 -41.0618882  24.2557558  22.1586341 -40.2261665
  23.0367722  22.7222810 -41.1836039  21.0170000  27.7410000 -36.2730000
  20.6630000  26.7980000 -35.5510000  21.7950000  28.7290000 -35.8160000
  22.1633038  29.4399058 -36.4316822  22.1920000  28.7570000 -34.4090000
  22.5351292  27.7689661 -34.1021603  23.3220000  29.7520000 -34.1950000
  23.0445345  30.6468900 -34.7520314  23.3645383  29.9854745 -33.1311484
  24.6940000  29.2640000 -34.6650000  24.6245006  28.8769906 -35.6816093
  25.6390000  30.4170000 -34.6360000  25.7093823  30.8042811 -33.6195559
  26.6238708  30.0886872 -34.9681762  25.2755438  31.2020991 -35.2990380
  25.2240000  28.1500000 -33.7980000  24.5343402  27.3064372 -33.8275049
  26.1996070  27.8341193 -34.1674748  25.3217277  28.5030009 -32.7713849
  21.0130000  29.0860000 -33.5030000  20.8990000  28.5260000 -32.4030000
  20.1300000  29.9890000 -33.9480000  20.3325148  30.5140196 -34.7867142
  18.8980000  30.2920000 -33.2210000  19.1279760  30.7763312 -32.2719829
  18.0290000  31.2430000 -34.0600000  18.5950428  32.1239143 -34.3627951
  17.6835903  30.7112701 -34.9465977  16.7940000  31.7460000 -33.3490000
  16.8750000  32.8160000 -32.4590000  17.8409527  33.2905321 -32.2862152
  15.7570000  33.2740000 -31.8030000  15.8311236  34.1011822 -31.0970425
  14.5160000  32.6700000 -32.0470000  13.6265755  33.0279295 -31.5284342
  14.4190000  31.6250000 -32.9410000  13.4528201  31.1588805 -33.1342079
  15.5480000  31.1690000 -33.5920000  15.4716807  30.3486074 -34.3056044
  18.1320000  29.0140000 -32.8730000  17.8630000  28.7260000 -31.7020000
  17.7980000  28.2190000 -33.8860000  18.0453676  28.4459296 -34.8385815
  16.9820000  27.0390000 -33.6480000  16.0325224  27.3207170 -33.1927781
  16.6990000  26.3430000 -34.9730000  17.6447361  26.0096932 -35.4003043
  16.0619741  25.4790588 -34.7835175  15.9980000  27.2890000 -35.9580000
  15.1651015  27.7613432 -35.4371614  16.7152733  28.0514718 -36.2617397
  15.4880000  26.5750000 -37.1680000  16.3498621  26.1876711 -37.7113866
  14.8711093  25.7438880 -36.8262424  14.6990000  27.4010000 -38.0720000
  15.1500095  27.7411842 -38.9092363  13.4150000  27.7100000 -37.8690000
  12.7930000  27.2990000 -36.7630000  13.2955302  26.7527329 -36.0780506
  11.8223223  27.5359265 -36.6155206  12.7580000  28.4520000 -38.7580000
  13.2330831  28.7807029 -39.5864627  11.7875207  28.6827886 -38.5998692
  17.6410000  26.1040000 -32.6500000  16.9820000  25.6240000 -31.7150000
  18.9550000  25.8920000 -32.7920000  19.4580449  26.3507003 -33.5380826
  19.6920000  24.9820000 -31.9160000  19.2004702  24.0095637 -31.8865839
  21.1100000  24.7950000 -32.4400000  21.0461788  24.7393378 -33.5267050
  21.6773267  25.6809411 -32.1547830  21.8110000  23.5500000 -31.9080000
  21.3867121  23.3292031 -30.9285464  21.5883547  22.7316322 -32.5926936
  23.3280000  23.7110000 -31.7820000  23.7080962  24.1424857 -32.7079838
  23.5363036  24.3883372 -30.9537951  24.0210000  22.4400000 -31.5360000
  23.9339107  22.0038466 -30.6292006  24.7530000  21.8310000 -32.4660000
  24.8560000  22.4160000 -33.6640000  24.3849513  23.2925751 -33.8367115
  25.4043743  21.9786148 -34.3906908  25.3800000  20.6710000 -32.2100000
  25.2987248  20.2473871 -31.2967385  25.9298772  20.2276649 -32.9319334
  19.7440000  25.4990000 -30.4890000  19.5620000  24.7420000 -29.5310000
  20.0210000  26.7860000 -30.3300000  20.1469512  27.3929564 -31.1273955
  20.2120000  27.3450000 -29.0010000  20.8723095  26.7078251 -28.4126984
  20.8500000  28.7330000 -29.1210000  20.3148394  29.3324201 -29.8574767
  20.8218946  29.2358535 -28.1543312  22.3030000  28.7080000 -29.5550000
  23.1160000  27.6150000 -29.2500000  22.7074443  26.7787898 -28.6826072
  24.4580000  27.5900000 -29.6720000  25.0845731  26.7307448 -29.4328613
  24.9770000  28.6390000 -30.3800000  26.0174298  28.6039171 -30.7030711
  24.2010000  29.7280000 -30.6840000  24.6259487  30.5608199 -31.2442944
  22.8640000  29.7700000 -30.2750000  22.2472168  30.6357319 -30.5162192
  18.8830000  27.4090000 -28.2530000  18.8330000  27.2240000 -27.0300000
  17.7850000  27.6630000 -28.9740000  17.8523800  27.8933515 -29.9550696
  16.4590000  27.6520000 -28.3530000  16.4449740  28.3320189 -27.5012507
  15.4100000  28.0940000 -29.3390000  15.7985424  28.9233126 -29.9300792
  15.1634107  27.2622896 -29.9989633  14.1860000  28.5320000 -28.6150000
  13.6052759  27.6590664 -28.3169274  14.4688352  29.0995916 -27.7284640
  13.3660000  29.3900000 -29.5120000  12.8293882  30.1414536 -28.9328073
  13.9994791  29.8839597 -30.2487547  12.3990000  28.5630000 -30.2100000
  12.7254021  27.8709997 -30.8693152  11.1010000  28.6570000 -29.9860000
  10.6740000  29.5410000 -29.0970000  11.3392402  30.1235711 -28.6089771
   9.6851033  29.6284815 -28.9111777  10.2410000  27.9100000 -30.6640000
  10.5796056  27.2611311 -31.3599997   9.2511236  27.9931724 -30.4814463
  16.0850000  26.2760000 -27.8200000  15.4060000  26.1750000 -26.7900000
  16.4900000  25.2080000 -28.5200000  16.9254981  25.2977082 -29.4268590
  16.2360000  23.8770000 -28.0090000  15.2167728  23.8250325 -27.6261496
  16.4030000  22.8140000 -29.1080000  17.4457130  22.8347772 -29.4248865
  16.1789910  21.8456165 -28.6606149  15.5090000  23.0340000 -30.3050000
  14.6305301  23.5836091 -29.9668857  16.0605515  23.6388301 -31.0247733
  15.0570000  21.6930000 -30.9860000  15.9418137  21.1134522 -31.2493020
  14.4479946  21.1257855 -30.2820969  14.2300000  21.9850000 -32.2670000
  13.2559327  22.3788387 -31.9768543  14.7572838  22.7268423 -32.8667842
  14.0450000  20.7450000 -33.0640000  13.5560441  20.0576125 -32.5085539
  13.5057272  20.9542807 -33.8919411  14.9474624  20.3801327 -33.3333188
  17.1510000  23.5880000 -26.8320000  16.7010000  23.0710000 -25.7980000
  18.4490000  23.8650000 -26.9760000  18.7834397  24.5765216 -27.6100240
  19.4240000  23.0780000 -26.2520000  18.9348892  22.4328123 -25.5222036
  20.1740000  22.2070000 -27.2440000  20.4878781  22.8162601 -28.0915741
  21.0521181  21.7825312 -26.7573431  19.2690000  21.0780000 -27.7360000
  18.9191990  20.4601675 -26.9089431  18.4120980  21.4668128 -28.2861324
  20.2620000  20.0870000 -28.8260000  21.4830000  21.3170000 -29.3230000
  22.0136522  21.6793426 -28.4425370  22.1939599  20.8651034 -30.0146836
  20.9805960  22.1512144 -29.8126710  20.4040000  23.8870000 -25.4410000
  21.3860000  23.3210000 -24.9770000  20.1710000  25.1890000 -25.2600000
  19.3554393  25.5915591 -25.6992110  21.0580000  26.0690000 -24.5140000
  21.6061715  25.5076258 -23.7573850  22.0560000  26.6930000 -25.4730000
  21.5048283  26.8846364 -26.3936435  22.4730720  27.6278446 -25.0985449
  23.1740000  25.7610000 -25.7740000  23.2410000  25.1440000 -26.8520000
  24.0400000  25.5720000 -24.7740000  24.8270684  24.9521322 -24.9020118
  23.9035141  26.0498830 -23.8947388  20.2930000  27.1440000 -23.7630000
  20.8990000  28.1330000 -23.3400000  18.9860000  26.9640000 -23.5460000
  18.5601769  26.1066772 -23.8681361  18.1310000  27.9690000 -22.9190000
  18.7379586  28.6988747 -22.3832917  17.3370000  28.6920000 -23.9910000
  16.7172793  27.9755465 -24.5302038  16.7004064  29.4451009 -23.5265779
  18.0221262  29.1754634 -24.6873939  17.2050000  27.3110000 -21.8850000
  16.9210000  26.0950000 -21.9150000  16.7990000  28.1250000 -20.9170000
  17.2378076  29.0194850 -20.7513380  15.7110000  27.7200000 -20.0450000
  15.9426824  26.7484376 -19.6085496  15.4920000  28.7320000 -18.9050000
  15.1433587  29.6590261 -19.3601605  14.7107868  28.3276250 -18.2613488
  16.7320000  29.0100000 -18.0800000  17.2475792  28.0534233 -17.9949123
  17.3338459  29.6946459 -18.6776149  16.5200000  29.6060000 -16.6740000
  15.7295246  29.0151501 -16.2112431  17.4540073  29.4480945 -16.1347452
  16.1580000  31.0320000 -16.5840000  15.2786587  31.2156167 -16.1223257
  16.8570000  32.0690000 -17.0630000  16.4280000  33.3140000 -16.8940000
  15.5644649  33.4844689 -16.3986743  16.9671473  34.0849314 -17.2615386
  17.9740000  31.8830000 -17.7330000  18.3141068  30.9452666 -17.8913776
  18.4861442  32.6788180 -18.0858183  14.4610000  27.6040000 -20.8980000
  14.2130000  28.4320000 -21.7780000  13.6760000  26.5650000 -20.6600000
  13.8385833  25.9650466 -19.8639335  12.6280000  26.1900000 -21.6080000
  12.8225636  26.6295330 -22.5862919  12.6070000  24.6750000 -21.7510000
  13.5871377  24.2889357 -21.4710290  11.8525568  24.2754383 -21.0733084
  12.2940000  24.2650000 -23.1300000  12.0498122  23.2027475 -23.1203630
  11.4199038  24.8353751 -23.4442135  13.3960000  24.4940000 -24.1190000
  14.5600000  24.6040000 -23.7440000  13.0370000  24.5560000 -25.4080000
  13.7391147  24.7086572 -26.1178114  12.0658318  24.4498071 -25.6642359
  11.2590000  26.7680000 -21.2080000  10.3040000  26.0660000 -20.8750000
  11.1700000  28.0910000 -21.2860000  11.9219494  28.6077279 -21.7192017
  10.0510000  28.8360000 -20.7330000   9.1327927  28.2647893 -20.8697949
  10.2440000  29.1010000 -19.2380000   9.6199094  28.4099705 -18.6713534
  11.2907360  28.9388523 -18.9807999   9.8800000  30.4370000 -18.9200000
  10.0062192  30.5880181 -17.9803926   9.9120000  30.1470000 -21.4960000
  10.8860000  30.6680000 -22.0340000   8.6960000  30.6840000 -21.5270000
   7.9257023  30.3139823 -20.9886435   8.4400000  31.8070000 -22.4150000
   8.8323717  31.5935780 -23.4092810   6.9400000  32.0540000 -22.5260000
   6.4552713  31.3195512 -21.8827876   6.7596080  33.0549065 -22.1338967
   6.3730000  31.9510000 -23.9250000   6.8020743  32.7342386 -24.5499266
   6.6181816  30.9759126 -24.3459425   4.8530000  32.1160000 -23.8730000
   4.4457412  31.3488078 -23.2144749   4.6274054  33.1013200 -23.4651386
   4.2250000  31.9830000 -25.2580000   3.9715660  32.9847705 -25.6048828
   4.9728689  31.5478816 -25.9209202   2.9850000  31.1200000 -25.2630000
   2.2917208  31.5232481 -24.6491151   2.6146339  31.0682640 -26.2012176
   3.2197050  30.1915726 -24.9420090   9.1350000  33.0880000 -21.9770000
   9.3700000  33.9560000 -22.8200000   9.4590000  33.2520000 -20.6960000
   9.2871558  32.5393004 -20.0012855   9.9880000  34.5350000 -20.2530000
   9.7959790  35.2901378 -21.0152296   9.3290000  34.9820000 -18.9440000
   9.5635327  36.0311572 -18.7641032   8.2489052  34.8606072 -19.0262139
   9.8150000  34.1050000 -17.4650000   9.0370710  34.7925372 -16.6337255
  11.4970000  34.5250000 -20.1090000  12.0750000  35.4980000 -19.6240000
  12.1450000  33.4620000 -20.5390000  11.6262996  32.6758653 -20.9037485
  13.5880000  33.3680000 -20.4890000  14.0122937  34.3422516 -20.2462907
  14.0270000  32.3610000 -19.4170000  13.6588619  31.4038147 -19.7862828
  15.1169852  32.3555015 -19.4184471  13.5250000  32.5840000 -18.0040000
  13.5030000  33.8510000 -17.4360000  13.8298179  34.7044334 -18.0300883
  13.0740000  34.0380000 -16.1350000  13.0590878  35.0368600 -15.6989286
  12.6630000  32.9540000 -15.3890000  12.2350000  33.1500000 -14.1020000
  12.2651877  34.0709926 -13.8328143  12.6800000  31.6770000 -15.9260000
  12.3629007  30.8176672 -15.3351568  13.1050000  31.5010000 -17.2250000
  13.1181581  30.5032574 -17.6636761  14.1970000  32.9370000 -21.8110000
  15.4150000  33.0480000 -21.9760000  13.4040000  32.4260000 -22.7470000
  12.3991943  32.3998388 -22.6481042  13.9980000  31.8110000 -23.9260000
  14.7230388  31.0561591 -23.6216431  12.9230000  31.1390000 -24.7830000
  13.4386624  30.6480829 -25.6083436  12.4439290  30.3870916 -24.1559236
  11.8520000  32.0990000 -25.3440000  11.4123293  32.6178363 -24.4921787
  12.3428994  32.8221143 -25.9953238  10.7510000  31.3750000 -26.1240000
   9.5630000  31.5620000 -25.7680000  11.0850000  30.6120000 -27.0730000
  14.7750000  32.8280000 -24.7380000  15.8650000  32.5240000 -25.2310000
  14.2550000  34.0520000 -24.8660000  13.3720186  34.3203836 -24.4556179
  14.9400000  35.0130000 -25.7210000  15.1613851  34.5538757 -26.6844795
  14.0750000  36.2390000 -25.9550000  13.6869220  36.5612762 -24.9887533
  14.7116279  37.0207510 -26.3693312  12.9130000  35.9730000 -26.9060000
  12.2613564  35.2739446 -26.3818024  12.4031436  36.9298472 -27.0182141
  13.3030000  35.3070000 -28.5520000  13.4620000  33.5250000 -28.2530000
  12.5228838  33.1370401 -27.8584790  13.6991264  33.0187878 -29.1887462
  14.2596738  33.3468136 -27.5318430  16.3000000  35.3930000 -25.1530000
  17.3190000  35.2910000 -25.8500000  16.3490000  35.7980000 -23.8780000
  15.5313514  35.8425614 -23.2867603  17.6110000  36.2980000 -23.3500000
  18.0310106  37.0257812 -24.0442800  17.4170000  36.9710000 -21.9980000
  18.3473715  37.4969454 -21.7837816  16.6132667  37.6951235 -22.1312590
  17.0850000  36.0630000 -20.8590000  16.1381566  35.5567895 -21.0469875
  17.8848577  35.3251093 -20.7969979  16.9990000  36.8260000 -19.5510000
  18.0540000  37.3640000 -19.1180000  15.8750000  36.9160000 -18.9840000
  18.6640000  35.1940000 -23.2720000  19.8010000  35.3980000 -23.7070000
  18.3150000  34.0130000 -22.7520000  17.3955581  33.8348325 -22.3738701
  19.2980000  32.9340000 -22.7190000  20.1143353  33.2123718 -22.0525129
  18.6870000  31.6340000 -22.2220000  17.8299531  31.4291817 -22.8635757
  19.4211671  30.8358117 -22.3315183  18.2380000  31.7050000 -20.8000000
  17.8320000  30.6140000 -20.3030000  18.2650000  32.8270000 -20.2100000
  19.8800000  32.6670000 -24.0900000  21.0770000  32.3720000 -24.2280000
  19.0520000  32.7470000 -25.1250000  18.0579788  32.8896364 -25.0169444
  19.5740000  32.5140000 -26.4630000  20.2459687  31.6559038 -26.4478978
  18.4350000  32.2290000 -27.4570000  17.6247144  32.9401259 -27.2962628
  18.9570000  32.3690000 -28.8770000  19.7670595  31.6578214 -29.0386463
  18.1509621  32.1673258 -29.5825005  19.3279980  33.3824340 -29.0300153
  17.9110000  30.8250000 -27.2560000  17.5332244  30.7197471 -26.2389899
  17.1050278  30.6325797 -27.9641546  18.7164651  30.1090994 -27.4197471
  20.4380000  33.6900000 -26.8980000  21.5580000  33.5000000 -27.3740000
  19.9550000  34.9200000 -26.6920000  19.0071544  35.0489884 -26.3678858
  20.7550000  36.1080000 -26.9850000  20.9173329  36.1929605 -28.0594901
  20.0290000  37.3600000 -26.5010000  19.0771689  37.3673502 -27.0320958
  19.8455423  37.2958013 -25.4284694  20.7910000  38.6400000 -26.8090000
  21.7461681  38.6315500 -26.2839444  21.0360000  38.7310000 -28.3000000
  20.0812139  38.7399668 -28.8257395  21.5820064  39.6474695 -28.5237442
  21.6214486  37.8711824 -28.6256748  20.0360000  39.8470000 -26.3030000
  19.9038380  39.7674485 -25.2239707  20.5989285  40.7513819 -26.5338813
  19.0597941  39.8941495 -26.7855949  22.1450000  36.0280000 -26.3530000
  23.1590000  36.0940000 -27.0510000  22.2150000  35.8770000 -25.0290000
  21.3837853  35.8767199 -24.4552567  23.5130000  35.7850000 -24.3670000
  24.0829351  36.6982348 -24.5381006  23.3270000  35.6010000 -22.8650000
  23.1058119  36.5817813 -22.4439974  22.4691564  34.9435899 -22.7235210
  24.5250000  35.0170000 -22.1710000  24.8085486  34.0964015 -22.6810975
  25.3452224  35.7323707 -22.2308502  24.2250000  34.7180000 -20.7270000
  24.2095237  35.6620613 -20.1823829  23.2404101  34.2532162 -20.6754426
  25.2590000  33.7880000 -20.1020000  26.2269436  34.2601129 -20.2702115
  25.0427102  33.7743967 -19.0337618  25.2920000  32.3660000 -20.6290000
  25.4928308  32.3783604 -21.6187545  26.0098314  31.8446535 -20.1462828
  24.3953093  31.9282102 -20.4728433  24.3610000  34.6550000 -24.9500000
  25.4420000  34.8930000 -25.4980000  23.8920000  33.4110000 -24.8510000
  22.9911067  33.1952025 -24.4486047  24.7380000  32.3050000 -25.2860000
  25.7038916  32.3628726 -24.7841998  24.0940000  30.9670000 -24.9490000
  23.9183040  30.8948160 -23.8756782  23.1476786  30.8612734 -25.4794694
  24.9300000  29.7860000 -25.3260000  25.0040000  29.3050000 -26.6170000
  25.8150000  28.2630000 -26.6540000  26.0099091  27.7417754 -27.5912483
  26.2660000  28.0460000 -25.4320000  26.9015070  27.3115562 -25.1548304
  25.7290000  28.9880000 -24.5830000  25.9866903  28.9771671 -23.5239535
  25.0500000  32.3450000 -26.7730000  26.0410000  31.7570000 -27.1940000
  24.2310000  32.9990000 -27.5820000  23.3235714  33.3215706 -27.2776631
  24.6030000  33.1990000 -28.9750000  24.9624691  32.2685500 -29.4144816
  23.3690000  33.6620000 -29.7520000  22.4869332  33.0870873 -29.4699843
  23.2065070  34.7140668 -29.5177961  23.4830000  33.5680000 -31.2350000
  24.6840000  33.6180000 -31.9020000  24.4780000  33.5290000 -33.2040000
  25.3113546  33.5393087 -33.9065047  23.1790000  33.4370000 -33.4050000
  22.7215610  33.3576725 -34.3019708  22.5340000  33.4660000 -32.1900000
  21.4462672  33.4089927 -32.1489052  25.7610000  34.1960000 -29.0810000
  26.6320000  34.0640000 -29.9490000  25.8090000  35.1850000 -28.1920000
  25.0761663  35.3213747 -27.5104899  26.9020000  36.1520000 -28.2360000
  27.0076038  36.5676488 -29.2380894  26.5920000  37.2840000 -27.2710000
  25.6546780  37.7156657 -27.6219863  26.4642067  36.9189783 -26.2519180
  27.5710000  38.3940000 -27.2040000  28.5830000  38.5390000 -26.2980000
  28.7110616  37.7402389 -25.5674654  29.2480000  39.7200000 -26.5210000
  30.0411937  40.0540770 -25.9924777  28.6620000  40.3720000 -27.5750000
  28.9780000  41.5920000 -28.1640000  29.8175719  42.1591753 -27.7620923
  28.2110000  42.0050000 -29.2160000  28.4296691  42.9571492 -29.6994208
  27.1570000  41.2400000 -29.6860000  26.5565792  41.5793742 -30.5300495
  26.8310000  40.0210000 -29.1010000  25.9909960  39.4579678 -29.5078030
  27.5980000  39.5710000 -28.0260000  28.2380000  35.4850000 -27.9170000
  29.2110000  35.6400000 -28.6580000  28.2950000  34.7100000 -26.8320000
  27.5090189  34.6392597 -26.2016597  29.5120000  33.9730000 -26.5060000
  30.3119289  34.6720624 -26.2620233  29.2810000  33.0610000 -25.3090000
  28.4871833  32.3677465 -25.5871256  30.1973330  32.5039066 -25.1138570
  28.8750000  33.8190000 -24.0600000  27.8503339  34.1724589 -24.1750089
  28.9640000  32.9240000 -22.8540000  29.9885436  32.5704925 -22.7380620
  28.6696959  33.4813939 -21.9647319  28.2983341  32.0707487 -22.9841982
  29.7940000  35.0020000 -23.9120000  29.7033175  35.6449559 -24.7874906
  29.5219389  35.5646013 -23.0189357  30.8231418  34.6542763 -23.8222545
  29.9880000  33.1460000 -27.6810000  31.1790000  33.1320000 -27.9990000
  29.0740000  32.4340000 -28.3340000  28.1107625  32.3918769 -28.0331703
  29.4760000  31.6260000 -29.4730000  30.2380525  30.9132783 -29.1577177
  28.2890000  30.8480000 -30.0590000  27.8205985  30.3141736 -29.2321211
  27.5895299  31.5815597 -30.4599136  28.6670000  29.8600000 -31.1500000
  29.1270000  28.5810000 -30.8370000  29.1979615  28.2933053 -29.7880502
  29.4910000  27.6810000 -31.8300000  29.8690677  26.6920458 -31.5708935
  29.4010000  28.0600000 -33.1530000  29.7390000  27.1730000 -34.1640000
  30.0242723  26.3181558 -33.8331513  28.9390000  29.3260000 -33.4780000
  28.8702680  29.6235287 -34.5243523  28.5670000  30.2080000 -32.4840000
  28.1876529  31.1957543 -32.7457964  30.1270000  32.4650000 -30.5530000
  30.8880000  31.9250000 -31.3550000  29.9200000  33.7680000 -30.5610000
  29.2690790  34.2092026 -29.9271692  30.5750000  34.5940000 -31.5610000
  30.8656482  33.9594049 -32.3982048  29.5890000  35.6310000 -32.0590000
  30.1075355  36.3718090 -32.6676241  28.5470000  34.9480000 -32.8860000
  28.0276884  34.2073181 -32.2778837  27.8310731  35.6847549 -33.2503351
  29.0216365  34.4533722 -33.7334456  28.9420000  36.2240000 -30.9290000
  28.3134076  36.8841260 -31.2301737  31.8660000  35.2710000 -31.0730000
  32.4240000  36.1050000 -31.7980000  32.3730000  34.9200000 -29.8880000
  31.9434123  34.1765483 -29.3561793  33.5130000  35.6230000 -29.3010000
  33.4798761  36.6697643 -29.6031366  33.5020000  35.5550000 -27.7790000
  32.7911133  34.7966242 -27.4509673  34.4977102  35.3000609 -27.4161402
  33.1170000  36.8240000 -27.2570000  33.1085697  36.7862260 -26.2977806
  34.8370000  35.0760000 -29.8090000  35.1850000  33.9150000 -29.5560000
  35.5820000  35.9460000 -30.4950000  35.2108930  36.8585895 -30.7176194
  36.9030000  35.5960000 -30.9990000  36.8400596  34.7441035 -31.6760599
  37.4750000  36.7840000 -31.7630000  37.2350528  37.6840449 -31.1969224
  38.5569672  36.6580118 -31.8026724  36.9380000  36.9110000 -33.1500000
  37.6248046  36.4088141 -33.8313293  35.9655816  36.4200139 -33.1879087
  36.7880000  38.3580000 -33.5620000  36.0940142  38.8480750 -32.8791317
  37.7616833  38.8440535 -33.5004183  36.2570000  38.4630000 -34.9880000
  35.1743405  38.3367928 -34.9834483  36.5064749  39.4415916 -35.3981462
  36.8800000  37.3950000 -35.8320000  36.6485941  36.4881209 -35.4523668
  36.5285155  37.4643494 -36.7763248  37.8831864  37.5120217 -35.8366976
  37.8280000  35.1670000 -29.8700000  38.5740000  34.1890000 -30.0070000
  37.7820000  35.8790000 -28.7400000  37.2316457  36.7237315 -28.6796832
  38.5870000  35.4930000 -27.5840000  39.6472698  35.5546129 -27.8292162
  38.3010000  36.4330000 -26.4110000  38.6930507  37.4126701 -26.6842067
  37.2195433  36.4958136 -26.2901448  38.9300000  35.9830000 -25.1060000
  40.2970000  36.1260000 -24.8850000  40.9132296  36.5770367 -25.6627702
  40.8770000  35.7050000 -23.6980000  41.9498364  35.8203192 -23.5436455
  40.0920000  35.1430000 -22.7070000  40.6740000  34.7290000 -21.5250000
  41.6219596  34.8786663 -21.5010773  38.7300000  34.9930000 -22.9050000
  38.1052832  34.5525926 -22.1279088  38.1610000  35.4070000 -24.1010000
  37.0908624  35.2831972 -24.2670679  38.3390000  34.0420000 -27.1870000
  39.2800000  33.2900000 -26.9240000  37.0780000  33.6250000 -27.1530000
  36.3117005  34.2711478 -27.2770056  36.7670000  32.2330000 -26.8680000
  37.3360290  31.8814151 -26.0073646  35.2870000  32.1150000 -26.5520000
  34.7502017  32.7299607 -27.2743366  34.9419064  31.0837247 -26.6260381
  35.0250000  32.6370000 -25.1490000  35.4932384  33.6159600 -25.0465744
  33.5440000  32.7580000 -24.8850000  33.0751134  31.7792854 -24.9867930
  33.3840660  33.1335759 -23.8743247  33.1016687  33.4486534 -25.6029423
  35.6890000  31.7000000 -24.1360000  36.7627057  31.6664948 -24.3207509
  35.5058911  32.0672881 -23.1262120  35.2717045  30.6983210 -24.2389686
  37.1510000  31.3160000 -28.0180000  37.6050000  30.1910000 -27.7870000
  36.9830000  31.7750000 -29.2570000  36.5830385  32.6836218 -29.4428401
  37.3100000  30.9230000 -30.3860000  36.8446988  29.9443582 -30.2682964
  36.7870000  31.5620000 -31.6780000  37.0572491  32.6172242 -31.6384195
  37.3156753  31.0827379 -32.5019601  35.3000000  31.4320000 -31.8920000
  35.1129091  30.5228544 -32.4634475  34.8281138  31.3487249 -30.9129746
  34.6750000  32.6170000 -32.6380000  35.2990000  33.2460000 -33.4900000
  33.4230000  32.9150000 -32.3140000  32.9561156  33.6854126 -32.7707108
  32.9428271  32.3700041 -31.6122059  38.8100000  30.6660000 -30.4590000
  39.2370000  29.5910000 -30.8990000  39.6200000  31.6310000 -30.0210000
  39.2615206  32.4930518 -29.6356968  41.0600000  31.4830000 -30.1570000
  41.3171257  31.3440132 -31.2070801  41.7810000  32.7210000 -29.6390000
  41.3123241  33.5887689 -30.1031328  41.6279660  32.7594716 -28.5604822
  43.2780000  32.7290000 -29.9410000  43.8266606  32.5932790 -29.0089849
  43.5055252  31.9064418 -30.6190356  43.6900000  34.0460000 -30.5850000
  43.3155820  34.0550116 -31.6086352  43.2284973  34.8577556 -30.0227121
  45.1950000  34.2310000 -30.5960000  45.5885741  34.1074663 -29.5870702
  45.6517933  33.4939113 -31.2564085  45.5120000  35.6050000 -31.0890000
  45.0891761  36.2881591 -30.4769434  46.5133809  35.7362622 -31.0993228
  45.1477640  35.7195313 -32.0240475  41.5520000  30.2430000 -29.4350000
  42.3290000  29.4700000 -30.0000000  41.0800000  30.0060000 -28.2060000
  40.4310837  30.6381511 -27.7594667  41.5210000  28.8290000 -27.4640000
  42.5853504  28.9147476 -27.2451286  40.7680000  28.6940000 -26.1580000
  39.6934732  28.6959487 -26.3409960  41.0493391  27.7667823 -25.6587850
  41.0330000  29.7760000 -25.2110000  42.2120000  29.8160000 -24.5110000
  42.9474380  29.0253408 -24.6596231  42.4720000  30.8430000 -23.6260000
  43.4204685  30.8711537 -23.0896088  41.5380000  31.8280000 -23.4210000
  41.7299089  32.6336719 -22.7123650  40.3560000  31.7930000 -24.1160000
  39.6097876  32.5730454 -23.9650150  40.1110000  30.7630000 -25.0120000
  39.1733811  30.7350580 -25.5671486  41.3470000  27.5250000 -28.2250000
  41.9050000  26.5050000 -27.8180000  40.5620000  27.5040000 -29.2930000
  40.0718335  28.3188430 -29.6333924  40.3360000  26.2340000 -29.9630000
  40.5226398  25.4173492 -29.2656147  38.8880000  26.1240000 -30.4730000
  38.8100801  26.7947993 -31.3286028  38.7550894  25.0945799 -30.8057598
  37.8050000  26.4730000 -29.4520000  37.9996999  27.5011077 -29.1467340
  36.8583479  26.4274824 -29.9904051  37.7030000  25.4200000 -27.9740000
  37.4650000  23.7920000 -28.6860000  38.3130685  23.5469914 -29.3254135
  37.3870972  23.0536825 -27.8879279  36.5499214  23.7840903 -29.2781738
  41.2980000  26.0120000 -31.1060000  41.3790000  24.8810000 -31.5940000
  42.0160000  27.0620000 -31.5370000  41.7410166  27.9750996 -31.2042348
  43.1270000  26.9750000 -32.4920000  43.0538075  26.0427905 -33.0521139
  43.0950000  28.1440000 -33.4810000  43.3909968  29.0509659 -32.9538397
  43.8014039  27.9459902 -34.2871549  41.7170000  28.3610000 -34.0850000
  40.8900000  27.4460000 -34.1070000  41.4650000  29.5770000 -34.5860000
  40.5642870  29.7730229 -34.9987844  42.1767936  30.2925887 -34.5488040
  44.4980000  26.9400000 -31.8120000  45.4880000  27.3590000 -32.4120000
  44.5780000  26.4520000 -30.5680000  43.7520284  26.1311270 -30.0833240
  45.8490000  26.4410000 -29.8510000  46.3877547  27.3603263 -30.0805249
  45.6020000  26.3830000 -28.3440000  45.0712451  25.4634385 -28.0974114
  46.5563726  26.4033146 -27.8178246  45.0019576  27.2408184 -28.0403621
  46.7280000  25.2790000 -30.3060000  47.9510000  25.4340000 -30.4270000
  46.1190000  24.1120000 -30.5490000  45.1713337  23.9643114 -30.2324308
  46.8000000  23.0140000 -31.2360000  47.5252903  22.5387960 -30.5755197
  45.7560000  21.9670000 -31.6530000  46.1812955  21.0660961 -32.0952614
  45.2009656  21.7021596 -30.7530576  44.7520000  22.4960000 -32.6370000
  44.8310000  22.2520000 -33.9950000  43.8470000  22.8800000 -34.6140000
  43.7280667  22.8006064 -35.6945788  43.1420000  23.5380000 -33.7100000
  42.3287114  24.1086003 -33.8918705  43.6940000  23.3230000 -32.4670000
  43.2571890  23.7960019 -31.5874737  47.5660000  23.5130000 -32.4630000
  48.7250000  23.1330000 -32.6960000  46.9190000  24.3620000 -33.2610000
  45.9582354  24.5735667 -33.0323731  47.4870000  24.9460000 -34.4730000
  48.2611461  24.2956840 -34.8802913  46.3840000  25.1110000 -35.5230000
  45.9483775  24.1247486 -35.6831263  45.6187550  25.7884764 -35.1441519
  46.8900000  25.6460000 -36.8650000  46.8060000  26.8520000 -37.1430000
  47.3860000  24.7450000 -37.7150000  47.7341054  25.0425612 -38.6152110
  47.4110759  23.7695447 -37.4543108  48.1570000  26.2730000 -34.1110000
  47.7520000  27.3530000 -34.5480000  49.1820000  26.1650000 -33.2590000
  49.4389069  25.2499079 -32.9173795  49.9110000  27.3250000 -32.7490000
  49.2775103  27.8636742 -32.0442873  51.1860000  26.8860000 -32.0240000
  51.8346986  26.3530543 -32.7191684  51.7073548  27.7633766 -31.6412472
  50.9249765  26.2285773 -31.1946862  50.2400000  28.2880000 -33.8900000
  50.0060000  29.4910000 -33.7760000  50.6910000  27.8820000 -34.9690000
  17.9330000  48.7700000 -61.1050000  15.8380000  33.9050000 -44.0190000
  13.8760000  36.7020000 -45.1890000  28.0380000  28.4580000 -42.5310000
 -31.3470000  46.3870000 -27.5990000 -31.8486955  45.5317264 -27.7911191
 -31.6477499  47.0940121 -28.2545789 -31.3851474  46.5697434 -26.6064028
 -29.9150000  46.1580000 -27.9000000 -29.5715031  46.8520677 -28.6670587
 -29.0890000  46.3860000 -26.6270000 -29.4574168  45.6951763 -25.8686261
 -28.0516512  46.1474970 -26.8617846 -29.1750000  47.8170000 -26.0970000
 -28.5508728  48.4404083 -26.7372564 -30.2140604  48.1350150 -26.1825686
 -28.6340000  48.0020000 -24.3730000 -30.1490000  47.2620000 -23.6940000
 -30.2549338  46.2431870 -24.0666890 -30.0899353  47.2459262 -22.6057199
 -31.0119315  47.8524986 -24.0018343 -29.7190000  44.7370000 -28.3230000
 -29.6770000  43.8370000 -27.4860000 -29.5870000  44.4990000 -29.6430000
 -29.5764090  45.2448384 -30.3239642 -29.4320000  43.1520000 -30.1080000
 -29.6065650  42.4786142 -29.2688470 -30.3980000  42.7800000 -31.2460000
 -30.2790669  41.7238255 -31.4877633 -31.4224409  42.9651317 -30.9229718
 -30.1160000  43.5630000 -32.3960000 -30.7223120  43.3254731 -33.1013840
 -28.0440000  42.9940000 -30.6390000 -27.5190000  43.8820000 -31.3120000
 -27.4160000  41.8370000 -30.3450000 -27.8925080  41.1143242 -29.8246356
 -26.0720000  41.5880000 -30.7800000 -25.6254827  42.5358744 -31.0804258
 -25.1910000  40.9530000 -29.6910000 -25.1910571  41.7206122 -28.9171326
 -25.6309225  40.0379632 -29.2944197 -23.7450000  40.6750000 -30.1370000
 -23.7677888  40.0280336 -31.0139355 -23.0130000  41.9830000 -30.4840000
 -22.9894009  42.6303361 -29.6073599 -21.9932592  41.7575116 -30.7960649
 -23.5370067  42.4891438 -31.2947625 -22.9900000  39.8370000 -29.0940000
 -23.4991739  38.8831909 -28.9558353 -21.9716570  39.6580186 -29.4390281
 -22.9627263  40.3743736 -28.1460629 -26.1380000  40.6270000 -31.9300000
 -26.9420000  39.6930000 -31.9180000 -25.3080000  40.8440000 -32.9700000
 -24.6509315  41.6110285 -32.9752443 -25.3360000  39.9640000 -34.1040000
 -25.8193937  39.0332680 -33.8070696 -26.0960000  40.5510000 -35.3060000
 -27.1131281  40.7631032 -34.9765127 -25.6018005  41.4829220 -35.5805694
 -26.1370000  39.6200000 -36.5180000 -26.5394881  40.1311548 -37.3925427
 -25.1444843  39.2330126 -36.7487713 -27.0470000  38.4510000 -36.1770000
 -27.6670000  38.4200000 -35.1160000 -27.1310000  37.4590000 -37.1040000
 -27.7209292  36.6579035 -36.9298467 -26.6030634  37.5280157 -37.9622663
 -23.9320000  39.6940000 -34.5530000 -23.0640000  40.5630000 -34.4780000
 -23.6690000  38.4590000 -35.0310000 -24.3930086  37.7564454 -35.0792481
 -22.3550000  38.1160000 -35.4990000 -21.6325011  38.5794476 -34.8272033
 -22.0700000  36.6050000 -35.5610000 -22.8804291  36.1492175 -36.1298289
 -21.1316365  36.4778787 -36.1008279 -21.9660000  35.9310000 -34.1940000
 -21.2093240  36.4674005 -33.6214472 -22.9337406  36.0351805 -33.7033609
 -21.5210000  34.1700000 -34.2700000 -19.8280000  34.4650000 -34.8600000
 -19.2876877  35.0667615 -34.1292164 -19.3176421  33.5110893 -34.9930035
 -19.8615947  34.9943730 -35.8122273 -22.1960000  38.6440000 -36.8870000
 -23.1720000  38.8160000 -37.6160000 -20.9390000  38.9350000 -37.2850000
 -20.1395678  38.7946019 -36.6839211 -20.7150000  39.4480000 -38.6060000
 -21.5755076  39.2943711 -39.2571713 -20.3630000  40.9090000 -38.6120000
 -19.4642138  41.0736787 -38.0177243 -20.1080000  41.3560000 -40.0610000
 -21.0065557  41.1920457 -40.6558257 -19.8517612  42.4153582 -40.0752235
 -19.2846647  40.7779069 -40.4805582 -21.4920000  41.6850000 -37.9110000
 -21.5942681  41.3310661 -36.8851472 -21.2536588  42.7486098 -37.9057835
 -22.4288816  41.5257423 -38.4448452 -19.5710000  38.7030000 -39.2280000
 -18.6160000  38.3240000 -38.5500000 -19.6690000  38.4530000 -40.5510000
 -20.5033208  38.7500476 -41.0365624 -18.6340000  37.8020000 -41.3090000
 -18.0001684  37.2338501 -40.6281458 -19.1760000  36.8690000 -42.3500000
 -18.3539105  36.4057003 -42.8955478 -20.0080000  35.7780000 -41.6530000
 -20.8306100  36.2405334 -41.1075871 -20.4080384  35.0925244 -42.4001223
 -19.3754810  35.2271070 -40.9569129 -19.9890000  37.5850000 -43.2660000
 -20.3320835  36.9813382 -43.9289378 -17.8480000  38.8710000 -42.0060000
 -18.3070000  40.0110000 -42.1150000 -16.6360000  38.5380000 -42.5060000
 -16.2714363  37.5977539 -42.4500543 -15.8250000  39.5470000 -43.1290000
 -16.4075674  40.4167727 -43.4326608 -14.6990000  40.0080000 -42.2410000
 -14.0578601  39.1595481 -42.0019011 -13.8740000  41.0860000 -42.9620000
 -14.5144033  41.9350288 -43.2010287 -13.0611348  41.4155197 -42.3148776
 -13.4605836  40.6729994 -43.8821190 -15.3050000  40.4850000 -40.9100000
 -15.8416846  39.6615977 -40.4387460 -14.5081157  40.8245636 -40.2483568
 -15.9952144  41.3073121 -41.0984347 -15.2400000  38.9920000 -44.3980000
 -15.1270000  37.7780000 -44.5690000 -14.8420000  39.8910000 -45.3240000
 -14.9011395  40.8749042 -45.1036946 -14.3360000  39.5110000 -46.6140000
 -14.8485064  38.6100870 -46.9513308 -14.5159410  40.3181903 -47.3240454
 -12.8650000  39.2390000 -46.5480000 -12.2810000  39.0530000 -45.4810000
 -12.2340000  39.2360000 -47.7370000 -12.7793456  39.4853145 -48.5497360
 -10.8580000  38.8790000 -47.9250000 -10.6985370  37.8701951 -47.5442332
 -10.4460000  38.9160000 -49.4070000  -9.3687225  38.7802104 -49.5025701
 -10.9611547  38.1357517 -49.9672931 -10.7760000  40.2160000 -50.0790000
 -12.0260000  40.5310000 -50.5640000 -11.9390000  41.7770000 -51.0930000
 -12.8492415  42.1895986 -51.5281112 -10.7250000  42.2840000 -50.9820000
 -10.3590072  43.1780100 -51.2767799  -9.9930000  41.2980000 -50.3430000
  -8.9375271  41.4587468 -50.1233671  -9.9460000  39.7930000 -47.1670000
  -8.9720000  39.3270000 -46.5790000 -10.2110000  41.1150000 -47.1550000
 -11.0169632  41.5334464 -47.5970694  -9.2680000  41.9790000 -46.5000000
  -8.3068187  41.4684704 -46.4400896  -9.0720000  43.3100000 -47.2460000
  -8.4000787  43.9586043 -46.6839204  -8.6757619  43.1601279 -48.2503076
 -10.4280000  43.9920000 -47.3550000 -11.4550000  43.4220000 -46.9890000
 -10.4400000  45.2400000 -47.8950000 -11.3139073  45.7372935 -47.9903154
  -9.5749507  45.6640104 -48.1983244  -9.7040000  42.2860000 -45.0960000
  -9.7180000  43.4390000 -44.6680000 -10.0040000  41.2280000 -44.3230000
  -9.9473723  40.3186013 -44.7587598 -10.4010000  41.2990000 -42.9440000
 -11.1866616  42.0350896 -42.7736852 -10.8320000  39.9690000 -42.3900000
 -11.6960125  39.5993774 -42.9422336  -9.6690000  38.9760000 -42.5350000
  -8.8047090  39.3447393 -41.9826115  -9.9670359  38.0059805 -42.1370835
  -9.4088337  38.8716618 -43.5883405 -11.3510000  40.1300000 -40.9520000
 -10.4951916  40.3654853 -40.3193551 -12.0474375  40.9684810 -40.9471005
 -12.0510000  38.8850000 -40.4170000 -11.3550040  38.0461483 -40.4211616
 -12.3917194  39.0686926 -39.3980463 -12.9072490  38.6491427 -41.0489088
  -9.2550000  41.7960000 -42.1100000  -9.4500000  42.4540000 -41.0890000
  -8.0190000  41.4810000 -42.5380000  -7.9502075  41.0355459 -43.4418460
  -6.8050000  41.7250000 -41.8030000  -6.8452606  41.1510387 -40.8772318
  -5.5490000  41.3050000 -42.5880000  -5.4899330  41.8777480 -43.5135111
  -4.6616957  41.4975528 -41.9849123  -5.6048497  40.2419138 -42.8221535
  -6.6540000  43.1810000 -41.4660000  -6.0820000  43.5220000 -40.4320000
  -7.1560000  44.0850000 -42.3240000  -7.6927885  43.7669623 -43.1182351
  -6.9680000  45.4990000 -42.1510000  -5.9021045  45.7228960 -42.1938560
  -7.6850000  46.3150000 -43.2370000  -8.7130002  45.9604992 -43.1618731
  -7.6544440  47.3852482 -43.0327084  -7.1520000  46.0480000 -44.6600000
  -7.2811239  44.9899262 -44.8878328  -7.9050000  46.8920000 -45.7020000
  -7.7759492  47.9502779 -45.4750802  -7.5079320  46.6828813 -46.6953313
  -8.9655774  46.6418880 -45.6751693  -5.6290000  46.2510000 -44.7330000
  -5.1369819  45.5644172 -44.0440721  -5.2841080  46.0553648 -45.7483214
  -5.3851478  47.2772722 -44.4584086  -7.5140000  45.9630000 -40.8260000
  -6.9390000  46.8570000 -40.2050000  -8.6380000  45.3880000 -40.3530000
  -9.0854310  44.6186250 -40.8304589  -9.2460000  45.8900000 -39.1480000
  -9.2882565  46.9791759 -39.1510794 -10.6220000  45.3370000 -38.9180000
 -10.5869346  44.2478680 -38.8922645 -11.1390000  45.8650000 -37.5690000
 -11.1747857  46.9541227 -37.5941332 -12.1392501  45.4732915 -37.3841624
 -10.4698565  45.5422862 -36.7713773 -11.5350000  45.6960000 -40.1040000
 -11.7460520  46.7634556 -40.0399973 -10.9768214  45.4906517 -41.0174376
 -12.8490000  44.9180000 -40.1250000 -13.4079825  45.1232187 -39.2120248
 -13.4394370  45.2242955 -40.9885198 -12.6387515  43.8504140 -40.1894628
  -8.3990000  45.5540000 -37.9530000  -8.0640000  44.3950000 -37.7150000
  -8.0430000  46.5920000 -37.1610000  -8.3820743  47.5188810 -37.3755216
  -7.2320000  46.4180000 -35.9880000  -7.3203793  45.3805300 -35.6655962
  -5.7450000  46.7390000 -36.2080000  -5.2094078  46.4677906 -35.2982277
  -5.3917212  46.1223831 -37.0344852  -5.4920000  48.2140000 -36.5280000
  -6.0002631  48.5052510 -37.4472074  -5.8231369  48.8555669 -35.7113959
  -3.9960000  48.4040000 -36.7190000  -3.1850000  47.7610000 -36.0560000
  -3.6170000  49.3180000 -37.6530000  -2.6354313  49.4854432 -37.8220772
  -4.3189431  49.8249019 -38.1730266  -7.7200000  47.3760000 -34.9450000
  -8.5300000  48.2590000 -35.2230000  -7.2500000  47.2210000 -33.7350000
  -6.8860000  45.9190000 -33.2080000  -6.1182833  45.4708417 -33.8387658
  -7.7638725  45.2731385 -33.1906276  -6.3730000  46.2480000 -31.7980000
  -5.3068819  46.4734981 -31.8233350  -6.5508124  45.4107303 -31.1231196
  -7.2000000  47.4810000 -31.3760000  -6.5757924  48.1742193 -30.8121642
  -8.0755478  47.2166057 -30.7830318  -7.6380000  48.1290000 -32.6960000
  -8.7252805  48.1951330 -32.6566844  -7.0660000  49.4840000 -32.9800000
  -5.9340000  49.5660000 -33.4540000  -7.8300000  50.5550000 -32.6830000
  -8.7409474  50.4264225 -32.2661762  -7.3840000  51.8940000 -32.9440000
  -7.7102784  52.5526075 -32.1390915  -6.2960916  51.9119917 -33.0090453
  -7.9610000  52.3870000 -34.2450000  -7.7170000  53.5290000 -34.6330000
  -8.7580000  51.5530000 -34.9460000  -8.9775264  50.6384467 -34.5778971
  -9.3170000  51.9290000 -36.2210000  -8.5391695  52.4329410 -36.7946919
  -9.8480000  50.7420000 -37.0480000 -10.1318212  51.0453225 -38.0557402
  -9.1470787  49.9091075 -37.1036728 -11.0820000  50.2180000 -36.3970000
 -11.0150000  49.4210000 -35.2790000 -10.0409228  49.1709264 -34.8585994
 -12.1620000  48.9400000 -34.6910000 -12.0940532  48.3132116 -33.8018317
 -13.3910000  49.2480000 -35.2220000 -14.3023697  48.8691370 -34.7594331
 -13.4670000  50.0380000 -36.3420000 -14.4387154  50.2861802 -36.7689378
 -12.3180000  50.5160000 -36.9250000 -12.3781630  51.1395895 -37.8169733
 -10.4680000  52.8660000 -35.9950000 -10.9690000  52.9900000 -34.8790000
 -10.8930000  53.5870000 -37.0610000 -10.4874663  53.4583764 -37.9770228
 -11.9610000  54.5380000 -36.9160000 -12.4454660  54.3698756 -35.9541652
 -11.4810000  55.9980000 -36.9760000 -11.0098904  56.1781488 -37.9422823
 -12.3396217  56.6597170 -36.8619854 -10.5450000  56.2540000 -35.9380000
 -10.2542956  57.1675907 -35.9874258 -12.9480000  54.3740000 -38.0330000
 -12.6200000  53.8960000 -39.1190000 -14.2120000  54.7620000 -37.7610000
 -14.4290142  55.1054222 -36.8363026 -15.2600000  54.7430000 -38.7440000
 -14.8325256  54.3999734 -39.6861770 -16.4460000  53.8280000 -38.3790000
 -16.6915198  54.1630290 -37.3712427 -17.2997900  53.9962719 -39.0353743
 -16.1070000  52.3220000 -38.3520000 -15.3194268  52.1554977 -37.6170808
 -17.3400000  51.4810000 -37.9810000 -18.1278914  51.6466317 -38.7157735
 -17.0702486  50.4249622 -37.9700820 -17.6969896  51.7745024 -36.9938247
 -15.4650000  51.8580000 -39.6710000 -14.5427836  52.4133436 -39.8419086
 -15.2414329  50.7928122 -39.6118903 -16.1553137  52.0386580 -40.4949713
 -15.7930000  56.1450000 -38.8390000 -15.8410000  56.8680000 -37.8440000
 -16.1790000  56.5770000 -40.0580000 -16.0629232  55.9888905 -40.8708670
 -16.7400000  57.8890000 -40.2400000 -16.9595184  58.3088696 -39.2583583
 -15.8020000  58.8520000 -40.9880000 -16.3734068  59.7558711 -41.1992121
 -14.9822056  59.0910259 -40.3105757 -15.2370000  58.2900000 -42.2930000
 -14.6884539  57.3798681 -42.0503936 -16.0798951  58.0443059 -42.9389600
 -14.1310000  59.4400000 -43.1650000 -12.9180000  59.5140000 -41.8130000
 -12.5256757  58.5153245 -41.6210943 -12.1000015  60.1773494 -42.0939747
 -13.3999824  59.8937602 -40.9121246 -18.0160000  57.7400000 -41.0100000
 -18.1250000  56.8800000 -41.8820000 -19.0250000  58.5830000 -40.7000000
 -18.9094324  59.3338582 -40.0344510 -20.3040000  58.4260000 -41.3340000
 -20.2764146  57.5437169 -41.9734645 -21.4430000  58.2570000 -40.3110000
 -21.1642419  57.5243006 -39.5536726 -21.6694829  59.2082835 -39.8294762
 -22.6920000  57.7650000 -41.0270000 -22.7830000  57.7980000 -42.2520000
 -23.6930000  57.2950000 -40.2350000 -24.5467499  56.9547841 -40.6538844
 -23.5780283  57.2883356 -39.2315869 -20.6200000  59.6360000 -42.1630000
 -20.6420000  60.7580000 -41.6570000 -20.8540000  59.4300000 -43.4800000
 -20.7949810  58.5033556 -43.8774246 -21.2560000  60.5130000 -44.3340000
 -21.3670635  61.3978801 -43.7073013 -20.2810000  60.8420000 -45.4830000
 -19.9568046  59.9398070 -46.0016949 -20.7191985  61.5355136 -46.2007193
 -19.0500000  61.4960000 -44.9550000 -19.0240000  62.8550000 -44.7470000
 -19.9140591  63.4432322 -44.9703327 -17.8950000  63.4730000 -44.2640000
 -17.8878965  64.5507968 -44.1015060 -16.7740000  62.7290000 -43.9860000
 -15.8740595  63.2113599 -43.6045084 -16.7910000  61.3710000 -44.1910000
 -15.9029402  60.7785841 -43.9707879 -17.9250000  60.7580000 -44.6730000
 -17.9353704  59.6799605 -44.8336963 -22.5350000  60.1250000 -45.0140000
 -22.5430000  59.2860000 -45.9110000 -23.6460000  60.7790000 -44.6240000
 -23.5650813  61.4240968 -43.8510824 -24.9410000  60.5790000 -45.2110000
 -25.6710462  61.1636450 -44.6512483 -24.9990000  61.0050000 -46.6900000
 -24.5281475  61.9803580 -46.8127759 -24.4849644  60.2729808 -47.3129088
 -26.4630000  61.0910000 -47.1100000 -27.3440000  60.8340000 -46.2470000
 -26.7150000  61.4110000 -48.3010000 -25.3700000  59.1470000 -45.1140000
 -25.9880000  58.6150000 -46.0350000 -25.0550000  58.4710000 -43.9970000
 -24.4686958  58.8693835 -43.2775299 -25.5590000  57.1410000 -43.8050000
 -25.7214962  56.9629207 -42.7419939 -26.5018598  57.0279331 -44.3400987
 -24.5820000  56.1350000 -44.3230000 -24.5960000  54.9850000 -43.8860000
 -23.7110000  56.5240000 -45.2760000 -23.6794994  57.4593227 -45.6558400
 -22.7480000  55.5660000 -45.7440000 -23.2406279  54.5944092 -45.7817935
 -22.1560000  55.8710000 -47.1300000 -21.8085978  56.9038361 -47.1042979
 -21.3036056  55.2046934 -47.2625114 -23.1300000  55.6900000 -48.2950000
 -23.5013481  54.6681355 -48.3724236 -23.9720374  56.3760619 -48.2033808
 -22.3640000  56.0270000 -49.5670000 -21.7870000  57.1060000 -49.6890000
 -22.3380000  55.0710000 -50.5340000 -21.8436037  55.2438871 -51.3975878
 -22.8132029  54.1924558 -50.3841879 -21.6050000  55.5830000 -44.7820000
 -21.1180000  56.6470000 -44.4060000 -21.1440000  54.3880000 -44.3620000
 -21.5522861  53.5327428 -44.7111946 -20.0710000  54.2920000 -43.4110000
 -19.9369427  55.2179644 -42.8517883 -20.2550000  53.1650000 -42.4360000
 -20.3163602  52.2189896 -42.9739578 -19.0530000  53.1320000 -41.4770000
 -18.9912555  54.0775689 -40.9383089 -19.1779414  52.3162541 -40.7649264
 -18.1367391  52.9787581 -42.0471618 -21.6110000  53.3530000 -41.7280000
 -22.4120438  53.3415913 -42.4671215 -21.7642067  52.5434251 -41.0144064
 -21.6171253  54.3071361 -41.2010393 -18.7790000  54.0670000 -44.1390000
 -18.7450000  53.4300000 -45.1900000 -17.6720000  54.6140000 -43.5890000
 -17.7449932  55.1583256 -42.7413674 -16.3740000  54.4450000 -44.1800000
 -16.4445255  53.6587112 -44.9315818 -15.8230000  55.7150000 -44.8480000
 -15.8869712  56.5957950 -44.2090891 -14.8011674  55.6032363 -45.2105840
 -16.6720000  55.9920000 -46.0430000 -17.8380000  56.7130000 -45.9250000
 -18.1394843  57.0834348 -44.9452117 -18.6210000  56.9680000 -47.0280000
 -19.5412613  57.5421437 -46.9203952 -18.2440000  56.5000000 -48.2630000
 -18.8612745  56.6974635 -49.1394019 -17.0810000  55.7790000 -48.3900000
 -16.7755944  55.4068427 -49.3679195 -16.3030000  55.5270000 -47.2850000
 -15.3819731  54.9529485 -47.3863623 -15.4240000  54.0390000 -43.0920000
 -15.6950000  54.2440000 -41.9090000 -14.2760000  53.4430000 -43.4860000
 -14.0732675  53.3879756 -44.4739125 -13.3190000  52.8960000 -42.5620000
 -13.6432151  53.0804099 -41.5378043 -13.1880000  51.3730000 -42.7710000
 -14.1084312  50.8428661 -42.5263293 -12.9144585  51.1665000 -43.8057139
 -12.1170000  50.7820000 -41.9210000 -12.3310000  50.5190000 -40.5890000
 -13.2976983  50.7546769 -40.1439711 -11.3370000  49.9630000 -39.8190000
 -11.5141325  49.7656953 -38.7617415 -10.1210000  49.6560000 -40.3810000
  -9.3306706  49.2165730 -39.7724088  -9.9030000  49.9050000 -41.7160000
  -8.9415775  49.6613475 -42.1681066 -10.9000000  50.4620000 -42.4800000
 -10.7315366  50.6546890 -43.5395239 -11.9800000  53.5290000 -42.8030000
 -11.5990000  53.8010000 -43.9410000 -11.2290000  53.7850000 -41.7090000
 -11.5720408  53.5147477 -40.7982936  -9.9360000  54.4080000 -41.7930000
  -9.5189774  54.2410698 -42.7861393 -10.0250000  55.9270000 -41.5450000
 -10.5030699  56.4593581 -42.3672794 -10.5573031  56.1385284 -40.6176332
  -8.6610000  56.5090000 -41.3960000  -7.8750000  56.7700000 -42.4940000
  -8.2528285  56.5415681 -43.4905763  -6.6210000  57.3150000 -42.3420000
  -6.0046293  57.5120287 -43.2191360  -6.1450000  57.6110000 -41.0870000
  -5.1516312  58.0426123 -40.9644067  -6.9260000  57.3610000 -39.9850000
  -6.5552388  57.5944763 -38.9869393  -8.1780000  56.8150000 -40.1430000
  -8.8012909  56.6192744 -39.2704750  -9.0500000  53.8190000 -40.7320000
  -9.5290000  53.3870000 -39.6830000  -7.7160000  53.8340000 -40.9660000
  -7.3585111  54.2009189 -41.8364433  -6.7740000  53.3350000 -39.9970000
  -5.8621847  53.9272592 -40.0739487  -7.2073799  53.4633534 -39.0051297
  -6.4340000  51.8860000 -40.1980000  -6.3530000  51.1230000 -39.2360000
  -6.1960000  51.4630000 -41.4540000  -6.2052676  52.1108161 -42.2288212
  -5.8890000  50.0840000 -41.7220000  -6.6835929  49.4685104 -41.3002253
  -5.7630000  49.7650000 -43.2160000  -5.6489573  48.6863371 -43.3236094
  -6.6813781  50.0837190 -43.7090516  -4.5670000  50.4710000 -43.8600000
  -4.7056672  51.5521346 -43.8555065  -3.6419293  50.2217011 -43.3401958
  -4.4560000  50.0020000 -45.3000000  -5.3390000  50.2500000 -46.1190000
  -3.3350000  49.3010000 -45.6190000  -3.2056763  48.9630423 -46.5619536
  -2.6368969  49.1215413 -44.9115058  -4.5690000  49.7280000 -41.1120000
  -3.7070000  50.5820000 -40.9060000  -4.3900000  48.4300000 -40.7820000
  -5.1185020  47.7380584 -40.8849610  -3.1310000  48.0150000 -40.2390000
  -2.8152512  48.7765555 -39.5259536  -3.1450000  46.6500000 -39.5270000
  -3.9697943  46.6466185 -38.8143976  -3.3105547  45.8768150 -40.2772511
  -1.8320000  46.3720000 -38.7890000  -1.1003311  46.0750505 -39.5403871
  -1.5197315  47.3096238 -38.3291609  -1.9300000  45.2860000 -37.7160000
  -1.3525786  45.6290468 -36.8575116  -2.9804591  45.2033192 -37.4370754
  -1.4130000  43.9190000 -38.1640000  -2.0493573  43.5359981 -38.9617841
  -0.3921600  44.0218888 -38.5319656  -1.4330000  42.9770000 -37.0220000
  -2.3789111  42.8811885 -36.6811597  -1.0906727  42.0757189 -37.3230056
  -0.8430601  43.3315021 -36.2828125  -2.1500000  47.9560000 -41.3650000
  -2.4760000  47.5360000 -42.4740000  -0.9150000  48.4220000 -41.1030000
  -0.6980878  48.7937949 -40.1893168   0.1200000  48.4080000 -42.0940000
   1.0999257  48.5228161 -41.6306837   0.0952483  47.4800049 -42.6652371
  -0.1170000  49.5550000 -43.0200000  -1.1800000  50.1740000 -43.0070000
   0.8780000  49.8540000 -43.8770000   1.7468248  49.3390420 -43.8691898
   0.7370000  50.9350000 -44.8080000   0.2638453  51.7684105 -44.2887210
   2.0650000  51.4200000 -45.4060000   2.6514367  50.5612582 -45.7327321
   1.9151065  52.0978755 -46.2463075   2.9090000  52.1610000 -44.3990000
   3.9380000  51.7170000 -43.6200000   4.2334416  50.6739421 -43.7333329
   4.3960000  52.7400000 -42.8240000   5.1504421  52.6786364 -42.1553064
   3.6500000  53.8690000 -43.0880000   3.7110000  55.1280000 -42.5620000
   4.4590958  55.3368549 -41.7972576   2.8150000  56.0590000 -43.0370000
   2.8342068  57.0752733 -42.6434016   1.8870000  55.7340000 -44.0060000
   1.1830553  56.4802343 -44.3743690   1.8200000  54.4650000 -44.5360000
   1.0720946  54.2334647 -45.2943730   2.7130000  53.5440000 -44.0660000
  -0.1560000  50.4760000 -45.9130000  -0.3100000  49.2820000 -46.1610000
  -0.7690000  51.4180000 -46.5750000  -1.1430000  52.6700000 -45.9340000
  -0.3088202  53.3655268 -46.0261232  -1.3355100  52.4719605 -44.8795716
  -2.4010000  53.1530000 -46.6800000  -2.3446988  54.2269478 -46.8576665
  -3.2941456  52.9280145 -46.0970988  -2.3940000  52.3620000 -48.0040000
  -1.8496703  52.8769747 -48.7955840  -3.4049080  52.1385420 -48.3449270
  -1.6720000  51.0700000 -47.6340000  -2.4350961  50.4035919 -47.2319018
  -0.9640000  50.3930000 -48.7570000   0.1650000  50.7640000 -49.0740000
  -1.6240000  49.3900000 -49.3650000  -2.5465544  49.1361306 -49.0416687
  -1.0490000  48.6350000 -50.4330000   0.0075174  48.8942220 -50.5013677
  -1.1710000  47.1100000 -50.2520000  -0.9768482  46.6585424 -51.2249287
  -0.3918928  46.8104165 -49.5510422  -2.5310000  46.6390000 -49.7340000
  -3.2898274  47.0499106 -50.3999086  -2.5418806  45.5509990 -49.7990957
  -2.8300000  47.0670000 -48.2940000  -2.5947688  48.1285631 -48.2175206
  -3.8971389  46.9190055 -48.1284355  -2.0370000  46.2910000 -47.2370000
  -2.5165717  46.4197444 -46.2666720  -2.0313903  45.2335917 -47.5014908
  -0.6440000  46.7900000 -47.1690000  -0.6489582  47.7696983 -46.9235078
  -0.1339602  46.2701306 -46.4692178  -0.1993036  46.6704012 -48.0679106
  -1.7090000  49.0330000 -51.7120000  -2.5830000  49.8990000 -51.7430000
  -1.2820000  48.3920000 -52.8150000  -0.5966705  47.6580691 -52.7065188
  -1.7390000  48.7050000 -54.1370000  -1.5410698  49.7597594 -54.3278018
  -1.0550000  47.8710000 -55.2320000  -1.0443355  46.8332920 -54.8986120
  -1.6576310  47.9553659 -56.1363331   0.3730000  48.3250000 -55.5280000
   0.9739768  48.1505391 -54.6355365   0.7565344  47.7179471 -56.3480550
   0.4470000  49.8040000 -55.9110000   0.1728833  50.4452828 -55.0733154
   1.4425424  50.0735109 -56.2636452  -0.5270000  50.0220000 -57.0180000
  -0.7019608  49.3138393 -57.7165675  -1.2030000  51.2050000 -57.1060000
  -0.9560000  52.2010000 -56.2060000  -0.2724461  52.0597176 -55.4760045
  -1.4578892  53.0748281 -56.2740542  -2.1300000  51.3920000 -58.0900000
  -2.3144537  50.6526541 -58.7529062  -2.6274296  52.2688995 -58.1509081
  -3.2060000  48.4680000 -54.2360000  -3.8880000  49.1310000 -55.0160000
  -3.7350000  47.4940000 -53.4780000  -3.1810341  46.9372915 -52.8429435
  -5.1390000  47.2270000 -53.5670000  -5.3713889  46.9174658 -54.5859618
  -5.5970000  46.1200000 -52.6000000  -6.6568028  45.9222179 -52.7606226
  -5.0246537  45.2138477 -52.7985139  -5.3900000  46.5250000 -51.2550000
  -5.6791325  45.8271193 -50.6625771  -5.8930000  48.4810000 -53.2330000
  -6.8600000  48.8180000 -53.9140000  -5.4880000  49.2060000 -52.1660000
  -4.7023840  48.9253159 -51.5966817  -6.1660000  50.4350000 -51.8370000
  -6.6605753  50.8125500 -52.7319584  -7.2210000  50.2510000 -50.7330000
  -7.9902572  49.5441355 -51.0439422  -6.7601845  49.9024103 -49.8087520
  -8.0910000  51.7900000 -50.3130000  -8.8735617  51.2568792 -49.3790419
  -5.1480000  51.4150000 -51.3230000  -4.7770000  51.3790000 -50.1510000
  -4.6930000  52.3010000 -52.1710000  -4.6060000  51.9750000 -53.5860000
  -5.5317054  52.2924307 -54.0660079  -4.5003222  50.8942692 -53.6806162
  -3.3780000  52.7320000 -54.1140000  -3.5840859  53.1462437 -55.1009295
  -2.5184829  52.0642825 -54.1730339  -3.1400000  53.8430000 -53.0770000
  -3.6183065  54.8049080 -53.2615399  -2.0610052  53.9815228 -53.0085808
  -3.6710000  53.2400000 -51.7790000  -2.8506343  52.6359063 -51.3914834
  -4.0510000  54.2770000 -50.7630000  -3.1710000  54.7380000 -50.0390000
  -5.3270000  54.6940000 -50.7080000  -6.0262068  54.2806044 -51.3082610
  -5.7340000  55.7340000 -49.8040000  -5.0527729  56.5792516 -49.9018703
  -7.1310000  56.2100000 -50.0760000  -7.3626839  57.0723354 -49.4508597
  -7.2190000  56.6130000 -51.5580000  -6.9878802  55.7509984 -52.1838087
  -8.2269367  56.9631503 -51.7806149  -6.5046225  57.4108058 -51.7611535
  -8.0700000  55.1820000 -49.7990000  -8.9571477  55.5022733 -49.9778694
  -5.6900000  55.2480000 -48.3900000  -5.3090000  55.9860000 -47.4830000
  -6.0760000  53.9780000 -48.1650000  -6.3149605  53.3590554 -48.9265148
  -6.1570000  53.4720000 -46.8280000  -5.9674617  52.3987612 -46.8097544
  -5.4410974  53.9779240 -46.1802163  -7.5470000  53.7320000 -46.3180000
  -7.8180000  53.5340000 -45.1350000  -8.4690000  54.1890000 -47.1960000
  -8.2410246  54.3479484 -48.1670108  -9.8150000  54.4560000 -46.7580000
  -9.9387751  54.2470093 -45.6954080 -10.2550000  55.8670000 -47.0240000
 -10.1373990  56.0963643 -48.0830851 -11.7340000  56.0110000 -46.6300000
 -11.8523281  55.7822268 -45.5708672 -12.0632094  57.0326729 -46.8194890
 -12.3365928  55.3203415 -47.2198935  -9.3180000  56.8150000 -46.2570000
  -8.2937315  56.6710943 -46.6009000  -9.6190332  57.8472712 -46.4355911
  -9.3761563  56.5995163 -45.1900954 -10.7490000  53.5380000 -47.4910000
 -10.6400000  53.3630000 -48.7050000 -11.7170000  52.9360000 -46.7640000
 -11.8937065  53.1742525 -45.7985416 -12.5690000  51.9640000 -47.3930000
 -12.3705349  51.9728928 -48.4647424 -12.3500000  50.5350000 -46.8640000
 -12.4797537  50.4620154 -45.7842146 -13.0043480  49.8163658 -47.3574508
 -10.9530000  50.1090000 -47.1550000  -9.9320000  50.4360000 -46.2930000
 -10.1538587  51.0145134 -45.3962275  -8.6410000  50.0400000 -46.5540000
  -7.8398311  50.3063971 -45.8646078  -8.3610000  49.3090000 -47.6830000
  -7.3389829  48.9940958 -47.8937520  -9.3750000  48.9750000 -48.5480000
  -9.1583088  48.3941860 -49.4445490 -10.6640000  49.3740000 -48.2820000
 -11.4690938  49.1083769 -48.9671045 -14.0100000  52.2540000 -47.1140000
 -14.3710000  52.8110000 -46.0770000 -14.8760000  51.8640000 -48.0720000
 -14.5228414  51.4898631 -48.9411374 -16.2960000  51.9330000 -47.8890000
 -16.5304067  52.8645369 -47.3738381 -17.0860000  51.8890000 -49.2100000
 -16.8298304  52.7614763 -49.8110503 -16.8521949  50.9824866 -49.7682729
 -18.5770000  51.9120000 -49.0330000 -19.2450000  52.7540000 -48.1740000
 -20.5680000  52.4840000 -48.3100000 -21.2522571  53.0665305 -47.6931131
 -20.7970000  51.5320000 -49.1950000 -21.6653473  51.1219010 -49.5078764
 -19.5400000  51.1720000 -49.6490000 -19.4354545  50.3896163 -50.4006963
 -16.6360000  50.7160000 -47.0800000 -16.3910000  49.5860000 -47.5040000
 -17.1890000  50.9420000 -45.8710000 -17.4458380  51.8944129 -45.6541056
 -17.4750000  49.9200000 -44.8990000 -16.9342349  49.0027924 -45.1322433
 -17.0200000  50.4220000 -43.5090000 -15.9441957  50.5910997 -43.5553641
 -17.5218574  51.3506431 -43.2372260 -17.2540000  49.4660000 -42.3870000
 -18.5020000  49.3250000 -41.8250000 -19.3331834  49.9103584 -42.2181789
 -18.7070000  48.4560000 -40.7770000 -19.7033526  48.3481058 -40.3483496
 -17.6580000  47.7250000 -40.2710000 -17.8148955  47.0320253 -39.4443987
 -16.4050000  47.8730000 -40.8150000 -15.5675397  47.3004287 -40.4163493
 -16.2070000  48.7430000 -41.8620000 -15.2108365  48.8668473 -42.2867588
 -18.9600000  49.7050000 -44.8720000 -19.6860000  50.4280000 -44.1930000
 -19.4590000  48.6820000 -45.5930000 -18.8741273  48.0817396 -46.1566584
 -20.8780000  48.4610000 -45.6100000 -21.3322224  49.0857586 -44.8409370
 -21.5320000  48.7950000 -46.9660000 -22.5878011  48.5265569 -46.9296468
 -21.4352113  49.8569053 -47.1920291 -20.8390000  47.9810000 -48.0490000
 -19.5890000  48.0940000 -48.1570000 -21.5490000  47.2530000 -48.7930000
 -21.1800000  47.0400000 -45.2590000 -20.6070000  46.1100000 -45.8240000
 -22.0940000  46.8410000 -44.2850000 -22.5500613  47.6142461 -43.8221847
 -22.4610000  45.5090000 -43.9040000 -21.7141059  44.8247206 -44.3065048
 -22.5530000  45.2970000 -42.3830000 -21.5903702  45.5746279 -41.9536216
 -23.3257472  45.9658535 -42.0040583 -22.8890000  43.8570000 -41.9920000
 -23.8468121  43.6136382 -42.4518606 -22.1118371  43.2192941 -42.4132493
 -22.9950000  43.5660000 -40.2010000 -24.5330000  44.5050000 -39.9750000
 -25.3229906  44.0604723 -40.5803173 -24.8233392  44.4803715 -38.9246680
 -24.3770673  45.5385345 -40.2841808 -23.8140000  45.2460000 -44.4740000
 -24.7520000  46.0150000 -44.2660000 -23.9310000  44.1480000 -45.2440000
 -23.1448692  43.5296012 -45.3842877 -25.1880000  43.7890000 -45.8240000
 -25.9355109  44.5181554 -45.5114954 -25.1500000  43.7520000 -47.3620000
 -24.6857035  44.6803752 -47.6946371 -24.5209879  42.9089848 -47.6479531
 -26.5240000  43.6070000 -48.0160000 -26.3669803  43.3561877 -49.0650657
 -27.0420943  42.7860476 -47.5203010 -27.3700000  44.8770000 -47.9170000
 -26.8511125  45.6574745 -48.4735198 -28.3278224  44.6675178 -48.3932277
 -27.6070000  45.3470000 -46.4810000 -28.2450038  44.6281772 -45.9668546
 -26.6508543  45.4192567 -45.9626723 -28.2640000  46.6710000 -46.4890000
 -29.1502026  46.6041680 -46.9688731 -28.4179339  46.9761789 -45.5385947
 -27.6727823  47.3373223 -46.9649992 -25.4800000  42.3970000 -45.3700000
 -24.6880000  41.4830000 -45.5880000 -26.6470000  42.1980000 -44.7330000
 -27.2667852  42.9682433 -44.5263822 -27.0300000  40.8850000 -44.3070000
 -27.9305714  40.9571370 -43.6971914 -27.3160000  39.9540000 -45.4980000
 -26.4096331  39.8979641 -46.1008750 -27.5481888  38.9664583 -45.0993149
 -28.4790000  40.4390000 -46.3690000 -29.4292342  40.3717036 -45.8392576
 -28.3104326  41.4693153 -46.6822689 -28.5500000  39.5590000 -47.6090000
 -29.6340000  39.2320000 -48.0930000 -27.3630000  39.1760000 -48.1500000
 -27.3520708  38.5915303 -48.9736365 -26.4974409  39.4776614 -47.7258428
 -25.9450000  40.2730000 -43.4670000 -25.5330000  39.1380000 -43.7010000
 -25.4570000  41.0250000 -42.4600000 -25.7715790  41.9812239 -42.3776876
 -24.4910000  40.5410000 -41.5110000 -24.2656320  41.3404080 -40.8051280
 -24.9890000  39.3160000 -40.7240000 -25.3592124  38.5416556 -41.3958874
 -24.1963255  38.9051783 -40.0987058 -26.1320000  39.7680000 -39.8260000
 -26.0690000  40.8280000 -39.2060000 -27.2100000  38.9420000 -39.7540000
 -27.9969274  39.1932301 -39.1728558 -27.2188146  38.0810461 -40.2819976
 -23.2110000  40.1590000 -42.1870000 -22.4330000  39.3730000 -41.6460000
 -22.9410000  40.7270000 -43.3750000 -23.5817485  41.3862430 -43.7932574
 -21.7110000  40.4450000 -44.0600000 -21.1049986  39.7937484 -43.4301327
 -21.9240000  39.7550000 -45.4200000 -22.4227420  38.7977748 -45.2680937
 -22.5313911  40.3808494 -46.0738262 -20.6540000  39.4640000 -46.1630000
 -19.7400000  38.5030000 -45.7920000 -18.7420000  38.5360000 -46.7110000
 -17.9225816  37.8310792 -46.5705038 -18.9500000  39.4480000 -47.6430000
 -18.3930922  39.7039731 -48.4457648 -20.1560000  40.0310000 -47.2950000
 -20.5716276  40.8308412 -47.9078695 -21.0590000  41.7670000 -44.3190000
 -21.6790000  42.6730000 -44.8710000 -19.7800000  41.9100000 -43.9180000
 -19.2844332  41.1324538 -43.5057685 -19.0810000  43.1530000 -44.0810000
 -19.8104904  43.9379617 -44.2804442 -18.2620000  43.5470000 -42.8410000
 -19.0465284  43.8559301 -42.1502203 -17.7058236  42.7147231 -42.4096267
 -17.3070000  44.7260000 -43.0920000 -16.5845155  44.4255439 -43.8508432
 -18.0580000  45.9790000 -43.5680000 -18.7803906  46.2803509 -42.8094235
 -17.3469637  46.7883572 -43.7337379 -18.5801954  45.7584862 -44.4990135
 -16.4170000  44.9810000 -41.8640000 -15.8258126  44.0901727 -41.6518124
 -15.7502532  45.8193829 -42.0656535 -17.0432382  45.2144354 -41.0029352
 -18.1150000  43.0570000 -45.2160000 -17.2950000  42.1430000 -45.2820000
 -18.2000000  44.0210000 -46.1560000 -18.8944740  44.7521119 -46.0987232
 -17.2620000  44.0590000 -47.2370000 -16.5744593  43.2225520 -47.1115340
 -17.8980000  43.9670000 -48.6340000 -18.6516974  44.7520905 -48.6946002
 -17.1082948  44.1654725 -49.3586202 -18.5440000  42.6160000 -48.9420000
 -17.7447539  41.8818112 -49.0433573 -19.1758518  42.3498231 -48.0946422
 -19.3850000  42.6330000 -50.2190000 -18.7263610  42.9151046 -51.0404077
 -19.7537155  41.6201399 -50.3810576 -20.5660000  43.6010000 -50.1580000
 -21.2991871  43.2285226 -49.4425996 -20.2113880  44.5805583 -49.8373520
 -21.1950000  43.7170000 -51.4940000 -21.5240448  42.8095028 -51.7911164
 -21.9739325  44.3580527 -51.4448503 -20.5158967  44.0625365 -52.1569648
 -16.5760000  45.3860000 -47.1740000 -17.2260000  46.4280000 -47.0860000
 -15.2280000  45.3760000 -47.2040000 -14.7193187  44.5058306 -47.2684046
 -14.4820000  46.6000000 -47.1920000 -15.1342200  47.3947524 -46.8299546
 -13.2260000  46.5460000 -46.2960000 -12.7315738  45.6388958 -46.6435686
 -12.5749279  47.4029780 -46.4686093 -13.5240000  46.4230000 -44.7890000
 -14.0932418  45.5088191 -44.6206612 -12.2260000  46.3770000 -43.9660000
 -11.6564014  47.2911165 -44.1334733 -12.4694615  46.2900774 -42.9070988
 -11.6306858  45.5171504 -44.2731810 -14.4730000  47.5350000 -44.3140000
 -15.4142240  47.4677534 -44.8595957 -14.6631626  47.4198500 -43.2469105
 -14.0155196  48.5070525 -44.4981864 -14.0260000  46.8160000 -48.5990000
 -13.3540000  45.9620000 -49.1750000 -14.3920000  47.9710000 -49.1930000
 -14.9016265  48.6788276 -48.6837257 -14.0320000  48.2400000 -50.5560000
 -13.4548187  47.3986650 -50.9395574 -15.2600000  48.4460000 -51.4590000
 -16.0402059  47.7743318 -51.1008941 -15.5841617  49.4789293 -51.3322075
 -14.9940000  48.1740000 -52.9390000 -15.8485800  48.5433549 -53.5058958
 -14.1009427  48.7291702 -53.2259438 -14.7880000  46.6870000 -53.2380000
 -15.5339423  46.1350661 -52.6661276 -14.9678066  46.5426986 -54.3033385
 -13.3920000  46.1740000 -52.8830000 -12.6644955  46.6190635 -53.5617902
 -13.1555579  46.4614418 -51.8585140 -13.3430000  44.7030000 -53.0050000
 -13.5616417  44.4364628 -53.9543437 -12.4171014  44.3762217 -52.7682981
 -14.0167490  44.2903825 -52.3757877 -13.2410000  49.5160000 -50.5570000
 -13.4840000  50.4020000 -49.7380000 -12.2960000  49.6480000 -51.4470000
 -11.6350000  48.5010000 -52.0440000 -12.3723243  47.8988767 -52.5749432
 -11.1762603  47.9022186 -51.2571597 -10.5950000  49.1260000 -52.9860000
 -11.0245377  49.2996152 -53.9726378  -9.7225155  48.4792720 -53.0788172
 -10.2260000  50.4510000 -52.2920000  -9.9862949  51.2561701 -52.9865082
  -9.3781668  50.2795020 -51.6287753 -11.4650000  50.8230000 -51.4710000
 -11.1076831  50.9884341 -50.4546072 -12.1700000  52.0520000 -51.9580000
 -13.0700000  51.9480000 -52.7920000 -11.7630000  53.2290000 -51.4350000
 -11.0194700  53.2108421 -50.7516752 -12.2920000  54.5040000 -51.8320000
 -13.0244828  54.4139405 -52.6341579 -12.9240000  55.2990000 -50.6760000
 -12.1994061  55.4053831 -49.8686919 -13.2184560  56.2863622 -51.0316849
 -13.8024588  54.7692036 -50.3075909 -11.1210000  55.2980000 -52.3310000
  -9.9840000  55.0520000 -51.9330000 -11.3700000  56.2890000 -53.2130000
 -12.3194370  56.5446789 -53.4438613 -10.2970000  57.0300000 -53.8210000
  -9.3249144  56.6476046 -53.5096763 -10.3660000  57.0590000 -55.3180000
  -9.5382219  57.6403339 -55.7241216 -10.2690000  55.6090000 -55.8210000
 -11.0967664  55.0271176 -55.4156405 -10.3165196  55.5976688 -56.9099051
  -9.3248645  55.1730022 -55.4944831 -11.6340000  57.7960000 -55.7860000
 -12.4872409  57.1556132 -55.5624256 -11.7104117  58.7170826 -55.2081873
 -11.6250000  58.1300000 -57.2780000 -11.5490712  57.2093148 -57.8565096
 -12.5472605  58.6483510 -57.5403873 -10.7722401  58.7707828 -57.5022717
 -10.3650000  58.4560000 -53.3680000 -11.3810000  58.9060000 -52.8410000
  -9.2490000  59.1980000 -53.5430000  -8.4290505  58.8079256 -53.9852941
  -9.2030000  60.5660000 -53.1100000 -10.0907562  60.7378703 -52.5013550
  -7.9590000  60.9750000 -52.2940000  -7.0640032  60.6169348 -52.8027919
  -7.8690863  62.0459768 -52.1122743  -7.9820000  60.3160000 -50.9570000
  -9.0760000  60.4460000 -50.1330000  -9.9334002  61.0249561 -50.4761832
  -9.0970000  59.8570000 -48.8910000  -9.9777333  59.9567178 -48.2565980
  -8.0090000  59.1430000 -48.4490000  -8.0199249  58.6654676 -47.4692330
  -6.9010000  59.0340000 -49.2540000  -6.0318296  58.4774773 -48.9033927
  -6.8850000  59.6230000 -50.4970000  -5.9987948  59.5431282 -51.1265720
  -9.2230000  61.4890000 -54.2870000  -9.1220000  61.0770000 -55.4430000
  -9.3980000  62.7920000 -53.9840000  -9.4267625  63.0435057 -53.0062388
  -9.4190000  63.8450000 -54.9580000 -10.0867557  63.5472446 -55.7664202
  -9.8960000  65.1940000 -54.3990000  -9.1685479  65.5493256 -53.6691669
  -9.9667049  65.9091399 -55.2185582 -11.1610000  65.0620000 -53.7780000
 -11.4401851  65.9145409 -53.4361967  -8.0030000  64.1070000 -55.3510000
  -7.0630000  63.6430000 -54.7080000  -7.8190000  64.8730000 -56.4400000
  -8.6052700  65.2430534 -56.9547225  -6.4980000  65.1980000 -56.8910000
  -5.9446838  64.2718492 -57.0465155  -6.4980000  65.9970000 -58.2050000
  -7.1194886  66.8791515 -58.0511820  -5.4710353  66.3061458 -58.3996084
  -7.0270000  65.2030000 -59.4020000  -6.2848770  64.4409659 -59.6400302
  -7.9535545  64.7218069 -59.0888675  -7.2920000  66.0620000 -60.6420000
  -6.3825236  66.6273459 -60.8453115  -7.4897785  65.3825163 -61.4710266
  -8.4690000  67.0290000 -60.4830000  -8.8116962  67.3441428 -61.4685683
  -9.2816301  66.5242039 -59.9605898  -8.0450000  68.2150000 -59.7060000
  -7.2922928  68.6831438 -60.1901209  -8.8255372  68.8479875 -59.6050621
  -7.7278145  67.9232429 -58.7925613  -5.8220000  66.0410000 -55.8480000
  -4.6360000  65.8680000 -55.5680000  -6.5820000  66.9780000 -55.2520000
  -7.5407956  67.0441648 -55.5625359  -6.1100000  67.9350000 -54.2860000
  -5.1489646  68.3184657 -54.6287305  -7.0670000  69.1240000 -54.0730000
  -6.6244139  69.7942430 -53.3361207  -7.2156957  69.6616784 -55.0094249
  -8.4060000  68.6210000 -53.5600000  -9.0410000  67.7980000 -54.2720000
  -8.8210000  69.0710000 -52.4590000  -5.8070000  67.3090000 -52.9520000
  -5.2210000  67.9510000 -52.0820000  -6.2390000  66.0630000 -52.7120000
  -6.6994713  65.5088928 -53.4198353  -6.1000000  65.5050000 -51.3910000
  -6.3753913  66.2641160 -50.6588786  -6.9900000  64.2690000 -51.1760000
  -6.7216785  63.5027295 -51.9032773  -6.8322386  63.8841015 -50.1684959
  -8.3560000  64.6190000 -51.3400000  -8.9038213  63.8424382 -51.2041934
  -4.6960000  65.1100000 -51.0320000  -3.8370000  64.8680000 -51.8790000
  -4.4430000  65.0830000 -49.7030000  -5.1937405  65.3729796 -49.0927542
  -3.2260000  64.6210000 -49.1090000  -2.4122280  64.8248348 -49.8049351
  -2.8970000  65.2840000 -47.7600000  -3.7315606  65.1900964 -47.0651691
  -2.0041046  64.8436730 -47.3162096  -2.5610000  67.0660000 -47.9070000
  -2.3317644  67.2714490 -46.6131144  -3.4500000  63.1680000 -48.8410000
  -4.5910000  62.7360000 -48.6810000  -2.3710000  62.3620000 -48.8010000
  -1.4290226  62.6908497 -48.9579580  -2.5650000  60.9740000 -48.5010000
  -3.6293212  60.7553416 -48.5876492  -1.7900000  60.0200000 -49.4270000
  -0.7519405  60.3386796 -49.5217361  -1.8231950  59.0044808 -49.0323878
  -2.4440000  60.0540000 -50.7660000  -2.2000000  61.0810000 -51.6490000
  -1.5175834  61.8823296 -51.3656664  -2.8100000  61.1010000 -52.8810000
  -2.6108941  61.9206192 -53.5714224  -3.6680000  60.0910000 -53.2430000
  -4.2940000  60.1100000 -54.5070000  -4.0501811  60.8738602 -55.0348917
  -3.9160000  59.0600000 -52.3680000  -4.5963031  58.2557359 -52.6480845
  -3.3040000  59.0450000 -51.1380000  -3.4969404  58.2276133 -50.4431956
  -2.0740000  60.7600000 -47.1080000  -0.8910000  60.5100000 -46.8820000
  -3.0020000  60.8190000 -46.1390000  -3.9759356  60.9542370 -46.3697806
  -2.6430000  60.6950000 -44.7610000  -1.7695592  61.3226515 -44.5842122
  -3.7540000  61.1100000 -43.7790000  -3.2572579  60.9899146 -42.8162301
  -4.0400541  62.1533479 -43.9120345  -5.0150000  60.2220000 -43.8210000
  -4.7306774  59.1976828 -43.5800939  -6.0650000  60.7120000 -42.8130000
  -6.3501782  61.7361612 -43.0535537  -6.9441551  60.0695239 -42.8621068
  -5.6469431  60.6785784 -41.8069126  -5.5850000  60.0980000 -45.2460000
  -4.8346754  59.6547630 -45.9007162  -6.4717820  59.4644068 -45.2293089
  -5.8526170  61.0869263 -45.6181625  -2.3030000  59.2640000 -44.4770000
  -2.7830000  58.3430000 -45.1360000  -1.4420000  59.0710000 -43.5140000
  -0.4590000  60.0750000 -43.1460000  -0.9751983  60.9765678 -42.8161287
   0.1573395  60.3070367 -44.0145526   0.3450000  59.4090000 -42.0180000
  -0.1059354  59.6172832 -41.0477555   1.3770363  59.7597023 -42.0212296
   0.2730000  57.9110000 -42.3610000   0.2457058  57.3394881 -41.4332456
   1.0965042  57.5569389 -42.9811462  -1.0510000  57.7500000 -43.1100000
  -0.8853165  57.1331780 -43.9932768  -2.1320000  57.1440000 -42.2760000
  -2.9460000  57.8920000 -41.7360000  -2.1790000  55.8460000 -42.1580000
  -1.7960000  54.9650000 -43.2500000  -0.7286074  54.7595654 -43.1689451
  -1.9966644  55.4758560 -44.1917319  -2.6570000  53.7000000 -43.0730000
  -2.0576600  52.8082529 -43.2565149  -3.4998767  53.7191578 -43.7638641
  -3.1420000  53.7610000 -41.6120000  -2.3965609  53.2802203 -40.9785409
  -4.1198439  53.3188295 -41.4211962  -3.1820000  55.2580000 -41.3210000
  -4.1694981  55.6283319 -41.5963180  -2.8830000  55.6420000 -39.9100000
  -1.7100000  55.6710000 -39.5420000  -3.9210000  55.9430000 -39.1060000
  -4.8791707  55.8444796 -39.4098123  -3.6750000  56.4010000 -37.7680000
  -2.6102972  56.3055104 -37.5549533  -4.0880000  57.8680000 -37.5610000
  -5.1119759  57.8859127 -37.9341645  -4.0820562  58.1366641 -36.5046457
  -3.2360000  58.8780000 -38.3520000  -3.3232276  58.6498967 -39.4142905
  -3.7030000  60.3200000 -38.0980000  -3.6156209  60.5490058 -37.0359171
  -3.0822961  61.0095805 -38.6701068  -4.7427675  60.4255835 -38.4075739
  -1.7380000  58.6990000 -38.0520000  -1.4290741  57.6913940 -38.3301986
  -1.1627239  59.4261024 -38.6251325  -1.5591755  58.8524791 -36.9877796
  -4.4680000  55.5800000 -36.7980000  -5.6450000  55.2950000 -37.0190000
  -3.8250000  55.1920000 -35.6780000  -2.8663662  55.4713365 -35.5260403
  -4.4810000  54.4270000 -34.6560000  -5.3926641  54.0031624 -35.0771050
  -3.6170000  53.2810000 -34.1000000  -2.6746375  53.7176693 -33.7692853
  -4.1449974  52.8649657 -33.2419591  -3.3360000  52.1700000 -35.1130000
  -4.2969420  51.7639959 -35.4289938  -2.8355653  52.6249133 -35.9678223
  -2.4650000  51.0420000 -34.5530000  -2.8571677  50.6705722 -33.6062451
  -2.3817750  50.2166163 -35.2600465  -1.1070000  51.6080000 -34.3180000
  -0.8176170  52.4748497 -34.7480330  -0.2220000  50.9550000 -33.5080000
  -0.5870000  49.7920000 -32.8940000  -1.5129645  49.4162016 -33.0405104
   0.0704930  49.3123722 -32.2958698   1.0290000  51.4650000 -33.3110000
   1.2974407  52.3259086 -33.7658363   1.6804383  50.9791016 -32.7113087
  -4.7520000  55.3610000 -33.5150000  -3.9090000  56.1760000 -33.1480000
  -5.9570000  55.2520000 -32.9250000  -6.6205005  54.5852456 -33.2928382
  -6.3630000  56.0800000 -31.8210000  -7.4227110  55.9127514 -31.6282836
  -5.5750000  55.7760000 -30.5340000  -4.5059892  55.9163401 -30.6940619
  -5.9063349  56.4152697 -29.7156776  -5.8420000  54.3540000 -30.1910000
  -7.0120000  53.9930000 -29.5650000  -7.7465556  54.7596890 -29.3185946
  -7.2590000  52.6780000 -29.2500000  -8.1902379  52.4022459 -28.7551691
  -6.3330000  51.7120000 -29.5580000  -6.5830000  50.3610000 -29.2370000
  -7.4301614  50.2286012 -28.8052735  -5.1590000  52.0660000 -30.1820000
  -4.4207545  51.3025176 -30.4273339  -4.9170000  53.3820000 -30.4960000
  -3.9868043  53.6621998 -30.9902916  -6.2330000  57.5640000 -32.0870000
  -5.6810000  58.2500000 -31.2260000  -6.6780000  58.1490000 -33.1820000
  -6.6960000  57.5330000 -34.5020000  -7.4271599  56.7246259 -34.4959394
  -5.7060319  57.1252714 -34.7064982  -7.0750000  58.6640000 -35.4700000
  -8.1558504  58.7204977 -35.5991107  -6.6006394  58.5205958 -36.4408340
  -6.5280000  59.9160000 -34.7730000  -7.1989229  60.7429263 -35.0057111
  -5.5070227  60.1918855 -35.0368033  -6.6100000  59.5840000 -33.2840000
  -5.7235164  59.9528915 -32.7680890  -7.8330000  60.1630000 -32.6480000
  -8.7560000  59.4150000 -32.3290000  -7.8590000  61.4920000 -32.4420000
  -7.0707258  62.0832555 -32.6636756  -9.0490000  62.1080000 -31.9390000
  -9.6302686  61.4400458 -31.3033403  -8.7910000  63.4150000 -31.1720000
  -8.2176316  64.0977478 -31.7990599  -9.7428162  63.8765529 -30.9091024
  -8.2293529  63.1987644 -30.2632129  -9.8620000  62.4400000 -33.1530000
  -9.3820000  63.1060000 -34.0680000 -11.1250000  61.9700000 -33.1940000
 -11.5243022  61.4675338 -32.4141380 -11.9430000  62.1900000 -34.3520000
 -11.3684715  62.7304839 -35.1042588 -12.4590000  60.9220000 -34.9630000
 -11.6276589  60.2551992 -35.1917992 -13.4020000  60.2390000 -33.9570000
 -14.2338941  60.9050598 -33.7280544 -13.7856405  59.3142214 -34.3879335
 -12.8554024  60.0132197 -33.0413828 -13.1430000  61.2010000 -36.1760000
 -13.4677196  60.3814170 -36.5560542 -13.1290000  63.0080000 -33.9500000
 -13.5950000  62.9280000 -32.8150000 -13.6380000  63.8440000 -34.8800000
 -13.2588630  63.9015014 -35.8143704 -14.7640000  64.6720000 -34.5500000
 -15.3784022  64.1487569 -33.8173160 -14.3520000  66.0320000 -33.9640000
 -13.7871105  65.9056253 -33.0404046 -13.7574499  66.6021677 -34.6778060
 -15.7770000  67.0800000 -33.5440000 -15.0648471  68.1089299 -33.0934007
 -15.5540000  64.9400000 -35.7940000 -15.0320000  64.8630000 -36.9050000
 -16.8540000  65.2710000 -35.6240000 -17.2415117  65.3452794 -34.6942599
 -17.7060000  65.5640000 -36.7420000 -17.2089882  65.2115214 -37.6457905
 -19.0960000  64.9110000 -36.6590000 -19.5638611  65.1889238 -35.7145618
 -19.7078279  65.2701508 -37.4865128 -18.9830000  63.4970000 -36.7330000
 -19.8568034  63.1029621 -36.6800701 -17.9200000  67.0430000 -36.7570000
 -18.1170000  67.6670000 -35.7160000 -17.9110000  67.6400000 -37.9630000
 -17.9191512  67.0863913 -38.8077191 -17.9980000  69.0660000 -38.0840000
 -17.9604340  69.5201828 -37.0938455 -16.8320000  69.6170000 -38.9220000
 -15.9320904  69.0777730 -38.6262025 -17.0203746  69.4539232 -39.9831414
 -16.6440000  71.0700000 -38.6700000 -17.6170000  71.9930000 -38.9630000
 -18.5628166  71.6540935 -39.3856969 -17.4090000  73.3320000 -38.7290000
 -18.1972784  74.0498785 -38.9556483 -16.2160000  73.7650000 -38.2060000
 -16.0010000  75.1390000 -37.9670000 -16.7545228  75.6837061 -38.2059525
 -15.2330000  72.8500000 -37.9240000 -14.2809277  73.1855222 -37.5128022
 -15.4470000  71.5130000 -38.1590000 -14.6624335  70.7887294 -37.9399393
 -19.2450000  69.3320000 -38.8650000 -19.5710000  68.5910000 -39.7920000
 -19.9920000  70.3930000 -38.5030000 -19.7284886  71.0244386 -37.7600691
 -21.1970000  70.6630000 -39.2280000 -21.5843531  69.7229982 -39.6210056
 -22.2850000  71.3180000 -38.3580000 -21.8523495  72.2197594 -37.9247071
 -23.1064098  71.5917180 -39.0201665 -22.8120000  70.4150000 -37.2370000
 -21.9624606  70.1539090 -36.6059571 -23.5267301  71.0008894 -36.6590757
 -23.4870000  69.1370000 -37.7370000 -24.3164652  69.4339585 -38.3787961
 -22.7523482  68.5867481 -38.3248853 -24.0090000  68.2450000 -36.6100000
 -23.1666556  67.8691513 -36.0292297 -24.6639475  68.8287840 -35.9632085
 -24.7640000  67.1060000 -37.1770000 -24.1571738  66.5646768 -37.7760249
 -25.1053884  66.5217564 -36.4271911 -25.5448287  67.4540425 -37.7148402
 -20.8630000  71.6220000 -40.3170000 -21.6750000  72.4760000 -40.6650000
 -19.6430000  71.5010000 -40.8710000 -18.9991003  70.8314755 -40.4744784
 -19.2100000  72.2760000 -41.9980000 -18.1344311  72.1572450 -42.1289503
 -19.7248834  71.9318860 -42.8949838 -19.5170000  73.7220000 -41.7860000
 -19.4070000  74.2570000 -40.6840000 -19.9250000  74.3770000 -42.8890000
 -19.9822003  73.8397403 -43.7423343 -20.2870000  75.7610000 -42.9330000
 -19.8730828  76.2542359 -42.0535171 -19.7690000  76.4830000 -44.1920000
 -18.6983391  76.3025021 -44.2879424 -20.2839761  76.0837474 -45.0657832
 -20.0070000  77.8810000 -44.1000000 -19.6786230  78.3142417 -44.8912458
 -21.7830000  75.8180000 -42.9290000 -22.4340000  75.1360000 -42.1380000
 -22.3500000  76.6640000 -43.8160000 -21.7243945  77.1677324 -44.4283485
 -23.7630000  76.8830000 -43.9560000 -24.1625193  77.4669366 -43.1268429
 -24.1340000  77.5390000 -45.2540000 -23.5734329  78.4647133 -45.3840759
 -23.7840000  76.5640000 -46.3910000 -24.3445723  75.6381594 -46.2618544
 -24.0431123  77.0143744 -47.3491881 -22.7159372  76.3475521 -46.3688335
 -25.6090000  77.9750000 -45.2390000 -26.2175103  77.0714581 -45.2767878
 -25.7872494  78.4933290 -44.2968420 -25.9850000  78.8910000 -46.4030000
 -25.8074469  78.3731547 -47.3455556 -27.0389365  79.1591033 -46.3292591
 -25.3771839  79.7950251 -46.3656109 -24.4760000  75.5760000 -43.9090000
 -24.0210000  74.5780000 -44.4680000 -25.6240000  75.5550000 -43.2050000
 -25.9709370  76.3808835 -42.7384698 -26.3640000  74.3400000 -43.0710000
 -25.7344010  73.6162568 -42.5534093 -27.6840000  74.4940000 -42.2880000
 -28.1828812  73.5266821 -42.2287297 -27.4722000  74.8552578 -41.2816533
 -28.5910000  75.4910000 -43.0060000 -28.0580000  76.3710000 -43.7330000
 -29.8340000  75.3830000 -42.8300000 -26.6630000  73.8180000 -44.4330000
 -27.3730000  74.4340000 -45.2260000 -26.0830000  72.6440000 -44.7340000
 -25.5376415  72.1781348 -44.0229071 -26.2560000  71.9900000 -45.9910000
 -27.3254991  71.8900505 -46.1761514 -25.6200000  72.7380000 -47.1750000
 -25.8649161  72.2170753 -48.1006094 -26.0179952  73.7520249 -47.2131235
 -24.2100000  72.7890000 -47.0200000 -23.8231104  73.2573710 -47.7633337
 -25.5330000  70.6980000 -45.8490000 -25.1830000  70.2990000 -44.7390000
 -25.3060000  69.9880000 -46.9660000 -25.5955275  70.2714429 -47.8911666
 -24.5670000  68.7720000 -46.8300000 -24.9090300  68.2594539 -45.9308831
 -24.7340000  67.8230000 -48.0310000 -24.5549460  68.3562284 -48.9646522
 -24.0365890  66.9892537 -47.9498513 -26.1630000  67.2930000 -48.0150000
 -26.8960000  67.6150000 -47.0430000 -26.5420000  66.5650000 -48.9710000
 -23.1320000  69.1710000 -46.7570000 -22.3250000  68.8010000 -47.6100000
 -22.7800000  69.9520000 -45.7150000 -23.4638962  70.2022519 -45.0151720
 -21.4330000  70.3930000 -45.5340000 -20.8644705  70.1433021 -46.4298373
 -21.3210000  71.9060000 -45.2870000 -21.9975843  72.4018966 -45.9830025
 -21.6489198  72.0956095 -44.2649350 -19.9060000  72.4510000 -45.4770000
 -19.8924386  73.4797870 -45.1171191 -19.2303430  71.8461407 -44.8722397
 -19.4520000  72.4160000 -46.9380000 -19.3896838  71.3683741 -47.2324411
 -20.2217117  72.9135290 -47.5280069 -18.1040000  73.0950000 -47.1830000
 -18.1712716  74.1425030 -46.8892099 -17.3387286  72.5991339 -46.5858605
 -17.7450000  73.0070000 -48.6160000 -18.4537739  73.4667974 -49.1694669
 -16.8540372  73.4577102 -48.7681371 -17.6821943  72.0364380 -48.8883304
 -20.9370000  69.7110000 -44.3040000 -20.6800000  70.3460000 -43.2840000
 -20.7500000  68.3830000 -44.3810000 -20.8715781  67.8751294 -45.2455146
 -20.3280000  67.6580000 -43.2220000 -20.4760847  68.2852371 -42.3429416
 -21.1110000  66.3460000 -43.0280000 -22.1840672  66.5357565 -43.0528694
 -20.8473914  65.6484282 -43.8229868 -20.8290000  65.6460000 -41.7320000
 -21.4450000  64.4760000 -41.3440000 -20.9470000  64.1580000 -40.1230000
 -21.3276044  63.2473914 -39.6603649 -20.0590000  65.0400000 -39.6990000
 -19.5265701  65.0740861 -38.8414125 -19.9860000  65.9750000 -40.7160000
 -19.3133786  66.8278748 -40.6249716 -18.8940000  67.3060000 -43.4270000
 -18.4770000  66.9870000 -44.5390000 -18.0900000  67.3830000 -42.3480000
 -18.4548716  67.5896542 -41.4291626 -16.6940000  67.0820000 -42.4730000
 -16.5470848  66.4902310 -43.3765068 -15.8130000  68.3380000 -42.5600000
 -15.9718604  68.9057190 -41.6431806 -14.7772279  68.0012560 -42.6033548
 -16.1100000  69.2260000 -43.7660000 -15.9382634  68.7004013 -44.7053367
 -17.1328779  69.6018477 -43.7423065 -15.1560000  70.4080000 -43.6890000
 -14.5150000  70.7710000 -44.6760000 -15.0580000  71.0310000 -42.4840000
 -14.4390624  71.8218886 -42.3767015 -15.6046026  70.6999637 -41.7018607
 -16.2610000  66.3820000 -41.2220000 -16.9550000  66.4130000 -40.2050000
 -15.0840000  65.7270000 -41.2810000 -14.5620697  65.7190666 -42.1456532
 -14.5320000  65.0410000 -40.1460000 -15.2065634  65.2048187 -39.3056270
 -14.3340000  63.5240000 -40.3300000 -14.0155043  63.3140551 -41.3510695
 -13.5704274  63.1779453 -39.6333631 -15.6160000  62.8150000 -40.0540000
 -16.6250000  62.7380000 -40.9840000 -16.4988926  63.2099027 -41.9584251
 -17.7920000  62.0680000 -40.6890000 -18.5870667  62.0144470 -41.4327088
 -17.9570000  61.4700000 -39.4620000 -19.1530000  60.7840000 -39.1610000
 -19.7845443  60.7962000 -39.8839126 -16.9530000  61.5410000 -38.5310000
 -17.0750091  61.0692623 -37.5559729 -15.7910000  62.2090000 -38.8300000
 -14.9897315  62.2653861 -38.0931896 -13.1870000  65.6120000 -39.8470000
 -12.4700000  66.0660000 -40.7380000 -12.8210000  65.6040000 -38.5510000
 -13.4218485  65.1775369 -37.8601964 -11.5690000  66.1470000 -38.1190000
 -10.9979470  66.5800050 -38.9402821 -11.7590000  67.1760000 -37.0460000
 -12.3089587  66.7431654 -36.2103565 -10.3770000  67.6440000 -36.5620000
  -9.8265887  68.0774045 -37.3970501 -10.4998887  68.3936583 -35.7803277
  -9.8232220  66.7932445 -36.1649557 -12.6510000  68.3110000 -37.5780000
 -12.0341690  68.9304576 -38.2290703 -13.4473744  67.8508238 -38.1629147
 -13.2620000  69.1780000 -36.4810000 -12.4661784  69.6389118 -35.8959118
 -13.8775119  69.9560102 -36.9326020 -13.8793824  68.5592770 -35.8297545
 -10.7730000  65.0200000 -37.5380000 -11.2770000  64.2450000 -36.7270000
  -9.5050000  64.8840000 -37.9740000  -9.1234567  65.5198389 -38.6597353
  -8.6520000  63.8540000 -37.4520000  -9.1441683  63.2940895 -36.6567832
  -8.1910000  62.9060000 -38.5190000  -7.6828950  63.4563489 -39.3108622
  -7.2160000  61.8960000 -37.8900000  -7.7235583  61.3449062 -37.0983051
  -6.8713120  61.1989126 -38.6537801  -6.3612869  62.4275017 -37.4715856
  -9.4130000  62.2430000 -39.1800000  -9.8104008  61.5163863 -38.4713352
 -10.1528786  63.0248886 -39.3512585  -9.0960000  61.5450000 -40.5000000
  -8.3564818  60.7626157 -40.3294495 -10.0058765  61.1021385 -40.9050896
  -8.6989571  62.2711182 -41.2093724  -7.4510000  64.5400000 -36.8810000
  -6.7650000  65.2870000 -37.5780000  -7.1730000  64.3160000 -35.5780000
  -7.7361733  63.6869402 -35.0237267  -6.0420000  64.9460000 -34.9550000
  -5.4132845  65.3809183 -35.7319569  -6.4470000  66.0580000 -33.9700000
  -7.0015376  66.8426458 -34.4847022  -7.0691911  65.6297774 -33.1841223
  -5.2900000  66.7280000 -33.2850000  -4.6840000  66.2360000 -32.1500000
  -3.7010000  67.1110000 -31.8180000  -3.1109227  66.8753838 -30.9323405
  -3.6340000  68.1280000 -32.6590000  -3.0154310  68.9263087 -32.6722452
  -4.6350000  67.8840000 -33.5830000  -4.8005117  68.5814303 -34.4041565
  -5.2860000  63.9200000 -34.1650000  -5.8750000  63.1580000 -33.3970000
  -3.9470000  63.8870000 -34.3450000  -3.5433461  64.4980910 -35.0405075
  -3.0650000  63.0260000 -33.5970000  -2.0464201  63.4070273 -33.6705685
  -3.3747949  63.0180326 -32.5519818  -3.1010000  61.6220000 -34.1280000
  -3.4390000  61.3810000 -35.2850000  -2.7220000  60.6540000 -33.2630000
  -2.4115068  60.9264260 -32.3413290  -2.7390000  59.2560000 -33.5900000
  -3.1669898  58.7005277 -32.7555095  -3.3523370  59.1057878 -34.4784556
  -1.3530000  58.7420000 -33.8600000  -0.3940000  59.5020000 -33.9850000
  -1.2460000  57.3950000 -33.9480000  -2.1182490  56.8858211 -33.9437790
  -0.0290000  56.6620000 -34.1800000   0.8121827  57.2679735 -33.8433891
   0.0070000  55.3130000 -33.4360000  -0.8946388  54.7826606 -33.7424097
   0.8834243  54.7888840 -33.8171598   0.0710000  55.3690000 -31.9090000
  -0.6854052  56.0842697 -31.5859811  -0.1897664  54.3755498 -31.5440896
   1.4300000  55.7770000 -31.3460000   2.1836540  55.1190352 -31.7786510
   1.6257537  56.8043121 -31.6532619   1.4860000  55.6820000 -29.8200000
   0.8937411  56.4883952 -29.3874995   1.0773876  54.7221019 -29.5041983
   2.8850000  55.7970000 -29.3590000   3.2636795  56.6865766 -29.6511558
   2.9137380  55.7334157 -28.3514132   3.4338798  55.0496174 -29.7593115
  -0.0130000  56.2580000 -35.6230000  -1.0470000  55.9050000 -36.1900000
   1.1770000  56.3030000 -36.2540000   1.9993982  56.6305286 -35.7677022
   1.3180000  55.8730000 -37.6160000   0.3515417  55.9536609 -38.1135453
   2.3230000  56.6780000 -38.3870000   2.3783350  56.3182122 -39.4144196
   1.8780000  58.1510000 -38.3830000   1.8228797  58.5116511 -37.3558719
   2.5984191  58.7502470 -38.9397750   0.8970286  58.2360066 -38.8505143
   3.6090000  56.5580000 -37.7940000   4.2422858  57.0766793 -38.2955190
   1.7860000  54.4500000 -37.5830000   2.0700000  53.9030000 -36.5180000
   1.8730000  53.8310000 -38.7300000   0.9960000  54.1590000 -39.8420000
   1.4277293  54.9997566 -40.3849903   0.0240026  54.4465824 -39.4412301
   0.9240000  52.8780000 -40.6950000   0.9921658  53.1264507 -41.7541151
  -0.0114060  52.3515681 -40.5052994   2.1320000  52.0370000 -40.2350000
   3.0106927  52.2980107 -40.8248064   1.9699428  50.9601601 -40.2824649
   2.3330000  52.4700000 -38.7850000   1.6952395  51.8445798 -38.1603326
   3.7460000  52.3990000 -38.2850000   4.1920000  51.3200000 -37.8990000
   4.4620000  53.5370000 -38.3310000   3.9807115  54.3279014 -38.7346530
   5.8130000  53.7220000 -37.8730000   6.4170175  52.8850766 -38.2234587
   6.4430000  55.0310000 -38.3830000   5.7957232  55.8800126 -38.1632057
   7.4244631  55.1986332 -37.9394583   6.6040000  54.9200000 -39.8930000
   6.5710000  53.8280000 -40.4560000   6.7930000  56.0850000 -40.5680000
   6.9057649  56.0710258 -41.5715879   6.8197836  56.9591628 -40.0628042
   5.8460000  53.7570000 -36.3680000   6.8990000  53.5760000 -35.7620000
   4.6890000  53.9990000 -35.7200000   3.8425214  54.0858394 -36.2640885
   4.6070000  54.1890000 -34.2940000   3.5608849  54.0788651 -34.0083207
   5.4520000  53.2100000 -33.4560000   6.3454014  52.9187901 -34.0083857
   5.7427385  53.6542193 -32.5040334   4.6230000  51.9620000 -33.1780000
   4.0650000  51.3460000 -34.0850000   4.5290000  51.5860000 -31.8740000
   3.9932628  50.7667414 -31.6252013   4.9953714  52.1277896 -31.1605138
   5.0210000  55.5840000 -33.9390000   5.2630000  55.8950000 -32.7730000
   5.0860000  56.4760000 -34.9450000   4.9259470  56.2028685 -35.9041046
   5.3500000  57.8560000 -34.6670000   6.0015193  57.9120469 -33.7949447
   6.0270000  58.5950000 -35.8350000   5.3941631  58.4715129 -36.7138445
   6.0787229  59.6511970 -35.5706656   7.4340000  58.0770000 -36.1430000
   8.0772855  58.2043003 -35.2723225   7.3942995  57.0218719 -36.4136062
   7.9940000  58.8780000 -37.3080000   7.3640000  59.9050000 -37.6780000
   9.0580000  58.4730000 -37.8440000   4.0210000  58.5080000 -34.4260000
   2.9880000  58.0210000 -34.8820000   4.0130000  59.6300000 -33.6760000
   4.8789992  60.0076415 -33.3188844   2.7950000  60.3440000 -33.4050000
   1.9553867  59.6623709 -33.5411264   2.7390000  60.9140000 -31.9770000
   3.6584995  61.4964186 -31.9186180   1.8827173  61.5720291 -31.8290889
   2.7480000  59.8300000 -30.8830000   3.6608523  59.2431347 -30.9849338
   2.6920000  60.4500000 -29.4770000   1.7791323  61.0366793 -29.3741465
   2.6998955  59.6570879 -28.7291171   3.5572191  61.0963607 -29.3296429
   1.6310000  58.8000000 -31.1120000   1.7729728  58.3183304 -32.0794387
   1.6627138  58.0476080 -30.3239633   0.6638147  59.3023663 -31.0952765
   2.7600000  61.5030000 -34.3520000   3.7750000  62.1670000 -34.5590000
   1.5870000  61.7860000 -34.9560000   0.7314875  61.2865024 -34.7592773
   1.5440000  62.8640000 -35.9080000   2.5682550  63.0928329 -36.2023406
   0.7260000  62.5550000 -37.1740000   0.9250895  63.3203005 -37.9241852
   1.0222242  61.5805449 -37.5623150  -0.6610000  62.5410000 -36.8690000
  -1.1617056  62.3474960 -37.6648957   0.9020000  64.0570000 -35.2700000
  -0.1140000  63.9510000 -34.5850000   1.5550000  65.2220000 -35.4420000
   2.4392283  65.1687565 -35.9271853   1.1050000  66.5080000 -34.9850000
   0.6837850  66.3916494 -33.9864312   2.2310000  67.5570000 -34.9250000
   1.8462370  68.4972607 -34.5300740   3.0314892  67.1933675 -34.2807265
   2.7730000  67.7810000 -36.3300000   3.2080000  66.7840000 -36.9670000
   2.7520000  68.9540000 -36.7890000   0.0330000  67.0540000 -35.8860000
  -0.7610000  67.9010000 -35.4790000   0.0140000  66.6000000 -37.1520000
   0.6371428  65.8410497 -37.3881924  -0.8340000  67.1330000 -38.1850000
  -0.6638057  68.2069099 -38.2614892  -0.5590000  66.4930000 -39.5560000
  -0.7943433  65.4315691 -39.4780441  -1.2275367  66.9607265 -40.2787659
   0.8880000  66.6610000 -40.0180000   1.5237146  66.1805149 -39.2742918
   0.9867930  66.1404062 -40.9705356   1.3160000  68.1210000 -40.1880000
   0.6701012  68.5645115 -40.9457673   1.1531053  68.6222465 -39.2338948
   2.7780000  68.2840000 -40.6060000   2.9748238  67.6624009 -41.4794847
   2.9680236  69.3283519 -40.8536272   3.6660000  67.8710000 -39.4970000
   3.4903807  66.9031839 -39.2676758   4.6297021  67.9807485 -39.7786620
   3.4840769  68.4471479 -38.6876443  -2.2840000  66.9110000 -37.8820000
  -2.6480000  66.1440000 -36.9920000  -3.1450000  67.6650000 -38.6030000
  -2.7541364  68.3366203 -39.2481753  -4.5740000  67.5380000 -38.5350000
  -4.8699672  66.6453357 -37.9839528  -5.2620000  68.7370000 -37.9510000
  -4.8891018  68.9306991 -36.9452525  -4.9630000  69.9460000 -38.8490000
  -5.3360444  69.7532203 -39.8548700  -5.4537602  70.8307250 -38.4433931
  -3.8866312  70.1135544 -38.8871430  -6.7610000  68.4550000 -37.7580000
  -7.2124550  68.3919728 -38.7481095  -6.8509798  67.4915558 -37.2562247
  -7.4800000  69.5250000 -36.9380000  -7.3908448  70.4887071 -37.4394178
  -8.5334714  69.2624594 -36.8412027  -7.0293677  69.5882916 -35.9475332
  -5.0520000  67.3920000 -39.9500000  -4.5370000  68.0520000 -40.8520000
  -6.0530000  66.5160000 -40.1870000  -6.5241294  66.0407256 -39.4305275
  -6.5190000  66.2910000 -41.5290000  -5.9776401  66.9634081 -42.1945044
  -6.3170000  64.8440000 -42.0200000  -6.8692074  64.1595974 -41.3759819
  -6.6881576  64.7601416 -43.0414254  -4.8650000  64.4950000 -41.9880000
  -4.2990000  63.9940000 -40.8370000  -4.9223210  63.8606373 -39.9528141
  -2.9640000  63.6630000 -40.7940000  -2.5296651  63.2660256 -39.8764672
  -2.1790000  63.8310000 -41.9090000  -0.8100000  63.4930000 -41.8650000
  -0.5340997  63.1562005 -41.0094038  -2.7340000  64.3310000 -43.0630000
  -2.1145601  64.4677540 -43.9493932  -4.0710000  64.6590000 -43.1000000
  -4.5103677  65.0529057 -44.0164576  -8.0010000  66.5230000 -41.5460000
  -8.6730000  66.3690000 -40.5280000  -8.5400000  66.9220000 -42.7200000
  -7.9478751  66.9968758 -43.5347890  -9.9490000  67.1670000 -42.8760000
 -10.4914691  67.0300365 -41.9405496 -10.2490000  68.5310000 -43.4340000
  -9.6819238  68.6986742 -44.3496475 -11.7530000  68.5910000 -43.7450000
 -12.3207701  68.4238645 -42.8296840 -12.0015201  69.5710393 -44.1522609
 -12.0048333  67.8207069 -44.4739222  -9.7710000  69.6460000 -42.4890000
  -8.7115466  69.4751269 -42.2980505  -9.8967404  70.5917695 -43.0160758
 -10.5250000  69.6990000 -41.1620000 -10.3993336  68.7536776 -40.6341048
 -10.1300640  70.5108844 -40.5512885 -11.5845284  69.8703180 -41.3521304
 -10.4610000  66.1900000 -43.8930000  -9.9140000  66.0800000 -44.9890000
 -11.5350000  65.4490000 -43.5510000 -11.9822570  65.5589854 -42.6521320
 -12.0920000  64.5050000 -44.4770000 -11.4300017  64.4472502 -45.3410153
 -12.2660000  63.0920000 -43.8960000 -12.8088140  63.1900960 -42.9558780
 -12.8661012  62.5197061 -44.6034308 -10.9430000  62.3670000 -43.6470000
 -10.3501293  62.9892189 -42.9765905 -11.1751271  61.4224727 -43.1549764
  -9.9860000  62.0350000 -45.1570000 -11.2960000  61.0550000 -45.9430000
 -12.1886189  61.6692620 -46.0613752 -10.9578835  60.7139534 -46.9215015
 -11.5293302  60.1924117 -45.3188208 -13.4520000  64.9980000 -44.8510000
 -14.2950000  65.2510000 -43.9910000 -13.6920000  65.1530000 -46.1670000
 -12.9816457  64.9300221 -46.8494785 -14.9590000  65.6260000 -46.6360000
 -15.7135519  65.4042439 -45.8812982 -14.9690000  67.1380000 -46.9110000
 -15.9478918  67.4274218 -47.2932371 -14.7690612  67.6735363 -45.9829238
 -13.9720000  67.4630000 -47.8690000 -13.9843021  68.4083713 -48.0354980
 -15.2610000  64.9130000 -47.9140000 -14.3600000  64.3960000 -48.5730000
 -16.5520000  64.8630000 -48.3000000 -17.2835710  65.3287200 -47.7823051
 -16.9100000  64.1540000 -49.4960000 -16.2462201  63.3124388 -49.6941668
 -18.3260000  63.6540000 -49.4760000 -19.0120270  64.4887585 -49.3323183
 -18.6260000  62.9700000 -50.8200000 -17.9406249  62.1347919 -50.9641849
 -19.6518686  62.6016332 -50.8198004 -18.4984775  63.6879979 -51.6301349
 -18.5140000  62.7420000 -48.2510000 -18.3098386  63.3073630 -47.3417229
 -19.5392708  62.3728077 -48.2261700 -17.8262507  61.8988737 -48.3161136
 -16.7830000  65.0960000 -50.6490000 -17.4790000  66.1090000 -50.7130000
 -15.8170000  64.8120000 -51.5480000 -15.2051704  64.0257220 -51.3820760
 -15.6090000  65.5990000 -52.7320000 -15.5946646  66.6467502 -52.4318113
 -14.2820000  65.2710000 -53.4330000 -14.2849386  64.2273964 -53.7476156
 -14.1633216  65.9127936 -54.3059929 -13.4548378  65.4397479 -52.7434885
 -16.7040000  65.3970000 -53.7350000 -17.2480000  66.3650000 -54.2630000
 -17.0690000  64.1270000 -54.0200000 -16.6871176  63.3308795 -53.5296356
 -18.0570000  63.8910000 -55.0380000 -18.7637967  64.7207612 -55.0321678
 -17.4540000  63.7680000 -56.4500000 -16.9402454  64.6851890 -56.7379578
 -16.7597017  62.9297320 -56.5079377 -18.7110000  63.4710000 -57.7300000
 -17.8607650  63.4245687 -58.7516863 -18.7460000  62.5970000 -54.7380000
 -18.2070000  61.7410000 -54.0400000 -19.9860000  62.4350000 -55.2470000
 -20.4169116  63.1456743 -55.8208959 -20.7030000  61.2120000 -55.0260000
 -19.9982073  60.4261830 -54.7542317 -21.7360000  61.3580000 -53.8960000
 -21.2098591  61.7972172 -53.0484369 -22.4926532  62.0558749 -54.2545339
 -22.4090000  60.0580000 -53.4590000 -23.0947563  59.7517359 -54.2489630
 -21.6336336  59.3014880 -53.3381754 -23.1800000  60.2120000 -52.1460000
 -22.4656999  60.5397951 -51.3907353 -23.9266190  60.9907702 -52.3014880
 -23.8700000  58.9320000 -51.6730000 -24.5835014  58.6059799 -52.4297874
 -23.1218906  58.1540466 -51.5206192 -24.5830000  59.1870000 -50.4000000
 -25.2765562  59.9075373 -50.5410869 -25.0366310  58.3386360 -50.0924332
 -23.9219690  59.4886982 -49.6984907 -21.4550000  60.8990000 -56.2810000
 -22.6640000  61.1090000 -56.3570000 -20.7690000  60.3450000 -57.2960000
 -19.7904497  60.1009148 -57.2415844 -21.4720000  60.0620000 -58.5090000
 -22.4525710  60.5347376 -58.4533328 -20.7520000  60.5700000 -59.7710000
 -20.4134685  61.5980712 -59.6422936 -19.8986326  59.9336746 -60.0054229
 -21.7310000  60.5220000 -60.9390000 -22.4090000  59.5200000 -61.1640000
 -21.8140000  61.6430000 -61.7030000 -22.4461131  61.6681699 -62.4903368
 -21.2431936  62.4458326 -61.4799737 -21.5830000  58.5800000 -58.6180000
 -20.6220000  57.8520000 -58.3770000 -22.7790000  58.0980000 -58.9920000
 -23.5511437  58.7268003 -59.1608301 -23.0020000  56.6910000 -59.1480000
 -24.0414709  56.5326182 -59.4352536 -22.0950000  56.0590000 -60.2170000
 -21.0421972  56.2702318 -60.0296859 -22.2459616  54.9805095 -60.2635706
 -22.4810000  56.6630000 -61.5610000 -23.6530000  56.6920000 -61.9310000
 -21.4660000  57.1720000 -62.3100000 -21.6645870  57.5849069 -63.2100949
 -20.5183300  57.1347425 -61.9626756 -22.7460000  56.0050000 -57.8420000
 -22.2420000  54.8850000 -57.8030000 -23.0910000  56.6790000 -56.7310000
 -23.3777238  57.6442572 -56.8095321 -23.0010000  56.1010000 -55.4220000
 -23.2356326  56.8683329 -54.6842691 -23.9680000  54.9190000 -55.2270000
 -23.7448986  54.1685305 -55.9853670 -23.7941629  54.4972626 -54.2370413
 -25.4350000  55.3480000 -55.3490000 -25.6678925  55.9420039 -54.4652459
 -25.5109644  55.9745913 -56.2376590 -26.4250000  54.1870000 -55.4580000
 -27.0921518  54.4047861 -56.2920124 -25.8497909  53.2878325 -55.6787527
 -27.2510000  53.9650000 -54.1890000 -27.7015429  52.9729770 -54.2206553
 -26.6008123  54.0405437 -53.3174220 -28.3180000  54.9890000 -54.0990000
 -28.9208438  54.9188872 -54.9063185 -28.8597678  54.8378411 -53.2601087
 -27.9007120  55.9082841 -54.0692249 -21.5980000  55.6640000 -55.1400000
 -21.3670000  54.7830000 -54.3110000 -20.6170000  56.2900000 -55.8140000
 -20.8373859  56.9892759 -56.5086529 -19.2360000  56.0270000 -55.5280000
 -19.1880344  55.1786909 -54.8452334 -18.3910000  55.7050000 -56.7720000
 -18.8946703  54.9071097 -57.3176982 -18.3562317  56.6017785 -57.3906110
 -16.9660000  55.2670000 -56.4290000 -16.4159206  56.1608013 -56.1346655
 -17.0332823  54.5864457 -55.5802238 -16.2350000  54.5750000 -57.5800000
 -16.8178908  53.6980765 -57.8616779 -16.2015876  55.2725778 -58.4168801
 -14.8120000  54.1460000 -57.2170000 -14.1779863  55.0298433 -57.1466569
 -14.8265473  53.6324820 -56.2556536 -14.2760000  53.2360000 -58.2540000
 -14.2620334  53.7117894 -59.1448025 -13.3371280  52.9585370 -58.0057386
 -14.8631064  52.4167475 -58.3190429 -18.7440000  57.3120000 -54.9510000
 -19.0990000  58.3820000 -55.4400000 -17.9210000  57.2580000 -53.8890000
 -17.5399779  56.4029127 -53.5098600 -17.5680000  58.4970000 -53.2600000
 -18.0590853  59.3501467 -53.7280547 -17.8790000  58.5110000 -51.7900000
 -17.3739634  57.6794814 -51.2984574 -17.3860000  59.8380000 -51.1880000
 -17.8909683  60.6700255 -51.6787560 -17.6072114  59.8578626 -50.1208676
 -16.3099949  59.9277266 -51.3372103 -19.3870000  58.2680000 -51.6060000
 -19.6545167  57.3013561 -52.0327746 -19.6297041  58.2751410 -50.5433884
 -19.9466954  59.0550958 -52.1112941 -16.1070000  58.7670000 -53.4030000
 -15.2710000  57.8680000 -53.3130000 -15.7830000  60.0530000 -53.6450000
 -16.5260426  60.7319402 -53.7288288 -14.4280000  60.5150000 -53.7240000
 -13.7617205  59.6523475 -53.7251815 -14.1480000  61.3390000 -54.9470000
 -14.7703213  62.2338653 -54.9412987 -12.6660000  61.7460000 -54.9390000
 -12.0430126  60.8516017 -54.9451645 -12.4485933  62.3456882 -55.8228594
 -12.4538292  62.3297736 -54.0432922 -14.4410000  60.5920000 -56.1190000
 -14.2584652  61.1281317 -56.8941414 -14.2610000  61.4080000 -52.5330000
 -15.1290000  62.2300000 -52.2440000 -13.1400000  61.2670000 -51.8010000
 -12.3993980  60.6413489 -52.0841409 -12.9590000  62.0380000 -50.6040000
 -13.9174384  62.4866186 -50.3427792 -12.4560000  61.2170000 -49.4020000
 -11.6468543  60.5393236 -49.6742816 -12.1371453  61.8479220 -48.5723199
 -13.5690000  60.3680000 -48.8890000 -14.4130000  60.8500000 -47.9150000
 -14.2584345  61.8569571 -47.5273832 -15.4410000  60.0780000 -47.4310000
 -16.1029650  60.4706211 -46.6591505 -15.6340000  58.8100000 -47.9210000
 -16.4473401  58.1917270 -47.5411102 -14.7960000  58.3210000 -48.8950000
 -14.9477873  57.3149601 -49.2860812 -13.7680000  59.0980000 -49.3760000
 -13.1050177  58.7076360 -50.1481206 -11.9330000  63.0940000 -50.8330000
 -11.1240000  63.0140000 -51.7570000 -11.9800000  64.1460000 -49.9920000
 -12.6795615  64.1814889 -49.2643644 -11.0150000  65.2000000 -50.0570000
 -10.3637877  65.0255068 -50.9134893 -11.6620000  66.5880000 -50.2060000
 -12.4358429  66.5017680 -50.9687781 -12.1219537  66.8327448 -49.2485855
 -10.6810000  67.6950000 -50.5980000  -9.9111821  67.7438528 -49.8278736
 -10.2264583  67.4141125 -51.5480506 -11.3500000  69.0650000 -50.7380000
 -11.6710884  69.4501857 -49.7702019 -10.6832085  69.7852453 -51.2120624
 -12.5500000  68.8850000 -51.6020000 -13.4561804  68.7005295 -51.1959125
 -12.4510000  68.9740000 -52.9600000 -11.2460000  69.2280000 -53.5480000
 -10.4236201  69.3506461 -52.9746334 -11.1819401  69.2922071 -54.5539192
 -13.5570000  68.8010000 -53.7390000 -14.4493868  68.6068393 -53.3076678
 -13.4787243  68.8678159 -54.7437424 -10.2970000  65.1860000 -48.7430000
 -10.9160000  65.3140000 -47.6860000  -8.9630000  65.0030000 -48.7740000
  -8.4646292  64.8883046 -49.6449597  -8.2080000  65.0090000 -47.5540000
  -8.9041014  65.0536132 -46.7164132  -7.3190000  63.7630000 -47.3890000
  -7.9191764  62.8533668 -47.3676672  -6.5860127  63.6952768 -48.1928925
  -6.3690000  63.7760000 -45.8410000  -5.7585837  62.6116966 -46.0427121
  -7.3100000  66.2060000 -47.6180000  -6.3750000  66.2470000 -48.4120000
  -7.5710000  67.2250000 -46.7800000  -8.3228871  67.1864861 -46.1067380
  -6.7450000  68.3980000 -46.8110000  -5.9737332  68.2687219 -47.5702983
  -7.5100000  69.6550000 -47.1130000  -6.8293074  70.5058880 -47.1403379
  -8.1910000  69.5000000 -48.4820000  -8.8722415  68.6495316 -48.4552938
  -8.7506305  70.4059714 -48.7146556  -7.4338047  69.3344066 -49.2483777
  -8.4840000  69.8900000 -46.1070000  -8.9661485  70.6948824 -46.3102176
  -6.1280000  68.5730000 -45.4590000  -6.7700000  68.3550000 -44.4340000
  -4.8360000  68.9520000 -45.4370000  -4.3508890  69.1155051 -46.3076508
  -4.1240000  69.1700000 -44.2100000  -4.4623150  68.4444039 -43.4703025
  -2.6030000  69.0190000 -44.3870000  -2.4253962  68.0106084 -44.7607679
  -2.2975118  69.7444519 -45.1409870  -1.7920000  69.2390000 -43.1110000
  -1.9986719  70.2227011 -42.6894318  -2.0238755  68.4717130 -42.3723501
  -0.3200000  69.1490000 -43.4910000  -0.0310000  68.7440000 -44.6490000
   0.5370000  69.4840000 -42.6300000  -4.3800000  70.5720000 -43.7540000
  -4.3590000  71.5060000 -44.5530000  -4.6220000  70.7560000 -42.4400000
  -4.6523420  69.9783291 -41.7962558  -4.8370000  72.0790000 -41.9210000
  -4.9080230  72.7606462 -42.7685927  -6.1040000  72.2310000 -41.0600000
  -6.2483781  71.3004645 -40.5110392  -5.9334182  73.0451021 -40.3555572
  -7.3500000  72.5300000 -41.8910000  -7.4947424  71.7150737 -42.6002570
  -8.2071215  72.5832867 -41.2197286  -7.2160000  73.8500000 -42.6520000
  -7.1573953  74.6432484 -41.9067340  -6.2793102  73.8041819 -43.2075289
  -8.3660000  74.1410000 -43.6160000  -8.4253131  73.3467166 -44.3601078
  -9.3023286  74.1878920 -43.0599522  -8.1300000  75.4350000 -44.2940000
  -7.2626376  75.3916156 -44.8096549  -8.8908621  75.6253218 -44.9303698
  -8.0754331  76.1711977 -43.6047000  -3.6730000  72.4410000 -41.0620000
  -3.3130000  71.7160000 -40.1380000  -3.0400000  73.5880000 -41.3640000
  -3.3310649  74.1644968 -42.1405513  -1.9230000  74.0200000 -40.5790000
  -1.3048774  73.1532017 -40.3451530  -1.0560000  75.0600000 -41.3020000
  -1.6553562  75.8939573 -41.6672213  -0.2796276  75.4356527 -40.6354934
  -0.4100000  74.3450000 -42.4810000  -0.1640000  73.1140000 -42.3650000
  -0.1650000  75.0160000 -43.5180000  -2.4610000  74.6280000 -39.3230000
  -3.5610000  75.1800000 -39.3140000  -1.6910000  74.5250000 -38.2170000
  -0.7761806  74.0979868 -38.2464017  -2.1560000  75.0530000 -36.9650000
  -3.0035327  75.7127241 -37.1508806  -2.6010000  73.9410000 -35.9970000
  -3.3570530  73.4250009 -36.5888007  -1.7875306  73.2526400 -35.7678100
  -3.2310000  74.4440000 -34.6870000  -2.5470874  75.1524478 -34.2195964
  -4.5800000  75.1330000 -34.9520000  -5.2646391  74.4249932 -35.4190059
  -5.0033292  75.4789235 -34.0090100  -4.4295861  75.9841532 -35.6160891
  -3.3300000  73.3170000 -33.6470000  -2.3327494  72.9354243 -33.4279320
  -3.7792825  73.7042340 -32.7325077  -3.9482880  72.5108235 -34.0418397
  -1.0220000  75.7980000 -36.3210000   0.0970000  75.2930000 -36.2470000
  -1.2840000  77.0280000 -35.8260000  -2.2160442  77.4152009 -35.8643199
  -0.2470000  77.8080000 -35.2080000   0.6419604  77.2106442 -35.0054793
   0.1560000  79.0110000 -36.0100000   0.4264033  78.7103663 -37.0222256
  -1.0350000  79.9820000 -36.0650000  -1.3057045  80.2834604 -35.0531000
  -0.7596574  80.8630772 -36.6446463  -1.8851149  79.4887602 -36.5362970
   1.4280000  79.6160000 -35.3900000   2.2282092  78.8760719 -35.4065424
   1.7315198  80.4915504 -35.9639223   1.2264719  79.9094878 -34.3597805
  -0.7500000  78.3090000 -33.8900000  -1.9560000  78.3970000 -33.6620000
   0.1800000  78.6380000 -32.9720000   1.1677013  78.5629666 -33.1692699
  -0.2210000  79.1080000 -31.6780000   0.2414624  80.0661450 -31.4409642
  -1.3046631  79.2004031 -31.6056451   0.2460000  78.0870000 -30.6950000
   1.3770000  77.6100000 -30.7730000  -0.6150000  77.7500000 -29.7160000
  -1.5300225  78.1707615 -29.6398885  -0.2540000  76.7360000 -28.7730000
   0.8317354  76.7290727 -28.6769282  -0.8700000  76.9480000 -27.3780000
  -1.9356230  77.1593033 -27.4668691  -0.7261552  76.0618519 -26.7598170
  -0.1700000  78.1350000 -26.7330000   0.9770000  78.4430000 -27.1560000
  -0.7660000  78.7490000 -25.8080000  -0.7920000  75.4520000 -29.3130000
  -1.8590000  74.9930000 -28.9100000  -0.0480000  74.8300000 -30.2490000
   0.8467962  75.1992355 -30.5372782  -0.5010000  73.6080000 -30.8420000
  -1.5693908  73.6318803 -31.0566392   0.2340000  73.2550000 -32.1030000
  -0.1320669  72.3055413 -32.4936693  -0.0120000  74.3650000 -33.1400000
   0.3542520  75.3147471 -32.7502041   0.5154029  74.1240286 -34.0629731
  -1.0801552  74.4435937 -33.3424083   1.7190000  73.0360000 -31.7630000
   1.8111645  72.2244036 -31.0412527   2.2658445  72.7786869 -32.6701112
   2.1331835  73.9495909 -31.3364973  -0.2630000  72.5090000 -29.8580000
   0.7550000  72.4870000 -29.1660000  -1.1900000  71.5930000 -29.7600000
  -2.5880000  71.8580000 -30.0450000  -2.6904234  72.1723922 -31.0836372
  -2.9451102  72.6516920 -29.3887803  -3.2760000  70.5120000 -29.7650000
  -3.2859509  69.8918864 -30.6613589  -4.2982455  70.6679051 -29.4203130
  -2.4110000  69.8830000 -28.6550000  -2.3627084  68.8018790 -28.7851703
  -2.7773545  70.1119404 -27.6542651  -1.0210000  70.4940000 -28.8550000
  -0.6986888  70.8714500 -27.8845644   0.0080000  69.5530000 -29.3890000
   0.0660000  69.3420000 -30.5990000   0.8140000  68.9510000 -28.4980000
   0.6874699  69.1107972 -27.5087809   1.8490000  68.0510000 -28.9140000
   2.4801706  68.5653322 -29.6386967   2.7320000  67.5590000 -27.7550000
   3.4772663  66.8805842 -28.1702461   3.2312528  68.4278035 -27.3260162
   1.9380000  66.8380000 -26.6650000   1.1987180  67.5144041 -26.2360005
   1.4336642  65.9654135 -27.0801354   2.9090000  66.3940000 -25.5800000
   4.1400000  66.4150000 -25.8450000   2.4340000  66.0240000 -24.4740000
   1.1790000  66.8570000 -29.5140000  -0.0110000  66.6370000 -29.3010000
   1.9090000  66.0880000 -30.2810000   3.0700000  66.5900000 -30.9980000
   3.9272410  66.5669044 -30.3251667   2.8717547  67.6190191 -31.2978623
   3.2400000  65.6500000 -32.2040000   4.2946706  65.4190299 -32.3537389
   2.8398375  66.1180440 -33.1033921   2.4340000  64.3880000 -31.8350000
   3.0525797  63.6717320 -31.2942428   1.9831818  63.8988828 -32.6984969
   1.3430000  64.9300000 -30.9150000   0.5183328  65.2400641 -31.5567807
   0.8380000  63.9740000 -29.8830000   1.5360000  63.7420000 -28.8960000
  -0.3600000  63.3910000 -30.1050000  -0.8054104  63.4252933 -31.0108327
  -0.9660000  62.5900000 -29.0780000  -0.1854939  62.1873916 -28.4323872
  -1.9420000  63.4050000 -28.2180000  -2.8056036  63.6284849 -28.8443726
  -2.2490188  62.7629124 -27.3924317  -1.3650000  64.7070000 -27.6630000
  -0.7959321  64.4686726 -26.7644107  -0.6970714  65.1281899 -28.4143805
  -2.4550000  65.7260000 -27.3210000  -3.0314592  65.9926494 -28.2068283
  -3.1259328  65.3371966 -26.5549840  -1.7920000  66.9510000 -26.7970000
  -1.1496406  67.4896143 -27.3603546  -2.0390000  67.3610000 -25.5200000
  -2.9030000  66.6550000 -24.7340000  -3.3566276  65.8307778 -25.1013960
  -3.0848869  66.9599265 -23.7884649  -1.4320000  68.4830000 -25.0360000
  -0.8011314  69.0065576 -25.6259087  -1.6162527  68.7849786 -24.0899775
  -1.8400000  61.5540000 -29.7080000  -2.0780000  61.5720000 -30.9130000
  -2.3040000  60.5940000 -28.8800000  -1.9304028  60.5505343 -27.9426446
  -3.2920000  59.6270000 -29.2640000  -3.8772970  60.0638576 -30.0731242
  -2.7360000  58.2680000 -29.7360000  -3.5689321  57.6550238 -30.0803597
  -2.0356091  58.4225427 -30.5567735  -2.0410000  57.5760000 -28.6140000
  -0.7380000  57.8910000 -28.3010000  -0.2201104  58.6576841 -28.8772685
  -0.0900000  57.2490000 -27.2730000   0.9415035  57.5062694 -27.0323449
  -0.7430000  56.2800000 -26.5500000  -0.0780000  55.6210000 -25.4950000
   0.8233139  55.9271206 -25.3704085  -2.0440000  55.9570000 -26.8550000
  -2.5674328  55.1913665 -26.2823537  -2.6850000  56.6030000 -27.8860000
  -3.7147600  56.3456771 -28.1339504  -4.1530000  59.4000000 -28.0530000
  -3.7990000  59.8110000 -26.9500000  -5.3410000  58.7870000 -28.2340000
  -5.6663919  58.5491450 -29.1600909  -6.1780000  58.4550000 -27.1100000
  -6.9916310  57.8101134 -27.4420015  -5.5853654  57.9335607 -26.3583454
  -6.7570000  59.6960000 -26.5000000  -6.9990000  59.7360000 -25.2930000
  -7.0100000  60.7370000 -27.3180000  -6.8423605  60.6715431 -28.3118369
  -7.5210000  61.9740000 -26.7930000  -7.7442886  61.8359577 -25.7350843
  -6.5310000  63.1420000 -26.9380000  -7.0036804  64.0853297 -26.6645013
  -5.6599456  62.9754966 -26.3042486  -6.0180000  63.3090000 -28.3370000
  -5.0400000  62.5160000 -28.8940000  -4.8390000  62.9710000 -30.1570000
  -4.0877918  62.4517582 -30.7521245  -5.6170000  63.9970000 -30.4480000
  -5.6940514  64.5402781 -31.2959457  -6.3600000  64.2080000 -29.3000000
  -7.0962498  65.0110969 -29.2672469  -8.7790000  62.3320000 -27.5270000
  -9.0810000  61.7740000 -28.5810000  -9.5440000  63.2960000 -26.9720000
  -9.2308658  63.7812002 -26.1433704 -10.8170000  63.6530000 -27.5290000
 -11.0645955  62.9416920 -28.3169318 -11.9470000  63.6440000 -26.4860000
 -12.8858450  63.9086263 -26.9724589 -12.0299107  62.6458283 -26.0560243
 -11.6670000  64.5820000 -25.4550000 -12.3772422  64.5692218 -24.8092503
 -10.7700000  65.0270000 -28.1270000  -9.9840000  65.8810000 -27.7180000
 -11.5900000  65.2380000 -29.1810000 -12.1235077  64.4694539 -29.5615336
 -11.7310000  66.5320000 -29.7890000 -11.5001172  67.3401186 -29.0949275
 -10.9160000  66.7000000 -31.0430000  -9.8729971  66.4552579 -30.8421355
 -11.4660000  65.7520000 -32.1210000 -12.5089016  65.9964460 -32.3227498
 -10.8836195  65.8640419 -33.0355383 -11.3960054  64.7223896 -31.7701405
 -10.8740000  68.1780000 -31.4620000 -11.8673427  68.4436316 -31.8236780
 -10.6432772  68.7636520 -30.5721246  -9.8410000  68.4740000 -32.5480000
 -10.0713497  67.8890180 -33.4384128  -9.8663174  69.5354265 -32.7946417
  -8.8472839  68.2090360 -32.1868598 -13.1840000  66.7090000 -30.1330000
 -13.8090000  65.8120000 -30.6980000 -13.7720000  67.8740000 -29.7810000
 -13.2454618  68.6148678 -29.3405778 -15.1670000  68.0990000 -30.0570000
 -15.4701226  67.4241756 -30.8575173 -16.0810000  67.8610000 -28.8400000
 -15.7087097  68.4349636 -27.9914336 -17.0996446  68.1731517 -29.0702707
 -16.0710000  66.3780000 -28.4930000 -14.9650000  65.8300000 -28.2420000
 -17.1740000  65.7690000 -28.4830000 -15.3550000  69.5330000 -30.4620000
 -14.5180000  70.3870000 -30.1720000 -16.4760000  69.8260000 -31.1580000
 -17.1426809  69.0978915 -31.3712930 -16.7720000  71.1680000 -31.5840000
 -15.9351072  71.8446359 -31.4111606 -17.1730000  71.2590000 -33.0320000
 -18.0283578  70.6098944 -33.2194149 -17.5540000  72.7140000 -33.3530000
 -16.6989388  73.3636907 -33.1662560 -17.8462990  72.7910065 -34.4002496
 -18.3871793  73.0199962 -32.7203230 -16.0290000  70.7110000 -33.9020000
 -15.8372165  69.6709843 -33.6380143 -16.3098555  70.7725904 -34.9533926
 -15.1280892  71.3005379 -33.7319832 -17.9320000  71.6630000 -30.7710000
 -18.9410000  70.9750000 -30.6210000 -17.8160000  72.8930000 -30.2280000
 -17.0004440  73.4596290 -30.4121178 -18.8590000  73.4460000 -29.4080000
 -19.6824348  72.7450040 -29.2714023 -18.3860000  73.8990000 -28.0580000
 -19.2117641  74.3504626 -27.5080960 -17.8620000  72.6780000 -27.2840000
 -17.0358572  72.2262457 -27.8330967 -17.5145668  72.9926798 -26.2999435
 -18.6636084  71.9483279 -27.1695261 -17.3450000  75.0140000 -28.2530000
 -17.8010183  75.8483950 -28.7858549 -16.9904951  75.3549695 -27.2802895
 -16.5045863  74.6300609 -28.8312702 -19.4060000  74.6550000 -30.0980000
 -18.7440000  75.2530000 -30.9460000 -20.6670000  75.0140000 -29.7710000
 -21.1987345  74.4776190 -29.1004382 -21.2770000  76.1770000 -30.3490000
 -20.5400520  76.6717755 -30.9816169 -22.5200000  75.8580000 -31.1990000
 -23.2221092  75.2360950 -30.6436838 -23.0143536  76.7807186 -31.5028171
 -22.0550000  75.1230000 -32.4080000 -21.7380000  73.7850000 -32.3440000
 -21.8290506  73.2596185 -31.3933247 -21.3100000  73.1110000 -33.4640000
 -21.0588506  72.0522006 -33.4009951 -21.2000000  73.7730000 -34.6630000
 -20.7620000  73.0890000 -35.8150000 -20.5670184  72.1635445 -35.6503369
 -21.5180000  75.1070000 -34.7360000 -21.4316679  75.6361202 -35.6850411
 -21.9450000  75.7750000 -33.6130000 -22.2005333  76.8329610 -33.6723417
 -21.7170000  77.0780000 -29.2390000 -22.4200000  76.6530000 -28.3220000
 -21.2870000  78.3560000 -29.2900000 -20.6865778  78.6718698 -30.0382104
 -21.7000000  79.3080000 -28.3030000 -22.6521821  78.9807363 -27.8854514
 -20.6880000  79.4680000 -27.1540000 -20.5539508  78.5059022 -26.6595328
 -19.7341364  79.8022031 -27.5621086 -21.1600000  80.4210000 -26.2140000
 -20.5215749  80.5123646 -25.5028983 -21.8240000  80.6470000 -28.9660000
 -20.8930000  81.1280000 -29.6100000 -22.9980000  81.2870000 -28.8060000
 -23.7491377  80.7956005 -28.3429471 -23.2550000  82.6100000 -29.3050000
 -24.3138169  82.8340743 -29.1753980 -22.4320000  83.6860000 -28.5760000
 -21.3764952  83.4686539 -28.7396141 -22.6763783  84.6517569 -29.0183718
 -22.7170000  83.7270000 -27.0730000 -23.7835420  83.9190850 -26.9559852
 -22.4805832  82.7394849 -26.6767385 -21.9220000  84.7860000 -26.3090000
 -20.8537470  84.7061876 -26.5104064 -22.2625423  85.7928372 -26.5506802
 -22.1540000  84.5390000 -24.8580000 -22.6913748  83.7460493 -24.5377549
 -21.6360000  85.3930000 -23.9280000 -20.9640000  86.5110000 -24.3260000
 -20.8509896  86.7047945 -25.3107702 -20.5823470  87.1401685 -23.6341998
 -21.7920000  85.1260000 -22.5980000 -22.2904680  84.2969794 -22.3075613
 -21.4082242  85.7587241 -21.9106318 -22.9810000  82.7120000 -30.7750000
 -22.3790000  83.6840000 -31.2270000 -23.4100000  81.7080000 -31.5650000
 -23.8101431  80.8684885 -31.1710390 -23.3080000  81.8080000 -32.9950000
 -23.9127096  81.0254459 -33.4532952 -23.6752573  82.7836214 -33.3134091
 -21.8890000  81.6520000 -33.4430000 -21.5470000  82.0620000 -34.5520000
 -21.0180000  81.0640000 -32.6030000 -21.2860706  80.7410987 -31.6843204
 -19.6510000  80.8960000 -33.0120000 -19.5711249  81.1893686 -34.0587350
 -18.6510000  81.7290000 -32.1900000 -18.8446503  81.5380305 -31.1344767
 -17.6462978  81.3894622 -32.4417691 -18.7660000  83.2300000 -32.4660000
 -18.4269762  83.3958305 -33.4885771 -19.8211567  83.4916326 -32.3866610
 -17.9520000  84.1030000 -31.5120000 -18.3451479  83.9473552 -30.5073566
 -16.9180496  83.7605450 -31.5540780 -18.0100000  85.5930000 -31.8570000
 -17.6488611  85.7399389 -32.8748842 -19.0413567  85.9381900 -31.7845680
 -17.1650000  86.3640000 -30.9180000 -16.2092019  86.0445875 -30.9852716
 -17.2094131  87.3452427 -31.1531386 -17.4997336  86.2283203 -29.9747908
 -19.2890000  79.4500000 -32.8700000 -19.9480000  78.7070000 -32.1440000
 -18.2330000  79.0090000 -33.5920000 -17.6887970  79.6490021 -34.1526601
 -17.8270000  77.6290000 -33.5440000 -18.5425020  77.0811723 -32.9307783
 -17.7590000  76.9660000 -34.9310000 -17.0473945  77.5099959 -35.5521163
 -17.4267570  75.9341014 -34.8174222 -19.0370000  76.9860000 -35.5480000
 -18.9819702  76.5701732 -36.4115158 -16.4400000  77.5600000 -32.9760000
 -15.5950000  78.4020000 -33.2750000 -16.1730000  76.5480000 -32.1200000
 -16.8818458  75.8831929 -31.8449209 -14.8560000  76.4090000 -31.5630000
 -14.1352616  76.7773314 -32.2930461 -14.6620000  77.1810000 -30.2490000
 -15.0245587  78.1965390 -30.4081568 -15.2715988  76.6931502 -29.4884135
 -13.2070000  77.2270000 -29.7830000 -13.1943393  77.6878547 -28.7952989
 -12.8549746  76.1981499 -29.7078491 -12.1040000  78.1570000 -30.8910000
 -12.9690000  79.7430000 -30.7100000 -12.9579254  80.0460809 -29.6630433
 -12.4686935  80.5011475 -31.3125001 -14.0004290  79.6352874 -31.0456388
 -14.5870000  74.9540000 -31.3000000 -15.4990000  74.1930000 -30.9800000
 -13.3060000  74.5320000 -31.4160000 -12.5661089  75.1824922 -31.6385316
 -12.9630000  73.1480000 -31.2260000 -13.8640178  72.5347041 -31.2144142
 -12.3042209  72.8098735 -32.0258625 -12.2540000  72.9980000 -29.9140000
 -11.4240000  73.8260000 -29.5410000 -12.5620000  71.8990000 -29.1900000
 -13.2068370  71.2204704 -29.5693181 -11.9770000  71.6380000 -27.9040000
 -11.2649470  72.4108342 -27.6145055 -13.0000000  71.4940000 -26.8120000
 -13.6690092  70.6647252 -27.0418460 -12.2790000  71.2170000 -25.4830000
 -11.6101074  72.0461152 -25.2522368 -13.0142679  71.1111891 -24.6853249
 -11.7006279  70.2969922 -25.5676937 -13.8710000  72.7600000 -26.7950000
 -14.3674772  72.8730414 -27.7587604 -14.6207509  72.6752861 -26.0083636
 -13.2434293  73.6308965 -26.6058040 -11.2350000  70.3370000 -27.9980000
 -11.6870000  69.4030000 -28.6540000 -10.0550000  70.2560000 -27.3500000
  -9.7167520  71.0493858 -26.8244273  -9.2390000  69.0750000 -27.4010000
  -9.8465771  68.2200419 -27.6976411  -8.0950000  69.2480000 -28.4270000
  -8.6373152  69.4242432 -29.3559412  -7.5411305  70.1462821 -28.1542034
  -7.1110000  68.0770000 -28.6210000  -7.6757104  67.1575195 -28.7751382
  -6.2120000  68.3360000 -29.8400000  -5.6465905  69.2551373 -29.6863853
  -5.5215210  67.5021472 -29.9666059  -6.8292828  68.4346976 -30.7329284
  -6.2550000  67.8250000 -27.3640000  -6.9055161  67.5856844 -26.5227769
  -5.5767690  66.9915104 -27.5467544  -5.6765823  68.7193644 -27.1323875
  -8.6820000  68.8300000 -26.0290000  -8.0870000  69.7200000 -25.4240000
  -8.8610000  67.6010000 -25.4900000  -9.3149419  66.8405642 -25.9755651
  -8.3920000  67.3710000 -24.1500000  -7.5989524  68.0824051 -23.9196143
  -9.5230000  67.5420000 -23.1160000  -9.9034419  68.5622404 -23.0662733
 -10.3452467  66.8580101 -23.3261622  -9.0260000  67.2050000 -21.7510000
  -8.2060000  68.0710000 -21.0640000  -7.9100028  69.0127832 -21.5260930
  -7.7600000  67.7540000 -19.8010000  -7.1055937  68.4443677 -19.2687919
  -8.1370000  66.5720000 -19.2110000  -7.7827992  66.3186079 -18.2117832
  -8.9640000  65.7080000 -19.8860000  -9.2693096  64.7697201 -19.4228401
  -9.4070000  66.0280000 -21.1480000 -10.0679481  65.3459469 -21.6828374
  -7.8310000  65.9850000 -23.9940000  -8.2890000  65.0330000 -24.6200000
  -6.7720000  65.8740000 -23.1620000  -6.3486411  66.7362498 -22.8499234
  -6.2130000  64.6310000 -22.6960000  -5.5774558  64.8498814 -21.8379361
  -7.0366431  63.9892629 -22.3831343  -5.4040000  63.9150000 -23.7310000
  -5.1520000  64.4240000 -24.8210000  -4.9520000  62.6900000 -23.3700000
  -5.0990921  62.3412707 -22.4335967  -4.2540000  61.8560000 -24.3040000
  -4.8698643  60.9860853 -24.5321640  -4.0722045  62.4215929 -25.2178679
  -2.9410000  61.3920000 -23.7480000  -2.6900000  61.4490000 -22.5440000
  -2.0740000  60.8900000 -24.6590000  -2.3344802  60.8722555 -25.6346713
  -0.7810000  60.3890000 -24.2910000  -0.4667685  60.8767166 -23.3682377
  -0.7760000  58.8680000 -24.0690000  -1.1335205  58.3960892 -24.9841931
   0.2530251  58.5616764 -23.8809222  -1.6580000  58.4380000 -22.8960000
  -1.2709850  58.9355137 -22.0067305  -2.6649150  58.7994679 -23.1047229
  -1.6980000  56.9270000 -22.6580000  -2.1329493  56.3991792 -23.5067186
  -0.7049217  56.5274304 -22.4524784  -2.5600000  56.7020000 -21.4630000
  -2.9421019  57.4835337 -20.9498699  -2.8540000  55.4380000 -21.0390000
  -2.3770000  54.3550000 -21.7210000  -1.8046794  54.4910476 -22.5419995
  -2.5987306  53.4229561 -21.4012668  -3.6250000  55.2570000 -19.9270000
  -3.9746746  56.0591567 -19.4226466  -3.8422765  54.3217464 -19.6136465
   0.1860000  60.6920000 -25.3950000  -0.2050000  60.9530000 -26.5340000
   1.4920000  60.6940000 -25.0560000   1.7480769  60.4880866 -24.1009483
   2.5410000  60.9330000 -26.0050000   2.2664311  60.4531121 -26.9443714
   2.8020000  62.4240000 -26.2730000   3.5489041  62.5212224 -27.0608968
   1.8741156  62.8986572 -26.5921099   3.2750000  63.0560000 -25.0920000
   3.4350605  63.9858951 -25.2688490   3.8030000  60.3680000 -25.4250000
   3.8020000  59.7970000 -24.3370000   4.9130000  60.4930000 -26.1800000
   4.8274451  60.9393664 -27.0819627   6.2160000  60.0570000 -25.7560000
   6.0829267  59.1527764 -25.1620552   7.2040000  59.7540000 -26.9000000
   7.2098116  60.6059500 -27.5798872   8.2086827  59.5958110 -26.5079682
   6.7600000  58.5350000 -27.6350000   6.9340000  57.2860000 -27.0820000
   7.3949975  57.2015782 -26.0978995   6.5350000  56.1540000 -27.7540000
   6.6702825  55.1717327 -27.3012845   5.9640000  56.2640000 -29.0000000
   5.5510000  55.1080000 -29.6970000   5.7153343  54.2973935 -29.2096490
   5.7970000  57.5070000 -29.5650000   5.3450355  57.5960782 -30.5528733
   6.1980000  58.6350000 -28.8880000   6.0718407  59.6174259 -29.3429980
   6.8150000  61.1710000 -24.9550000   6.3760000  62.3150000 -25.0410000
   7.8110000  60.8490000 -24.1090000   8.1311929  59.8927959 -24.0519948
   8.4510000  61.8320000 -23.2800000   7.7103686  62.2369648 -22.5903858
   9.6230000  61.2640000 -22.4640000  10.3677454  60.8949292 -23.1691526
  10.0477989  62.0825480 -21.8829449   9.2080000  60.1320000 -21.5220000
   8.7499232  59.3570246 -22.1365565  10.1198927  59.7436185 -21.0684435
   8.0490000  60.6170000 -20.2110000   7.9500000  58.9560000 -19.4830000
   8.9418661  58.6411733 -19.1586780   7.2767356  58.9738999 -18.6259730
   7.5718986  58.2546699 -20.2268258   8.9920000  62.9190000 -24.1620000
   9.1420000  62.7500000 -25.3710000   9.2370000  64.0590000 -23.5640000
   8.4870000  64.4650000 -22.3890000   8.6315738  63.7278493 -21.5991851
   7.4283241  64.5228914 -22.6418891   9.0790000  65.8350000 -22.0320000
   9.9296682  65.7219956 -21.3599191   8.3260274  66.4669778 -21.5611098
   9.5100000  66.4140000 -23.3920000  10.4242310  66.9981475 -23.2868695
   8.7327855  67.0338426 -23.8390263   9.7730000  65.1900000 -24.2730000
   9.2071202  65.3306558 -25.1939203  11.2130000  64.9700000 -24.6030000
  11.8820000  64.2110000 -23.9060000  11.7240000  65.6720000 -25.6270000
  11.1721691  66.3943633 -26.0671969  13.0450000  65.4280000 -26.1250000
  13.0906934  64.4103552 -26.5128276  13.4420000  66.4000000 -27.2480000
  13.3633456  67.4234786 -26.8813882  14.4705143  66.2003418 -27.5486577
  12.5810000  66.2300000 -28.3650000  12.8355941  66.8401710 -29.0610410
  14.0540000  65.5760000 -25.0300000  15.0540000  64.8600000 -25.0110000
  13.8430000  66.5100000 -24.0890000  13.0136149  67.0850127 -24.0492507
  14.8430000  66.6890000 -23.0780000  15.8027861  66.9068071 -23.5464762
  14.5020000  67.8090000 -22.1410000  13.5691528  67.5866090 -21.6228894
  15.6360000  67.9580000 -21.1130000  16.5691444  68.1808748 -21.6303663
  15.3994456  68.7700450 -20.4254507  15.7443202  67.0288380 -20.5535133
  14.3380000  69.0180000 -22.8670000  14.1200914  69.7288662 -22.2597229
  14.9770000  65.4420000 -22.2480000  16.0800000  64.9300000 -22.0660000
  13.8430000  64.9440000 -21.7140000  12.9880575  65.4322747 -21.9393009
  13.7700000  63.8160000 -20.8240000  14.5811452  63.8831604 -20.0989951
  12.4350000  63.7640000 -20.0640000  11.6346164  63.7037781 -20.8014678
  12.4347192  62.8608787 -19.4536953  12.2120000  64.9850000 -19.1680000
  12.9935176  65.0546622 -18.4113771  12.1939794  65.9022934 -19.7565153
  10.8700000  64.8300000 -18.4680000  10.0570000  65.7550000 -18.4400000
  10.6310000  63.6270000 -17.8820000   9.7564748  63.4670489 -17.4027060
  11.3290155  62.8985003 -17.9285176  13.9540000  62.4860000 -21.5070000
  14.5350000  61.5650000 -20.9340000  13.4560000  62.3420000 -22.7480000
  13.0900939  63.1558276 -23.2211772  13.3930000  61.0730000 -23.4250000
  12.7347093  60.4028922 -22.8720912  12.8520000  61.2220000 -24.8580000
  12.0164573  61.9197020 -24.8016122  13.6553119  61.6647918 -25.4468340
  12.3890000  59.9260000 -25.5220000  13.2359273  59.2404718 -25.5514282
  11.5962265  59.4971447 -24.9090600  11.8680000  60.1540000 -26.9430000
  11.1289920  60.9549565 -26.9638545  12.6842182  60.3956188 -27.6238139
  11.2200000  58.8950000 -27.4030000  11.2909617  58.0348182 -26.8784516
  10.5070000  58.8910000 -28.5680000  10.4190000  60.0290000 -29.3160000
  10.8819554  60.8710818 -29.0050811   9.8913076  60.0240699 -30.1771713
   9.8820000  57.7500000 -28.9830000   9.9488033  56.9101024 -28.4260355
   9.3557281  57.7510874 -29.8450530  14.7440000  60.4200000 -23.4920000
  15.7580000  61.0750000 -23.7280000  14.7780000  59.0840000 -23.2610000
  13.9199002  58.5912439 -23.0586254  15.9990000  58.3270000 -23.3300000
  16.7806951  58.9594863 -23.7507292  16.4670000  57.8050000 -22.0020000
  17.4307007  57.3086339 -22.1160256  16.6130000  58.9910000 -21.0340000
  15.6495320  59.4876162 -20.9191028  16.9525706  58.6289446 -20.0635842
  17.3405271  59.6982601 -21.4322311  15.5400000  56.8630000 -21.4860000
  15.8519949  56.5384966 -20.6380866  15.7320000  57.1360000 -24.2040000
  14.6040000  56.6560000 -24.3030000  16.7850000  56.6160000 -24.8570000
  17.7062963  56.9988018 -24.6995985  16.6480000  55.5350000 -25.7900000
  15.9133023  55.8000499 -26.5503072  17.9430000  55.2030000 -26.4700000
  17.7922256  54.3940278 -27.1847946  18.4390000  56.4570000 -27.2120000
  18.5904554  57.2663209 -26.4977447  19.3809811  56.2344300 -27.7132319
  17.6973117  56.7595540 -27.9512294  18.9080000  54.7830000 -25.5170000
  19.7306995  54.5740285 -25.9654382  16.1610000  54.3010000 -25.0990000
  15.3370000  53.5670000 -25.6400000  16.6490000  54.0420000 -23.8760000
  17.2316521  54.7110337 -23.3932892  16.2940000  52.8320000 -23.1930000
  16.6712842  51.9736259 -23.7488324  16.8970000  52.8050000 -21.7780000
  16.4948163  53.6587741 -21.2326402  16.5706042  51.8819769 -21.2988402
  18.4270000  52.8700000 -21.7710000  18.8403878  51.9007202 -22.0497616
  18.7783375  53.6289002 -22.4700934  18.8810000  53.2290000 -20.3620000
  18.4180000  52.5590000 -19.4000000  19.6930000  54.1830000 -20.2280000
  14.8030000  52.8060000 -23.0280000  14.1510000  51.7940000 -23.2750000
  14.2660000  53.9440000 -22.5580000  14.9871881  54.6234284 -22.3621323
  12.9020000  54.2930000 -22.2630000  12.3879576  53.4092985 -21.8849375
  12.7930000  55.4090000 -21.2160000  13.2364697  56.3165527 -21.6256119
  11.7388518  55.5850306 -21.0017924  13.5170000  55.0260000 -19.9270000
  14.5859386  54.9995354 -20.1385910  13.3128475  55.7988924 -19.1860134
  13.0720000  53.6690000 -19.3830000  12.0553330  53.7860007 -19.0077694
  13.0723251  52.9675982 -20.2173469  13.9680000  53.1330000 -18.2670000
  14.9905470  53.0509543 -18.6354653  13.9408060  53.8216289 -17.4225179
  13.4920000  51.8000000 -17.8320000  13.5175276  51.1616381 -18.6142673
  14.0891719  51.4533248 -17.0949098  12.5446505  51.8758811 -17.4901374
  12.1280000  54.7180000 -23.4830000  10.9750000  55.1240000 -23.3560000
  12.7260000  54.6650000 -24.6850000  13.5910574  54.1475648 -24.7485275
  12.2430000  55.3370000 -25.8660000  12.3898783  56.4118948 -25.7605152
  12.9980000  54.8580000 -27.1190000  14.0676257  54.8553060 -26.9092551
  12.6770274  53.8497062 -27.3805725  12.8020000  55.7060000 -28.3500000
  11.9480000  55.5600000 -29.4040000  11.2723566  54.7049290 -29.3825677
  12.1420000  56.5810000 -30.3070000  11.6437222  56.7064109 -31.1765349
  13.1360000  57.4080000 -29.8270000  13.6880000  58.5460000 -30.3450000
  13.3201037  58.9151756 -31.3023194  14.6830000  59.1570000 -29.6150000
  15.1455337  60.0675163 -29.9959496  15.1110000  58.6440000 -28.4090000
  15.9003425  59.1366220 -27.8412312  14.5570000  57.4970000 -27.8850000
  14.9151275  57.1127850 -26.9298957  13.5700000  56.8910000 -28.6070000
  10.7600000  55.1490000 -26.0890000  10.0890000  56.0820000 -26.5270000
  10.2060000  53.9520000 -25.8440000  10.8098607  53.2066337 -25.5279611
   8.8050000  53.6610000 -26.0420000   8.4908293  54.0610138 -27.0060461
   8.5240000  52.1510000 -26.0220000   8.9286172  51.6725123 -25.1301291
   7.4540078  51.9532385 -26.0860864   9.2030000  51.5530000 -27.2450000
   8.9230000  51.9440000 -28.3770000  10.1310000  50.5870000 -27.0130000
  10.6121015  50.1562664 -27.7896014  10.3351720  50.3044012 -26.0650799
   7.9030000  54.2990000 -25.0150000   6.7240000  54.5100000 -25.2960000
   8.4060000  54.5970000 -23.7970000   9.3950414  54.4743608 -23.6331219
   7.5820000  55.0490000 -22.7020000   6.9477967  54.2204440 -22.3867534
   8.3900000  55.5400000 -21.4870000   9.0631984  56.3360415 -21.8051524
   7.7023549  55.9255724 -20.7342861   9.1470000  54.4730000 -20.9340000
   9.6454031  54.7923604 -20.1782202   6.6660000  56.1630000 -23.1090000
   7.0050000  57.0110000 -23.9340000   5.4480000  56.1610000 -22.5180000
   5.2412270  55.4596921 -21.8212134   4.4430000  57.1410000 -22.8160000
   4.8324323  57.9375186 -23.4500345   3.2250000  56.5590000 -23.4710000
   2.4749930  57.3363297 -23.6171068   3.6310000  55.9760000 -24.8350000
   4.3806984  55.1982276 -24.6896608   2.7551222  55.5489342 -25.3234193
   4.0453423  56.7670523 -25.4600266   2.6030000  55.5260000 -22.5150000
   2.3251181  56.0152683 -21.5814582   1.7153655  55.0922679 -22.9755227
   3.3273020  54.7377034 -22.3098757   3.9950000  57.7540000 -21.5290000
   4.1020000  57.1460000 -20.4650000   3.5000000  59.0070000 -21.5980000
   3.4282558  59.4885058 -22.4829318   3.0260000  59.6740000 -20.4210000
   2.7397043  58.9582855 -19.6503596   4.0420000  60.6610000 -19.8220000
   4.3313930  61.3896283 -20.5792665   3.5912067  61.1778107 -18.9747737
   4.9245099  60.1160883 -19.4868183   1.8230000  60.4640000 -20.8180000
   1.6470000  60.8040000 -21.9870000   0.9450000  60.7610000 -19.8410000
   1.1078111  60.4734134 -18.8865966  -0.2420000  61.5090000 -20.1320000
  -0.7159170  61.0638756 -21.0068521  -1.2620000  61.5350000 -18.9800000
  -0.7586788  61.7621828 -18.0402368  -2.0204214  62.2924935 -19.1777387
  -1.9240000  60.1680000 -18.8830000  -2.0980000  59.5190000 -19.9490000
  -2.2600000  59.7540000 -17.7430000   0.1420000  62.9250000 -20.4120000
   1.0730000  63.4640000 -19.8170000  -0.5900000  63.5670000 -21.3410000
  -1.3505555  63.0978165 -21.8116607  -0.3260000  64.9360000 -21.6740000
   0.7510167  65.0583498 -21.7887381  -1.0140000  65.3960000 -22.9710000
  -2.0859246  65.2012704 -22.9369810  -0.8436055  66.4575433 -23.1504201
  -0.3910000  64.5300000 -24.4420000  -1.1748047  65.1568287 -25.3147166
  -0.8470000  65.7820000 -20.5610000  -1.6060000  65.3190000 -19.7100000
  -0.4110000  67.0560000 -20.5210000   0.2438191  67.4096812 -21.2038037
  -0.8960000  67.9540000 -19.5170000  -0.7306912  67.4977290 -18.5409933
  -0.2060000  69.3300000 -19.5400000  -0.3254049  69.6308594 -20.5808292
  -0.7012925  70.0546726 -18.8937531   1.2950000  69.2720000 -19.1910000
   1.7958582  68.6271084 -19.9130504   1.9290000  70.6730000 -19.2290000
   1.4289367  71.3183765 -18.5068334   2.9873986  70.6003203 -18.9787784
   1.8205548  71.0944637 -20.2283540   1.5290000  68.5510000 -17.8540000
   1.1483955  67.5316678 -17.9188191   2.5966635  68.5264467 -17.6358420
   1.0081302  69.0828216 -17.0577843  -2.3510000  68.1510000 -19.8180000
  -2.7740000  68.2660000 -20.9650000  -3.1030000  68.2260000 -18.7670000
  -2.6410000  67.6080000 -17.5330000  -2.1132925  68.3637831 -16.9512638
  -1.9525199  66.8038035 -17.7925422  -3.9000000  67.0940000 -16.8260000
  -3.8162513  67.2351155 -15.7484233  -4.0534250  66.0368182 -17.0426305
  -5.0330000  67.9440000 -17.4160000  -5.2305974  68.8597020 -16.8587352
  -5.9452962  67.3502795 -17.4735425  -4.5450000  68.2870000 -18.8220000
  -4.8705833  67.4880216 -19.4881286  -5.0970000  69.5960000 -19.3050000
  -6.1710000  69.9800000 -18.8380000  -4.3600000  70.3420000 -20.1460000
  -3.4535803  70.0338496 -20.4677858  -4.8480000  71.6150000 -20.6010000
  -5.2965937  72.1425214 -19.7592256  -3.7320000  72.4900000 -21.1900000
  -3.3079474  72.0548164 -22.0949276  -4.1114649  73.4877164 -21.4106091
  -2.5980000  72.6660000 -20.2270000  -1.3600000  73.1620000 -20.5670000
  -0.6100000  73.1490000 -19.4370000   0.4138668  73.5125853 -19.5241863
  -1.2780000  72.6820000 -18.3980000  -0.9910495  72.5541100 -17.4381024
  -2.5320000  72.3780000 -18.8990000  -3.2971732  71.9672625 -18.2402846
  -5.8970000  71.4330000 -21.6610000  -5.8050000  70.5490000 -22.5130000
  -6.9470000  72.2780000 -21.6150000  -7.0071520  72.9649269 -20.8770213
  -7.9790000  72.2590000 -22.6130000  -8.1646543  71.2542505 -22.9926185
  -9.2770000  72.8350000 -22.1250000  -9.1206177  73.8593058 -21.7867082
 -10.2950000  72.8260000 -23.2780000 -10.4522606  71.8019102 -23.6165413
 -11.2406994  73.2429006 -22.9316662  -9.9144785  73.4268021 -24.1040399
  -9.7290000  72.0400000 -20.8880000  -8.9711378  72.1179829 -20.1084709
 -10.6714793  72.4450735 -20.5195601  -9.8651027  70.9928382 -21.1582389
  -7.4830000  73.1140000 -23.7380000  -6.8700000  74.1550000 -23.5100000
  -7.7200000  72.6860000 -24.9950000  -8.2565567  71.8513616 -25.1836400
  -7.2410000  73.4530000 -26.1090000  -6.6710833  74.2959036 -25.7180938
  -6.3440000  72.6590000 -27.0770000  -6.7375283  71.6676696 -27.3017193
  -6.1890475  73.2070843 -28.0063511  -4.9970000  72.4560000 -26.4720000
  -4.7780000  71.4800000 -25.5270000  -5.6047798  70.8456840 -25.2073466
  -3.5250000  71.3020000 -24.9860000  -3.3645939  70.5280365 -24.2354328
  -2.4780000  72.0960000 -25.3890000  -1.4858741  71.9574110 -24.9593732
  -2.6860000  73.0670000 -26.3370000  -1.8608171  73.6998997 -26.6635138
  -3.9400000  73.2400000 -26.8750000  -4.1074228  74.0065386 -27.6316295
  -8.4080000  73.9110000 -26.9190000  -9.2530000  73.1130000 -27.3210000
  -8.4770000  75.2300000 -27.1760000  -7.8144756  75.8821932 -26.7812789
  -9.4860000  75.7360000 -28.0510000 -10.3016556  75.0133971 -28.0764994
 -10.0530000  77.1020000 -27.6340000  -9.1494655  77.6974398 -27.5029424
 -10.6790010  77.5567319 -28.4017511 -10.8290000  77.0480000 -26.3050000
 -10.1378201  76.7645093 -25.5112719 -11.4620000  78.4070000 -25.9710000
 -12.1537002  78.6909614 -26.7641050 -12.0022752  78.3345905 -25.0270930
 -10.6798784  79.1612502 -25.8844388 -11.8480000  75.8970000 -26.3030000
 -11.3268995  74.9494696 -26.4398934 -12.3804955  75.8841268 -25.3520089
 -12.5601585  76.0401211 -27.1156780  -8.7990000  75.8870000 -29.3690000
  -7.7190000  76.4740000 -29.4460000  -9.3940000  75.3110000 -30.4350000
 -10.2955288  74.8647893 -30.3442196  -8.7830000  75.3510000 -31.7310000
  -7.9077366  76.0002104 -31.7542177  -8.4010000  73.9780000 -32.2100000
  -9.2748701  73.3265185 -32.2051702  -7.8550000  74.0920000 -33.6430000
  -6.9807775  74.7430030 -33.6485569  -7.5732907  73.1031314 -34.0047728
  -8.6233536  74.5107895 -34.2928824  -7.4120000  73.3370000 -31.2190000
  -6.4564338  73.8468359 -31.3417248  -7.7955563  73.5217468 -30.2155795
  -7.2170000  71.8340000 -31.4210000  -6.8329958  71.6484921 -32.4241089
  -6.5066768  71.4571146 -30.6851349  -8.1721195  71.3234031 -31.2979657
  -9.7860000  75.9060000 -32.6940000 -10.8820000  75.3680000 -32.8380000
  -9.4320000  77.0060000 -33.3870000  -8.5210476  77.4297994 -33.2837571
 -10.3520000  77.5900000 -34.3200000 -11.3551630  77.2457655 -34.0684729
 -10.3450000  79.1270000 -34.3170000 -10.3859369  79.5053484 -33.2955912
  -9.4446890  79.4991282 -34.8059383 -11.5710000  79.6020000 -35.0830000
 -12.3790000  78.7320000 -35.5050000 -11.7200000  80.8400000 -35.2550000
  -9.9440000  77.1390000 -35.6850000  -8.8470000  77.4370000 -36.1550000
 -10.8360000  76.3890000 -36.3530000 -11.7297238  76.1817460 -35.9306223
 -10.5500000  75.8360000 -37.6430000  -9.5845661  75.3318423 -37.5998546
 -11.6110000  74.8260000 -38.1060000 -12.6133457  75.2525055 -38.1446708
 -11.3914414  74.3290854 -39.0509708 -11.6400000  73.7620000 -37.0610000
 -10.5110000  73.0320000 -36.7760000  -9.5898773  73.2395959 -37.3205519
 -10.5350000  72.0490000 -35.8160000  -9.6300318  71.4839289 -35.5927784
 -11.7000000  71.7780000 -35.1370000 -11.7245036  71.0000369 -34.3739319
 -12.8370000  72.4940000 -35.4250000 -13.7650633  72.2823758 -34.8939502
 -12.8030000  73.4780000 -36.3840000 -13.7049963  74.0442647 -36.6160492
 -10.4490000  76.9270000 -38.6630000  -9.6470000  76.8400000 -39.5900000
 -11.2800000  77.9790000 -38.5430000 -11.9142189  78.1000955 -37.7663395
 -11.2430000  78.9940000 -39.5550000 -11.4827417  78.5309089 -40.5121676
 -12.2290000  80.1450000 -39.3060000 -12.0620749  80.4935529 -38.2868111
 -11.9755206  80.9399195 -40.0073923 -13.6980000  79.7630000 -39.4790000
 -13.8801130  79.4022826 -40.4913333 -13.9829759  78.9925487 -38.7625555
 -14.5250000  81.0170000 -39.2310000 -14.3280000  82.0100000 -39.9820000
 -15.3600000  81.0010000 -38.2880000  -9.8820000  79.6260000 -39.6150000
  -9.2990000  79.7450000 -40.6930000  -9.3640000  80.0840000 -38.4570000
  -9.9283379  80.0166924 -37.6220798  -8.0960000  80.7600000 -38.3710000
  -7.9702254  81.3800453 -39.2585944  -7.9830000  81.6540000 -37.1280000
  -8.2482977  81.1582870 -36.1941986  -7.0204025  82.1523829 -37.0134552
  -8.9950000  82.7260000 -37.3440000  -8.7940000  83.6700000 -38.3230000
  -7.8908704  83.6245122 -38.9315949  -9.7180000  84.6640000 -38.5380000
  -9.5479618  85.4059429 -39.3181977 -10.8560000  84.7230000 -37.7700000
 -11.5939606  85.5074360 -37.9378520 -11.0610000  83.7860000 -36.7860000
 -11.9603800  83.8298367 -36.1717572 -10.1330000  82.7940000 -36.5760000
 -10.2959911  82.0517873 -35.7945564  -6.8990000  79.8490000 -38.4270000
  -5.8960000  80.1880000 -39.0540000  -6.9550000  78.6670000 -37.7790000
  -7.7895986  78.3521871 -37.3052519  -5.7950000  77.8170000 -37.7540000
  -6.1026402  76.7722221 -37.7104594  -5.1960493  77.9818280 -38.6496501
  -4.9600000  78.1330000 -36.5410000  -3.7490000  77.9150000 -36.5490000
  -5.5780000  78.6700000 -35.4640000  -6.5709061  78.8547538 -35.4741460
  -4.8380000  78.9760000 -34.2650000  -3.7899174  78.7322836 -34.4388516
  -4.9360000  80.4530000 -33.8420000  -4.3157449  80.6553258 -32.9688178
  -4.6442540  81.1167037 -34.6559298  -6.6280000  80.9340000 -33.3810000
  -6.3387414  82.1994185 -33.0912695  -5.3860000  78.1560000 -33.1300000
  -6.5220000  77.6850000 -33.1830000  -4.5700000  77.9520000 -32.0670000
  -3.6449445  78.3567836 -32.0441549  -5.0030000  77.1740000 -30.9350000
  -6.0859268  77.0541762 -30.9667968  -4.3560000  75.7800000 -30.8650000
  -3.2717490  75.8837773 -30.8234065  -4.7053232  75.2611482 -29.9723262
  -4.6318637  75.2059960 -31.7496004  -4.6260000  77.8930000 -29.6720000
  -3.5600000  78.5020000 -29.5840000  -5.5070000  77.8290000 -28.6470000
  -6.3664324  77.3057420 -28.7346143  -5.2330000  78.4860000 -27.3970000
  -4.2260029  78.9013243 -27.4365203  -6.1970000  79.5940000 -27.0870000
  -7.2047213  79.1922978 -26.9810124  -5.7690000  80.2580000 -25.7680000
  -4.7614830  80.6603757 -25.8733702  -6.4591865  81.0664678 -25.5269161
  -5.7824651  79.5185694 -24.9672743  -6.1900000  80.5540000 -28.1330000
  -6.8090733  81.2577840 -27.9255474  -5.3470000  77.4700000 -26.2980000
  -6.2640000  76.6510000 -26.2880000  -4.4150000  77.5170000 -25.3190000
  -3.7116081  78.2417403 -25.3094767  -4.4010000  76.5400000 -24.2650000
  -5.0865491  75.7348963 -24.5294421  -3.0060000  75.9380000 -24.0220000
  -3.0714588  75.1890334 -23.2327830  -2.6537611  75.4677832 -24.9401089
  -2.0960000  76.9570000 -23.6330000  -1.2292883  76.5720965 -23.4838025
  -4.8480000  77.1800000 -22.9840000  -4.5010000  78.3240000 -22.6960000
  -5.6490000  76.4410000 -22.1840000  -5.8752099  75.4872974 -22.4276797
  -6.1540000  76.9660000 -20.9440000  -5.6953622  77.9383383 -20.7642534
  -7.6830000  77.1370000 -20.9490000  -8.1584319  76.1858215 -21.1884227
  -8.0280239  77.4796717 -19.9734824  -8.0420000  78.1460000 -21.9850000
  -8.2710000  77.7560000 -23.2850000  -8.1850700  76.7017978 -23.5483881
  -8.6050000  78.6800000 -24.2470000  -8.7890820  78.3588460 -25.2722199
  -8.7100000  80.0090000 -23.9140000  -9.0520000  80.9600000 -24.8980000
  -9.1891098  80.5703787 -25.7646002  -8.4770000  80.4080000 -22.6190000
  -8.5572209  81.4615594 -22.3512733  -8.1430000  79.4790000 -21.6620000
  -7.9554694  79.7964689 -20.6362584  -5.8510000  75.9950000 -19.8390000
  -6.1360000  74.8050000 -19.9520000  -5.2850000  76.4950000 -18.7210000
  -5.0661002  77.4790450 -18.6590517  -4.9880000  75.6580000 -17.5900000
  -5.0244546  74.5971378 -17.8376724  -3.6690000  75.9760000 -16.9420000
  -2.8622096  75.8593644 -17.6655923  -3.7040000  77.4300000 -16.4440000
  -4.5103022  77.5473094 -15.7199725  -2.7531410  77.6756168 -15.9710938
  -3.8734095  78.0994671 -17.2873347  -3.3350000  74.9410000 -15.8550000
  -4.0245677  75.1018875 -15.0263189  -3.5041991  73.9520727 -16.2810212
  -1.8980000  75.0370000 -15.3470000  -1.7281745  76.0255640 -14.9203850
  -1.7309179  74.2783028 -14.5824339  -1.2078056  74.8757514 -16.1750884
  -6.0740000  75.8770000 -16.5810000  -6.4110000  77.0170000 -16.2600000
  -6.6750000  74.7770000 -16.0770000  -6.3540114  73.8504789 -16.3191246
  -7.7600000  74.9000000 -15.1380000  -7.9337952  75.9569232 -14.9359905
  -9.0640000  74.2800000 -15.6680000  -8.7689242  73.2399656 -15.8071329
  -9.8862772  74.3314791 -14.9543403  -9.5180000  74.8700000 -17.0180000
  -8.7353703  74.6948885 -17.7561921 -10.8270000  74.2190000 -17.4950000
 -11.6102742  74.3940966 -16.7574897 -11.1232855  74.6544913 -18.4492866
 -10.6765892  73.1463209 -17.6168051  -9.5850000  76.4060000 -16.9730000
  -8.5988730  76.8064794 -16.7379058  -9.9086681  76.7846377 -17.9425224
 -10.2950060  76.7169296 -16.2066363  -7.4010000  74.1450000 -13.8910000
  -6.7490000  73.1030000 -13.9410000  -7.7880000  74.6740000 -12.7600000
  -7.8660000  76.1170000 -12.6020000  -8.8696442  76.4383117 -12.8804911
  -7.1391925  76.5749457 -13.2729215  -7.5490000  76.3870000 -11.1220000
  -8.1953860  77.1743978 -10.7343289  -6.5065349  76.6838256 -11.0068376
  -7.8180000  75.0440000 -10.4220000  -8.8516056  74.9566029 -10.0871563
  -7.1482470  74.8887033  -9.5761788  -7.5350000  74.0090000 -11.5070000
  -6.4736353  73.7651157 -11.4609163  -8.3400000  72.7580000 -11.3580000
  -7.9180000  71.8560000 -10.6350000  -9.5050000  72.6890000 -12.0240000
  -9.7604891  73.4475540 -12.6399712 -10.4010000  71.5770000 -11.9080000
 -10.6230243  71.4161464 -10.8530448 -11.7250000  71.7990000 -12.6610000
 -11.4688384  72.0501457 -13.6902746 -12.2656685  70.8527308 -12.6422318
 -12.6080000  72.9030000 -12.0710000 -13.6471035  72.7385034 -12.3561415
 -12.5238718  72.8919879 -10.9843076 -12.1430000  74.2550000 -12.6030000
 -11.1140000  74.2930000 -13.3290000 -12.8190000  75.2710000 -12.2920000
  -9.7600000  70.3520000 -12.4850000  -9.9660000  69.2490000 -11.9780000
  -8.9780000  70.5080000 -13.5750000  -8.7694801  71.4249882 -13.9434446
  -8.3990000  69.3660000 -14.2240000  -8.9693872  68.4760411 -13.9580474
  -8.4060000  69.5150000 -15.7550000  -7.8509486  70.4407283 -15.9068035
  -7.8952441  68.6979919 -16.2646334  -9.8280000  69.6690000 -16.3290000
 -10.2856028  70.5529183 -15.8847151  -9.8060000  69.8180000 -17.8600000
  -9.3489263  68.9341949 -18.3050516 -10.8257831  69.9243404 -18.2299119
  -9.2276794  70.7011866 -18.1313433 -10.7410000  68.5250000 -15.8590000
 -10.8019002  68.5317786 -14.7707240 -11.7378527  68.6590777 -16.2790108
 -10.3315286  67.5718387 -16.1935379  -6.9690000  69.2300000 -13.7880000
  -6.0630000  69.7730000 -14.4170000  -6.7520000  68.5330000 -12.6570000
  -7.5598880  68.1859466 -12.1600390  -5.4500000  68.2900000 -12.0960000
  -4.8429986  69.1882640 -12.2090057  -5.5180000  67.9280000 -10.6050000
  -6.2034006  67.0874928 -10.4960376  -4.5197519  67.6254924 -10.2886301
  -5.9970000  69.0920000  -9.7360000  -6.8870090  69.5623582 -10.1540286
  -6.2048731  68.7626781  -8.7179441  -4.8770000  70.1210000  -9.6950000
  -3.8900000  69.9490000  -8.9810000  -5.0270000  71.2190000 -10.4830000
  -4.3115878  71.9318854 -10.4920188  -5.8531506  71.3167287 -11.0557353
  -4.6780000  67.1930000 -12.7810000  -3.4790000  67.3390000 -13.0190000
  -5.3360000  66.0600000 -13.1180000  -6.3420125  65.9951118 -13.0561318
  -4.6020000  64.9030000 -13.5750000  -3.5438741  65.0635302 -13.3683629
  -5.0430000  63.5940000 -12.8950000  -6.1267854  63.4952450 -12.9562858
  -4.5727033  62.7428657 -13.3874343  -4.6190000  63.6320000 -11.4330000
  -3.7730000  64.4960000 -11.0780000  -5.1370000  62.7910000 -10.6500000
  -4.7640000  64.6900000 -15.0490000  -5.6780000  65.2190000 -15.6790000
  -3.8320000  63.8980000 -15.6300000  -3.0875495  63.5235777 -15.0592980
  -3.8530000  63.5640000 -17.0270000  -4.1201770  64.4360797 -17.6238188
  -2.8792650  63.1913079 -17.3448682  -4.8790000  62.4930000 -17.2420000
  -5.1140000  61.6580000 -16.3690000  -5.5000000  62.4740000 -18.4390000
  -5.2531323  63.1031181 -19.1895772  -6.5360000  61.5120000 -18.6720000
  -6.3531472  60.6312046 -18.0564811  -7.9240000  62.0770000 -18.3220000
  -7.7796896  62.3946676 -17.2893524  -8.1723135  62.9423694 -18.9364723
  -9.0700000  61.0570000 -18.3880000  -9.0730032  60.5966184 -19.3759983
  -8.8990000  59.9680000 -17.3160000  -8.8963665  60.4275997 -16.3276377
  -9.7233174  59.2580675 -17.3838038  -7.9559244  59.4452676 -17.4755608
 -10.4390000  61.7550000 -18.3170000 -10.5392187  62.4455050 -19.1544118
 -11.2312604  61.0079836 -18.3658994 -10.5179307  62.3067963 -17.3803092
  -6.5430000  61.1470000 -20.1250000  -6.3560000  62.0020000 -20.9900000
  -6.7610000  59.8490000 -20.4290000  -6.8943852  59.1676320 -19.6954842
  -6.8140000  59.4010000 -21.7920000  -7.1051841  60.2402639 -22.4236227
  -5.4670000  58.8540000 -22.2920000  -5.5867534  58.4712553 -23.3055408
  -4.7292580  59.6563944 -22.2919917  -5.0270000  57.8070000 -21.4400000
  -4.1859856  57.4690728 -21.7563855  -7.8330000  58.3010000 -21.8910000
  -8.2440000  57.7220000 -20.8850000  -8.2610000  57.9840000 -23.1320000
  -7.9162269  58.5338437 -23.9058881  -9.2030000  56.9310000 -23.4090000
  -9.3909000  56.9014952 -24.4822764  -8.6920000  55.5500000 -22.9610000
  -8.4104389  55.5211375 -21.9083892  -9.3929582  54.7422195 -23.1713529
  -7.4550000  55.2560000 -23.7420000  -7.5320000  54.7570000 -25.0220000
  -8.5098272  54.5740850 -25.4675290  -6.3880000  54.4890000 -25.7390000
  -6.4623912  54.0959472 -26.7529409  -5.1540000  54.7160000 -25.1790000
  -4.2455459  54.5052505 -25.7432656  -5.0690000  55.2120000 -23.8990000
  -4.0933902  55.3941739 -23.4483357  -6.2150000  55.4780000 -23.1880000
  -6.1480916  55.8695188 -22.1729452 -10.5220000  57.1840000 -22.7320000
 -11.1980000  56.2480000 -22.3070000 -10.9180000  58.4660000 -22.6170000
 -10.3086195  59.1855539 -22.9789350 -12.1690000  58.8640000 -22.0290000
 -12.4983481  58.0852125 -21.3411635 -12.0580000  60.1850000 -21.2570000
 -13.0506961  60.5580004 -21.0049597 -11.4695675  60.0752786 -20.3460618
 -11.3920000  61.2540000 -22.0720000 -10.0300000  61.4480000 -22.1160000
  -9.8080000  62.4830000 -22.9640000  -8.7701040  62.7775204 -23.1193338
 -10.9300000  62.9650000 -23.4670000 -11.0835081  63.7229104 -24.1166976
 -11.9270000  62.1890000 -22.9030000 -12.9711969  62.3776508 -23.1523291
 -13.1870000  59.0690000 -23.1210000 -12.8630000  59.0330000 -24.3060000
 -14.4690000  59.2640000 -22.7310000 -14.6940767  59.2702671 -21.7464186
 -15.5310000  59.4990000 -23.6760000 -15.2371000  59.2508672 -24.6958785
 -16.7920000  58.7510000 -23.3440000 -17.1500936  59.0495620 -22.3587442
 -17.8600000  59.0840000 -24.4000000 -17.5027898  58.7852802 -25.3855295
 -18.7798268  58.5466286 -24.1692381 -18.0551722  60.1563709 -24.3945087
 -16.4630000  57.2540000 -23.2370000 -15.7233225  57.0992659 -22.4514832
 -17.3694471  56.6985496 -22.9963171 -16.0624937  56.9006644 -24.1871839
 -15.8620000  60.9650000 -23.6440000 -15.7830000  61.6030000 -22.5940000
 -16.2200000  61.5450000 -24.8140000 -16.2837082  61.0093945 -25.6679130
 -16.5430000  62.9460000 -24.8620000 -16.5590041  63.3272852 -23.8409884
 -15.5440000  63.7820000 -25.6840000 -15.7919005  64.8387758 -25.5846550
 -14.5354890  63.6090461 -25.3083772 -15.6100000  63.4070000 -27.0530000
 -14.9852275  63.9316537 -27.5589621 -17.8850000  63.1160000 -25.5090000
 -18.1530000  62.5520000 -26.5690000 -18.7690000  63.9170000 -24.8780000
 -18.5113766  64.3827834 -24.0196438 -20.0750000  64.1640000 -25.4210000
 -20.1790587  63.7064613 -26.4048340 -21.1760000  63.6730000 -24.5210000
 -21.1257929  64.1809018 -23.5578721 -22.5250000  63.9810000 -25.1930000
 -22.5761397  63.4730301 -26.1560430 -23.3372283  63.6322061 -24.5552471
 -22.6188831  65.0563203 -25.3445631 -20.9870000  62.1750000 -24.2250000
 -21.2158400  61.6315603 -25.1417368 -19.9388305  62.0249394 -23.9663071
 -21.8700000  61.6560000 -23.0920000 -22.9184015  61.8053059 -23.3501895
 -21.6812671  60.5930916 -22.9413189 -21.6413934  62.1986871 -22.1747598
 -20.2070000  65.6520000 -25.5450000 -19.9370000  66.3830000 -24.5930000
 -20.6220000  66.1460000 -26.7300000 -20.8875782  65.5630489 -27.5108557
 -20.6940000  67.5710000 -26.8890000 -20.4011676  68.0424254 -25.9508601
 -19.7890000  68.1080000 -28.0130000 -20.0760584  67.6519063 -28.9604577
 -19.8991917  69.1901450 -28.0831440 -18.7501748  67.8626398 -27.7922288
 -22.0910000  67.9770000 -27.2210000 -22.7450000  67.3860000 -28.0810000
 -22.5860000  69.0060000 -26.5070000 -22.0414935  69.4154401 -25.7613655
 -23.8780000  69.5530000 -26.7820000 -24.1372777  69.3267346 -27.8162525
 -24.9770000  68.9890000 -25.8650000 -24.9346813  67.9029294 -25.9472135
 -24.7260686  69.2858175 -24.8466519 -26.3890000  69.4710000 -26.2030000
 -26.4992330  70.4819312 -25.8106128 -26.4837172  69.4908879 -27.2886957
 -27.4780000  68.5740000 -25.6130000 -27.4009793  67.5594174 -26.0038824
 -27.4152462  68.5494130 -24.5250860 -28.8010000  69.1360000 -26.0020000
 -29.1676745  69.0441325 -26.9385946 -29.5400000  69.8150000 -25.0770000
 -29.0730000  69.9370000 -23.8000000 -28.1857978  69.5250347 -23.5484908
 -29.6167918  70.4386766 -23.1124604 -30.7480000  70.3530000 -25.4190000
 -31.0957250  70.2475366 -26.3613719 -31.2881145  70.8538770 -24.7279882
 -23.7590000  71.0250000 -26.5580000 -23.4090000  71.4700000 -25.4650000
 -24.0280000  71.8290000 -27.6050000 -24.2548665  71.4678573 -28.5205364
 -23.9560000  73.2490000 -27.4340000 -24.1759542  73.7195043 -28.3923032
 -24.9390000  73.7940000 -26.3810000 -24.8724728  73.2190510 -25.4573621
 -24.7475738  74.8457573 -26.1682499 -26.3510000  73.6590000 -26.9380000
 -26.5510000  73.6170000 -28.1510000 -27.3600000  73.5960000 -26.0300000
 -28.3149962  73.5062411 -26.3462679 -27.1504225  73.6392151 -25.0429283
 -22.5580000  73.6250000 -27.0360000 -21.5750000  73.1430000 -27.5940000
 -22.4700000  74.5600000 -26.0720000 -23.3718231  74.8860162 -25.7549388
 -21.2910000  75.1690000 -25.5170000 -20.6043977  75.4014954 -26.3310162
 -21.5930000  76.4660000 -24.7420000 -20.6581601  76.8908142 -24.3763411
 -22.0867117  77.1846147 -25.3961726 -22.5010000  76.1470000 -23.5620000
 -23.0540000  75.0160000 -23.5220000 -22.6610000  77.0390000 -22.6860000
 -20.5090000  74.2520000 -24.6100000 -19.4360000  74.6350000 -24.1430000
 -21.0420000  73.0660000 -24.2500000 -21.9113388  72.7159852 -24.6266153
 -20.3450000  72.2610000 -23.2760000 -19.4481504  72.7866032 -22.9481262
 -21.1900000  71.9590000 -22.0740000 -20.6281334  71.3398855 -21.3746407
 -21.5770000  73.2810000 -21.3910000 -22.1393350  73.9004960 -22.0896442
 -22.1917674  73.0718985 -20.5155363 -20.6746456  73.8091558 -21.0829278
 -22.3570000  71.2550000 -22.4740000 -22.8953013  71.0634098 -21.7025564
 -19.8990000  70.9350000 -23.8260000 -20.4310000  70.4350000 -24.8160000
 -18.8530000  70.3570000 -23.1830000 -18.4105860  70.8689273 -22.4331336
 -18.3590000  69.0450000 -23.4960000 -19.0667672  68.4957445 -24.1168729
 -17.0240000  69.0520000 -24.1820000 -16.6661576  68.0304503 -24.3103914
 -17.1860000  69.7150000 -25.5600000 -17.5433973  70.7368047 -25.4323942
 -16.2241768  69.7284080 -26.0726566 -17.9054217  69.1504067 -26.1531007
 -16.0050000  69.7650000 -23.2790000 -15.9282980  69.2363598 -22.3288640
 -15.0307850  69.7759885 -23.7677577 -16.3322074  70.7890379 -23.0990486
 -18.2000000  68.3150000 -22.1940000 -17.6340000  68.8450000 -21.2390000
 -18.7010000  67.0630000 -22.1270000 -19.0991976  66.6388323 -22.9526027
 -18.6380000  66.2820000 -20.9230000 -18.4957789  66.9623022 -20.0833208
 -19.9010000  65.4390000 -20.6650000 -20.0832088  64.7905918 -21.5220099
 -19.7694747  64.8299095 -19.7706791 -21.0650000  66.3530000 -20.4770000
 -21.3020000  66.9600000 -19.2650000 -20.6259973  66.7725505 -18.4307443
 -22.3820000  67.7980000 -19.1010000 -22.5585173  68.2766555 -18.1377594
 -23.2350000  68.0340000 -20.1520000 -24.3430000  68.8910000 -19.9890000
 -24.4075301  69.2564069 -19.1036112 -23.0080000  67.4290000 -21.3640000
 -23.6825926  67.6108519 -22.2006332 -21.9280000  66.5930000 -21.5210000
 -21.7470651  66.1109437 -22.4817207 -17.5080000  65.3110000 -21.0740000
 -17.3130000  64.7340000 -22.1440000 -16.7150000  65.1310000 -20.0000000
 -16.8922752  65.6307741 -19.1404078 -15.6130000  64.2120000 -20.0380000
 -15.4715592  63.8006732 -21.0374518 -14.3270000  64.8260000 -19.5630000
 -14.4637503  65.2524842 -18.5692641 -13.2520000  63.7300000 -19.5060000
 -13.1143515  63.3033320 -20.4995331 -12.3113608  64.1604726 -19.1625004
 -13.5664724  62.9474581 -18.8154680 -13.9510000  66.0090000 -20.4710000
 -14.7362232  66.7587137 -20.3737651 -13.0106014  66.4186265 -20.1022777
 -13.7960000  65.6220000 -21.9410000 -14.7362014  65.2126935 -22.3105800
 -13.5304892  66.5042346 -22.5234649 -13.0105807  64.8726041 -22.0390922
 -15.9610000  63.0750000 -19.1220000 -16.2470000  63.2780000 -17.9430000
 -15.9490000  61.8350000 -19.6600000 -15.6158314  61.6996242 -20.6038069
 -16.3490000  60.6770000 -18.9050000 -16.6446582  60.9967382 -17.9057738
 -17.5300000  59.9230000 -19.5510000 -17.2452462  59.8600828 -20.6012647
 -17.5895120  58.9191560 -19.1304580 -18.9020000  60.6110000 -19.4320000
 -18.8033222  61.6449660 -19.7625721 -19.9570000  59.8970000 -20.2920000
 -20.0565772  58.8630356 -19.9616958 -20.9157314  60.4050465 -20.1879632
 -19.6479250  59.9158524 -21.3370922 -19.3480000  60.6850000 -17.9630000
 -18.6175867  61.2554813 -17.3892867 -20.3198528  61.1747833 -17.9020433
 -19.4233023  59.6772891 -17.5544082 -15.2390000  59.6680000 -18.8340000
 -14.5180000  59.4350000 -19.8020000 -15.0780000  59.0520000 -17.6450000
 -15.6157933  59.3909378 -16.8601440 -14.1870000  57.9440000 -17.4330000
 -14.2227116  57.6606388 -16.3810826 -14.5170645  57.1053636 -18.0460626
 -12.7770000  58.2880000 -17.7970000 -12.2660000  59.3550000 -17.4620000
 -12.1060000  57.3500000 -18.5000000 -12.5629224  56.4889217 -18.7643208
 -10.7400000  57.5420000 -18.8900000 -10.5669383  57.1086671 -19.8750743
 -10.5032031  58.6056772 -18.9148497  -9.8460000  56.8670000 -17.8970000
 -10.3000000  56.3320000 -16.8860000  -8.5280000  56.8690000 -18.1980000
  -8.2258466  57.3264432 -19.0462620  -7.5340000  56.2530000 -17.3660000
  -7.9739895  56.0175748 -16.3969368  -6.9930000  54.9510000 -17.9910000
  -7.8141083  54.2511141 -18.1460492  -6.5270029  55.1815696 -18.9490107
  -5.9620000  54.2290000 -17.1750000  -4.6530000  54.0650000 -17.5700000
  -4.0320000  53.3630000 -16.5900000  -2.9764758  53.1369419 -16.7412127
  -4.8470000  53.0690000 -15.5930000  -4.6759796  52.5653750 -14.7343885
  -6.0620000  53.6140000 -15.9640000  -6.9272475  53.5134486 -15.3087615
  -6.4070000  57.2300000 -17.2080000  -5.9930000  57.8740000 -18.1700000
  -5.8980000  57.3770000 -15.9650000  -6.2605107  56.8260492 -15.2000565
  -4.8090000  58.2750000 -15.7010000  -4.6843214  58.9290018 -16.5640389
  -5.0310000  59.1460000 -14.4520000  -5.9325298  59.7427716 -14.5905889
  -5.1546634  58.4980156 -13.5842883  -3.9210000  60.0070000 -14.2450000
  -4.0734815  60.5434246 -13.4635924  -3.6100000  57.4170000 -15.4470000
  -3.6110000  56.5890000 -14.5430000  -2.5430000  57.6100000 -16.2480000
  -2.5467555  58.3484813 -16.9370069  -1.3840000  56.7670000 -16.1600000
  -1.7088087  55.7309610 -16.2560293  -0.3250000  57.0540000 -17.2440000
  -0.2687496  58.1425069 -17.2533681   0.6452357  56.6429497 -16.9651088
  -0.7120000  56.5490000 -18.6440000  -1.6409507  57.0331239 -18.9452895
   0.3880000  56.8670000 -19.6710000   1.3172028  56.3828020 -19.3706113
   0.0875120  56.4985916 -20.6518583   0.5399113  57.9452790 -19.7193500
  -1.0500000  55.0500000 -18.6060000  -1.8865729  54.8827326 -17.9275703
  -1.3211171  54.7126730 -19.6064035  -0.1823355  54.4901031 -18.2570404
  -0.6760000  56.8890000 -14.8460000  -0.2890000  55.8800000 -14.2570000
  -0.4780000  58.1180000 -14.3400000  -0.8628931  58.9579291 -14.7480144
   0.3210000  58.2420000 -13.1520000   1.2983799  57.7944164 -13.3322682
   0.5220000  59.7080000 -12.7280000  -0.4475593  60.1671763 -12.5350959
   1.1276191  59.7451040 -11.8224896   1.0284758  60.2513163 -13.5257398
  -0.3330000  57.5330000 -12.0050000   0.3080000  56.7480000 -11.3050000
  -1.6350000  57.7920000 -11.7930000  -2.1212610  58.4008567 -12.4356065
  -2.3790000  57.2110000 -10.7100000  -1.7958331  57.2969924  -9.7931462
  -3.7330000  57.9070000 -10.4980000  -4.3304283  57.8154076 -11.4050775
  -4.2564767  57.4305081  -9.6691287  -3.5300000  59.2810000 -10.2020000
  -4.3792779  59.7089578 -10.0709310  -2.6770000  55.7780000 -11.0180000
  -2.7450000  54.9430000 -10.1160000  -2.8280000  55.4550000 -12.3160000
  -2.6734676  56.1596164 -13.0229192  -3.2100000  54.1380000 -12.7400000
  -3.2230113  54.1141449 -13.8296609  -2.2510000  53.0430000 -12.2350000
  -1.2168979  53.3144759 -12.4472096  -2.3718979  52.8844552 -11.1633903
  -2.5710000  51.7410000 -12.9590000  -3.5470000  51.6500000 -13.7010000
  -1.7250000  50.7000000 -12.7320000  -1.8883058  49.8124119 -13.1854515
  -0.9374390  50.8194462 -12.1110483  -4.5830000  53.8400000 -12.2160000
  -4.8690000  52.7130000 -11.8110000  -5.4820000  54.8460000 -12.2240000
  -5.2573799  55.7590282 -12.5928152  -6.8090000  54.6210000 -11.7260000
  -6.9772058  53.5631590 -11.5240636  -7.1200000  55.4210000 -10.4940000
  -6.9785140  56.4837140 -10.6907769  -8.5850000  55.1620000 -10.1120000
  -8.7271664  54.0994906  -9.9146092  -8.8344523  55.7336509  -9.2180819
  -9.2344917  55.4687971 -10.9318385  -6.1290000  55.0770000  -9.3680000
  -6.3596763  54.0680966  -9.0259428  -5.1271768  55.0944310  -9.7971222
  -6.1930000  56.0420000  -8.1860000  -7.1944660  56.0247710  -7.7560361
  -5.4683096  55.7398331  -7.4299456  -5.9619685  57.0511064  -8.5272164
  -7.7900000  55.0370000 -12.7760000  -7.5210000  55.9180000 -13.5910000
  -8.9580000  54.3650000 -12.8090000  -9.1465975  53.5863766 -12.1939586
  -9.9750000  54.7580000 -13.7390000  -9.5305869  55.4241151 -14.4785180
 -10.6110000  53.5640000 -14.4720000 -10.9102658  52.8269264 -13.7268411
 -11.4929792  53.9211537 -15.0036521  -9.6420000  52.9190000 -15.4670000
  -9.4599952  53.6538858 -16.2511670  -8.7151051  52.7286340 -14.9259560
 -10.1420000  51.6170000 -16.0950000 -10.1766072  50.8089092 -15.3643219
 -11.1273571  51.7428727 -16.5436946  -9.1730000  51.2510000 -17.1660000
  -9.3557254  51.4909467 -18.1299172  -8.0230000  50.5760000 -16.8690000
  -7.7530000  50.2200000 -15.5800000  -8.4057124  50.4569931 -14.8465828
  -6.9016056  49.7210435 -15.3648962  -7.1400000  50.2660000 -17.8610000
  -7.3395305  50.5368946 -18.8133150  -6.2904804  49.7669082 -17.6389132
 -11.0220000  55.4640000 -12.9350000 -11.9020000  54.8510000 -12.3330000
 -10.9230000  56.7660000 -12.9260000 -10.1550000  57.4960000 -13.9200000
 -10.3613076  57.0705504 -14.9021049  -9.0947855  57.3856692 -13.6922473
 -10.6330000  58.9520000 -13.7950000 -11.3955495  59.1692844 -14.5429337
  -9.7968472  59.6402010 -13.9188114 -11.2060000  59.0340000 -12.3670000
 -12.0102377  59.7656209 -12.2893364 -10.4388929  59.2580199 -11.6257434
 -11.7580000  57.6300000 -12.1370000 -11.6355965  57.3369887 -11.0942824
 -13.2100000  57.5670000 -12.5060000 -13.5550000  57.5030000 -13.6830000
 -14.0540000  57.5980000 -11.4690000 -13.5425520  57.5958960 -10.5980719
 -15.4850000  57.6230000 -11.4160000 -15.8660952  56.8552728 -12.0893948
 -16.0300000  57.3530000 -10.0050000 -15.6643835  58.1188872  -9.3210107
 -17.1195861  57.3750290 -10.0254254 -15.6932043  56.3732735  -9.6661728
 -16.0150000  58.9600000 -11.8560000 -17.2230000  59.1660000 -11.8620000
 -15.1400000  59.9630000 -12.0370000 -14.1488803  59.7809415 -11.9689136
 -15.5730000  61.3240000 -12.2520000 -16.4172906  61.5342374 -11.5954386
 -14.4600000  62.3410000 -11.9610000 -13.5703654  62.1580139 -12.5636322
 -14.8112843  63.3585219 -12.1323141 -14.0910000  62.1950000 -10.4930000
 -14.9530000  62.0010000  -9.6380000 -12.7680000  62.2750000 -10.1930000
 -12.4644675  62.1851080  -9.2338925 -12.0941962  62.4239890 -10.9304900
 -16.1170000  61.6580000 -13.6200000 -15.8640000  60.9890000 -14.6210000
 -16.9250000  62.7500000 -13.6380000 -17.0742075  63.1616135 -12.7278293
 -17.5370000  63.3800000 -14.7820000 -17.1869607  62.8801286 -15.6851612
 -19.0750000  63.3110000 -14.7460000 -19.2498052  62.2410155 -14.8585860
 -19.4682267  63.6437679 -13.7854073 -19.7870000  64.0700000 -15.8830000
 -19.5315984  65.1263422 -15.7992617 -19.3740000  63.5520000 -17.2690000
 -19.6295233  62.4957619 -17.3536629 -19.9000811  64.1154522 -18.0396239
 -18.2989351  63.6767174 -17.3985430 -21.3110000  64.0520000 -15.6810000
 -21.5579485  64.5286445 -14.7323557 -21.7923858  64.5935600 -16.4952983
 -21.6646781  63.0210158 -15.6719290 -17.1350000  64.8290000 -14.7290000
 -17.1570000  65.4390000 -13.6620000 -16.7310000  65.4170000 -15.8800000
 -16.7873942  64.9287773 -16.7623591 -16.3060000  66.7930000 -15.8870000
 -16.4344547  67.2012055 -14.8845197 -14.8330000  66.9640000 -16.3030000
 -14.7016979  66.5747035 -17.3126075 -14.5688879  68.0213591 -16.2846563
 -13.9500000  66.2150000 -15.3630000 -13.4640000  66.8090000 -14.2220000
 -13.7315266  67.8419774 -13.9995440 -12.6460000  66.1100000 -13.3640000
 -12.2657383  66.5901280 -12.4623460 -12.3060000  64.8080000 -13.6450000
 -11.4680000  64.0870000 -12.7680000 -11.1922106  64.6009132 -12.0054824
 -12.7870000  64.2080000 -14.7820000 -12.5218246  63.1753656 -15.0088229
 -13.6040000  64.9110000 -15.6350000 -13.9856713  64.4362592 -16.5389073
 -17.0840000  67.5160000 -16.9420000 -17.2220000  67.0400000 -18.0670000
 -17.6090000  68.7100000 -16.6000000 -17.4806258  69.0976554 -15.6762345
 -18.3170000  69.4920000 -17.5740000 -18.5330204  68.8557919 -18.4322970
 -19.6380000  70.0730000 -17.0490000 -20.2579015  69.2345171 -16.7315605
 -19.3989567  70.6945975 -16.1861125 -20.3980000  70.9060000 -18.0820000
 -19.8118637  71.8013218 -18.2892291 -20.4882475  70.3127614 -18.9919590
 -21.7910000  71.3100000 -17.5970000 -22.2603184  71.9015377 -18.3830803
 -22.3665878  70.3984343 -17.4362327 -21.7520000  72.1230000 -16.3020000
 -21.1464577  71.5939408 -15.5661227 -21.3072165  73.0971916 -16.5050211
 -23.1210000  72.3070000 -15.7730000 -23.5331672  71.4044206 -15.5844045
 -23.0824168  72.8446148 -14.9188445 -23.6821558  72.7975972 -16.4545553
 -17.4380000  70.6570000 -17.9090000 -16.9070000  71.3200000 -17.0180000
 -17.2390000  70.9200000 -19.2160000 -17.6440357  70.3352089 -19.9329831
 -16.4550000  72.0470000 -19.6220000 -16.1587148  72.6503196 -18.7639092
 -15.2350000  71.6830000 -20.4240000 -15.5066391  70.9931262 -21.2229910
 -14.6510000  72.9670000 -21.0330000 -14.3786755  73.6572254 -20.2345459
 -13.7648997  72.7216806 -21.6184447 -15.3945218  73.4343133 -21.6786724
 -14.2350000  70.9030000 -19.5520000 -13.8521822  71.5935341 -18.8005254
 -14.7882058  70.1024839 -19.0608414 -13.0670000  70.3070000 -20.3380000
 -12.5130077  71.1070120 -20.8290938 -12.4050204  69.7724868 -19.6566939
 -13.4490319  69.6159632 -21.0894117 -17.3320000  72.9070000 -20.4740000
 -17.9020000  72.4500000 -21.4640000 -17.4610000  74.1920000 -20.0910000
 -16.9644639  74.5352312 -19.2812201 -18.3010000  75.1040000 -20.8100000
 -18.8200908  74.5608004 -21.5996697 -19.3510000  75.7690000 -19.8970000
 -19.8865284  74.9600744 -19.4000613 -18.7970269  76.3460115 -19.1565464
 -20.3520000  76.6810000 -20.6090000 -19.8363031  77.6073846 -20.8619212
 -20.6663998  76.1792692 -21.5241618 -21.5820000  76.9990000 -19.7530000
 -21.2976935  77.2416355 -18.7290875 -22.1539563  77.8247999 -20.1761074
 -22.4450000  75.7790000 -19.7340000 -22.6310245  75.2661733 -20.5840018
 -22.9990000  75.3320000 -18.5690000 -22.7060000  75.9510000 -17.3880000
 -22.0775144  76.7415739 -17.3780575 -23.1190286  75.6156017 -16.5295042
 -23.8500000  74.2630000 -18.5800000 -24.0682251  73.8041115 -19.4528684
 -24.2569970  73.9365065 -17.7152144 -17.4140000  76.1570000 -21.3980000
 -16.4830000  76.6340000 -20.7490000 -17.6670000  76.5200000 -22.6730000
 -18.4439040  76.1212493 -23.1804617 -16.8580000  77.5080000 -23.3320000
 -16.0936245  77.9123276 -22.6684124 -16.1900000  76.9930000 -24.5770000
 -16.9432664  76.6371366 -25.2798870 -15.3880000  78.1370000 -25.2210000
 -14.6341765  78.4931010 -24.5188296 -14.8990913  77.7745065 -26.1252495
 -16.0616849  78.9551051 -25.4758617 -15.3350000  75.7720000 -24.1990000
 -15.9735632  74.9989248 -23.7715730 -14.8416069  75.3834444 -25.0898913
 -14.5829297  76.0669337 -23.4672177 -17.7590000  78.6310000 -23.7400000
 -18.8400000  78.4110000 -24.2830000 -17.3190000  79.8780000 -23.4760000
 -16.4037443  80.0065145 -23.0687037 -18.0980000  81.0450000 -23.7820000
 -19.1134191  80.7372834 -24.0316674 -18.1590000  82.0310000 -22.5990000
 -18.3804287  81.4936427 -21.6768743 -17.1981171  82.5364754 -22.5025703
 -19.2480000  83.0590000 -22.8600000 -19.8760000  82.9960000 -23.9500000
 -19.4720000  83.9180000 -21.9650000 -17.4370000  81.7430000 -24.9310000
 -16.2190000  81.9230000 -24.9320000 -18.2270000  82.1370000 -25.9560000
 -19.2267873  81.9940600 -25.9463606 -17.6440000  82.7960000 -27.0920000
 -16.5642520  82.8470001 -26.9518483 -17.9340000  82.0630000 -28.4120000
 -19.0235000  82.0312668 -28.4210518 -17.5792401  82.5967506 -29.2936778
 -17.3790000  80.6270000 -28.4240000 -17.8479639  80.0694025 -27.6132850
 -17.6620000  79.9230000 -29.7600000 -17.1929292  80.4798009 -30.5711993
 -17.2558647  78.9118858 -29.7316626 -18.7382639  79.8771584 -29.9262979
 -15.8940000  80.6010000 -28.0340000 -15.7739392  81.0109839 -27.0312049
 -15.5311116  79.5733321 -28.0516624 -15.3213519  81.2002027 -28.7419048
 -18.2160000  84.1800000 -27.2150000 -19.2020000  84.4130000 -27.9140000
 -17.5990000  85.0940000 -26.5220000 -17.0680000  84.7500000 -25.2140000
 -16.1997779  84.1055194 -25.3516061 -17.8359969  84.2106298 -24.6595998
 -16.7090000  86.0900000 -24.5620000 -15.6749810  86.3599633 -24.7765308
 -16.8562066  86.0464863 -23.4828623 -17.6920000  87.0760000 -25.2100000
 -17.1734784  88.0293102 -25.3121469 -18.6296788  87.2284450 -24.6755671
 -17.9700000  86.4840000 -26.5940000 -19.0286997  86.5785590 -26.8354783
 -17.1550000  87.1280000 -27.6690000 -16.3620000  86.4450000 -28.3130000
 -17.3320000  88.4450000 -27.8700000 -17.9997598  88.9587429 -27.3129862
 -16.5740000  89.1600000 -28.8510000 -16.7348223  88.6952097 -29.8237309
 -16.9710000  90.6410000 -28.9430000 -16.8594121  90.9722460 -27.9105643
 -16.3137828  91.2273103 -29.5851883 -18.4310000  90.8360000 -29.3890000
 -19.0828012  90.3640438 -28.6538039 -18.7890000  92.3260000 -29.5090000
 -18.1378801  92.7985663 -30.2444066 -19.8270923  92.4264139 -29.8258315
 -18.6562561  92.8111264 -28.5419778 -18.7310000  90.0400000 -30.6670000
 -18.5623673  88.9789911 -30.4828193 -19.7695795  90.1971224 -30.9581467
 -18.0743545  90.3779253 -31.4686995 -15.1320000  89.0950000 -28.4530000
 -14.2500000  89.0060000 -29.3070000 -14.8580000  89.1350000 -27.1330000
 -15.6099280  89.1745130 -26.4598416 -13.5070000  89.1230000 -26.6450000
 -12.8585606  89.6762176 -27.3243937 -13.4629634  89.5739864 -25.6536517
 -13.0270000  87.7070000 -26.5580000 -13.6340000  86.7910000 -27.1120000
 -11.9000000  87.5010000 -25.8440000 -11.4565543  88.2749571 -25.3702431
 -11.3050000  86.2010000 -25.7270000 -11.1200463  85.8067780 -26.7262399
 -10.0090000  86.2080000 -24.9660000  -9.5867364  85.2033508 -24.9442327
  -9.0280000  87.1610000 -25.6700000  -9.4494008  88.1660116 -25.6917428
  -8.0825656  87.1756535 -25.1277471  -8.8559083  86.8175933 -26.6900769
 -10.2270000  86.6370000 -23.6310000  -9.3933676  86.6375580 -23.1549149
 -12.2620000  85.3100000 -24.9990000 -12.9640000  85.7260000 -24.0780000
 -12.3040000  84.0780000 -25.4330000 -12.0940000  83.8180000 -26.8500000
 -11.0421026  83.5746941 -26.9997146 -12.3389368  84.7247642 -27.4030675
 -13.0260000  82.6480000 -27.2010000 -12.5317150  81.9612226 -27.8881087
 -13.9449083  83.0177036 -27.6560034 -13.3150000  81.9770000 -25.8470000
 -12.5823185  81.2055780 -25.6099664 -14.3166905  81.5485094 -25.8136592
 -13.2050000  83.1230000 -24.8440000 -14.1853388  83.5917816 -24.7586895
 -12.7510000  82.6700000 -23.4940000 -11.5530000  82.7180000 -23.2160000
 -13.6980000  82.2220000 -22.6430000 -14.6660209  82.1769368 -22.9276123
 -13.3550000  81.7700000 -21.3270000 -12.2748103  81.7947726 -21.1832097
 -14.0190000  82.5840000 -20.2040000 -15.1015442  82.5609848 -20.3291735
 -13.7562232  82.1529441 -19.2379568 -13.6705702  83.6158842 -20.2477149
 -13.8310000  80.3580000 -21.1890000 -14.8520000  79.9740000 -21.7590000
 -13.0730000  79.5380000 -20.4310000 -12.2421273  79.8860883 -19.9742896
 -13.4360000  78.1660000 -20.2280000 -14.3675072  77.9102899 -20.7329811
 -12.3680000  77.2090000 -20.6770000 -11.4228648  77.4629569 -20.1970786
 -12.7740000  75.7790000 -20.2840000 -13.7188815  75.5241401 -20.7639441
 -12.0026974  75.0799421 -20.6072815 -12.8886465  75.7177460 -19.2017774
 -12.1540000  77.3990000 -22.1890000 -11.8433422  78.4249729 -22.3864167
 -11.3815226  76.7128309 -22.5362035 -13.0853407  77.1939721 -22.7168909
 -13.6410000  77.9610000 -18.7580000 -12.8200000  78.3790000 -17.9430000
 -14.7650000  77.3130000 -18.3860000 -15.4004684  76.9675745 -19.0909542
 -15.0680000  77.0470000 -17.0060000 -14.2246667  77.3748738 -16.3982280
 -16.3370000  77.7660000 -16.5150000 -16.2868516  78.8297481 -16.7474315
 -17.2290431  77.3366325 -16.9710731 -16.4360000  77.6020000 -15.0030000
 -15.4390000  77.3560000 -14.3250000 -17.6740000  77.7360000 -14.4570000
 -17.7959869  77.6368927 -13.4593043 -18.4660657  77.9340449 -15.0515678
 -15.3280000  75.5760000 -16.8910000 -15.9650000  74.9840000 -17.7610000
 -14.8300000  74.9420000 -15.8070000 -14.3364354  75.4451740 -15.0835988
 -15.0150000  73.5260000 -15.6470000 -15.5942980  73.1554703 -16.4927073
 -13.6890000  72.7470000 -15.5800000 -13.1163881  72.8729888 -16.4988807
 -13.0884082  73.0726923 -14.7306979 -13.9240000  70.9560000 -15.3740000
 -12.6305178  70.6468187 -15.3595460 -15.7390000  73.2830000 -14.3580000
 -15.5730000  74.0240000 -13.3900000 -16.5930000  72.2390000 -14.3310000
 -16.7184854  71.6435849 -15.1371226 -17.3050000  71.9150000 -13.1290000
 -16.8139974  72.3953035 -12.2826406 -18.7370000  72.3670000 -13.1730000
 -19.2682770  71.8364096 -13.9631385 -19.3950000  72.0600000 -11.8180000
 -18.8645161  72.5906473 -11.0273674 -20.4356498  72.3836945 -11.8372119
 -19.3520463  70.9876713 -11.6272993 -18.7990000  73.7610000 -13.4330000
 -19.7168598  74.0410665 -13.4593901 -17.3220000  70.4220000 -13.0040000
 -17.5520000  69.7110000 -13.9800000 -17.0620000  69.9020000 -11.7880000
 -16.8511965  70.4903908 -10.9946164 -17.1250000  68.4840000 -11.5850000
 -16.8902079  67.9342117 -12.4964300 -16.2260000  67.9960000 -10.4850000
 -16.3499709  66.9211307 -10.3531420 -14.7690000  68.3000000 -10.8710000
 -14.6441334  69.3747995 -11.0025875 -14.1031345  67.9513403 -10.0815952
 -14.5254091  67.7896697 -11.8028412 -16.6740000  68.6460000  -9.1660000
 -17.7061161  68.3663629  -8.9547146 -16.0318324  68.3029640  -8.3547992
 -16.6021764  69.7302361  -9.2518741 -18.5320000  68.1690000 -11.1820000
 -19.1450000  68.9220000 -10.4260000 -19.0970000  67.0630000 -11.7100000
 -18.5926275  66.4742069 -12.3573256 -20.4240000  66.6710000 -11.3250000
 -20.7470384  67.3290627 -10.5183409 -21.4590000  66.7420000 -12.4620000
 -20.9856982  66.1246255 -13.2255008 -22.4175994  66.3039101 -12.1840351
 -21.6850000  68.1610000 -13.0170000 -21.9066713  68.8274976 -12.1834872
 -20.4460000  68.6740000 -13.7670000 -20.2239667  68.0082238 -14.6009916
 -20.6395014  69.6776698 -14.1455564 -19.5943205  68.7005511 -13.0872666
 -22.9680000  68.2360000 -13.8580000 -23.8244053  67.9661601 -13.2400552
 -23.0975308  69.2507175 -14.2343927 -22.8938796  67.5444237 -14.6972422
 -20.3390000  65.2390000 -10.8990000 -19.8090000  64.3950000 -11.6190000
 -20.8670000  64.9410000  -9.7470000 -20.8540000  65.9260000  -8.6770000
 -21.7964612  66.4728553  -8.7055732 -20.0290566  66.6151102  -8.8578161
 -20.6750000  65.1260000  -7.3770000 -21.3022581  65.5396193  -6.5873385
 -19.6323169  65.1458249  -7.0599507 -21.1090000  63.6970000  -7.7490000
 -22.1773108  63.5440285  -7.5959940 -20.5512625  62.9437514  -7.1925424
 -20.7780000  63.5970000  -9.2370000 -19.7429259  63.2671066  -9.3258273
 -21.6670000  62.6530000  -9.9820000 -22.5320000  63.1110000 -10.7270000
 -21.4730000  61.3320000  -9.7860000 -20.7552804  61.0016130  -9.1568558
 -22.2810000  60.3610000 -10.4660000 -22.3332146  59.4407221  -9.8842257
 -23.2873627  60.7502317 -10.6203769 -21.6660000  60.0620000 -11.7950000
 -22.3680000  59.8310000 -12.7780000 -20.3210000  60.0660000 -11.8610000
 -19.7536339  60.2524699 -11.0464915 -19.6580000  59.8020000 -13.1060000
 -20.2820438  60.1339364 -13.9357510 -18.7038712  60.3281246 -13.1365044
 -19.4080000  58.3300000 -13.2420000 -19.2640000  57.6090000 -12.2570000
 -19.2830000  57.8710000 -14.5000000 -19.3406312  58.5386916 -15.2556229
 -19.0290000  56.4990000 -14.8240000 -19.5066715  55.8229520 -14.1148538
 -19.4680000  56.1530000 -16.2190000 -18.9473116  56.7796881 -16.9430483
 -19.1230000  54.6780000 -16.4770000 -19.6437220  54.0506146 -15.7535797
 -19.4327033  54.4028598 -17.4852075 -18.0475022  54.5327484 -16.3754834
 -20.9600000  56.4700000 -16.4120000 -21.5297720  55.7284252 -15.8520648
 -21.1435324  57.4598352 -15.9940986 -21.3960000  56.4470000 -17.8780000
 -21.2131910  55.4572774 -18.2964853 -22.4589875  56.6786232 -17.9451371
 -20.8269493  57.1886864 -18.4385198 -17.5500000  56.2690000 -14.7610000
 -16.7590000  57.1900000 -14.9670000 -17.1410000  55.0360000 -14.3880000
 -17.8093335  54.3185981 -14.1455869 -15.7480000  54.6960000 -14.3860000
 -15.1667402  55.6103205 -14.5053913 -15.3050000  53.9980000 -13.0900000
 -15.3928558  54.6974516 -12.2586468 -15.9483972  53.1369196 -12.9092223
 -13.9580000  53.5660000 -13.2040000 -13.6912557  53.1318499 -12.3903901
 -15.5350000  53.7160000 -15.5010000 -15.8490000  52.5360000 -15.3630000
 -14.9960000  54.1860000 -16.6480000 -14.7613493  55.1617466 -16.7618290
 -14.7370000  53.2930000 -17.7390000 -14.3108915  52.3508326 -17.3942518
 -15.9550000  52.9950000 -18.5650000 -16.7169735  52.5216527 -17.9457763
 -16.5020000  54.3180000 -19.1290000 -15.7406971  54.7917371 -19.7487516
 -17.3877694  54.1179333 -19.7318982 -16.7655706  54.9828589 -18.3064462
 -15.5780000  51.9710000 -19.6490000 -15.2188015  51.0566907 -19.1766473
 -16.4542070  51.7453023 -20.2568005 -14.7934407  52.3843004 -20.2828378
 -13.7170000  53.9230000 -18.6380000 -13.7320000  55.1320000 -18.8710000
 -12.8000000  53.0960000 -19.1810000 -12.8217912  52.1066487 -18.9789891
 -11.7990000  53.5830000 -20.0810000 -11.9113058  54.6640442 -20.1636434
 -10.3610000  53.2710000 -19.6300000  -9.6601151  53.7363296 -20.3230570
 -10.2044669  53.6750223 -18.6298183 -10.1470000  51.8680000 -19.6120000
  -9.2479072  51.6850543 -19.3295769 -12.0150000  52.8920000 -21.3970000
 -12.4270000  51.7340000 -21.4430000 -11.7360000  53.6110000 -22.5040000
 -11.4602588  54.5744964 -22.3785374 -11.8400000  53.1000000 -23.8460000
 -11.5288075  53.8792148 -24.5417605 -10.9640000  51.8560000 -24.0770000
 -11.2465746  51.0817721 -23.3636823 -11.1224449  51.4900067 -25.0914181
  -9.5930000  52.1840000 -23.9010000  -9.0555988  51.4020542 -24.0471525
 -13.2520000  52.7350000 -24.2060000 -13.4690000  51.8960000 -25.0770000
 -14.2570000  53.3840000 -23.5890000 -14.0818978  54.0995374 -22.8980262
 -15.6220000  53.0610000 -23.9050000 -15.7318868  51.9769287 -23.9335212
 -16.6380000  53.6320000 -22.9000000 -16.5463563  54.7176396 -22.8670123
 -17.6475322  53.3623724 -23.2102353 -16.4407493  53.2209933 -21.9099167
 -15.9590000  53.6140000 -25.2590000 -15.2650000  54.4840000 -25.7860000
 -17.0450000  53.0900000 -25.8640000 -17.5948187  52.3965789 -25.3772086
 -17.4810000  53.5140000 -27.1660000 -16.7725956  54.2139717 -27.6090598
 -17.7180000  52.3740000 -28.1150000 -18.4205178  51.6626714 -27.6807412
 -18.3080000  52.9490000 -29.4130000 -17.6057992  53.6601173 -29.8481171
 -18.4895347  52.1395197 -30.1200273 -19.2475704  53.4556194 -29.1924475
 -16.4240000  51.5750000 -28.3350000 -15.7454258  52.2003482 -28.9151530
 -15.9879885  51.3780983 -27.3556006 -16.6490000  50.2530000 -29.0670000
 -17.0845936  50.4491358 -30.0467392 -15.6960056  49.7384549 -29.1900617
 -17.3271586  49.6268865 -28.4871874 -18.7910000  54.2140000 -26.9790000
 -19.6040000  53.8160000 -26.1450000 -19.0150000  55.3110000 -27.7350000
 -18.3492562  55.6035824 -28.4359138 -20.2180000  56.0790000 -27.5760000
 -20.8386321  55.6076011 -26.8139646 -19.9350000  57.5300000 -27.1510000
 -19.4536465  57.3855341 -26.1837732 -19.2462521  58.0367881 -27.8269380
 -21.2000000  58.3870000 -26.9710000 -21.7579785  58.3825834 -27.9073447
 -22.0890000  57.8420000 -25.8430000 -21.5318212  57.8465428 -24.9061809
 -22.9741721  58.4699446 -25.7417252 -22.3927114  56.8222455 -26.0795599
 -20.8450000  59.8730000 -26.7920000 -20.3078769  60.2273106 -27.6718081
 -21.7593621  60.4530438 -26.6671307 -20.2158531  59.9931081 -25.9100435
 -20.9610000  56.1410000 -28.8780000 -20.3610000  56.2850000 -29.9420000
 -22.3040000  56.0210000 -28.8120000 -22.7518463  55.8770634 -27.9182353
 -23.1340000  56.1090000 -29.9850000 -22.5736657  56.5744702 -30.7958404
 -23.6400000  54.7760000 -30.4550000 -22.7987420  54.1044042 -30.6263019
 -24.5620000  54.1780000 -29.3800000 -25.4037966  54.8488632 -29.2084757
 -24.9324803  53.2095724 -29.7161419 -24.0043803  54.0509619 -28.4520872
 -24.3380000  54.9190000 -31.6840000 -24.6559254  54.0605739 -31.9731856
 -24.3230000  56.9570000 -29.6410000 -24.6630000  57.1090000 -28.4680000
 -24.9840000  57.5480000 -30.6630000 -24.6920623  57.4220024 -31.6216430
 -26.1240000  58.3840000 -30.4020000 -26.2009761  58.5446281 -29.3266524
 -26.0270000  59.7550000 -31.0990000 -25.1074631  60.2246264 -30.7497119
 -25.9523051  59.5626992 -32.1692995 -27.2100000  60.6880000 -30.8300000
 -28.1075266  60.3188538 -31.3262640 -27.4037210  60.7955524 -29.7627574
 -26.8650000  62.0580000 -31.4030000 -25.7160000  62.3250000 -31.7490000
 -27.8820000  62.9570000 -31.4930000 -27.7054618  63.8789297 -31.8658019
 -28.8090409  62.6984935 -31.1866162 -27.3500000  57.6740000 -30.8980000
 -27.5020000  57.4380000 -32.0960000 -28.2310000  57.2560000 -29.9600000
 -28.0247909  57.3887944 -28.9802333 -29.4520000  56.5820000 -30.3150000
 -29.2418444  55.8365974 -31.0820129 -30.1000000  55.8980000 -29.1460000
 -31.0223980  55.4124961 -29.4646975 -29.1280000  54.8400000 -28.5940000
 -28.2054817  55.3248447 -28.2746488 -29.5852902  54.3342775 -27.7435709
 -28.9038743  54.1105340 -29.3722979 -30.4180000  56.8420000 -28.1360000
 -30.8310941  56.3915980 -27.3956679 -30.4410000  57.5350000 -30.9110000
 -31.0210000  57.2720000 -31.9630000 -30.6500000  58.6860000 -30.2460000
 -30.1154162  58.8992428 -29.4160319 -31.5900000  59.6590000 -30.7170000
 -31.7042637  59.5360026 -31.7939933 -32.9760000  59.5300000 -30.0570000
 -33.2489880  58.4820851 -29.9326974 -32.9731398  60.0220129 -29.0843669
 -34.0200000  60.2040000 -30.9410000 -33.6950000  60.9610000 -31.8540000
 -35.3200000  59.9110000 -30.6660000 -36.0560539  60.3275996 -31.2180591
 -35.5430598  59.2782296 -29.9110518 -31.0010000  60.9690000 -30.3190000
 -29.9840000  61.0080000 -29.6290000 -31.6020000  62.0870000 -30.7540000
 -32.4277982  62.0963313 -31.3354375 -31.0230000  63.3380000 -30.3800000
 -29.9680577  63.3207629 -30.6536767 -31.6870000  64.5520000 -31.0560000
 -31.2033976  65.4771140 -30.7423248 -31.6389355  64.4675042 -32.1416566
 -33.1500000  64.6010000 -30.6360000 -33.7920000  63.5700000 -30.4500000
 -33.6920000  65.8400000 -30.4870000 -34.6585704  65.9350302 -30.2098524
 -33.1253475  66.6591752 -30.6542058 -31.1530000  63.4840000 -28.8990000
 -32.1790000  63.1410000 -28.3130000 -30.0820000  64.0000000 -28.2660000
 -29.2513019  64.1906689 -28.8079275 -30.0540000  64.2760000 -26.8580000
 -29.1776492  64.8764351 -26.6138971 -31.3140000  65.0550000 -26.4450000
 -31.4647426  65.8800973 -27.1411252 -32.1754204  64.3880887 -26.4808360
 -31.1570000  65.6020000 -25.0400000 -30.0850000  66.1880000 -24.7340000
 -32.1230000  65.4320000 -24.2510000 -29.9810000  63.0190000 -26.0310000
 -30.0570000  63.0950000 -24.8040000 -29.7940000  61.8300000 -26.6470000
 -29.7699256  61.7322379 -27.6519688 -29.6300000  60.6460000 -25.8410000
 -29.3307047  60.9650454 -24.8426356 -30.8910000  59.7670000 -25.7200000
 -30.6378516  58.9464039 -25.0487049 -31.6619296  60.3862486 -25.2614165
 -31.4110000  59.2020000 -27.0410000 -31.7750727  60.0016472 -27.6860707
 -30.6215109  58.6529331 -27.5541586 -32.5570000  58.2540000 -26.7120000
 -32.4070000  57.4640000 -25.7410000 -33.5980000  58.3080000 -27.4200000
 -28.5430000  59.8190000 -26.4630000 -28.5120000  59.6380000 -27.6800000
 -27.6160000  59.2920000 -25.6300000 -27.7240724  59.3715910 -24.6289581
 -26.5090000  58.5250000 -26.1380000 -26.6985355  58.3078973 -27.1892097
 -25.1520000  59.2470000 -26.0210000 -24.8926295  59.4628968 -24.9845567
 -24.3521636  58.6674871 -26.4820061 -25.1940000  60.5570000 -26.7320000
 -25.6270000  61.6860000 -26.0740000 -25.9413874  61.6061959 -25.0333791
 -25.6660000  62.9020000 -26.7120000 -26.0093521  63.7874744 -26.1770746
 -25.2720000  63.0020000 -28.0250000 -25.3040647  63.9631974 -28.5380023
 -24.8360000  61.8820000 -28.6910000 -24.5199937  61.9567854 -29.7315034
 -24.7980000  60.6670000 -28.0460000 -24.4518643  59.7794104 -28.5755985
 -26.3600000  57.2990000 -25.2820000 -26.8430000  57.2540000 -24.1510000
 -25.6830000  56.2570000 -25.8180000 -25.3060145  56.3205356 -26.7528500
 -25.4430000  55.0540000 -25.0660000 -25.8182997  55.1285201 -24.0453649
 -26.0310000  53.8300000 -25.7050000 -25.6359820  53.7123236 -26.7140650
 -25.6520000  52.6040000 -24.8610000 -26.0470971  52.7207447 -23.8518569
 -26.0729302  51.7063049 -25.3138375 -24.5666217  52.5136546 -24.8174884
 -27.5470000  54.0380000 -25.8620000 -27.7315648  54.9092356 -26.4904795
 -27.9891929  53.1560846 -26.3254548 -27.9960155  54.1962828 -24.8814734
 -23.9550000  54.8440000 -25.0030000 -23.2490000  55.0660000 -25.9860000
 -23.4380000  54.4260000 -23.8240000 -24.0455666  54.2690300 -23.0325945
 -22.0320000  54.1540000 -23.6700000 -21.5101892  54.3617173 -24.6041660
 -21.3510000  54.8870000 -22.5400000 -21.9093737  54.7645104 -21.6119291
 -19.9500000  54.2760000 -22.3790000 -19.3908246  54.3985265 -23.3065833
 -19.4238254  54.7807712 -21.5687858 -20.0403140  53.2147504 -22.1472851
 -21.3130000  56.4110000 -22.7640000 -20.5100433  56.7998775 -22.1377927
 -21.0629060  56.5673895 -23.8133306 -22.6110000  57.1410000 -22.4370000
 -22.8615154  56.9854464 -21.3876454 -22.4863761  58.2072188 -22.6260650
 -23.4143790  56.7529564 -23.0631823 -21.8840000  52.6930000 -23.3640000
 -22.4310000  52.2000000 -22.3780000 -21.1220000  51.9600000 -24.2040000
 -20.6249597  52.3917436 -24.9699293 -20.9640000  50.5470000 -24.0000000
 -21.2557544  50.2452938 -22.9940418 -21.7330000  49.7190000 -24.9920000
 -21.5710957  48.6589706 -24.7964906 -23.2280000  50.0440000 -24.8460000
 -23.3907654  51.1038392 -25.0418297 -23.8005832  49.4511300 -25.5592700
 -23.5544664  49.8078611 -23.8332020 -21.1730000  49.9850000 -26.4000000
 -20.1183428  49.7112994 -26.4298024 -21.7230606  49.3896982 -27.1287995
 -21.2802654  51.0427360 -26.6403945 -19.5210000  50.1820000 -24.1800000
 -18.7550000  50.8940000 -24.8280000 -19.1080000  49.0540000 -23.5670000
 -19.7325821  48.5501473 -22.9537065 -17.7820000  48.5370000 -23.7630000
 -17.7665558  47.4780760 -23.5050454 -17.4983682  48.6599765 -24.8082412
 -16.7990000  49.2600000 -22.9050000 -17.1580000  50.0500000 -22.0340000
 -15.5040000  48.9830000 -23.1540000 -15.2657960  48.3150718 -23.8731871
 -14.4390000  49.6080000 -22.4280000 -13.5654137  49.7217761 -23.0698732
 -14.7555649  50.5873376 -22.0691353 -14.0740000  48.7560000 -21.2570000
 -14.5690000  47.6400000 -21.1030000 -13.1770000  49.2800000 -20.3930000
 -12.8518524  50.2326776 -20.4753633 -12.6970000  48.4900000 -19.2960000
 -13.2336678  47.5413169 -19.2866605 -11.1900000  48.2010000 -19.3900000
 -10.6333364  49.1381357 -19.3887189 -10.8723309  47.5891525 -18.5457080
 -10.9260000  47.4680000 -20.6620000 -11.0480000  46.0990000 -20.7310000
 -11.3442182  45.5405288 -19.8430450 -10.7990000  45.4350000 -21.9100000
 -10.8976284  44.3504040 -21.9550083 -10.4250000  46.1380000 -23.0300000
 -10.1700000  45.4580000 -24.2400000 -10.2876452  44.5079339 -24.1683504
 -10.3010000  47.5040000 -22.9700000 -10.0056344  48.0657831 -23.8561487
 -10.5500000  48.1630000 -21.7900000 -10.4505922  49.2472979 -21.7398374
 -12.8900000  49.2210000 -17.9990000 -12.6480000  50.4240000 -17.9090000
 -13.4320000  48.5070000 -16.9860000 -13.7643391  47.5770454 -17.1977415
 -13.5460000  48.9800000 -15.6330000 -13.8693053  50.0208489 -15.6473703
 -14.5610000  48.1610000 -14.8160000 -14.2404899  47.1194599 -14.8398055
 -14.5305652  48.5266011 -13.7895939 -15.9910000  48.2670000 -15.3530000
 -16.3414832  49.2988638 -15.3302094 -16.0443526  47.8881665 -16.3736570
 -16.9030000  47.4240000 -14.4730000 -18.0950000  47.2880000 -14.7450000
 -16.3330000  46.8330000 -13.3890000 -16.8961190  46.2633322 -12.7737951
 -15.3490916  46.9663738 -13.2039676 -12.2100000  48.8550000 -14.9560000
 -11.7920000  49.7270000 -14.1980000 -11.5200000  47.7270000 -15.2100000
 -11.8912489  47.0654749 -15.8768269 -10.2470000  47.4440000 -14.6060000
  -9.8432980  48.3700291 -14.1966176 -10.3380000  46.4050000 -13.4750000
 -10.8412341  45.5706868 -13.9636473  -9.3556275  46.0837236 -13.1288413
 -11.1770000  46.8770000 -12.2720000 -12.1870347  47.0962892 -12.6181833
 -11.2340000  45.8030000 -11.1740000 -10.2243036  45.5835006 -10.8269670
 -11.8332986  46.1671982 -10.3395531 -11.6848782  44.8955576 -11.5756935
 -10.6780000  48.2330000 -11.7440000 -10.7518166  48.9805027 -12.5338673
 -11.2892067  48.5402742 -10.8954069  -9.6389064  48.1403855 -11.4280792
  -9.3970000  46.8640000 -15.6870000  -9.8930000  46.5560000 -16.7690000
  -8.0830000  46.6980000 -15.4340000  -7.6533596  46.9050198 -14.5436903
  -7.2600000  46.1610000 -16.4770000  -7.3034868  46.8359436 -17.3317861
  -5.7900000  45.9880000 -16.0620000  -5.4098217  46.9683098 -15.7746736
  -5.7659984  45.3223864 -15.1991660  -4.9160000  45.4090000 -17.1770000
  -3.9548592  45.0893856 -16.7743142  -5.4159677  44.5586300 -17.6406834
  -4.6930000  46.4960000 -18.2190000  -3.8690000  47.4090000 -17.9490000
  -5.3400000  46.4300000 -19.2990000  -7.7850000  44.8010000 -16.8150000
  -7.9400000  44.4540000 -17.9850000  -8.0510000  43.9900000 -15.7770000
  -7.8216408  44.3242229 -14.8519115  -8.5620000  42.6560000 -15.9110000
  -8.0948428  42.1875897 -16.7772881  -8.2820000  41.7870000 -14.6710000
  -8.7298825  40.8003936 -14.7897785  -7.2090962  41.6814284 -14.5102761
  -8.8930000  42.4540000 -13.4490000  -8.6120000  43.6160000 -13.1580000
  -9.7510000  41.7020000 -12.7080000 -10.1841415  42.0980755 -11.8860435
  -9.9509986  40.7510054 -12.9831556 -10.0330000  42.6140000 -16.2100000
 -10.4900000  41.6590000 -16.8330000 -10.8300000  43.6130000 -15.7650000
 -10.4852999  44.4492122 -15.3155222 -12.2540000  43.4460000 -15.8960000
 -12.4617619  42.4427788 -16.2681308 -12.9820000  43.6330000 -14.5540000
 -12.4552029  43.0246474 -13.8188189 -12.8904994  44.6856743 -14.2864099
 -14.4580000  43.2400000 -14.5760000 -15.0198316  43.8550044 -15.2790048
 -14.5878231  42.1879935 -14.8300283 -15.0090000  43.4740000 -13.1770000
 -14.3510000  44.0810000 -12.3330000 -16.2480000  42.9770000 -12.9220000
 -16.6616908  43.1039294 -12.0093937 -16.7494887  42.4829668 -13.6462525
 -12.8510000  44.3940000 -16.8960000 -12.6340000  45.6040000 -16.8490000
 -13.6500000  43.8380000 -17.8360000 -13.8025583  42.8396483 -17.8250813
 -14.3000000  44.6150000 -18.8540000 -13.6421625  45.4465398 -19.1067658
 -14.6290000  43.8390000 -20.1420000 -15.2058846  42.9603476 -19.8534286
 -15.2443366  44.4886753 -20.7644009 -13.3930000  43.4010000 -20.9290000
 -12.8545258  44.3034656 -21.2183134 -12.7725016  42.8079371 -20.2571666
 -13.7200000  42.5810000 -22.1770000 -14.2602220  43.2346418 -22.8618442
 -12.7726871  42.2860409 -22.6283279 -14.5590000  41.3350000 -21.8940000
 -14.4225513  40.6184487 -22.7039608 -14.2326027  40.8877601 -20.9550961
 -15.9880000  41.7000000 -21.7950000 -16.2907572  42.1140476 -22.6650589
 -16.5348556  40.8716892 -21.6080501 -16.1147171  42.3636412 -21.0442523
 -15.5970000  45.1330000 -18.3100000 -16.1820000  44.5430000 -17.4040000
 -16.0780000  46.2690000 -18.8610000 -15.5955275  46.7181841 -19.6262145
 -17.3030000  46.8550000 -18.3900000 -17.4306921  46.5947320 -17.3392600
 -17.3250000  48.3870000 -18.5230000 -16.4831474  48.7719708 -17.9475168
 -17.1804136  48.6204216 -19.5778503 -18.6190000  49.0370000 -18.0300000
 -19.4517088  48.5187333 -18.5054962 -18.6710863  48.8935481 -16.9507361
 -18.6990000  50.5310000 -18.3500000 -17.9067811  51.0809973 -17.8420718
 -18.6293298  50.7034713 -19.4240108 -20.0170000  51.0380000 -17.8690000
 -20.8220269  51.0616580 -18.4784845 -20.1600000  51.4750000 -16.5840000
 -19.0960000  51.4420000 -15.7300000 -18.2044009  51.0936403 -16.0521748
 -19.2049292  51.7660831 -14.7796294 -21.3650000  51.9520000 -16.1550000
 -22.1489651  51.9802134 -16.7911626 -21.4671638  52.2745628 -15.2033622
 -18.4200000  46.3090000 -19.2250000 -18.6460000  46.7310000 -20.3590000
 -19.1280000  45.3080000 -18.6710000 -18.8448291  44.9899120 -17.7551760
 -20.2200000  44.6380000 -19.3160000 -19.9433308  44.4280455 -20.3491856
 -20.5840000  43.3150000 -18.6270000 -20.9632611  43.5402012 -17.6302329
 -21.3648784  42.8275892 -19.2107462 -19.3750000  42.3830000 -18.5140000
 -18.7301748  42.7829882 -17.7314971 -19.7480075  41.4044115 -18.2117881
 -18.4150000  42.2090000 -20.0490000 -19.7670000  41.5110000 -21.0370000
 -20.5943146  42.2197332 -21.0736986 -19.4135832  41.3131522 -22.0489553
 -20.1065698  40.5801418 -20.5828012 -21.4540000  45.4940000 -19.3780000
 -22.2290000  45.4030000 -20.3290000 -21.6790000  46.3320000 -18.3470000
 -20.9888303  46.4078159 -17.6135035 -22.8830000  47.1140000 -18.2350000
 -23.7702072  46.5190652 -18.4518298 -23.0530000  47.7560000 -16.8870000
 -23.9486443  48.3771764 -16.8792335 -23.1920000  46.6440000 -15.8350000
 -22.2964734  46.0226417 -15.8418536 -23.3165314  47.0900984 -14.8482941
 -24.0617074  46.0295672 -16.0677725 -21.8650000  48.7010000 -16.6420000
 -21.8429545  49.4664361 -17.4177085 -21.9728309  49.1757623 -15.6667703
 -20.9358763  48.1316368 -16.6676041 -22.8990000  48.2010000 -19.2640000
 -21.8740000  48.5360000 -19.8520000 -24.1080000  48.7340000 -19.5510000
 -24.9379806  48.3950238 -19.0858908 -24.2480000  49.8010000 -20.5010000
 -23.2538219  50.0965634 -20.8361887 -25.0860000  49.4120000 -21.7310000
 -26.0653809  49.0314020 -21.4410734 -25.2109877  50.2552775 -22.4102357
 -24.3000000  48.0920000 -22.7050000 -25.2497067  48.0198899 -23.6333079
 -24.9440000  50.9410000 -19.8200000 -25.7540000  50.7360000 -18.9170000
 -24.6420000  52.1870000 -20.2450000 -24.0184489  52.3411624 -21.0244340
 -25.2220000  53.3300000 -19.6020000 -25.9460452  52.9836972 -18.8644825
 -24.1800000  54.2100000 -18.8920000 -23.4503599  54.5619596 -19.6212797
 -24.6812139  55.0651156 -18.4385004 -23.5170000  53.4600000 -17.8830000
 -22.8686542  54.0161517 -17.4448871 -25.8950000  54.1800000 -20.6370000
 -25.5000000  54.1980000 -21.8020000 -26.9610000  54.8970000 -20.2140000
 -27.2480772  54.8421322 -19.2472138 -27.6890000  55.7700000 -21.0920000
 -27.2846997  55.6625960 -22.0985311 -29.1980000  55.4670000 -21.1330000
 -29.2087693  54.4542286 -21.5358366 -29.6535462  55.4684501 -20.1427599
 -29.9950000  56.3990000 -22.0660000 -29.8414414  57.4275929 -21.7396303
 -29.5440000  56.2530000 -23.5300000 -29.6976966  55.2247077 -23.8572478
 -30.1275276  56.9250578 -24.1592334 -28.4868642  56.5056708 -23.6119862
 -31.5080000  56.2080000 -21.8860000 -31.7829416  56.4320049 -20.8553069
 -32.0420379  56.8796756 -22.5581285 -31.7745100  55.1765503 -22.1166142
 -27.5260000  57.1660000 -20.5750000 -27.6390000  57.4120000 -19.3750000
 -27.2360000  58.1250000 -21.4800000 -27.1358900  57.9266314 -22.4652549
 -27.0700000  59.4790000 -21.0390000 -27.1899600  59.5651337 -19.9590510
 -25.7500000  60.0830000 -21.4250000 -25.7225683  61.1325910 -21.1322452
 -24.6290000  59.3200000 -20.7010000 -24.6555043  58.2703484 -20.9936259
 -23.6638164  59.7479231 -20.9719297 -24.7716689  59.3999282 -19.6233365
 -25.6310000  60.0570000 -22.9580000 -26.4458287  60.6334456 -23.3960259
 -24.6772912  60.4923469 -23.2563491 -25.6854174  59.0267511 -23.3097481
 -28.1430000  60.3160000 -21.6540000 -28.4010000  60.2520000 -22.8570000
 -28.8080000  61.1280000 -20.8080000 -28.5559128  61.1421710 -19.8300682
 -29.8310000  62.0220000 -21.2580000 -30.0216375  61.8228023 -22.3125505
 -31.1530000  61.8760000 -20.4830000 -30.9683073  62.0425652 -19.4217536
 -31.8671556  62.6145059 -20.8472677 -31.6830000  60.5720000 -20.6720000
 -32.5067883  60.4879246 -20.1863004 -29.2980000  63.3870000 -20.9900000
 -28.7350000  63.6470000 -19.9280000 -29.4540000  64.3040000 -21.9600000
 -29.9584634  64.1209984 -22.8156439 -28.8870000  65.6030000 -21.7720000
 -28.2795843  65.5880351 -20.8670572 -28.0050000  66.0500000 -22.9480000
 -28.6901333  65.9728684 -23.7922407 -27.6634274  67.0805357 -22.8509210
 -26.7950000  65.1290000 -23.1840000 -27.1598358  64.1223278 -23.3879773
 -25.9450000  65.6150000 -24.3680000 -25.5794009  66.6214990 -24.1645404
 -25.0983986  64.9429143 -24.5082415 -26.5533138  65.6258690 -25.2723984
 -25.9710000  64.9440000 -21.9000000 -26.5974050  64.4996206 -21.1265382
 -25.1242719  64.2881099 -22.1023883 -25.6060698  65.9128716 -21.5591000
 -29.9880000  66.5960000 -21.6300000 -31.0720000  66.4580000 -22.1870000
 -29.7220000  67.6280000 -20.8250000 -28.8401790  67.6271062 -20.3325671
 -30.6090000  68.7270000 -20.6220000 -31.4749245  68.7116503 -21.2838446
 -30.9432993  68.8277437 -19.5894333 -29.7570000  69.8900000 -20.9690000
 -28.5370000  69.7450000 -21.0380000 -30.3620000  71.0680000 -21.1990000
 -31.3563358  71.2178730 -21.1044818 -29.5410000  72.1790000 -21.5700000
 -29.0267141  71.9325804 -22.4989169 -30.3380000  73.4790000 -21.7790000
 -30.9736957  73.6631393 -20.9129267 -29.6616671  74.3223348 -21.9184996
 -31.2070000  73.3140000 -23.0210000 -31.3030000  72.1680000 -23.5350000
 -31.7810000  74.3370000 -23.4790000 -28.5830000  72.4010000 -20.4420000
 -27.3880000  72.5930000 -20.6530000 -29.1140000  72.4220000 -19.2100000
 -30.1204150  72.3851968 -19.1333594 -28.3450000  72.5560000 -18.0070000
 -27.4407757  73.1231367 -18.2279830 -29.1190000  73.2800000 -16.8970000
 -30.1188811  72.8650839 -16.7697927 -28.5897212  73.2496382 -15.9446124
 -29.2470000  74.7310000 -17.3360000 -28.4540000  75.2190000 -18.1400000
 -30.2690000  75.4410000 -16.7910000 -30.4004540  76.4090281 -17.0474007
 -30.8927551  74.9976266 -16.1318715 -27.8450000  71.2540000 -17.4370000
 -26.8230000  71.2520000 -16.7540000 -28.5400000  70.1130000 -17.6530000
 -29.3118922  70.0279494 -18.2987927 -28.1670000  68.9550000 -16.8760000
 -27.2863162  69.1733856 -16.2720108 -29.2730000  68.5030000 -15.9660000
 -29.5927461  69.3297711 -15.3317191 -30.4570000  68.0300000 -16.8270000
 -30.1381214  67.2028779 -17.4612595 -31.2684669  67.6984890 -16.1791412
 -30.8044604  68.8530393 -17.4514823 -28.8230000  67.4590000 -15.1160000
 -29.5407532  67.1820880 -14.5417611 -27.7730000  67.7750000 -17.7190000
 -27.9540000  67.7620000 -18.9310000 -27.1550000  66.7580000 -17.0720000
 -26.9795205  66.8488250 -16.0815167 -26.7600000  65.5380000 -17.7260000
 -27.2553323  65.4019152 -18.6873667 -25.2710000  65.4250000 -17.9090000
 -24.9047321  66.2557104 -18.5122150 -24.6080000  65.4670000 -16.5240000
 -24.9734497  64.6362632 -15.9203250 -23.5267375  65.3862833 -16.6356110
 -24.8526818  66.4082978 -16.0318736 -24.9150000  64.1820000 -18.7420000
 -25.1419338  63.3052664 -18.1354194 -25.5526903  64.1865312 -19.6259853
 -23.4490000  64.1380000 -19.1720000 -22.8106651  64.1329764 -18.2884825
 -23.2679242  63.2353596 -19.7555675 -23.2214210  65.0142430 -19.7790469
 -27.2000000  64.3920000 -16.8570000 -27.0060000  64.4220000 -15.6410000
 -27.8070000  63.3430000 -17.4570000 -27.9357163  63.2971488 -18.4577143
 -28.2610000  62.2360000 -16.6600000 -27.9765700  62.4287438 -15.6255685
 -29.7770000  61.9990000 -16.7160000 -30.2796720  62.8988678 -16.3615173
 -30.0581757  61.8106180 -17.7521238 -30.1930000  60.8090000 -15.8510000
 -29.7013757  59.9033828 -16.2063363 -29.9234577  60.9832890 -14.8093333
 -31.6950000  60.6450000 -15.9630000 -32.3440000  61.5460000 -16.5560000
 -32.2130000  59.6180000 -15.4500000 -27.6310000  60.9690000 -17.1520000
 -27.5940000  60.6980000 -18.3510000 -27.1200000  60.1500000 -16.2100000
 -27.1642463  60.4020312 -15.2329525 -26.5230000  58.8940000 -16.5620000
 -26.5788348  58.7142573 -17.6356267 -25.0950000  58.7750000 -16.1080000
 -25.0225233  58.9935395 -15.0425949 -24.6210000  57.3360000 -16.3690000
 -24.6927537  57.1168657 -17.4343320 -23.5855000  57.2297195 -16.0456658
 -25.2482017  56.6397093 -15.8123165 -24.2320000  59.8440000 -16.8030000
 -24.1401226  59.5538653 -17.8496524 -24.7714787  60.7886443 -16.7343741
 -22.8390000  60.0080000 -16.1960000 -22.2987119  59.0638227 -16.2646859
 -22.2933245  60.7787067 -16.7403791 -22.9300682  60.2985996 -15.1494063
 -27.3220000  57.8280000 -15.8800000 -27.4580000  57.8290000 -14.6580000
 -27.8810000  56.8810000 -16.6590000 -27.7756015  56.8615535 -17.6632969
 -28.7000000  55.8790000 -16.0420000 -28.5223378  55.8912768 -14.9666467
 -30.1980000  56.1120000 -16.2950000 -30.7594754  55.2367311 -15.9682753
 -30.5274067  56.9852901 -15.7320118 -30.4240000  56.3290000 -17.6790000
 -31.3606827  56.4739105 -17.8314018 -28.3180000  54.5240000 -16.5460000
 -27.9520000  54.3480000 -17.7070000 -28.3860000  53.5150000 -15.6550000
 -28.6546666  53.6535905 -14.6913038 -28.0290000  52.1940000 -16.0770000
 -27.1504661  52.2849035 -16.7157596 -27.7140000  51.2010000 -14.9470000
 -26.8974041  51.6053415 -14.3488542 -28.6016501  51.0934397 -14.3236155
 -27.3110000  49.8320000 -15.5010000 -28.1996377  49.3007198 -15.8418302
 -26.6201305  49.9557960 -16.3349503 -26.6360000  49.0340000 -14.3990000
 -25.7700000  49.6180000 -13.6950000 -26.9730000  47.8290000 -14.2500000
 -29.1500000  51.6390000 -16.8870000 -30.3180000  51.9460000 -16.6580000
 -28.7990000  50.8060000 -17.8850000 -27.8283224  50.5801936 -18.0489995
 -29.7860000  50.2090000 -18.7300000 -30.7678280  50.4308910 -18.3118165
 -29.7470000  50.7080000 -20.1840000 -30.5814751  50.2424367 -20.7084058
 -29.8911621  51.7881449 -20.1594169 -28.4440000  50.3850000 -20.9130000
 -27.6423006  50.9147420 -20.3984592 -28.2810144  49.3105090 -20.8292928
 -28.4400000  50.8550000 -22.6690000 -28.4770000  52.6450000 -22.3590000
 -27.5968578  52.9329714 -21.7840903 -28.4802530  53.1788545 -23.3093102
 -29.3761189  52.8984917 -21.7973699 -29.5270000  48.7390000 -18.7400000
 -28.5170000  48.2700000 -18.2170000 -30.4580000  47.9580000 -19.3210000
 -31.3058991  48.3315958 -19.7229858 -30.2860000  46.5360000 -19.2990000
 -29.9956578  46.2500266 -18.2880500 -31.5420000  45.7390000 -19.6940000
 -31.2745420  44.6836868 -19.6403389 -32.3025658  45.9590747 -18.9448627
 -32.0910000  46.0550000 -21.0850000 -32.3779611  47.1042443 -21.1545738
 -31.3526072  45.8290276 -21.8542930 -33.3190000  45.1790000 -21.2880000
 -33.6620000  44.4170000 -20.3440000 -33.9290000  45.2560000 -22.3880000
 -29.1470000  46.1520000 -20.1830000 -28.9750000  46.6770000 -21.2830000
 -28.3340000  45.1920000 -19.7020000 -28.5297181  44.7507816 -18.8148021
 -27.1770000  44.7670000 -20.4310000 -26.6755781  45.6459826 -20.8360493
 -26.1930000  43.9920000 -19.6040000 -25.3092684  43.7595414 -20.1982068
 -25.7860000  44.8510000 -18.3950000 -26.6692036  45.0834883 -17.8000208
 -25.0704416  44.3019468 -17.7829412 -25.3294856  45.7772469 -18.7439439
 -26.7720000  42.7720000 -19.1640000 -26.1332651  42.2864597 -18.6368675
 -27.6230000  43.8850000 -21.5530000 -28.7090000  43.3070000 -21.5360000
 -26.7860000  43.8140000 -22.5500000 -26.0050000  44.9890000 -22.9040000
 -25.0204169  44.8943607 -22.4460265 -26.5093990  45.8674892 -22.5015855
 -25.9430000  45.0010000 -24.4390000 -24.9613036  45.3316238 -24.7782037
 -26.7088300  45.6613349 -24.8458950 -26.2110000  43.5410000 -24.8350000
 -25.2760580  42.9824327 -24.8795545 -26.7357197  43.4465549 -25.7857097
 -27.0840000  43.0030000 -23.7020000 -28.1338511  43.1400001 -23.9611176
 -26.8230000  41.5550000 -23.4300000 -26.1750000  41.2410000 -22.4340000
 -27.3200000  40.6610000 -24.3070000 -27.8238555  40.9785206 -25.1227265
 -27.1150000  39.2490000 -24.1400000 -27.1552769  39.0123244 -23.0767683
 -28.1760000  38.4070000 -24.8720000 -29.1736693  38.7538534 -24.6028386
 -28.0371738  38.5018782 -25.9489519 -28.0200000  36.9470000 -24.4670000
 -27.2700000  36.6770000 -23.4920000 -28.6540000  36.0820000 -25.1280000
 -25.7860000  38.9180000 -24.7450000 -25.7000000  38.4640000 -25.8860000
 -24.7020000  39.1100000 -23.9690000 -24.7976729  39.3865494 -23.0023219
 -23.3820000  38.8820000 -24.4840000 -23.3058436  39.3790777 -25.4510642
 -22.2570000  39.4050000 -23.5720000 -22.3286401  38.8981742 -22.6096620
 -21.2855124  39.1967834 -24.0202830 -22.2910000  40.8890000 -23.2830000
 -22.5230000  41.5170000 -22.0930000 -22.7123593  40.8817800 -21.2277033
 -22.4630000  42.8790000 -22.2600000 -22.5902034  43.5720161 -21.5363651
 -22.2060000  43.1460000 -23.5880000 -22.0680000  44.3310000 -24.2530000
 -22.1638878  45.2598880 -23.6907978 -21.8140000  44.2720000 -25.6050000
 -21.6956542  45.1967366 -26.1697623 -21.7050000  43.0660000 -26.2660000
 -21.5046547  43.0343642 -27.3369624 -21.8450000  41.8680000 -25.5980000
 -21.7530002  40.9291071 -26.1440009 -22.0960000  41.9270000 -24.2570000
 -23.1720000  37.4050000 -24.6010000 -23.7400000  36.6200000 -23.8440000
 -22.3510000  36.9880000 -25.5870000 -21.9074405  37.6462627 -26.2115354
 -22.0630000  35.5940000 -25.7530000 -22.9550910  35.0252496 -25.4907106
 -21.6450000  35.2160000 -27.1440000 -21.5547663  34.1327981 -27.2254363
 -22.7180000  35.7160000 -28.1260000 -22.8084816  36.7992483 -28.0454653
 -22.4318798  35.4504835 -29.1437109 -23.6751367  35.2531138 -27.8857372
 -20.3900000  35.7990000 -27.4600000 -20.1362350  35.5486496 -28.3513632
 -20.9230000  35.2740000 -24.8410000 -20.3110000  36.1620000 -24.2510000
 -20.6140000  33.9740000 -24.7040000 -21.1089615  33.2788076 -25.2442036
 -19.5820000  33.5340000 -23.8140000 -19.7959106  33.9098835 -22.8134736
 -19.4770000  32.0010000 -23.7510000 -20.4256779  31.5909677 -23.4046143
 -19.2572291  31.6158431 -24.7467183 -18.4420000  31.6190000 -22.8570000
 -18.3844308  30.6612746 -22.8246329 -18.2630000  34.0600000 -24.2900000
 -17.3700000  34.3180000 -23.4840000 -18.1040000  34.2370000 -25.6150000
 -18.8773655  34.1123039 -26.2525391 -16.8480000  34.6750000 -26.1480000
 -16.0819606  33.9417169 -25.8958517 -16.8890000  34.8370000 -27.6770000
 -17.6707295  35.5407335 -27.9629326 -15.9252187  35.2010003 -28.0329907
 -17.1780000  33.4800000 -28.2970000 -17.3880000  32.5110000 -27.5210000
 -17.2010000  33.3950000 -29.5530000 -16.5380000  36.0320000 -25.6020000
 -15.4440000  36.2770000 -25.0920000 -17.5190000  36.9500000 -25.6730000
 -18.4255108  36.7133646 -26.0502812 -17.2960000  38.2950000 -25.2350000
 -16.3977579  38.7138443 -25.6886846 -18.4620000  39.2040000 -25.5020000
 -19.3907644  38.7294374 -25.1853182 -18.2480000  40.4970000 -24.6990000
 -17.3195951  40.9724046 -25.0154734 -19.0818685  41.1766332 -24.8746778
 -18.1905583  40.2602130 -23.6365822 -18.6290000  39.4440000 -27.0150000
 -19.3897131  40.2158262 -27.1320502 -17.6738468  39.8169532 -27.3847132
 -19.0340000  38.2060000 -27.8110000 -19.9893557  37.8327199 -27.4421406
 -19.1287510  38.4661946 -28.8652392 -18.2734900  37.4338457 -27.6948016
 -17.0180000  38.3160000 -23.7660000 -16.0990000  39.0020000 -23.3160000
 -17.7800000  37.5460000 -22.9720000 -18.4985196  36.9303388 -23.3252565
 -17.6090000  37.6470000 -21.5510000 -17.7449118  38.6891578 -21.2619772
 -18.6020000  36.7820000 -20.7540000 -18.6124861  35.7865483 -21.1979202
 -18.2427610  36.7174678 -19.7269250 -20.0190000  37.3590000 -20.7630000
 -19.9868254  38.2897769 -20.1966786 -20.2677193  37.5749172 -21.8020479
 -21.0820000  36.4360000 -20.1660000 -20.6257724  35.9240613 -19.3187255
 -21.8964006  37.0682165 -19.8122297 -21.6300000  35.4030000 -21.1500000
 -22.0845023  35.9175647 -21.9966117 -20.8133101  34.7737467 -21.5037755
 -22.6470000  34.5610000 -20.4810000 -23.4040584  35.1438364 -20.1534881
 -23.0049237  33.8808695 -21.1362962 -22.2259471  34.0837736 -19.6967370
 -16.2150000  37.2750000 -21.1530000 -15.6000000  37.9530000 -20.3310000
 -15.6860000  36.1780000 -21.7130000 -16.2604411  35.6367659 -22.3432240
 -14.3850000  35.6730000 -21.3740000 -14.2279272  35.7899472 -20.3017357
 -14.2280000  34.1880000 -21.7340000 -14.4526482  33.9640933 -22.7768318
 -13.2182875  33.8507113 -21.4998694 -15.1610000  33.3560000 -20.9060000
 -16.4720000  33.1010000 -21.2460000 -16.9980000  32.3560000 -20.2410000
 -18.0422804  32.0614544 -20.3450204 -16.1200000  32.1130000 -19.2840000
 -16.2148389  31.5938777 -18.4228279 -14.9630000  32.7450000 -19.7070000
 -14.0633912  32.7030325 -19.0929609 -13.2530000  36.4600000 -21.9650000
 -12.1680000  36.4850000 -21.3870000 -13.4370000  37.1080000 -23.1340000
 -14.3323711  37.1574402 -23.5987210 -12.3030000  37.7310000 -23.7680000
 -11.5506681  36.9589176 -23.9291976 -12.6070000  38.4110000 -25.1160000
 -11.6706172  38.5751370 -25.6492405 -13.2504204  37.7576952 -25.7053243
 -13.2580000  39.6550000 -24.9100000 -13.4401390  40.0652239 -25.7586116
 -11.6990000  38.7720000 -22.8800000 -12.3920000  39.4840000 -22.1550000
 -10.3510000  38.8370000 -22.8800000  -9.7928482  38.1839787 -23.4111583
  -9.6750000  39.8320000 -22.1010000 -10.1343267  39.8455569 -21.1126001
  -8.1620000  39.6050000 -21.9370000  -8.0065344  38.6366407 -21.4613846
  -7.7030568  39.6014818 -22.9256652  -7.5210000  40.7040000 -21.0800000
  -7.4688391  41.5940718 -21.7070186  -8.2026646  40.8850795 -20.2489491
  -6.1290000  40.3820000 -20.5360000  -6.2057300  39.4741309 -19.9376813
  -5.4713141  40.2016333 -21.3863038  -5.5540000  41.5120000 -19.6770000
  -5.4184938  42.3969784 -20.2987330  -6.2537224  41.7376236 -18.8722754
  -4.2520000  41.1110000 -19.1000000  -3.6033463  40.9023034 -19.8455159
  -3.8864628  41.8657378 -18.5371027  -4.3774166  40.2912268 -18.5235091
  -9.8560000  41.1790000 -22.7270000 -10.0750000  42.1640000 -22.0230000
  -9.7760000  41.2630000 -24.0720000  -9.7042743  40.4567463 -24.6760776
  -9.8250000  42.5630000 -24.6760000 -10.0992818  43.3274935 -23.9490761
  -8.5440000  42.9510000 -25.3490000  -8.6359497  43.9425084 -25.7923472
  -7.4340000  42.9670000 -24.2830000  -7.3411369  41.9756456 -23.8394985
  -6.4881659  43.2470456 -24.7467597  -7.6854502  43.6896550 -23.5067000
  -8.2540000  42.0100000 -26.5290000  -7.9675204  41.0439713 -26.1132852
  -9.1792461  41.9014646 -27.0948968  -7.1480000  42.5140000 -27.4540000
  -6.2222595  42.6223477 -26.8888760  -6.9973447  41.7999998 -28.2636949
  -7.4339845  43.4798427 -27.8704860 -10.8750000  42.6060000 -25.7360000
 -11.2250000  41.5930000 -26.3390000 -11.4380000  43.8140000 -25.9420000
 -11.2386508  44.5702379 -25.3028886 -12.3660000  44.0500000 -27.0020000
 -12.1092440  43.3794185 -27.8220585 -13.8440000  43.8250000 -26.6260000
 -14.4560780  44.2059996 -27.4434956 -14.0367571  42.7603149 -26.4941271
 -14.3260000  44.5100000 -25.3700000 -13.6640000  45.3230000 -24.4990000
 -12.6234722  45.5533205 -24.7278103 -14.5020000  45.6900000 -23.4720000
 -14.2605748  46.2860562 -22.6931994 -15.7340000  45.1060000 -23.6820000
 -16.8900000  45.1610000 -22.9550000 -16.9007411  45.7526617 -22.0396205
 -17.9750000  44.4590000 -23.4310000 -18.9152540  44.4798102 -22.8800106
 -17.8990000  43.7250000 -24.5970000 -18.7639458  43.1728854 -24.9646107
 -16.7340000  43.6660000 -25.3310000 -16.7013562  43.0739391 -26.2456032
 -15.6610000  44.3640000 -24.8590000 -12.1500000  45.4540000 -27.4710000
 -11.5990000  46.2830000 -26.7490000 -12.5350000  45.7410000 -28.7300000
 -12.9467464  45.0286039 -29.3157099 -12.3690000  47.0570000 -29.2750000
 -12.4451900  47.7758237 -28.4591650 -11.0200000  47.2640000 -29.9890000
 -10.9483405  48.2494850 -30.4491994 -10.1628818  47.1060674 -29.3343965
 -10.9030000  46.2680000 -31.0930000 -10.5130000  44.9760000 -30.8250000
 -10.2958558  44.6875807 -29.7965241 -10.3960000  44.0530000 -31.8370000
 -10.0857128  43.0328866 -31.6107452 -10.6700000  44.4160000 -33.1330000
 -10.5829250  43.6880659 -33.9396162 -11.0560000  45.7060000 -33.4100000
 -11.2717972  45.9991648 -34.4374172 -11.1700000  46.6250000 -32.3950000
 -11.4743781  47.6477292 -32.6174387 -13.4700000  47.2740000 -30.2610000
 -14.1490000  46.3300000 -30.6610000 -13.6950000  48.5420000 -30.6610000
 -13.1559321  49.3257406 -30.3215064 -14.7420000  48.7960000 -31.6080000
 -14.4952387  48.3456593 -32.5694579 -15.6836465  48.3838602 -31.2453128
 -14.8940000  50.2720000 -31.7870000 -14.1880000  51.0680000 -31.1680000
 -15.8320000  50.6670000 -32.6740000 -16.3839484  49.9756945 -33.1613900
 -16.1060000  52.0540000 -32.9210000 -15.8128425  52.6184441 -32.0358104
 -15.3660000  52.6310000 -34.1390000 -15.5245735  53.7087808 -34.1756371
 -14.3003474  52.4242134 -34.0403898 -15.8540000  52.0400000 -35.3350000
 -15.3852479  52.4074617 -36.0878899 -17.5720000  52.1690000 -33.2090000
 -18.2730000  51.1660000 -33.3210000 -18.0710000  53.4150000 -33.3350000
 -17.4576520  54.2159784 -33.2866558 -19.4710000  53.6420000 -33.5650000
 -20.0336151  52.8064613 -33.1485406 -19.9750000  54.9450000 -32.9190000
 -19.7761903  54.9381838 -31.8473063 -19.4974134  55.8142725 -33.3710800
 -21.4770000  55.0490000 -33.1340000 -22.1000000  54.1560000 -33.7060000
 -22.0800000  56.1770000 -32.6690000 -23.0759720  56.2980580 -32.7851230
 -21.5288197  56.8879902 -32.2098769 -19.7160000  53.7590000 -35.0430000
 -19.0470000  54.5230000 -35.7380000 -20.6650000  52.9430000 -35.5570000
 -21.0788547  52.2621353 -34.9363173 -21.0890000  52.9590000 -36.9330000
 -20.2012002  52.9694124 -37.5652992 -21.9540000  51.7470000 -37.3200000
 -22.7903588  51.6967707 -36.6228054 -22.3319699  51.9142883 -38.3285898
 -21.1760000  50.4290000 -37.2790000 -20.2767960  50.5709316 -37.8784902
 -20.8957822  50.2565250 -36.2398501 -22.0860000  48.9840000 -37.9000000
 -22.0150000  49.5030000 -39.6400000 -20.9741145  49.5886325 -39.9519671
 -22.5202732  48.7634553 -40.2611870 -22.5079642  50.4686763 -39.7520579
 -21.8620000  54.2160000 -37.2060000 -21.7920000  54.7690000 -38.3030000
 -22.6450000  54.6900000 -36.2150000 -22.7512960  54.1834184 -35.3477195
 -23.3500000  55.9320000 -36.3690000 -23.0102121  56.6162303 -35.5915218
 -23.1051663  56.3445714 -37.3477444 -24.8400000  55.7740000 -36.2640000
 -25.4900000  56.5960000 -35.6190000 -25.4440000  54.7250000 -36.8540000
 -24.9649669  53.9632178 -37.3126006 -26.8770000  54.6800000 -36.7770000
 -27.2586649  55.7009947 -36.7760951 -27.5120000  53.9190000 -37.9530000
 -27.1245651  52.9019975 -38.0138220 -28.5973725  53.8886557 -37.8573661
 -27.1570000  54.6530000 -39.2400000 -26.4660000  55.6700000 -39.2230000
 -27.6440000  54.1230000 -40.3940000 -27.4394123  54.5690477 -41.2767713
 -28.2080497  53.2857493 -40.3630152 -27.2480000  53.9460000 -35.5300000
 -28.0600000  53.0230000 -35.5630000 -26.6680000  54.3610000 -34.3880000
 -25.9826644  55.1028472 -34.3967798 -27.0060000  53.7630000 -33.1300000
 -26.5049864  54.2910747 -32.3186914 -28.0844170  53.8008219 -32.9760984
 -26.5640000  52.3350000 -33.1270000 -27.0870000  51.5320000 -32.3550000
 -25.5980000  51.9720000 -33.9940000 -25.1678792  52.6392196 -34.6184306
 -25.1430000  50.6110000 -34.0340000 -25.6227802  50.0551485 -33.2284324
 -25.4450000  49.9280000 -35.3330000 -25.0891452  48.8981242 -35.3043046
 -26.9690000  49.9380000 -35.5460000 -27.3255470  50.9676199 -35.5752714
 -27.2079798  49.4443709 -36.4879756 -27.4544939  49.4091037 -34.7258385
 -24.8010000  50.6020000 -36.4030000 -25.0015305  50.1559151 -37.2290727
 -23.6550000  50.6250000 -33.8530000 -22.9640000  51.4940000 -34.3810000
 -23.1290000  49.6290000 -33.1080000 -23.7332631  48.8690407 -32.8297423
 -21.7350000  49.5540000 -32.7610000 -21.1906333  50.4465455 -33.0694260
 -21.5230000  49.3210000 -31.2890000 -22.0459766  48.4202003 -30.9678215
 -20.0140000  49.1470000 -31.0570000 -19.4903593  50.0476440 -31.3775331
 -19.8261815  48.9759457 -29.9970163 -19.6535225  48.2938086 -31.6316474
 -22.1420000  50.4440000 -30.4380000 -23.1820466  50.5441194 -30.7484513
 -22.1034019  50.1162005 -29.3991751 -21.4400000  51.7910000 -30.5720000
 -21.4785980  52.1196925 -31.6105429 -21.9389272  52.5257716 -29.9401127
 -20.3999520  51.6917727 -30.2612686 -21.1330000  48.3570000 -33.4400000
 -21.7780000  47.3200000 -33.5850000 -19.8680000  48.4920000 -33.8930000
 -19.3942660  49.3738083 -33.7585022 -19.1490000  47.4220000 -34.5310000
 -19.8411344  46.6286473 -34.8132069 -18.4380000  47.9320000 -35.8030000
 -19.1238937  48.4140114 -36.4996449 -17.6560579  48.6359347 -35.5181446
 -17.7690000  46.8330000 -36.5550000 -18.5070000  45.9410000 -37.3000000
 -19.5923438  46.0379236 -37.3271010 -17.8890000  44.9360000 -38.0050000
 -18.4842252  44.2296610 -38.5836993 -16.5200000  44.8220000 -37.9800000
 -16.0257481  44.0238221 -38.5338294 -15.7740000  45.7180000 -37.2540000
 -14.6873605  45.6341571 -37.2371135 -16.3970000  46.7200000 -36.5490000
 -15.8040689  47.4345691 -35.9781028 -18.1240000  46.9700000 -33.5280000
 -17.2660000  47.7520000 -33.1230000 -18.1800000  45.6890000 -33.0940000
 -18.8411935  45.0239375 -33.4689858 -17.2800000  45.2480000 -32.0600000
 -16.7039158  46.1140291 -31.7340862 -17.9620000  44.6200000 -30.8310000
 -18.6680171  43.9285857 -31.2909841 -17.2541852  44.0616311 -30.2183644
 -18.7260000  45.6200000 -29.9480000 -19.5491733  46.0400194 -30.5259882
 -19.2820000  44.9310000 -28.6910000 -18.4593183  44.5111069 -28.1122225
 -19.8180311  45.6601105 -28.0834070 -19.9633836  44.1326246 -28.9849615
 -17.8570000  46.8440000 -29.6180000 -17.5684736  47.3451442 -30.5419624
 -18.4231080  47.5341428 -28.9924395 -16.9622523  46.5220005 -29.0852320
 -16.3290000  44.2170000 -32.5700000 -16.5820000  43.5450000 -33.5690000
 -15.1840000  44.0790000 -31.8690000 -14.9892110  44.6535783 -31.0615247
 -14.2090000  43.1030000 -32.2600000 -14.6878114  42.2990786 -32.8190610
 -13.4414715  43.5680216 -32.8786714 -13.5660000  42.5290000 -31.0350000
 -13.2840000  43.2380000 -30.0690000 -13.3190000  41.2010000 -31.0640000
 -13.5757571  40.6859457 -31.8939965 -12.6770000  40.4900000 -29.9920000
 -12.1475631  41.1577563 -29.3123697 -13.6370000  39.6380000 -29.2100000
 -13.0970253  39.0570559 -28.4623158 -14.6470000  40.5630000 -28.5090000
 -15.1877243  41.1439737 -29.2561195 -15.3531639  39.9625344 -27.9355244
 -14.1166762  41.2387521 -27.8380194 -14.2850000  38.5810000 -30.1250000
 -14.9305480  39.1114590 -30.8249870 -13.4803536  38.0911293 -30.6733341
 -15.1030000  37.5300000 -29.3740000 -15.9081766  38.0191046 -28.8257599
 -15.5268235  36.8217943 -30.0859814 -14.4579820  36.9987762 -28.6741050
 -11.6590000  39.5790000 -30.6160000 -11.8720000  39.0660000 -31.7140000
 -10.5410000  39.3780000 -29.9660000 -10.4460000  39.5230000 -28.5230000
 -11.3953380  39.2231070 -28.0792413 -10.2510937  40.5697707 -28.2898012
  -9.2830000  38.6030000 -28.1090000  -9.6629349  37.6433446 -27.7585574
  -8.6915765  39.0687991 -27.3207419  -8.4530000  38.4430000 -29.3980000
  -8.0140616  37.4455107 -29.3768538  -7.6710592  39.1796429 -29.5824600
  -9.5110000  38.5210000 -30.4950000  -9.1210200  38.9393567 -31.4228963
 -10.1010000  37.1700000 -30.7660000 -10.7930000  36.6390000 -29.8980000
  -9.8360000  36.5970000 -31.9580000  -9.2493946  37.0743023 -32.6274594
 -10.3670000  35.3130000 -32.3130000 -11.2197195  35.0749822 -31.6771413
 -10.6823781  35.3170360 -33.3563694  -9.3150000  34.2680000 -32.1270000
  -8.2140000  34.5380000 -31.6460000  -9.6540000  33.0220000 -32.5170000
 -10.5751419  32.8451730 -32.8916053  -8.7360000  31.9280000 -32.4290000
  -8.1300613  32.0589038 -31.5324501  -9.4300000  30.5540000 -32.3580000
  -8.6788025  29.7705506 -32.2579569 -10.1063738  30.5193072 -31.5039421
 -10.2220000  30.3370000 -33.6420000 -10.7310000  31.3390000 -34.2110000
 -10.3320000  29.1570000 -34.0660000  -7.8770000  31.9360000 -33.6430000
  -8.2810000  32.4170000 -34.7020000  -6.6420000  31.4220000 -33.5040000
  -6.3177650  31.0728037 -32.6134760  -5.7840000  31.2830000 -34.6400000
  -6.3520055  31.5528724 -35.5303021  -4.5250000  32.1630000 -34.5750000
  -4.0243873  32.0652100 -33.6117123  -3.8314104  31.8977499 -35.3729197
  -4.9460000  33.6130000 -34.7590000  -5.5940000  33.9640000 -35.7440000
  -4.5760000  34.4810000 -33.7800000  -4.8293591  35.4560779 -33.8516388
  -4.0494633  34.1467835 -32.9855447  -5.3130000  29.8700000 -34.6120000
  -4.3880000  29.5360000 -33.8750000  -5.9450000  28.9860000 -35.4060000
  -6.7085699  29.2211339 -36.0238773  -5.4910000  27.6310000 -35.3750000
  -5.5032639  27.2903116 -34.3396835  -6.3530000  26.6740000 -36.2180000
  -5.9500155  25.6709544 -36.0779916  -7.3659612  26.7171577 -35.8178162
  -6.3800000  27.0080000 -37.7080000  -7.0109610  27.8874669 -37.8365571
  -5.3601232  27.2458406 -38.0102998  -6.9150000  25.8660000 -38.5740000
  -6.8388729  26.1830927 -39.6140749  -6.2696768  25.0030767 -38.4096201
  -8.3630000  25.4860000 -38.2620000  -8.9698379  26.3905531 -38.2216029
  -8.7389390  24.8317240 -39.0485698  -8.4360000  24.7850000 -36.9610000
  -8.0880929  25.3912530 -36.2319474  -9.3956344  24.5387062 -36.7646808
  -7.8740990  23.9465666 -36.9983605  -4.1070000  27.6140000 -35.9250000
  -3.1900000  27.0470000 -35.3360000  -3.9300000  28.2850000 -37.0740000
  -4.7047178  28.8043595 -37.4615273  -2.6650000  28.3610000 -37.7350000
  -1.9047637  27.9697751 -37.0589209  -2.6050000  27.5690000 -39.0540000
  -3.5063871  27.8196733 -39.6132526  -1.7300432  27.9267462 -39.5967415
  -2.5150000  26.0500000 -38.8860000  -2.9994798  25.7174132 -37.9679771
  -2.9636345  25.5398192 -39.7383759  -1.0390000  25.6800000 -38.8190000
  -0.6440000  24.7690000 -38.0950000  -0.1990000  26.4030000 -39.6080000
   0.7907018  26.2015580 -39.6044115  -0.5688611  27.1379461 -40.1937972
  -2.4960000  29.7930000 -38.0950000  -3.2590000  30.6510000 -37.6530000
  -1.4700000  30.0910000 -38.9060000  -0.8457992  29.3892633 -39.2775350
  -1.2840000  31.4470000 -39.3140000  -1.1499119  32.1363036 -38.4803453
  -0.1100000  31.6250000 -40.2930000  -0.2348923  30.9477310 -41.1378719
  -0.0889550  32.6537302 -40.6526827   0.8265388  31.3997896 -39.7828289
  -2.5360000  31.8100000 -40.0370000  -3.0700000  32.9060000 -39.8710000
  -3.0550000  30.8690000 -40.8480000  -2.6458576  29.9503805 -40.9420215
  -4.2630000  31.1500000 -41.5620000  -4.2434286  32.1940053 -41.8746806
  -4.4510000  30.2670000 -42.8080000  -3.5910272  30.4353353 -43.4562355
  -4.4545213  29.2301308 -42.4718602  -5.7390000  30.5560000 -43.5840000
  -6.5695015  30.4029112 -42.8948469  -5.7044559  31.6034685 -43.8835304
  -5.9870000  29.5200000 -45.0590000  -4.6520000  30.2780000 -46.0270000
  -3.7041394  30.1461478 -45.5052010  -4.5966366  29.8016448 -47.0058367
  -4.8522987  31.3421038 -46.1521591  -5.4010000  30.8410000 -40.6440000
  -5.8500000  29.6980000 -40.5540000  -5.8800000  31.8700000 -39.9220000
  -5.4529174  32.7798079 -40.0217464  -7.0200000  31.7450000 -39.0620000
  -7.7328685  31.0731267 -39.5400208  -6.6880000  31.1960000 -37.6660000
  -6.2431049  30.2058037 -37.7643810  -5.9808991  31.8642530 -37.1745264
  -7.8730000  31.1070000 -36.8890000  -7.6596663  30.7635868 -36.0182785
  -7.5020000  33.1460000 -38.8910000  -6.6960000  34.0740000 -38.8810000
  -8.8270000  33.3510000 -38.7560000  -9.5109972  32.6081686 -38.7348182
  -9.2880000  34.7030000 -38.6350000  -8.8861518  35.2828852 -39.4658733
 -10.8190000  34.8160000 -38.6530000 -11.1663984  34.3056195 -39.5512902
 -11.1883705  34.2913863 -37.7718383 -11.3430000  36.2500000 -38.6480000
 -11.0335728  36.7588274 -37.7350650 -10.9846230  36.8074933 -39.5133706
 -12.8590000  36.1670000 -38.6920000 -13.4520000  35.6510000 -37.7070000
 -13.4440000  36.6050000 -39.7180000  -8.7810000  35.2320000 -37.3350000
  -8.9680000  34.6230000 -36.2830000  -8.1060000  36.3950000 -37.3890000
  -7.9983733  36.8623271 -38.2778876  -7.5220000  37.0000000 -36.2280000
  -6.8970331  36.2573619 -35.7320118  -6.6540000  38.2220000 -36.5720000
  -7.2679158  38.9782791 -37.0611313  -6.2290876  38.6355499 -35.6573819
  -5.8489076  37.9195238 -37.2416519  -8.5780000  37.4590000 -35.2730000
  -8.4420000  37.2560000 -34.0680000  -9.6650000  38.0830000 -35.7710000
  -9.8486582  38.1748650 -36.7599034 -10.6260000  38.6190000 -34.8470000
 -10.3851755  38.2454604 -33.8517257 -10.6520000  40.1580000 -34.8020000
 -10.7267582  40.5970320 -35.7968675 -11.4490409  40.5513201 -34.1710284
  -9.3680000  40.6410000 -34.2180000  -9.1850000  40.6670000 -32.8540000
  -9.9874395  40.3289555 -32.1983197  -8.0010000  41.1150000 -32.3170000
  -7.8662566  41.1293304 -31.2354550  -6.9890000  41.5440000 -33.1410000
  -6.0486142  41.8976393 -32.7182546  -7.1660000  41.5260000 -34.5030000
  -6.3671337  41.8676216 -35.1611850  -8.3510000  41.0770000 -35.0360000
  -8.4921989  41.0639007 -36.1167364 -12.0070000  38.1960000 -35.2410000
 -12.2580000  37.8200000 -36.3850000 -12.9400000  38.2510000 -34.2650000
 -12.6529747  38.5363997 -33.3396553 -14.3260000  37.9410000 -34.4830000
 -14.4213695  37.5627419 -35.5008038 -14.9210000  36.9020000 -33.5140000
 -14.5797774  37.0965849 -32.4972389 -16.0095629  36.9476442 -33.5463646
 -14.4680000  35.5470000 -33.9390000 -13.2370000  35.0530000 -33.5740000
 -12.5747697  35.6639753 -32.9605999 -12.8390000  33.7980000 -33.9770000
 -11.8610256  33.4175065 -33.6822243 -13.6730000  33.0250000 -34.7500000
 -13.2670000  31.7390000 -35.1660000 -12.3905687  31.5029245 -34.8533722
 -14.9040000  33.5080000 -35.1170000 -15.5712560  32.9009752 -35.7288748
 -15.2950000  34.7630000 -34.7100000 -16.2726077  35.1494508 -34.9981651
 -15.0850000  39.2140000 -34.2980000 -14.8780000  39.9400000 -33.3270000
 -15.9950000  39.5200000 -35.2450000 -16.2213386  38.8924422 -36.0033148
 -16.6690000  40.7820000 -35.1840000 -16.2496275  41.3607136 -34.3610077
 -16.5290000  41.5980000 -36.4800000 -16.8752809  41.0615182 -37.3633890
 -17.0081778  42.5761453 -36.4385227 -15.0710000  41.8450000 -36.6750000
 -14.4090000  42.7900000 -35.9260000 -14.9626205  43.3627758 -35.1820026
 -13.0650000  43.0160000 -36.1070000 -12.5523220  43.7654997 -35.5040802
 -12.3680000  42.2970000 -37.0480000 -11.3021210  42.4711473 -37.1952232
 -13.0210000  41.3550000 -37.8050000 -12.4732568  40.7833653 -38.5542071
 -14.3650000  41.1330000 -37.6180000 -14.8829827  40.3863449 -38.2199136
 -18.1290000  40.5780000 -34.9390000 -18.7240000  39.5890000 -35.3700000
 -18.7350000  41.5350000 -34.2070000 -18.1965542  42.3383023 -33.9156567
 -20.1340000  41.5050000 -33.8950000 -20.6013697  40.7417692 -34.5172086
 -20.4420000  41.1930000 -32.4190000 -19.9222324  41.9057927 -31.7787911
 -21.5173978  41.2865308 -32.2677663 -20.0100000  39.8070000 -32.0730000
 -18.7090000  39.5410000 -31.7130000 -17.9857045  40.3561015 -31.6894918
 -18.3170000  38.2640000 -31.3850000 -17.2819389  38.0670995 -31.1057499
 -19.2290000  37.2360000 -31.4120000 -18.8290000  35.9260000 -31.0740000
 -17.8995735  35.8658716 -30.8412970 -20.5320000  37.4920000 -31.7670000
 -21.2601775  36.6812498 -31.7902805 -20.9170000  38.7720000 -32.0930000
 -21.9509449  38.9759216 -32.3713414 -20.6680000  42.8830000 -34.1210000
 -19.9090000  43.8470000 -34.2190000 -22.0060000  42.9960000 -34.2540000
 -22.5879594  42.1707527 -34.2342627 -22.6430000  44.2740000 -34.3820000
 -21.8957772  45.0573125 -34.2548040 -23.3320000  44.4780000 -35.6990000
 -23.7938209  45.4649746 -35.7255128 -22.2910000  44.3690000 -36.8260000
 -21.8290502  43.3820616 -36.8004137 -22.7804299  44.5156581 -37.7888338
 -21.5247373  45.1319243 -36.6885646 -24.3540000  43.5060000 -35.8760000
 -24.7867945  43.6470212 -36.7212232 -23.6930000  44.3330000 -33.3160000
 -24.4440000  43.3800000 -33.1190000 -23.7500000  45.4600000 -32.5820000
 -23.0875400  46.2027114 -32.7541215 -24.7310000  45.6480000 -31.5490000
 -25.3469842  44.7517876 -31.4750680 -24.0770000  45.9130000 -30.1730000
 -23.4820830  45.0141214 -30.0111661 -23.4148513  46.7727372 -30.2755235
 -25.0190000  46.1300000 -28.9690000 -25.7488937  45.3210743 -28.9374504
 -24.2150000  46.1460000 -27.6580000 -23.4851629  46.9550113 -27.6886169
 -24.8921066  46.2998076 -26.8177794 -23.6971077  45.1945363 -27.5371501
 -25.8500000  47.4200000 -29.0990000 -26.4616940  47.3695405 -29.9997684
 -26.4958062  47.5261807 -28.2273572 -25.1815165  48.2786369 -29.1620197
 -25.5480000  46.8300000 -31.9640000 -25.0080000  47.9090000 -32.2020000
 -26.8850000  46.6590000 -32.0460000 -27.3078154  45.7886043 -31.7566252
 -27.7460000  47.7160000 -32.5050000 -27.1278605  48.5059989 -32.9315026
 -28.7530000  47.2510000 -33.5700000 -29.3795522  46.4829565 -33.1165237
 -29.3683813  48.1099877 -33.8374808 -28.0880000  46.6890000 -34.8280000
 -27.4551448  47.4746090 -35.2408119 -27.4674314  45.8473653 -34.5203513
 -29.0850000  46.2250000 -35.8930000 -29.7263193  45.4290396 -35.5145089
 -29.7020768  47.0519884 -36.2442916 -28.2960000  45.6970000 -37.0410000
 -27.3326842  45.9633394 -37.1865520 -28.8760000  44.8370000 -37.9300000
 -30.1860000  44.4850000 -37.7820000 -30.7234237  44.8620205 -37.0144511
 -30.6123550  43.8490086 -38.4406623 -28.1440000  44.3250000 -38.9620000
 -27.1732947  44.5839477 -39.0658140 -28.5763222  43.6894803 -39.6172183
 -28.5380000  48.2010000 -31.3360000 -28.7180000  47.4790000 -30.3560000
 -29.0090000  49.4650000 -31.3860000 -28.8653591  50.0980305 -32.1597823
 -29.7630000  49.9290000 -30.2600000 -30.0833668  49.0624882 -29.6815352
 -28.9690000  50.8690000 -29.3380000 -28.5500945  51.7069667 -29.8951618
 -29.5930793  51.2473540 -28.5283869 -27.5610000  50.0380000 -28.5430000
 -27.1383674  51.1002045 -27.8632931 -30.9690000  50.6840000 -30.7070000
 -30.8740000  51.7970000 -31.2260000 -32.1550000  50.0850000 -30.4920000
 -32.1939577  49.1624878 -30.0826677 -33.3880000  50.7580000 -30.7670000
 -33.1558529  51.7391013 -31.1813032 -34.2920000  50.0070000 -31.7590000
 -35.1744968  50.6117337 -31.9677961 -33.7426799  49.8350853 -32.6846310
 -34.6920000  48.7610000 -31.2080000 -35.2553418  48.3003282 -31.8341208
 -34.0830000  50.7820000 -29.4530000 -34.1840000  49.7520000 -28.7870000
 -34.5710000  51.9560000 -29.0150000 -34.5623337  52.8296444 -29.5217245
 -35.1590000  51.9340000 -27.7120000 -35.4639537  50.9116012 -27.4888336
 -34.2030000  52.4140000 -26.6070000 -33.3301429  51.7614357 -26.6264826
 -33.9013282  53.4310117 -26.8575619 -34.8220000  52.3960000 -25.2070000
 -34.1759426  52.9175242 -24.5007966 -35.8014424  52.8740204 -25.2239793
 -34.9740000  50.9440000 -24.7780000 -35.4770000  50.1340000 -25.6010000
 -34.5870000  50.6260000 -23.6230000 -36.3520000  52.8230000 -27.6530000
 -36.3590000  53.9350000 -28.1800000 -37.4130000  52.3040000 -27.0140000
 -37.3599812  51.3535559 -26.6764435 -38.5870000  53.0650000 -26.7160000
 -38.3387094  54.1218282 -26.8138012 -39.7810000  52.7540000 -27.6330000
 -39.4713396  52.9619302 -28.6571947 -40.0060352  51.6924262 -27.5304317
 -41.0280000  53.5730000 -27.3020000 -41.3552186  53.3722016 -26.2818486
 -40.8126753  54.6359071 -27.4113753 -42.1290000  53.1760000 -28.2750000
 -41.8290000  52.4050000 -29.2260000 -43.2870000  53.6330000 -28.0770000
 -38.9700000  52.6240000 -25.3450000 -39.4970000  51.5260000 -25.1650000
 -38.7090000  53.4570000 -24.3230000 -38.3098482  54.3800939 -24.4161392
 -39.0510000  52.9950000 -23.0130000 -39.7424082  52.1578708 -23.1092739
 -37.8260000  52.5310000 -22.2020000 -37.2187019  51.8628022 -22.8125735
 -37.2316633  53.3971453 -21.9110427 -38.2940000  51.7920000 -20.9510000
 -39.4460000  52.0310000 -20.5000000 -37.4920000  50.9730000 -20.4290000
 -39.6800000  54.1180000 -22.2640000 -39.1860000  54.5210000 -21.2120000
 -40.7960000  54.6610000 -22.7810000 -41.2089922  54.3737943 -23.6568137
 -41.4540000  55.6780000 -22.0230000 -40.8390571  55.9115222 -21.1538557
 -41.6920000  56.9780000 -22.8230000 -40.6873354  57.1885558 -23.1896259
 -42.3540956  56.7880301 -23.6677727 -42.2150000  58.1970000 -22.0210000
 -41.4957822  58.4422250 -21.2395326 -42.4000000  59.4110000 -22.9460000
 -43.1194794  59.1666753 -23.7275073 -42.7676700  60.2575724 -22.3661426
 -41.4441982  59.6706806 -23.4010926 -43.4930000  57.8980000 -21.2210000
 -43.2969894  57.0970684 -20.5081270 -43.8038682  58.7939492 -20.6836572
 -44.2856947  57.5906514 -21.9031077 -42.7750000  55.0860000 -21.6680000
 -43.6880000  55.0460000 -22.4900000 -42.9090000  54.5950000 -20.4220000
 -42.1751327  54.6262202 -19.7287732 -44.1690000  54.0270000 -20.0510000
 -44.9364816  54.4481218 -20.7004056 -44.2140000  52.4940000 -20.1670000
 -44.0095938  52.2067686 -21.1984143 -43.4557252  52.0629976 -19.5132751
 -45.4950000  52.0130000 -19.7870000 -45.5129175  51.0561606 -19.8627438
 -44.4300000  54.3590000 -18.6220000 -43.5560000  54.2320000 -17.7660000
 -45.6630000  54.8150000 -18.3460000 -46.3254265  54.9446511 -19.0973196
 -46.0930000  55.0830000 -17.0100000 -45.4769967  54.4903572 -16.3336764
 -45.9900000  56.5620000 -16.6000000 -44.9708335  56.8900415 -16.8044205
 -46.6844007  57.1254749 -17.2232204 -46.3170000  56.8040000 -15.1260000
 -47.3643353  56.5713240 -14.9335126 -45.6848064  56.1830921 -14.4912530
 -46.0590000  58.2710000 -14.8180000 -45.6370000  59.0060000 -15.7500000
 -46.2770000  58.6770000 -13.6440000 -47.5310000  54.6990000 -17.0040000
 -48.2090000  54.8220000 -18.0240000 -48.0510000  54.1990000 -15.8700000
 -47.5551968  54.0903267 -14.9968055 -49.4200000  53.7890000 -15.9280000
 -49.8929756  54.2676173 -16.7855073 -49.5750000  52.2670000 -16.0680000
 -48.8797519  51.9437531 -16.8427521 -49.2857645  51.8260867 -15.1140407
 -50.9890000  51.8130000 -16.4310000 -51.6592226  51.9446290 -15.5815436
 -51.3708989  52.3729544 -17.2846413 -50.9080000  50.3350000 -16.7890000
 -49.7870000  49.7680000 -16.6940000 -51.9600000  49.7540000 -17.1680000
 -50.1160000  54.2130000 -14.6790000 -49.5030000  54.3460000 -13.6210000
 -51.4360000  54.4590000 -14.7920000 -51.9033647  54.3456628 -15.6801578
 -52.2210000  54.8290000 -13.6550000 -51.5560505  54.8872115 -12.7932850
 -52.9520000  56.1730000 -13.8030000 -53.4271827  56.3940514 -12.8472611
 -52.2003411  56.9323329 -14.0186907 -54.0090000  56.1730000 -14.9100000
 -53.5628768  55.9694605 -15.8834714 -54.7834486  55.4341031 -14.7041777
 -54.6510000  57.5530000 -14.9480000 -54.5400000  58.2750000 -15.9350000
 -55.3490000  57.9270000 -13.8430000 -55.7955655  58.8324505 -13.8140155
 -55.4178766  57.2977307 -13.0559946 -53.2730000  53.7800000 -13.5190000
 -53.6600000  53.1480000 -14.5010000 -53.7480000  53.5450000 -12.2840000
 -53.4305198  54.0591425 -11.4747021 -54.7570000  52.5480000 -12.1010000
 -54.9728324  52.1056428 -13.0735408 -54.3620000  51.4250000 -11.1270000
 -53.4612788  50.9503428 -11.5162315 -54.1425217  51.8842740 -10.1631552
 -55.4580000  50.3720000 -10.9520000 -56.2455401  50.8203567 -10.3463121
 -55.8489735  50.1422088 -11.9431800 -54.9730000  49.0850000 -10.2850000
 -54.2768898  49.3680165  -9.4954234 -55.8424852  48.5971500  -9.8444353
 -54.2830000  48.1210000 -11.2510000 -54.1266710  47.1640435 -10.7531083
 -54.9158281  47.9753887 -12.1264571 -52.9780000  48.6760000 -11.6730000
 -52.3912986  48.8105991 -10.8619733 -52.5292488  48.0337025 -12.3103196
 -53.1226711  49.5625367 -12.1347597 -55.9650000  53.2100000 -11.5360000
 -55.8890000  54.3040000 -10.9780000 -57.1300000  52.5570000 -11.6980000
 -57.1668209  51.6561897 -12.1532850 -58.3390000  53.0920000 -11.1560000
 -58.2048555  54.1165171 -10.8089134 -59.4950000  53.0350000 -12.1100000
 -59.6232415  52.0198958 -12.4857897 -60.7620000  53.4640000 -11.3500000
 -60.6346840  54.4792469 -10.9742806 -61.6187274  53.4309961 -12.0230748
 -60.9315229  52.7861334 -10.5134249 -59.2060000  53.8760000 -13.3620000
 -59.2529693  54.9249877 -13.0695629 -58.1949781  53.6360357 -13.6911676
 -60.1870000  53.6220000 -14.5050000 -61.1982511  53.8622001 -14.1767091
 -59.9235002  54.2490450 -15.3567521 -60.1402614  52.5732468 -14.7983124
 -58.6930000  52.2130000 -10.0080000 -58.9150000  51.0150000 -10.1750000
 -58.7420000  52.7890000  -8.7950000 -58.5795689  53.7739386  -8.6413399
 -59.0730000  51.9730000  -7.6690000 -59.0578894  50.9120191  -7.9183801
 -58.1750000  52.2010000  -6.4870000 -58.1746903  53.2576484  -6.2194309
 -58.7010000  51.3730000  -5.3030000 -58.7011688  50.3161234  -5.5696700
 -58.0584504  51.5284140  -4.4363530 -59.7168019  51.6866476  -5.0624312
 -56.7320000  51.8590000  -6.8970000 -56.4272738  52.4997751  -7.7244366
 -56.0653463  52.0190263  -6.0496134 -56.6796568  50.8155686  -7.2078247
 -60.4580000  52.3300000  -7.2550000 -60.7550000  53.4850000  -6.9560000
 -61.3560000  51.3270000  -7.2530000 -61.0980560  50.3874092  -7.5189574
 -62.6970000  51.5640000  -6.8160000 -62.7030161  52.4817876  -6.2280128
 -63.7120000  51.7080000  -7.9620000 -63.4215229  52.5464583  -8.5950166
 -63.7178323  50.7921575  -8.5530148 -65.0110000  51.9400000  -7.4360000
 -65.6374684  52.0285252  -8.1580114 -63.0850000  50.3580000  -6.0330000
 -62.5990000  49.2570000  -6.2900000 -63.9630000  50.5390000  -5.0310000
 -64.3767636  51.4354620  -4.8182680 -64.3590000  49.4070000  -4.2510000
 -63.7867222  48.5433022  -4.5895608 -64.1300000  49.5870000  -2.7410000
 -64.5677491  50.5156619  -2.3748551 -64.5445267  48.7463717  -2.1845724
 -62.6270000  49.6320000  -2.5060000 -61.8850000  48.7790000  -2.9900000
 -62.1640000  50.6630000  -1.7510000 -61.1749026  50.7426809  -1.5627525
 -62.8111250  51.3448186  -1.3816040 -65.8210000  49.2190000  -4.4560000
 -66.5900000  50.1790000  -4.4530000 -66.2360000  47.9560000  -4.6650000
 -65.5933810  47.1768376  -4.6717840 -67.6280000  47.6880000  -4.8490000
 -68.0465529  48.4771068  -5.4736784 -67.9140000  46.3310000  -5.5140000
 -67.4472180  46.3087999  -6.4987441 -67.4977302  45.5345735  -4.8971335
 -69.3140000  46.1410000  -5.6500000 -69.4828474  45.2922598  -6.0656085
 -68.2390000  47.6610000  -3.4890000 -67.5450000  47.4920000  -2.4870000
 -69.5700000  47.8560000  -3.4180000 -70.1379261  48.0005526  -4.2405958
 -70.2170000  47.8300000  -2.1440000 -69.4592902  47.6765339  -1.3756100
 -70.9830000  49.1250000  -1.8270000 -70.2633825  49.9425324  -1.8704832
 -71.7293362  49.2565451  -2.6104400 -71.6720000  49.1250000  -0.4620000
 -72.4165637  48.3313286  -0.4002624 -70.9490206  49.0078245   0.3452625
 -72.3750000  50.4660000  -0.2950000 -72.4150000  51.2780000  -1.2180000
 -72.9430000  50.7080000   0.9160000 -73.4218461  51.5819892   1.0801668
 -72.8836421  50.0127352   1.6461951 -71.2000000  46.7110000  -2.1920000
 -71.7860000  46.4320000  -3.2380000 -71.3900000  46.0190000  -1.0540000
 -70.9173282  46.2640240  -0.1957203 -72.3130000  44.9250000  -1.0320000
 -72.7329875  44.7912484  -2.0289053 -71.6950000  43.6290000  -0.5940000
 -70.8118048  43.4167968  -1.1965250 -71.2890000  43.7520000   0.8850000
 -72.1718071  43.9637559   1.4882500 -70.8380967  42.8169990   1.2175034
 -70.5690697  44.5625068   0.9984887 -72.6130000  42.5610000  -0.7660000
 -72.2050596  41.7395903  -0.4823259 -73.3760000  45.2610000  -0.0460000
 -73.1350000  45.9760000   0.9260000 -74.6060000  44.7720000  -0.2890000
 -74.7951462  44.1797060  -1.0849339 -75.6760000  45.0570000   0.6120000
 -75.2476379  45.3657750   1.5655529 -76.6180000  46.1680000   0.1130000
 -76.0446941  47.0845901  -0.0258604 -77.0529887  45.8643644  -0.8392029
 -77.6550000  46.3970000   1.0550000 -78.2338314  47.0910821   0.7312654
 -76.4980000  43.8210000   0.7520000 -76.3940000  42.8960000  -0.0540000
 -77.3270000  43.7720000   1.8100000 -77.3768634  44.5446856   2.4585137
 -78.1970000  42.6540000   2.0180000 -77.9957923  41.8967175   1.2602811
 -78.0510000  42.0270000   3.3730000 -77.0042597  41.7884021   3.5614304
 -78.5470000  43.0260000   4.4310000 -79.5938729  43.2647368   4.2434858
 -78.4474657  42.5849580   5.4228034 -77.9518371  43.9376273   4.3779214
 -78.7960000  40.8220000   3.4410000 -78.6940841  40.4315118   4.3120525
 -79.5820000  43.1970000   1.9230000 -79.8390000  44.3260000   2.3390000
 -80.5180000  42.4180000   1.3490000 -80.3478678  41.4799968   1.0153768
 -81.8370000  42.9560000   1.2170000 -81.8831494  43.8968240   1.7654702
 -82.2380000  43.2190000  -0.2450000 -82.1148757  42.2874947  -0.7974831
 -83.2880992  43.5110269  -0.2555878 -81.3980000  44.3150000  -0.9010000
 -80.3361509  44.1252244  -0.7442756 -81.6039607  44.3634148  -1.9702686
 -81.7780000  45.6380000  -0.2510000 -82.8520000  45.6850000   0.4050000
 -81.0000000  46.6180000  -0.4020000 -82.8210000  41.9880000   1.7810000
 -82.7140000  40.7790000   1.5820000 -83.8000000  42.5210000   2.5350000
 -83.8245471  43.5163570   2.7045915 -84.8510000  41.7150000   3.0750000
 -84.7390977  40.7054813   2.6794637 -84.8580000  41.6430000   4.6100000
 -84.7644256  42.6452403   5.0281595 -85.7813562  41.1860884   4.9660128
 -83.6710000  40.7970000   5.0500000 -83.0190000  40.1830000   4.1630000
 -83.4050000  40.7480000   6.2800000 -86.1280000  42.3640000   2.6570000
 -86.2530000  43.5890000   2.6750000 -87.0720000  41.5730000   2.2430000
 -86.7780000  40.3350000   1.5450000 -86.2312850  39.6682405   2.2118093
 -86.1669551  40.5532463   0.6691623 -88.1630000  39.7890000   1.1710000
 -88.5573766  39.1606943   1.9696227 -88.1122980  39.2125207   0.2473105
 -89.0150000  41.0580000   0.9810000 -90.0190544  40.8493177   1.3503583
 -89.0736646  41.4162015  -0.0467888 -88.3440000  42.1140000   1.8650000
 -88.2058611  43.0188630   1.2731902 -89.0980000  42.4440000   3.1070000
 -88.7780000  41.8930000   4.1590000 -90.0870000  43.3520000   3.0220000
 -90.3241733  43.8182812   2.1580382 -90.8370000  43.6760000   4.1950000
 -90.4454444  43.1595636   5.0713999 -90.8414008  44.7503782   4.3788248
 -92.2330000  43.2210000   3.9480000 -92.7910000  43.4470000   2.8750000
 -92.8370000  42.5550000   4.9480000 -92.3979814  42.3984292   5.8440176
 -94.1730000  42.0830000   4.7560000 -94.5081899  42.3805269   3.7624082
 -94.2880000  40.5560000   4.8760000 -93.8418288  40.2168686   5.8108906
 -95.3327362  40.2472907   4.8396006 -93.5370000  39.9420000   3.7040000
 -93.6720000  40.4710000   2.5700000 -92.8190000  38.9310000   3.9260000
 -95.0200000  42.6760000   5.8330000 -95.2610000  42.0480000   6.8600000
 -95.4890000  43.9200000   5.6280000 -95.2833550  44.4476970   4.7917313
 -96.3420000  44.5140000   6.6130000 -96.9416196  43.7233455   7.0640222
 -95.5820000  45.2510000   7.7280000 -94.9251305  44.5476767   8.2398185
 -94.9854944  46.0501077   7.2878773 -96.5000000  45.8040000   8.6590000
 -96.0172046  46.2618565   9.3510086 -97.1890000  45.5230000   5.9140000
 -96.8120000  46.0470000   4.8690000 -98.3820000  45.8040000   6.4730000
 -98.6906594  45.3579847   7.3249971 -99.2310000  46.7880000   5.8770000
 -98.6659653  47.3192957   5.1111280-100.4700000  46.2200000   5.2510000
-100.2023805  45.4265247   4.5532343-101.3650000  45.6450000   6.3620000
-101.6334297  46.4380424   7.0599462-102.2703635  45.2282473   5.9207141
-100.8263346  44.8606669   6.8937535-101.1660000  47.2320000   4.5380000
-101.9564680  46.8582061   4.1417187 -99.6750000  47.7100000   6.9620000
 -99.8840000  47.3050000   8.1030000 -99.7840000  48.9630000   6.6240000
 -98.8700000  49.5610000   5.6670000 -99.0218960  49.0991405   4.6914419
 -97.8452133  49.3871128   5.9951379 -99.2440000  51.0510000   5.6790000
-100.0232075  51.2580096   4.9454594 -98.3712897  51.6680723   5.4652249
 -99.7460000  51.2880000   7.1140000-100.5651086  52.0061963   7.0772010
 -98.9823454  51.6437493   7.8056457-100.2700000  49.9240000   7.5710000
 -99.8595573  49.7146124   8.5588218-101.7590000  49.8280000   7.6210000
-102.3520000  49.3350000   6.6630000-102.3830000  50.2800000   8.7250000
-101.8768561  50.6923655   9.4956312-103.8120000  50.2130000   8.8090000
-104.1780390  49.5959104   7.9884422-104.3110000  49.6140000  10.1350000
-104.0202862  48.5723791  10.2714210-103.9935864  50.1956087  11.0004940
-105.8010000  49.6430000  10.1250000-106.5200000  48.6580000   9.4890000
-105.9929641  47.8482982   8.9843059-107.8950000  48.6900000   9.4870000
-108.4547215  47.9047119   8.9789300-108.5630000  49.7080000  10.1230000
-109.6526452  49.7357019  10.1205876-107.8520000  50.6940000  10.7640000
-108.3750136  51.5040106  11.2723697-106.4780000  50.6570000  10.7630000
-105.9114286  51.4369537  11.2716933-104.3380000  51.6050000   8.7270000
-103.9810000  52.4640000   9.5320000-105.1990000  51.8690000   7.7270000
-105.4842674  51.1628966   7.0635697-105.7790000  53.1740000   7.6210000
-105.5380112  53.7281755   8.5281456-105.2780000  53.9770000   6.4060000
-105.4163383  53.3511641   5.5243588-105.9052660  54.8645477   6.3229543
-103.8130000  54.3970000   6.5070000-103.6688853  55.0332530   7.3802204
-103.1676735  53.5220437   6.5851302-103.4600000  55.1770000   5.2470000
-104.1850000  56.1620000   4.9390000-102.4680000  54.7950000   4.5720000
-107.2450000  52.9900000   7.4330000-107.6810000  52.3240000   6.4950000
-108.0510000  53.5600000   8.3450000-107.6855076  54.0694755   9.1368014
-109.4720000  53.4760000   8.1890000-109.7214481  53.7885610   7.1750077
-110.0390000  52.0640000   8.4220000-109.4625261  51.3186214   7.8741060
-110.0212382  51.8264538   9.4856524-111.4780000  52.0580000   7.9250000
-111.9930000  53.1590000   7.5940000-112.0800000  50.9520000   7.8590000
-110.0740000  54.3790000   9.2100000-109.8330000  54.2180000  10.4040000
-110.8640000  55.3730000   8.7690000-111.0717995  55.5191841   7.7914782
-111.4620000  56.2500000   9.7280000-111.2110444  55.8867985  10.7245968
-110.9950000  57.7090000   9.6050000-109.9145408  57.7506251   9.7427476
-111.2489338  58.0824962   8.6129726-111.6290000  58.5130000  10.5900000
-111.3296188  59.4209764  10.5031119-112.9350000  56.2380000   9.5030000
-113.3990000  56.2560000   8.3650000-113.7160000  56.1860000  10.5990000
-113.3330059  56.1797276  11.5335456-115.1400000  56.2010000  10.4490000
-115.3690250  56.5275898   9.4346106-115.8090000  54.8360000  10.6890000
-115.3857718  54.1289756   9.9754920-115.5631142  54.5195708  11.7026630
-117.3310000  54.8790000  10.5230000-117.7551371  55.6576645  11.1569481
-117.5873830  55.0785531   9.4825455-117.8960000  53.5270000  10.9340000
-117.0880000  52.6280000  11.2910000-119.1460000  53.3760000  10.8970000
-115.7080000  57.1150000  11.4830000-115.3200000  57.0720000  12.6500000
-116.6340000  57.9950000  11.0580000-116.8653653  58.0668915  10.0774894
-117.3300000  58.8370000  11.9830000-117.5372274  58.2486495  12.8768678
-116.5620000  60.1050000  12.3960000-116.2510553  60.6170240  11.4853716
-117.2477366  60.7422109  12.9544153-115.3310000  59.8020000  13.2570000
-115.6156914  59.2198186  14.1334225-114.6016282  59.2426467  12.6711333
-114.7190000  61.1210000  13.7020000-115.3750000  62.1770000  13.5020000
-113.5880000  61.0900000  14.2560000-118.5810000  59.2560000  11.2870000
-118.5620000  59.5490000  10.0930000-119.7160000  59.2760000  12.0100000
-119.7629356  59.0591950  12.9953385-120.9220000  59.6560000  11.3410000
-120.6720023  60.3250885  10.5176405-121.6850000  58.4470000  10.7770000
-121.0400368  57.7364385  10.2600628-122.2517789  57.9271631  11.5494192
-122.6750000  58.9310000   9.7750000-122.2570000  59.2580000   8.5050000
-121.2009043  59.1594616   8.2538987-123.1490000  59.7030000   7.5600000
-122.8034778  59.9629631   6.5594330-124.4800000  59.8200000   7.8790000
-125.1954957  60.1730321   7.1363466-124.9080000  59.4890000   9.1430000
-125.9643400  59.5789956   9.3962721-124.0100000  59.0460000  10.0860000
-124.3548936  58.7837996  11.0861996-121.7970000  60.3280000  12.3490000
-121.6330000  60.1380000  13.5530000-122.7450000  61.1580000  11.8750000
-122.8648978  61.2988276  10.8820793-123.6370000  61.8330000  12.7690000
-123.3676513  61.5610024  13.7895723-123.5940000  63.3660000  12.6410000
-122.6014506  63.7534141  12.8709026-123.8860124  63.6867558  11.6410278
-124.7370000  64.1930000  13.7900000-124.4401448  65.4333356  13.4127163
-125.0240000  61.4020000  12.4200000-125.3410000  61.1870000  11.2520000
-125.8930000  61.2520000  13.4350000-125.6446576  61.4565868  14.3923764
-127.2340000  60.8330000  13.1560000-127.3316244  60.6874941  12.0801763
-127.6240000  59.5260000  13.8660000-126.9315930  58.7085439  13.6649099
-127.7385490  59.6477911  14.9431005-128.9510000  59.0990000  13.3420000
-129.0300000  58.3510000  12.1900000-128.1121287  58.0775348  11.6695878
-130.2470000  57.9490000  11.6940000-130.2957031  57.3578219  10.7795399
-131.4030000  58.2930000  12.3520000-132.3715404  57.9765673  11.9648312
-131.3340000  59.0400000  13.5040000-132.2488656  59.3159902  14.0283572
-130.1130000  59.4390000  13.9950000-130.0599909  60.0300303  14.9093157
-128.1370000  61.9050000  13.6740000-127.8170000  62.5790000  14.6510000
-129.2900000  62.1080000  13.0060000-129.5564004  61.5568210  12.2026745
-130.1940000  63.1180000  13.4660000-129.8504340  63.4698400  14.4387642
-130.2950000  64.3230000  12.5150000-129.3103267  64.7786134  12.4104329
-130.6415126  63.9801414  11.5400759-131.2070000  65.2810000  13.0310000
-131.2614504  66.0273032  12.4296129-131.5560000  62.5110000  13.5520000
-131.9420000  61.7010000  12.7110000-132.3100000  62.8740000  14.6090000
-131.9568802  63.5175034  15.3027645-133.6510000  62.3940000  14.7490000
-134.0968266  62.1561346  13.7832061-133.7710000  61.1630000  15.6620000
-133.3369981  61.3887358  16.6360563-134.8221828  60.9021695  15.7848106
-133.2390232  60.3240382  15.2133987-134.4350000  63.4920000  15.3880000
-133.8970000  64.2680000  16.1770000-135.7340000  63.6050000  15.0470000
-136.1856662  62.9709705  14.4034912-136.5260000  64.6330000  15.6570000
-135.9816092  65.0333000  16.5122764-136.8420000  65.7880000  14.6910000
-135.8920276  66.1205962  14.2726325-137.4639445  65.3758494  13.8963825
-137.5590000  66.9760000  15.3350000-138.5194556  66.6698877  15.7496337
-136.9436402  67.4069160  16.1247740-137.7850000  68.0140000  14.2450000
-137.5000000  67.6960000  13.0590000-138.2500000  69.1370000  14.5780000
-137.8320000  64.0210000  16.0500000-138.4700000  63.3420000  15.2470000
-138.2600000  64.2220000  17.3130000-137.7290548  64.7285359  18.0069870
-139.5480000  63.7110000  17.6820000-140.2630447  63.8876134  16.8784964
-139.5440000  62.2100000  18.0150000-138.8392923  62.0187147  18.8242571
-140.5432549  61.9031819  18.3239540-139.2466123  61.6424660  17.1332036
-140.0080000  64.4300000  18.9100000-139.2030000  64.8280000  19.7500000
-141.3340000  64.6330000  19.0240000-141.9547693  64.3472608  18.2802945
-141.9080000  65.2090000  20.2050000-141.2244497  65.0593678  21.0407442
-142.2040000  66.6760000  20.0840000-141.3124103  67.2060619  19.7490337
-143.3330000  66.8730000  19.0580000-144.2251274  66.3435713  19.3925348
-143.5562321  67.9355830  18.9621668-143.0187999  66.4796382  18.0912294
-142.5850000  67.2020000  21.3460000-142.7720565  68.1395380  21.2586351
-143.2090000  64.5040000  20.4100000-143.8410000  64.0780000  19.4460000
-143.6500000  64.3300000  21.6720000-143.1616842  64.6332189  22.5024850
-144.9130000  63.6700000  21.8290000-145.5657250  63.9813218  21.0134462
-144.8080000  62.1380000  21.8160000-144.3790637  61.8168587  20.8667997
-144.1621579  61.8167357  22.6331764-146.0950000  61.5580000  21.9740000
-146.0181093  60.6011315  21.9644931-145.5230000  64.0550000  23.1350000
-144.8250000  64.4070000  24.0830000-146.8700000  64.0160000  23.1910000
-147.3988486  63.7953835  22.3592868-147.5880000  64.2500000  24.4120000
-146.8991333  64.1016285  25.2435935-148.1910000  65.6610000  24.5190000
-148.7612321  65.9493151  23.6359320-148.8024226  65.8073136  25.4094239
-147.0520000  66.6170000  24.6220000-146.4310000  67.0900000  23.4890000
-146.7808047  66.7580163  22.5114912-145.3800000  67.9720000  23.5800000
-144.8992594  68.3409585  22.6739874-144.9360000  68.3880000  24.8110000
-144.1032223  69.0868716  24.8894837-145.5480000  67.9180000  25.9480000
-145.1992053  68.2445245  26.9277062-146.5990000  67.0370000  25.8510000
-147.0824745  66.6638677  26.7538425-148.7120000  63.2630000  24.4200000
-149.2630000  62.9390000  23.3710000-149.0700000  62.7350000  25.6070000
-148.6259169  62.9985694  26.4749981-150.1230000  61.7630000  25.6500000
-150.5997540  61.7270260  24.6704538-149.6290000  60.3520000  26.0080000
-149.0052504  60.3889860  26.9011225-150.4702606  59.6807237  26.1805363
-148.8050000  59.8410000  24.8350000-149.2510000  60.0250000  23.6710000
-147.7200000  59.2520000  25.0870000-151.1270000  62.1660000  26.6840000
-150.7670000  62.6410000  27.7600000-152.4280000  62.0050000  26.3650000
-152.7115563  61.6782955  25.4523339-153.4490000  62.2990000  27.3300000
-153.1062709  62.0791120  28.3410812-153.7548262  63.3434768  27.2696847
-154.6250000  61.4280000  27.0140000-154.9070000  61.1490000  25.8490000
-155.3470000  60.9710000  28.0570000-155.1192505  61.2363601  29.0045302
-156.4960000  60.1360000  27.8410000-156.7298279  60.1370053  26.7763767
-156.2770000  58.6820000  28.2950000-155.4467015  58.2372833  27.7464285
-156.0611435  58.6567171  29.3631137-157.5490000  57.8940000  28.0160000
-158.3250000  58.3220000  27.1190000-157.7600000  56.8520000  28.6920000
-157.6220000  60.6720000  28.6680000-157.5670000  60.6260000  29.8960000
-158.6760000  61.2160000  28.0280000-158.7361436  61.2961068  27.0229801
-159.7790000  61.6870000  28.8150000-159.6025957  61.4098659  29.8543159
-159.9750000  63.2120000  28.7390000-159.0368332  63.7218871  28.9579916
-160.3121239  63.4860430  27.7393261-161.0280000  63.6250000  29.7610000
-161.6360000  62.7220000  30.3950000-161.2330000  64.8570000  29.9260000
-161.0350000  61.0510000  28.3030000-161.6440000  61.5490000  27.3570000
-161.4590000  59.9230000  28.9090000-160.9484975  59.4903784  29.6655217
-162.6950000  59.3240000  28.4920000-163.3253391  60.1058351  28.0683188
-162.5220000  58.2110000  27.4450000-161.7876676  58.5550908  26.7166754
-162.1371358  57.3309425  27.9602460-163.8230000  57.8520000  26.7260000
-163.7162744  56.9118368  26.1848867-164.6438894  57.7694626  27.4383394
-164.1180000  58.9740000  25.7400000-163.3100000  59.9390000  25.6860000
-165.1530000  58.8810000  25.0280000-163.3100000  58.7100000  29.7070000
-162.6010000  58.2110000  30.5810000-164.6530000  58.7480000  29.8160000
-165.2585854  59.1490396  29.1141931-165.2540000  58.1520000  30.9710000
-164.4746240  57.6707682  31.5618368-165.9810000  59.1800000  31.8590000
-165.3534229  60.0315295  32.1219518-166.9054052  59.5370518  31.4050297
-166.3620000  58.5200000  33.1390000-165.4630000  58.4630000  34.1810000
-164.4742745  58.9043317  34.0555086-165.8000000  57.8590000  35.3680000
-165.0800757  57.8150383  36.1852374-167.0500000  57.3090000  35.5230000
-167.3244462  56.8320508  36.4639031-167.9540000  57.3610000  34.4900000
-168.9442671  56.9216229  34.6100796-167.6100000  57.9670000  33.3050000
-168.3290702  58.0120961  32.4870731-166.2810000  57.1670000  30.5010000
-167.1560000  57.5010000  29.7030000-166.1810000  55.9070000  30.9740000
-165.4248299  55.6388602  31.5875203-167.1650000  54.9190000  30.6350000
-168.1373848  55.4094373  30.5898532-166.9030000  54.2190000  29.2860000
-166.8581291  54.9677880  28.4951761-165.9548188  53.6833995  29.3327389
-168.0310000  53.2320000  28.9890000-168.1950000  52.2500000  29.7600000
-168.7470000  53.4520000  27.9740000-167.1340000  53.8700000  31.6980000
-166.1440000  53.1520000  31.8320000-168.2050000  53.7560000  32.5070000
-169.0085640  54.3672457  32.4793778-168.1910000  52.6960000  33.4700000
-167.3147660  52.0687677  33.3060094-168.1800000  53.1740000  34.8970000
-167.2843436  53.7700608  35.0719614-169.4280000  54.0330000  35.1660000
-170.3241145  53.4374395  34.9916838-169.4167015  54.3773516  36.2001148
-169.4284857  54.8935624  34.4970212-168.1440000  52.0660000  35.7840000
-168.1372667  52.3819006  36.6905108-169.4160000  51.8590000  33.2720000
-170.5390000  52.3600000  33.3050000-169.2280000  50.5490000  33.0200000
-168.3061245  50.1442836  32.9396912-170.3630000  49.6800000  32.9160000
-171.2436098  50.2164551  33.2693291-170.6240000  49.2000000  31.4760000
-170.5442443  50.0351999  30.7801699-169.8997784  48.4317154  31.2051829
-172.0000000  48.6300000  31.4120000-173.0740000  49.4720000  31.2340000
-172.8982616  50.5441883  31.1466633-174.3540000  48.9780000  31.1660000
-175.1957126  49.6559594  31.0246043-174.5720000  47.6260000  31.2770000
-175.8850000  47.1150000  31.2080000-176.5473588  47.7984207  31.0822354
-173.5060000  46.7750000  31.4550000-173.6758664  45.7019213  31.5430227
-172.2260000  47.2770000  31.5220000-171.3823264  46.6014297  31.6631371
-170.0180000  48.4810000  33.7430000-168.9160000  47.9480000  33.6220000
-170.9280000  48.0260000  34.6250000-171.8361698  48.4428842  34.7717467
-170.5820000  46.8620000  35.3900000-169.7722074  46.3426445  34.8775500
-170.1280000  47.1870000  36.8240000-169.3612884  47.9617592  36.8231613
-170.9697665  47.5102463  37.4364059-169.5410000  45.9230000  37.4330000
-168.3240000  45.7830000  37.5460000-170.4270000  44.9730000  37.8370000
-170.0896008  44.1144071  38.2481932-171.4182072  45.1305585  37.7239323
-171.7870000  45.9860000  35.4900000-172.8950000  46.4690000  35.7170000
-171.6030000  44.6640000  35.2960000-170.7027492  44.2636340  35.0738404
-172.7210000  43.7800000  35.4480000-173.3942702  44.2092444  36.1899944
-173.5080000  43.5450000  34.1480000-173.8643465  44.5139003  33.7982164
-172.8178879  43.1262301  33.4155540-174.6970000  42.5990000  34.3270000
-174.3484311  41.6246495  34.6694057-175.4028099  43.0066945  35.0506828
-175.3850000  42.4460000  32.9790000-174.9430000  43.1210000  32.0120000
-176.3640000  41.6580000  32.9000000-172.2230000  42.4400000  35.8810000
-171.2050000  41.9540000  35.3880000-172.9270000  41.8190000  36.8470000
-173.7095328  42.2796603  37.2891921-172.6230000  40.4740000  37.2350000
-171.9552090  40.0490495  36.4856193-171.9500000  40.3580000  38.6170000
-171.1067818  41.0454945  38.6835848-172.6746767  40.5961841  39.3955962
-171.4550000  38.9270000  38.8040000-172.1420000  37.9850000  38.3240000
-170.3730000  38.7580000  39.4260000-173.9470000  39.7900000  37.3180000
-174.6140000  39.8430000  38.3510000-174.3770000  39.1310000  36.2270000
-173.8398233  39.0381075  35.3767580-175.6710000  38.5220000  36.2820000
-176.1356117  38.7886513  37.2312799-176.6030000  38.9620000  35.1370000
-176.6370241  40.0502595  35.0856894-176.2416158  38.5651735  34.1883008
-178.0010000  38.4230000  35.4130000-178.1740000  37.7050000  36.4340000
-178.9150000  38.7240000  34.5990000-175.5250000  37.0400000  36.1910000
-175.1380000  36.5050000  35.1530000-175.8130000  36.3340000  37.3010000
-176.0661522  36.7745220  38.1738996-175.8080000  34.9050000  37.2390000
-175.4507198  34.6078153  36.2530328-174.9150000  34.2440000  38.3060000
-173.9332376  34.7134757  38.2440783-175.3586055  34.4575674  39.2784727
-174.7680000  32.7300000  38.1340000-175.7405680  32.2464657  38.2256891
-174.3399569  32.5018196  37.1578791-173.8410000  32.2160000  39.2270000
-173.4440000  33.0300000  40.1030000-173.5160000  30.9990000  39.1990000
-177.2190000  34.4940000  37.5030000-177.7620000  34.7700000  38.5720000
-177.8600000  33.8340000  36.5210000-177.4094998  33.5804103  35.6533358
-179.2230000  33.4380000  36.7200000-179.5362124  33.7790616  37.7067493
-180.1910000  34.0110000  35.6720000-180.0458332  35.0874928  35.5815060
-180.0223247  33.5394999  34.7038387-181.6150000  33.7280000  36.1330000
-181.8210000  33.5930000  37.3690000-182.5140000  33.6390000  35.2550000
-179.2950000  31.9540000  36.6040000-178.9930000  31.3920000  35.5520000
-179.6790000  31.2690000  37.6960000-179.9067412  31.7110757  38.5750918
-179.8020000  29.8460000  37.6000000-179.3401467  29.5308133  36.6643462
-179.1410000  29.0790000  38.7570000-179.4576154  29.4803334  39.7196970
-179.4058733  28.0232520  38.6992209-177.6330000  29.2320000  38.6150000
-177.1890000  30.3350000  38.2010000-176.9060000  28.2530000  38.9300000
-181.2570000  29.5200000  37.6330000-181.9080000  29.6490000  38.6690000
-181.8150000  29.1020000  36.4810000-181.2816343  29.0057295  35.6287369
-183.1930000  28.7170000  36.4660000-183.6045044  28.9225478  37.4541870
-184.0540000  29.4430000  35.4130000-183.5443379  29.3304502  34.4560902
-185.0123177  28.9249104  35.3768005-184.2880000  30.9280000  35.6940000
-184.8054471  31.0655079  36.6434424-183.3369958  31.4600521  35.7187149
-185.1480000  31.4780000  34.5630000-185.4390000  30.7070000  33.6100000
-185.5320000  32.6760000  34.6410000-183.2260000  27.2740000  36.1010000
-182.5270000  26.8430000  35.1840000-184.0240000  26.4740000  36.8280000
-184.5902132  26.8013378  37.5976440-184.1150000  25.0980000  36.4580000
-183.5054805  24.9413873  35.5680238-183.6350000  24.1360000  37.5580000
-182.5925668  24.3522507  37.7918116-184.2444597  24.2806692  38.4500369
-183.7520000  22.7900000  37.1180000-183.4499615  22.1991706  37.8117530
-185.5550000  24.8090000  36.2270000-186.3980000  25.0870000  37.0790000
-185.8810000  24.2500000  35.0490000-185.1962260  24.0327850  34.3390693
-187.2450000  23.9010000  34.8040000-187.8346687  23.8977329  35.7207221
-187.9160000  24.7960000  33.8060000-187.3535431  24.7991553  32.8723343
-189.3360000  24.2640000  33.5470000-189.8992522  24.2609825  34.4801874
-189.8380875  24.9048813  32.8222381-189.2782389  23.2486462  33.1547985
-187.8750000  26.2390000  34.3360000-186.8384189  26.5471477  34.4725530
-188.3597465  26.9032961  33.6205763-188.3977304  26.2908165  35.2910753
-187.2380000  22.5260000  34.2290000-186.4550000  22.2240000  33.3290000
-188.1050000  21.6420000  34.7540000-188.7266130  21.8799811  35.5136457
-188.1780000  20.3230000  34.2060000-187.8825899  20.3614409  33.1574990
-187.3130000  19.3220000  34.9110000-186.2917621  19.6966823  34.9801849
-187.8740000  19.0990000  36.3260000-188.8951205  18.7238514  36.2576183
-187.2550525  18.3724839  36.8524765-187.8698786  20.0424396  36.8718986
-187.2900000  18.0990000  34.1930000-186.7333684  17.4674662  34.6544397
-189.5890000  19.8580000  34.3390000-190.3530000  20.3830000  35.1470000
-189.9780000  18.8590000  33.5240000-189.3681069  18.4770143  32.8153275
-191.2940000  18.3110000  33.6540000-191.4709191  17.9569139  34.6695894
-192.0518876  19.0484602  33.3896929-191.3910000  17.1560000  32.7130000
-190.8060000  17.1750000  31.6290000-192.1460000  16.1150000  33.1110000
-192.6259281  16.1141138  33.9996887-192.3190000  14.9880000  32.2450000
-191.9752336  15.2693009  31.2496138-191.5490000  13.7350000  32.6950000
-190.4772065  13.9310381  32.7254449-191.8873325  13.4144332  33.6803264
-191.8290000  12.6620000  31.7010000-191.1280000  12.6160000  30.5180000
-190.3684392  13.3721710  30.3195755-191.3760000  11.6320000  29.5920000
-190.8152940  11.6055552  28.6576493-192.3320000  10.6780000  29.8470000
-192.5930000   9.6640000  28.9030000-192.0463128   9.7335744  28.1169389
-193.0380000  10.7150000  31.0270000-193.7985941   9.9614252  31.2312599
-192.7840000  11.7030000  31.9490000-193.3411613  11.7308685  32.8854266
-193.7730000  14.6450000  32.2700000-194.4390000  14.8120000  33.2910000
-194.3200000  14.1760000  31.1310000-193.7969531  14.0561925  30.2753322
-195.7050000  13.8110000  31.1370000-196.0606184  13.8359298  32.1670550
-196.5890000  14.7420000  30.2890000-196.4939810  15.7729895  30.6297805
-196.2908691  14.6768195  29.2425921-198.0580000  14.4040000  30.3410000
-198.8060000  13.6310000  29.5030000-198.2930338  13.1803297  28.6533756
-200.1100000  13.5910000  29.9410000-200.8684712  13.0874873  29.5036261
-200.2100000  14.3540000  31.0860000-201.2790000  14.6270000  31.8920000
-202.2476479  14.1971504  31.6369525-201.0590000  15.4360000  32.9850000
-201.8872281  15.6758908  33.6517763-199.8090000  15.9530000  33.2580000
-199.6475494  16.5940496  34.1246537-198.7300000  15.6770000  32.4480000
-197.7536534  16.0979970  32.6880199-198.9480000  14.8750000  31.3650000
-195.8010000  12.4360000  30.5630000-195.0520000  12.0780000  29.6550000
-196.7280000  11.6130000  31.0990000-197.3418913  11.9262711  31.8373075
-196.8820000  10.2740000  30.6090000-196.3198623  10.1219225  29.6876028
-196.5040000   9.2180000  31.6050000-195.4888657   9.3832809  31.9659502
-197.4880000   9.3110000  32.7830000-198.5033707   9.1453551  32.4228824
-197.2385278   8.5536299  33.5261386-197.4205951  10.3000311  33.2361813
-196.4590000   7.8370000  30.9330000-196.3138892   7.0951087  31.7182649
-197.4244421   7.6741475  30.4539384-195.3460000   7.7030000  29.8940000
-194.3801544   7.8652756  30.3724442-195.3722986   6.7037160  29.4594438
-195.4907063   8.4443164  29.1081184-198.3230000  10.0620000  30.2750000
-199.2100000  10.5440000  30.9770000-198.5870000   9.3440000  29.1650000
-197.8449072   8.9635397  28.5952215-199.9430000   9.0760000  28.7830000
-200.6122565   9.4291158  29.5675407-200.3380000   9.7240000  27.4880000
-200.1370740  10.7943415  27.5338036-199.5170000   9.0970000  26.3490000
-199.7177678   8.0266689  26.3022738-199.7953157   9.5600182  25.4022933
-198.4551171   9.2592268  26.5338995-201.7270000   9.5420000  27.2540000
-201.9691313   9.9596902  26.4242364-200.0880000   7.5980000  28.5980000
-199.1470000   6.9140000  28.2030000-201.1533419   7.0393855  28.8498652
 100.5720000   7.6880000 -11.1700000 100.9288803   8.5492361 -11.5586000
 101.2301106   6.9469113 -11.3643667 100.2709326   7.8600975 -10.2214008
  99.3570000   7.3280000 -11.9020000  99.4938375   6.3548953 -12.3736376
  98.1410000   7.2530000 -10.9650000  98.3156964   6.5088551 -10.1879358
  97.9613598   8.2240592 -10.5036178  96.8670000   6.8630000 -11.6540000
  95.7450000   7.6680000 -11.6620000  94.7800000   7.0680000 -12.3400000
  93.8066915   7.5436157 -12.4606618  95.2370000   5.9050000 -12.7730000
  94.7204897   5.2303684 -13.3190670  96.5400000   5.7540000 -12.3600000
  97.0943721   4.8532863 -12.6236049  99.0990000   8.3400000 -12.9990000
  99.2770000   9.5460000 -12.7970000  98.6630000   7.8650000 -14.1640000
  98.5210403   6.8706835 -14.2702148  98.4370000   8.7230000 -15.3210000
  98.7893527   9.7378722 -15.1366601  99.1190000   8.1650000 -16.5810000
  98.5708761   7.2941976 -16.9406716  99.1270000   9.2420000 -17.6610000
  99.6753806  10.1130041 -17.3022088  99.6091901   8.8539723 -18.5582335
  98.1021551   9.5297836 -17.8954625 100.5360000   7.6680000 -16.2420000
 101.2012108   8.5207824 -16.3774898 100.5186440   7.3850189 -15.1895172
 101.0440000   6.4820000 -17.0840000 101.0620753   6.7643991 -18.1366271
 102.0503318   6.2126872 -16.7632723 100.3795066   5.6286358 -16.9486561
  96.9350000   8.8700000 -15.5290000  96.2050000   7.8720000 -15.5670000
  96.4820000  10.1060000 -15.6700000  97.1148576  10.8755233 -15.5043967
  95.0970000  10.4100000 -15.9980000  94.4494209   9.5778012 -15.7219825
  94.6560000  11.6500000 -15.2220000  94.7757941  11.4524501 -14.1567664
  95.3035060  12.4772598 -15.5126498  93.2170000  12.0470000 -15.4820000
  92.4460000  11.3240000 -16.1220000  92.8470000  13.2140000 -14.9710000
  91.9016092  13.5433669 -15.1046169  93.5124012  13.7677355 -14.4506933
  95.0160000  10.5990000 -17.5110000  95.5990000  11.5520000 -18.0450000
  94.3110000   9.6760000 -18.2000000  93.9042221   8.8968380 -17.7024685
  94.1440000   9.7350000 -19.6500000  95.0872531  10.0100153 -20.1219528
  93.7100000   8.3780000 -20.1850000  92.7369263   8.1643818 -19.7427399
  93.6019244   8.4875281 -21.2640845  94.6560000   7.2440000 -19.8880000
  95.6636917   7.5197277 -20.1988577  94.6504978   7.0361550 -18.8180130
  94.2130000   6.0020000 -20.6480000  93.1649949   5.8207961 -20.4093591
  94.3118215   6.2097357 -21.7134481  95.0370000   4.7660000 -20.2920000
  96.0734365   4.9539511 -20.5723112  94.9746484   4.6124614 -19.2146712
  94.5420000   3.5400000 -21.0010000  94.6000962   3.6819026 -21.9992926
  95.1109169   2.7473624 -20.7399267  93.5817635   3.3654189 -20.7410647
  93.1300000  10.7790000 -20.1100000  93.0640000  11.0620000 -21.3200000
  92.3310000  11.3360000 -19.1920000  92.4466583  11.1062567 -18.2153012
  91.2840000  12.2770000 -19.5600000  91.1743000  12.9751079 -18.7301142
  91.6315258  12.8141805 -20.4424751  89.9330000  11.6520000 -19.8620000
  89.5320000  10.6620000 -19.2300000  89.2110000  12.2350000 -20.8320000
  89.5871377  13.0120944 -21.3561604  87.8690000  11.7670000 -21.1570000
  87.8851304  11.4771026 -22.2076181  87.6872875  10.8866770 -20.5404683
  86.7410000  12.7690000 -20.9360000  86.7700000  13.5760000 -19.9870000
  85.7370000  12.7220000 -21.8090000  85.7468550  12.0869531 -22.5943137
  84.6060000  13.6300000 -21.6690000  84.9686621  14.6577018 -21.6488912
  83.6270000  13.4820000 -22.8260000  84.1732012  13.6506218 -23.7540787
  83.2401712  12.4630367 -22.8126801  82.4750000  14.4600000 -22.7340000
  82.4489248  14.8584813 -21.7197842  82.6619905  15.2710665 -23.4377810
  81.1370000  13.8060000 -23.0570000  81.2988345  12.7328446 -23.1582224
  80.4574568  13.9936188 -22.2256639  80.5200000  14.3070000 -24.2910000
  80.6466628  13.7421626 -25.1186561  79.8100000  15.4340000 -24.3910000
  79.6170000  16.2310000 -23.3310000  80.0131053  15.9808910 -22.4362117
  79.0763219  17.0781202 -23.4317682  79.2970000  15.7640000 -25.5690000
  79.4481507  15.1648417 -26.3679136  78.7576318  16.6128901 -25.6615538
  83.8890000  13.3660000 -20.3510000  83.5340000  12.2170000 -20.0640000
  83.6750000  14.3780000 -19.5240000  83.9770000  15.7990000 -19.7550000
  83.1786853  16.2549722 -20.3405623  84.9203798  15.8925270 -20.2929463
  84.0560000  16.3490000 -18.3630000  83.7361896  17.3910265 -18.3641007
  85.0830479  16.2850730 -18.0035736  83.1170000  15.4720000 -17.5070000
  82.1489635  15.9711067 -17.4634465  83.4805220  15.2963575 -16.4945272
  82.9830000  14.1380000 -18.2540000  83.4830492  13.3238203 -17.7294426
  81.5230000  13.7670000 -18.4930000  80.8670000  14.2900000 -19.4010000
  81.0240000  12.8410000 -17.6700000  81.6359444  12.4162729 -16.9879221
  79.6280000  12.4100000 -17.7120000  79.3288365  12.2115896 -18.7411908
  79.4530000  11.1360000 -16.9010000  79.9669262  11.2808991 -15.9507457
  78.3856915  11.0081311 -16.7204396  79.9870000   9.9310000 -17.5710000
  79.4319180   9.7437521 -18.4901970  81.0410720  10.0770082 -17.8070422
  79.8420000   8.7780000 -16.6670000  80.5650791   8.8445325 -15.8540861
  78.8336399   8.7486096 -16.2541494  80.0790000   7.5530000 -17.3990000
  80.4069263   7.6001978 -18.3531153  79.8860000   6.3680000 -16.8590000
  79.4480000   6.3130000 -15.6090000  79.2726792   7.1678593 -15.1004940
  79.2916360   5.4164912 -15.1709110  80.1180000   5.2600000 -17.5490000
  80.4472419   5.3217245 -18.5018326  79.9644337   4.3592666 -17.1186566
  78.6970000  13.4720000 -17.1390000  79.0610000  14.2050000 -16.2120000
  77.4680000  13.5220000 -17.6750000  77.2907867  13.0113134 -18.5281670
  76.3900000  14.3350000 -17.1180000  76.8008808  15.0806854 -16.4373904
  75.6400000  15.0550000 -18.2350000  74.8548751  14.3976706 -18.6086257
  75.1912696  15.9606907 -17.8269982  76.5720000  15.4210000 -19.3680000
  77.2682240  16.1809344 -19.0132146  77.1263943  14.5293081 -19.6606337
  75.8490000  15.9570000 -20.5770000  74.7110000  15.5610000 -20.8690000
  76.5020000  16.8670000 -21.2940000  76.0691922  17.2635271 -22.1159155
  77.4277363  17.1574054 -21.0133250  75.4520000  13.4550000 -16.2930000
  75.5350000  12.2220000 -16.3410000  74.5680000  14.0870000 -15.5060000
  74.5075724  15.0924158 -15.4312541  73.6980000  13.2760000 -14.6580000
  74.2938209  12.5173438 -14.1505185  72.9930000  14.1290000 -13.6040000
  73.6837923  14.8037551 -13.0984204  72.2232214  14.7108368 -14.1109585
  72.2960000  13.3380000 -12.5260000  71.1100000  12.6560000 -12.7330000
  70.7260000  12.0790000 -11.6050000  69.8140495  11.4832597 -11.5657731
  71.6130000  12.3720000 -10.6670000  71.5807611  12.0700115  -9.7037433
  72.6000000  13.1630000 -11.2150000  73.4224462  13.5171107 -10.5934784
  72.6830000  12.5260000 -15.5170000  72.2210000  13.0280000 -16.5500000
  72.3690000  11.2910000 -15.0860000  72.7433486  10.9487784 -14.2125890
  71.5330000  10.3940000 -15.8800000  72.0715141  10.0739386 -16.7719992
  71.1670000   9.1590000 -15.0620000  72.1258507   8.8831675 -14.6231140
  70.4892919   9.4893842 -14.2748164  70.5680000   7.9510000 -15.7740000
  69.5143658   8.1746179 -15.9411849  71.2300000   7.5990000 -17.1030000
  72.2836232   7.3747914 -16.9365441  70.7375988   6.7279451 -17.5353253
  71.1423377   8.4424629 -17.7878256  70.6320000   6.7690000 -14.8380000
  70.0638438   6.9893538 -13.9342621  70.2078358   5.8929614 -15.3286550
  71.6706131   6.5697177 -14.5740522  70.2790000  11.0950000 -16.3610000
  69.8800000  10.9320000 -17.5190000  69.6770000  11.9240000 -15.4980000
  70.1012035  12.1285210 -14.6045114  68.3600000  12.4780000 -15.7800000
  67.7335223  11.7292697 -16.2647967  67.6870000  12.9070000 -14.4720000
  68.4262375  13.6210794 -14.1090706  66.7647919  13.4331762 -14.7185174
  67.4040000  11.8610000 -13.3780000  68.3541981  11.4428183 -13.0458127
  66.6730000  12.4830000 -12.1810000  65.7224326  12.9010110 -12.5123417
  66.4894997  11.7162928 -11.4282793  67.2870084  13.2742105 -11.7507907
  66.6560000  10.6390000 -13.8960000  67.2472345  10.1522643 -14.6716478
  66.4878927   9.9407190 -13.0760947  65.6969562  10.9484950 -14.3113876
  68.4000000  13.6390000 -16.7750000  67.4100000  13.8710000 -17.4850000
  69.5120000  14.3700000 -16.8620000  70.2618119  14.2262639 -16.2007728
  69.6660000  15.4240000 -17.8690000  68.7202493  15.9443617 -18.0202562
  70.7080000  16.4340000 -17.3920000  70.6325746  17.3560696 -17.9683662
  70.5644869  16.6545537 -16.3342382  71.9830000  15.8630000 -17.5840000
  72.6574188  16.4801588 -17.2909573  70.0720000  14.8970000 -19.2550000
  70.2350000  15.7010000 -20.1840000  70.2250000  13.5830000 -19.4210000
  70.0981698  12.9689378 -18.6292039  70.5920000  12.9930000 -20.7000000
  71.3554733  13.6003304 -21.1861661  71.1480000  11.5910000 -20.4870000
  70.7600651  11.3279895 -19.5029110  70.7372989  10.9102885 -21.2326919
  72.6710000  11.4790000 -20.4800000  73.0157583  11.4947594 -21.5139217
  73.3400000  12.6300000 -19.6970000  72.9960612  12.6146041 -18.6628009
  74.4225929  12.5054724 -19.7212138  73.0741529  13.5833802 -20.1536092
  73.0470000  10.1060000 -19.9330000  72.6181900   9.3312231 -20.5685644
  74.1321797  10.0045278 -19.9192284  72.6597544   9.9995144 -18.9196883
  69.4090000  12.9060000 -21.6580000  68.2460000  12.9580000 -21.2630000
  69.7190000  12.7160000 -22.9350000  70.6523781  12.8539462 -23.2953826
  68.6690000  12.3460000 -23.8670000  67.7083408  12.8095905 -23.6426859
  69.0480000  12.6800000 -25.3140000  68.1482177  12.6558774 -25.9287440
  69.6900000  14.0750000 -25.4000000  70.5901592  14.0997554 -24.7858338
  69.9513478  14.2920341 -26.4357088  68.9841199  14.8232419 -25.0394893
  69.8930000  11.6490000 -25.8720000  70.1192764  11.8757421 -26.7769792
  68.3540000  10.8580000 -23.7490000  69.0790000  10.0730000 -23.1310000
  67.2290000  10.4820000 -24.3560000  66.6166626  11.1636876 -24.7807872
  66.8040000   9.0890000 -24.3370000  66.6176057   8.7578120 -23.3153979
  65.5040000   8.9590000 -25.1390000  65.7537648   8.9999980 -26.1992056
  65.0583012   7.9913850 -24.9084055  64.5050000  10.0740000 -24.8060000
  65.0200763  10.8449677 -24.2329328  64.1346878  10.5011675 -25.7379329
  63.3440000   9.5400000 -24.0010000  63.7008975   8.7835151 -23.3021054
  62.8778090  10.3547202 -23.4469274  62.3460000   8.9370000 -24.8710000
  62.5134195   8.0083709 -25.2311639  61.2210000   9.5470000 -25.1990000
  60.3540000   8.9550000 -25.9980000  60.5525411   8.0328487 -26.3589965
  59.4957386   9.4266843 -26.2449838  60.9630000  10.7460000 -24.7100000
  61.6259369  11.1883519 -24.0895651  60.1038983  11.2152813 -24.9586323
  67.9110000   8.1730000 -24.8580000  68.2690000   7.1870000 -24.2000000
  68.5080000   8.5130000 -26.0060000  68.2454542   9.3467645 -26.5119701
  69.5160000   7.6310000 -26.5970000  69.0960033   6.6371695 -26.7519286
  69.9750000   8.1850000 -27.9500000  69.2962703   8.9922833 -28.2251706
  70.9807293   8.5848190 -27.8205655  69.9850000   7.1420000 -29.0420000
  68.9605817   6.8358477 -29.2539876  70.4294028   7.5691758 -29.9409600
  70.7900000   5.9390000 -28.6050000  70.9207606   5.9754281 -27.5234855
  70.2464266   5.0334448 -28.8744387  72.1020000   5.8990000 -29.2320000
  72.3741059   6.6860503 -29.8034976  72.9580000   4.8850000 -29.0960000
  72.6480000   3.8240000 -28.3420000  71.7562867   3.7875905 -27.8691133
  73.3071296   3.0643735 -28.2491809  74.1330000   4.9300000 -29.7140000
  74.3709324   5.7303580 -30.2822564  74.7830475   4.1636498 -29.6127855
  70.6980000   7.4450000 -25.6540000  71.1540000   6.3190000 -25.4140000
  71.1790000   8.5470000 -25.1030000  70.8026407   9.4524462 -25.3451161
  72.2910000   8.4910000 -24.1770000  73.1268088   7.9720597 -24.6462801
  72.7360000   9.8940000 -23.8100000  71.9124095  10.4232622 -23.3307503
  73.5808753   9.8398347 -23.1234492  73.0349235  10.4284622 -24.7117173
  71.9160000   7.7150000 -22.9280000  72.6960000   6.9110000 -22.4330000
  70.7070000   7.9360000 -22.4340000  70.0814791   8.5970462 -22.8719963
  70.2650000   7.2690000 -21.2190000  70.9680756   7.4709543 -20.4109168
  68.8870000   7.7720000 -20.8030000  68.2654691   7.7842888 -21.6983477
  68.4834157   7.0520564 -20.0910302  68.8960000   9.1510000 -20.1760000
  69.6724387   9.1831745 -19.4116646  69.1143912   9.8905419 -20.9463799
  67.5730000   9.4980000 -19.5350000  66.5130000   9.2080000 -20.0780000
  67.6300000  10.1270000 -18.3730000  66.7760042  10.3837145 -17.8987740
  68.5272616  10.3477310 -17.9652000  70.2230000   5.7680000 -21.3860000
  70.6200000   5.0250000 -20.4990000  69.7510000   5.3200000 -22.5380000
  69.4257872   5.9590903 -23.2492662  69.6540000   3.8990000 -22.7960000
  69.0590544   3.4181621 -22.0195118  68.9830000   3.6580000 -24.1430000
  67.9288981   3.9109317 -24.0290085  69.4437081   4.3375928 -24.8599391
  69.1090000   2.2330000 -24.6450000  70.1629850   1.9551704 -24.6397776
  68.5576749   1.5775599 -23.9708035  68.5550000   2.0920000 -26.0540000
  67.5163355   2.4225662 -26.0550597  69.1379252   2.7251178 -26.7229241
  68.6280000   0.6500000 -26.5300000  69.6714745   0.3358580 -26.5059928
  68.0479171   0.0345960 -25.8423366  68.0940000   0.4900000 -27.9090000
  68.6316542   1.0598348 -28.5464292  68.1607854  -0.4791072 -28.1855336
  67.1269786   0.7806343 -27.9313686  71.0250000   3.2550000 -22.7820000
  71.2040000   2.1780000 -22.2280000  71.9960000   3.9270000 -23.3870000
  71.7921025   4.8019518 -23.8485025  73.3550000   3.4170000 -23.4470000
  73.3653449   2.4175250 -23.8817895  74.2050000   4.3370000 -24.3190000
  73.8717152   4.2623702 -25.3541091  74.1195654   5.3707086 -23.9839665
  75.6620000   4.0050000 -24.3140000  76.2030000   3.0120000 -25.0990000
  77.5040000   2.9490000 -24.8910000  78.1156618   2.2177432 -25.4194244
  77.8290000   3.8700000 -24.0030000  78.7571467   4.0552554 -23.6504039
  76.6950000   4.5460000 -23.6280000  76.7579493   5.3533027 -22.8983419
  73.9750000   3.2950000 -22.0660000  74.6280000   2.3060000 -21.7560000
  73.7440000   4.2980000 -21.2330000  73.2064113   5.0939767 -21.5452800
  74.2890000   4.3200000 -19.8840000  75.3711927   4.1939287 -19.9166230
  73.9740000   5.6520000 -19.2150000  72.9126213   5.8449020 -19.3710873
  74.1673781   5.5280770 -18.1494729  74.7820000   6.8200000 -19.7420000
  74.9869742   6.6551179 -20.7997808  74.1971553   7.7321688 -19.6236500
  76.0900000   6.9580000 -18.9900000  76.7096992   6.0814983 -19.1792527
  76.6112596   7.8517632 -19.3328924  75.8660000   7.0700000 -17.5560000
  75.7670422   6.2110455 -17.0339810  75.7880000   8.2200000 -16.9020000
  75.5790000   8.2280000 -15.5960000  75.4789709   7.3548401 -15.0983194
  75.5203957   9.1072313 -15.1024238  75.9220000   9.3600000 -17.5540000
  76.0838206   9.3520523 -18.5509208  75.8620837  10.2348775 -17.0529030
  73.7650000   3.1830000 -19.0240000  74.5030000   2.6000000 -18.2370000
  72.4820000   2.8810000 -19.1660000  71.9044518   3.4096005 -19.8040587
  71.8560000   1.8240000 -18.3810000  72.4409216   1.6330573 -17.4812741
  70.4480000   2.2380000 -17.9680000  69.9535163   2.4912865 -18.9057799
  69.9627754   1.3680808 -17.5253966  70.3500000   3.4170000 -17.0080000
  70.8627922   4.2750907 -17.4425405  68.8970000   3.7700000 -16.7590000
  68.3836271   2.9124888 -16.3240039  68.8402554   4.6139185 -16.0714810
  68.4208280   4.0377834 -17.7022140  71.0480000   3.0850000 -15.7030000
  72.0984257   2.8681543 -15.8971220  70.9723315   3.9340319 -15.0236471
  70.5755772   2.2138808 -15.2490538  71.7940000   0.5080000 -19.1310000
  71.1880000  -0.4500000 -18.6700000  72.4770000   0.4490000 -20.2690000
  72.9965576   1.2538986 -20.5888398  72.4320000  -0.7300000 -21.1260000
  71.3996374  -0.9531910 -21.3952815  73.2310000  -0.4860000 -22.4100000
  72.8219975   0.4094724 -22.8779159  74.2642258  -0.3018944 -22.1156369
  73.1840000  -1.6400000 -23.3980000  73.6273773  -2.5177103 -22.9277426
  72.1417175  -1.8462956 -23.6412926  73.9450000  -1.3090000 -24.6710000
  73.5189481  -0.4096348 -25.1156583  74.9912642  -1.1304249 -24.4229242
  73.8740000  -2.3930000 -25.6480000  73.3612698  -3.2222488 -25.3842700
  74.4380000  -2.3520000 -26.8500000  74.3220000  -3.3850000 -27.6740000
  73.8037901  -4.2021955 -27.3846040  74.7524210  -3.3495926 -28.5870080
  75.1180000  -1.2800000 -27.2310000  75.2066183  -0.4928875 -26.6043416
  75.5444190  -1.2551674 -28.1462316  72.9240000  -1.9970000 -20.4420000
  72.3410000  -3.0660000 -20.6250000  73.9890000  -1.8920000 -19.6580000
  74.4898840  -1.0216589 -19.5497367  74.4960000  -3.0680000 -18.9730000
  74.6600296  -3.8700718 -19.6926349  75.8190000  -2.7590000 -18.2770000
  76.3432655  -2.0260480 -18.8902099  75.5797872  -2.3179014 -17.3093692
  76.7070000  -3.9770000 -18.0730000  77.4967009  -3.7074221 -17.3717148
  76.0894272  -4.7634445 -17.6391704  77.3270000  -4.4760000 -19.3650000
  77.7930000  -3.6380000 -20.1630000  77.3560000  -5.7050000 -19.5800000
  73.4670000  -3.5690000 -17.9720000  73.2420000  -4.7650000 -17.8390000
  72.8340000  -2.6310000 -17.2820000  73.0852384  -1.6643076 -17.4319480
  71.8240000  -2.9350000 -16.2730000  72.2202287  -3.6553364 -15.5573063
  71.4280000  -1.6700000 -15.5220000  72.3582928  -1.2962483 -15.0942569
  71.0418903  -0.9459405 -16.2394658  70.4070000  -1.8780000 -14.4120000
  69.4262237  -2.0592574 -14.8516868  70.8090000  -3.0700000 -13.5650000
  71.7895417  -2.8892722 -13.1245749  70.0761897  -3.2161789 -12.7714501
  70.8506156  -3.9625111 -14.1893337  70.2860000  -0.6280000 -13.5600000
  69.9661192   0.2073345 -14.1828899  69.5519559  -0.7946617 -12.7716445
  71.2528933  -0.3975836 -13.1126471  70.5950000  -3.5770000 -16.8930000
  69.9970000  -4.4870000 -16.3320000  70.2180000  -3.0680000 -18.0540000
  70.7134453  -2.2663494 -18.4173037  69.0640000  -3.5630000 -18.7970000
  68.1528885  -3.4391367 -18.2116514  68.9220000  -2.7650000 -20.1000000
  68.6831579  -1.7463026 -19.7945344  69.9086028  -2.7830507 -20.5630217
  67.8810000  -3.2520000 -21.1030000  68.1777234  -4.2252794 -21.4938751
  66.9122420  -3.3386281 -20.6109577  67.7800000  -2.2500000 -22.2540000
  66.9928011  -1.5398638 -22.0007737  68.7342240  -1.7268704 -22.3163817
  67.4660000  -2.8990000 -23.6020000  67.9759739  -3.8603474 -23.6639544
  66.3900157  -3.0531885 -23.6831347  67.9310000  -2.0120000 -24.7240000
  68.9280774  -1.8693503 -24.6492507  67.7189332  -2.4497142 -25.6091745
  67.4582492  -1.1212926 -24.6670254  69.1830000  -5.0650000 -19.0590000
  68.2200000  -5.8170000 -18.8640000  70.3680000  -5.5250000 -19.4780000
  71.1319334  -4.8936392 -19.6726500  70.5580000  -6.9490000 -19.7530000
  69.7255168  -7.2800723 -20.3738559  71.8890000  -7.2090000 -20.4950000
  72.7139932  -7.0886577 -19.7928574  71.9160000  -8.6210000 -21.0740000
  71.0915152  -8.7419605 -21.7766336  72.8610745  -8.7837898 -21.5921065
  71.8147177  -9.3470319 -20.2673286  72.0530000  -6.2320000 -21.6580000
  71.2265943  -6.4104387 -22.3459782  71.9714140  -5.2261435 -21.2460583
  73.3650000  -6.3680000 -22.4000000  73.4471015  -7.3735246 -22.8126494
  73.4022625  -5.6393363 -23.2097900  74.1919217  -6.1892315 -21.7127284
  70.4870000  -7.7920000 -18.4830000  70.1610000  -8.9850000 -18.5540000
  70.7800000  -7.2120000 -17.3160000  71.1341767  -6.2676415 -17.2626593
  70.6390000  -7.9700000 -16.0750000  71.0166089  -8.9820856 -16.2205799
  71.4240000  -7.3150000 -14.9430000  71.1213774  -6.2685859 -14.9038034
  71.1318498  -7.8120659 -14.0179736  72.9160000  -7.3990000 -15.1070000
  73.2189776  -8.4459256 -15.0911175  73.1819202  -6.9588825 -16.0680854
  73.6600000  -6.6650000 -14.0180000  74.3290000  -7.2970000 -13.1980000
  73.5650000  -5.3470000 -13.9990000  74.0480793  -4.8191570 -13.2861763
  73.0097579  -4.8736536 -14.6973916  69.1820000  -8.1070000 -15.6680000
  68.7550000  -9.1810000 -15.2300000  68.4110000  -7.0270000 -15.7850000
  68.8022736  -6.1281722 -16.0281314  66.9860000  -7.1030000 -15.4890000
  66.7851995  -7.5193510 -14.5018677  66.3490000  -5.7070000 -15.5720000
  66.5210234  -5.2918403 -16.5650506  64.8520000  -5.8030000 -15.3150000
  64.6791768  -6.2176736 -14.3218842  64.4079665  -4.8093894 -15.3756031
  64.3951851  -6.4507923 -16.0631890  67.0190000  -4.7610000 -14.5940000
  68.0795128  -4.6816729 -14.8330018  66.5564422  -3.7765769 -14.6650709
  66.9032471  -5.1439156 -13.5800583  66.3010000  -8.0830000 -16.4360000
  65.6090000  -9.0140000 -16.0040000  66.4950000  -7.8940000 -17.7460000
  67.0644690  -7.1345666 -18.0910584  65.7970000  -8.7300000 -18.7150000
  64.7274387  -8.7280622 -18.5049187  66.0180000  -8.1960000 -20.1320000
  67.0626513  -8.3568188 -20.3983459  65.3792566  -8.7590707 -20.8124838
  65.6890000  -6.7090000 -20.2390000  64.9338941  -6.4939521 -19.4829111
  66.6025542  -6.1623384 -20.0051585  65.1750000  -6.2770000 -21.6070000
  65.9808162  -6.3548294 -22.3368643  64.3515677  -6.9260060 -21.9050771
  64.6810000  -4.8180000 -21.5410000  63.8722006  -4.7980745 -20.8105570
  65.5176359  -4.2245899 -21.1722127  64.1960000  -4.2450000 -22.8390000
  63.4204754  -4.7944679 -23.1806817  63.8954301  -3.2916164 -22.6947177
  64.9454268  -4.2629775 -23.5158570  66.2100000 -10.1920000 -18.5980000
  65.3820000 -11.0810000 -18.8220000  67.4630000 -10.4720000 -18.2240000
  68.1876779  -9.7716412 -18.1573750  67.8290000 -11.8690000 -18.0110000
  67.3371025 -12.4934014 -18.7568277  69.3480000 -12.0630000 -18.1330000
  69.4901545 -13.1191936 -18.3617934  69.6513208 -11.4620416 -18.9902897
  70.1980000 -11.6860000 -16.9210000  70.0032004 -10.6423869 -16.6739665
  69.8964153 -12.3188118 -16.0863174  71.6950000 -11.8760000 -17.1910000
  72.0350000 -12.3760000 -18.2940000  72.5310000 -11.5250000 -16.3110000
  67.2930000 -12.3700000 -16.6720000  66.8340000 -13.5160000 -16.5700000
  67.3030000 -11.5170000 -15.6440000  67.7685231 -10.6225850 -15.7023900
  66.6840000 -11.8930000 -14.3780000  67.0910282 -12.8419669 -14.0288738
  66.9670000 -10.8220000 -13.3230000  68.0078661 -10.8693134 -13.0029086
  66.7589948  -9.8350403 -13.7362122  66.1290000 -10.9540000 -12.0820000
  66.6170000 -11.6100000 -10.9720000  67.6197350 -12.0364904 -10.9989882
  65.8470000 -11.7290000  -9.8330000  66.2435883 -12.2498757  -8.9615031
  64.5770000 -11.1900000  -9.7960000  63.9675044 -11.2826881  -8.8970985
  64.0840000 -10.5380000 -10.8920000  63.0787446 -10.1173051 -10.8679673
  64.8530000 -10.4130000 -12.0210000  64.4637485  -9.8816439 -12.8894722
  65.1830000 -12.1030000 -14.5370000  64.5870000 -12.9380000 -13.8430000
  64.5510000 -11.3370000 -15.4270000  65.0693676 -10.6537186 -15.9604051
  63.1080000 -11.4020000 -15.6060000  62.6294141 -11.3072663 -14.6312794
  62.6180000 -10.2640000 -16.5040000  63.0815763 -10.3505932 -17.4866997
  61.5345257 -10.3229366 -16.6074903  62.8883653  -9.3066974 -16.0583840
  62.7060000 -12.7580000 -16.1730000  62.1050000 -13.5560000 -15.4530000
  63.0780000 -13.0540000 -17.4310000  63.6777890 -12.4353822 -17.9579388
  62.5010000 -14.2130000 -18.1170000  61.4151004 -14.1819022 -18.0278138
  62.8740000 -14.2230000 -19.6200000  62.4136809 -15.1032103 -20.0688155
  62.4363977 -13.3237759 -20.0535900  64.3900000 -14.2400000 -19.8950000
  65.1960000 -14.5450000 -18.9870000  64.7780000 -13.9530000 -21.0560000
  62.8560000 -15.5350000 -17.4340000  62.0230000 -16.4520000 -17.4050000
  64.0540000 -15.6430000 -16.8500000  64.7460458 -14.9126913 -16.9384373
  64.4180000 -16.8580000 -16.1250000  64.0989789 -17.7351233 -16.6880093
  65.9330000 -16.9270000 -15.9300000  66.2081179 -16.0988614 -15.2768570
  66.1469579 -17.8709581 -15.4287364  66.7390000 -16.8440000 -17.2230000
  66.6142614 -17.7765509 -17.7733544  66.3572303 -16.0161982 -17.8205769
  68.2130000 -16.6210000 -16.9330000  68.2951865 -15.8814611 -16.1364910
  68.6404982 -17.5655575 -16.5966134  68.9700000 -16.1300000 -18.1620000
  69.0239191 -16.9395387 -18.8899013  68.4306869 -15.2877300 -18.5953842
  70.3500000 -15.7000000 -17.7940000  70.8500510 -16.4804366 -17.3927925
  70.8341024 -15.3788279 -18.6201920  70.3002572 -14.9495792 -17.1198387
  63.7090000 -16.9570000 -14.7760000  63.5610000 -18.0660000 -14.2500000
  63.2690000 -15.8300000 -14.2090000  63.4772786 -14.9394899 -14.6376154
  62.5590000 -15.8350000 -12.9370000  62.4935036 -16.8517586 -12.5496870
  63.3060000 -14.9690000 -11.9160000  64.2661114 -14.7005151 -12.3566827
  62.7142718 -14.0672656 -11.7584156  63.5360000 -15.6600000 -10.5880000
  63.9164662 -16.6616832 -10.7879425  64.2866420 -15.0891965 -10.0413565
  62.2660000 -15.7570000  -9.7540000  61.4440000 -14.8090000  -9.7980000
  62.0880000 -16.7850000  -9.0570000  61.1030000 -15.3790000 -13.0210000
  60.2720000 -15.8900000 -12.2630000  60.7520000 -14.4430000 -13.9160000
  61.4575535 -14.0162169 -14.4992236  59.3770000 -13.9610000 -14.0270000
  58.7365192 -14.5057258 -13.3333449  59.3060000 -12.4660000 -13.6890000
  59.8320211 -11.9378741 -14.4842887  58.2518831 -12.1890893 -13.7050651
  59.9100000 -12.0870000 -12.3420000  60.9681760 -12.3460753 -12.3772765
  59.8042477 -11.0087131 -12.2227814  59.2530000 -12.7950000 -11.1630000
  58.2690000 -13.5320000 -11.3710000  59.7150000 -12.6140000 -10.0170000
  58.7460000 -14.1990000 -15.3970000  57.7140000 -13.5880000 -15.7000000
  59.3240000 -15.0650000 -16.2270000  60.1806464 -15.5338599 -15.9692664
  58.7410000 -15.3600000 -17.5240000  59.2977762 -16.2028130 -17.9335921
  57.7090480 -15.6605644 -17.3427945  58.7550000 -14.2240000 -18.5290000
  57.9850000 -14.2510000 -19.4920000  59.5930000 -13.2150000 -18.3270000
  60.0892485 -13.1609405 -17.4489827  59.8300000 -12.1800000 -19.3160000
  60.9015662 -11.9804543 -19.3211489  59.5318448 -12.5856807 -20.2827606
  59.0900000 -10.8850000 -19.0770000  59.2400000  -9.9460000 -19.8790000
  58.3030000 -10.8020000 -18.0020000  58.1913533 -11.6106047 -17.4071952
  57.5410000  -9.5970000 -17.6830000  57.1169568  -9.1765084 -18.5948516
  56.4120000  -9.9200000 -16.7290000  55.9888962 -10.8875341 -16.9991114
  56.8376468  -9.9770845 -15.7271686  55.3300000  -8.8750000 -16.7550000
  55.6590000  -7.6860000 -16.9940000  54.1500000  -9.2490000 -16.5530000
  58.4700000  -8.5350000 -17.0950000  58.4370000  -8.2130000 -15.9030000
  59.2980000  -7.9680000 -17.9790000  59.3271643  -8.2867399 -18.9369424
  60.2380000  -6.9310000 -17.5660000  60.8570415  -7.2559915 -16.7297779
  61.1590000  -6.5530000 -18.7430000  60.5447283  -6.3452981 -19.6191446
  61.9860000  -5.3280000 -18.4040000  62.6009237  -5.5351053 -17.5281705
  62.6290173  -5.0781555 -19.2479235  61.3233571  -4.4889459 -18.1918815
  62.0780000  -7.7190000 -19.1050000  61.4760347  -8.5812942 -19.3916856
  62.7197474  -7.4314878 -19.9378245  62.6946662  -7.9771044 -18.2440669
  59.4930000  -5.7170000 -17.0270000  59.9070000  -5.1240000 -16.0260000
  58.3750000  -5.3350000 -17.6750000  58.0284397  -5.8719867 -18.4570745
  57.6510000  -4.1160000 -17.2920000  58.3211050  -3.2581930 -17.3487950
  56.4660000  -3.8730000 -18.2270000  56.8604436  -3.7546395 -19.2362097
  55.8280632  -4.7559598 -18.1880288  55.6470000  -2.6350000 -17.8510000
  55.5149759  -2.6394153 -16.7690337  56.2206255  -1.7553199 -18.1429226
  54.2760000  -2.5990000 -18.5320000  54.4004448  -2.2718411 -19.5642691
  53.8459263  -3.6004709 -18.5181403  53.3390000  -1.6300000 -17.7980000
  53.2231723  -2.0238281 -16.7882555  53.8605711  -0.6737725 -17.7568677
  51.9920000  -1.4360000 -18.4140000  51.5083648  -2.3218706 -18.4518142
  51.4578638  -0.7842986 -17.8571483  52.0990914  -1.0706720 -19.3495031
  57.1500000  -4.2000000 -15.8650000  57.1110000  -3.1960000 -15.1410000
  56.7230000  -5.3910000 -15.4620000  56.6684313  -6.1661358 -16.1072023
  56.2830000  -5.6020000 -14.0920000  55.5019605  -4.8879949 -13.8307085
  55.7180000  -7.0130000 -13.9590000  56.4912165  -7.7395803 -14.2086346
  55.3840681  -7.1761322 -12.9343158  54.8744978  -7.1327612 -14.6388975
  57.4280000  -5.3960000 -13.1210000  57.2800000  -4.7090000 -12.1010000
  58.5860000  -5.9730000 -13.4460000  58.6760309  -6.4543127 -14.3293639
  59.7150000  -6.0000000 -12.5270000  59.4527971  -6.3961641 -11.5459787
  60.8360000  -6.8650000 -13.1220000  61.0990438  -6.4850919 -14.1092067
  62.0410000  -6.8190000 -12.2320000  61.7788355  -7.1992139 -11.2446763
  62.8326665  -7.4344265 -12.6593346  62.3891111  -5.7898549 -12.1437920
  60.3430000  -8.2850000 -13.3180000  59.4909296  -8.2837655 -13.9977622
  61.1431322  -8.8929224 -13.7402777  60.0399341  -8.7008283 -12.3570948
  60.1880000  -4.5860000 -12.2250000  60.4000000  -4.2130000 -11.0600000
  60.3350000  -3.7730000 -13.2730000  60.1302662  -4.1022216 -14.2056289
  60.8490000  -2.4200000 -13.1160000  61.7399391  -2.4248458 -12.4880643
  61.2200000  -1.8520000 -14.4860000  60.3341332  -1.7680311 -15.1155145
  61.6829221  -0.8710712 -14.3783807  62.4070000  -2.8710000 -15.4180000
  62.4630010  -2.0785822 -16.4846941  59.8350000  -1.5310000 -12.4160000
  60.1950000  -0.7090000 -11.5670000  58.5620000  -1.6780000 -12.7660000
  58.3022890  -2.2520574 -13.5553717  57.5090000  -0.9650000 -12.0540000
  57.6116381   0.1114221 -12.1914049  56.1570000  -1.4020000 -12.6150000
  56.1600582  -0.9660932 -13.6140371  56.2155334  -2.4876524 -12.6926713
  54.8740000  -1.0140000 -11.8970000  54.9385833  -1.3285177 -10.8553626
  54.6740000   0.4720000 -11.9590000  54.6088550   0.7872265 -13.0003872
  53.7520686   0.7369597 -11.4413713  55.5156035   0.9726871 -11.4803389
  53.7510000  -1.7620000 -12.5740000  53.9287376  -2.8345180 -12.4951711
  52.8057668  -1.5144098 -12.0909529  53.7064979  -1.4779228 -13.6253889
  57.5940000  -1.2210000 -10.5530000  57.6080000  -0.2860000  -9.7410000
  57.6800000  -2.4960000 -10.1700000  57.6058857  -3.2518174 -10.8358427
  57.8160000  -2.8300000  -8.7580000  57.0136400  -2.3748341  -8.1773610
  57.7580000  -4.3460000  -8.5670000  58.7309878  -4.7778843  -8.8012455
  57.3950000  -4.6670000  -7.1250000  56.4218538  -4.2358062  -6.8901426
  57.3544489  -5.7480976  -6.9920236  58.1482303  -4.2474241  -6.4581411
  56.7780000  -4.9060000  -9.4550000  56.7429806  -5.8576631  -9.3337101
  59.1080000  -2.2640000  -8.1790000  59.0920000  -1.6560000  -7.0970000
  60.2320000  -2.4470000  -8.8890000  60.2222881  -2.9960587  -9.7366671
  61.5090000  -1.9090000  -8.4270000  61.8153542  -2.4191738  -7.5137810
  62.5910000  -2.1120000  -9.4860000  62.0380491  -2.1545731 -10.4243667
  63.1924455  -1.2033210  -9.4601971  63.5020000  -3.3260000  -9.3790000
  62.9086624  -4.2396582  -9.3432221  64.3870000  -3.3520000 -10.5900000
  64.9810255  -2.4388072 -10.6262146  65.0509260  -4.2148408 -10.5370016
  63.7730024  -3.4212696 -11.4879471  64.3390000  -3.2640000  -8.1260000
  63.6863552  -3.2388201  -7.2533487  64.9811779  -4.1431795  -8.0735376
  64.9552727  -2.3651256  -8.1442134  61.3830000  -0.4330000  -8.0780000
  61.5990000  -0.0300000  -6.9280000  61.0150000   0.3870000  -9.0670000
  60.8327425   0.0370519  -9.9967408  60.8910000   1.8230000  -8.8310000
  61.8638856   2.2358581  -8.5642771  60.3850000   2.5360000 -10.0810000
  61.0758760   2.3903200 -10.9114017  59.4050975   2.1422755 -10.3509484
  60.2200000   4.0270000  -9.9130000  60.9630000   4.7360000  -8.9820000
  61.6647277   4.1911868  -8.3504490  60.8270000   6.1230000  -8.8430000
  61.4313606   6.6526515  -8.1065774  59.9340000   6.8190000  -9.6320000
  59.8174209   7.8978427  -9.5290061  59.1800000   6.1270000 -10.5650000
  58.4723406   6.6671934 -11.1938955  59.3240000   4.7300000 -10.7040000
  58.7270468   4.1911096 -11.4397607  59.9420000   2.0980000  -7.6900000
  60.2160000   2.9540000  -6.8400000  58.8090000   1.3870000  -7.6760000
  58.6334736   0.6916208  -8.3871523  57.7730000   1.6340000  -6.6800000
  57.4808601   2.6840173  -6.6947345  56.5440000   0.7810000  -6.9890000
  56.9353718  -0.0010013  -7.6396929  56.1803390   0.3346004  -6.0634850
  55.3960000   1.5000000  -7.6920000  55.7596788   1.9379863  -8.6215195
  54.2830000   0.5140000  -7.9990000  53.9184699   0.0759133  -7.0698624
  53.4659102   1.0323045  -8.5008222  54.6644483  -0.2750866  -8.6470276
  54.9000000   2.6690000  -6.8380000  55.7157466   3.3737872  -6.6769659
  54.0811495   3.1729590  -7.3514301  54.5493175   2.2940786  -5.8764623
  58.2950000   1.3490000  -5.2830000  58.1300000   2.1660000  -4.3670000
  58.9520000   0.1940000  -5.1120000  59.0032900  -0.4880800  -5.8551255
  59.5480000  -0.1400000  -3.8260000  58.7973551  -0.0885807  -3.0373382
  60.1070000  -1.5580000  -3.8750000  60.7139449  -1.5860505  -4.7799477
  60.7412269  -1.7382496  -3.0070332  59.0320000  -2.6360000  -3.9510000
  58.3723780  -2.3900299  -4.7831649  59.6080000  -4.0350000  -4.1550000
  60.2674105  -4.2818785  -3.3229377  58.7953014  -4.7598982  -4.2013068
  60.1731337  -4.0635186  -5.0866174  58.1910000  -2.5820000  -2.6890000
  57.7232267  -1.6010504  -2.6051819  57.4185148  -3.3497206  -2.7334188
  58.8263248  -2.7563860  -1.8206390  60.6260000   0.8670000  -3.4490000
  60.6850000   1.3300000  -2.3010000  61.4620000   1.2400000  -4.4170000
  61.4296659   0.7946844  -5.3229514  62.4780000   2.2540000  -4.1830000
  63.1695308   1.8986821  -3.4190409  63.2560000   2.4970000  -5.4680000
  62.5785565   2.8618946  -6.2400248  64.0338473   3.2389670  -5.2876148
  63.7136742   1.5644487  -5.7981237  61.8690000   3.5550000  -3.6770000
  62.3130000   4.1110000  -2.6680000  60.8660000   4.0710000  -4.3840000
  60.5600818   3.6422973  -5.2458164  60.2110000   5.3040000  -3.9530000
  60.9119593   6.1376928  -3.9943720  59.0360000   5.6090000  -4.8760000
  58.7958820   4.6430330  -5.3202413  58.2085860   5.9339929  -4.2452341
  59.2650000   6.6350000  -5.9830000  60.1750359   6.3906756  -6.5309425
  58.0870000   6.6050000  -6.9260000  57.1765963   6.8496962  -6.3788366
  58.2392007   7.3342822  -7.7216653  57.9932247   5.6093232  -7.3595139
  59.4580000   8.0290000  -5.4110000  60.3239544   8.0339874  -4.7490351
  59.6188035   8.7368825  -6.2241087  58.5699224   8.3177886  -4.8488449
  59.7310000   5.2110000  -2.5140000  59.8800000   6.1580000  -1.7340000
  59.1410000   4.0760000  -2.1490000  59.0261838   3.3064361  -2.7929627
  58.5610000   3.9550000  -0.8170000  58.0243523   4.8672463  -0.5563947
  57.5780000   2.7840000  -0.7860000  58.0782021   1.9040246  -1.1904012
  57.2974827   2.5975507   0.2506517  56.3200000   3.0800000  -1.6100000
  56.1759816   4.1603336  -1.6254577  56.4924384   2.7224029  -2.6251312
  55.0790000   2.4120000  -1.0420000  55.0754465   1.3716676  -1.3672612
  55.1406043   2.4519092   0.0455254  53.8290000   3.0380000  -1.4630000
  53.4000486   3.7049628  -0.8374916  53.2290000   2.7760000  -2.6180000
  53.7880000   1.9190000  -3.4760000  54.6642404   1.4744140  -3.2422350
  53.3320133   1.7193009  -4.3548038  52.0780000   3.3670000  -2.9180000
  51.6615893   4.0154599  -2.2651586  51.6244452   3.1652369  -3.7975899
  59.6440000   3.8080000   0.2380000  59.5700000   4.4360000   1.3030000
  60.6720000   3.0090000  -0.0600000  60.6438216   2.4157142  -0.8768949
  61.8270000   2.9100000   0.8280000  61.5016349   2.4454584   1.7588264
  62.8960000   2.0260000   0.1890000  63.2383354   2.4826367  -0.7396492
  63.7378032   1.9206570   0.8733760  62.4758859   1.0429038  -0.0234269
  62.3960000   4.2840000   1.1840000  62.8930000   4.4730000   2.2990000
  62.3080000   5.2590000   0.2760000  61.9711996   5.0568198  -0.6544773
  62.7120000   6.6290000   0.5840000  63.5921745   6.6105635   1.2266913
  63.0510000   7.4080000  -0.6860000  62.1688211   7.3560586  -1.3240923
  63.2165048   8.4407290  -0.3791142  64.2460000   6.9150000  -1.4450000
  64.9950909   6.5472484  -0.7437707  63.9447831   6.1065506  -2.1111681
  64.8330000   8.0510000  -2.2620000  64.2396752   8.1893173  -3.1658435
  64.8139149   8.9671436  -1.6717322  66.2140000   7.7710000  -2.6470000
  66.5617688   6.8341761  -2.5003123  67.0310000   8.6750000  -3.1800000
  66.5860000   9.9150000  -3.3790000  65.6384606  10.1550901  -3.1247840
  67.1982499  10.6091960  -3.7831555  68.2840000   8.3450000  -3.5080000
  68.6126923   7.4031167  -3.3501479  68.8964087   9.0390272  -3.9122037
  61.6510000   7.4220000   1.3260000  61.8460000   8.6270000   1.5260000
  60.5250000   6.8000000   1.6840000  60.4404082   5.8187029   1.4603940
  59.3870000   7.4680000   2.3170000  58.6238766   6.7260094   2.5519296
  59.7910000   8.1840000   3.6140000  60.5645195   8.9112704   3.3673330
  58.9248988   8.7013727   4.0266672  60.3330000   7.2390000   4.6610000
  60.0800000   6.0320000   4.6230000  61.0720000   7.7880000   5.6220000
  61.4616121   7.2061859   6.3498699  61.2398512   8.7839508   5.6190566
  58.6920000   8.4740000   1.4010000  58.0750000   9.4290000   1.8860000
  58.7790000   8.3030000   0.0860000  59.3520849   7.5640347  -0.2955799
  58.1130000   9.2160000  -0.8450000  57.8838082  10.1550153  -0.3411938
  59.0140000   9.5110000  -2.0390000  59.4708445   8.5707331  -2.3476916
  58.3826454   9.8888532  -2.8431880  60.1020000  10.5250000  -1.7310000
  59.6081538  11.4870102  -1.5940580  60.5808163  10.2269402  -0.7982651
  61.1530000  10.6460000  -2.8240000  61.4730000   9.6270000  -3.4800000
  61.6660000  11.7740000  -3.0130000  56.7800000   8.6170000  -1.2830000
  56.5210000   8.3770000  -2.4630000  55.9310000   8.3630000  -0.2830000
  56.1351012   8.6605297   0.6603547  54.7120000   7.5950000  -0.5180000
  54.9470171   6.6634947  -1.0329407  54.0540000   7.2630000   0.8090000
  54.1341627   8.0993799   1.5033643  53.0025639   7.0266449   0.6455426
  54.6560000   6.0810000   1.4930000  54.6350000   4.8160000   0.9460000
  55.2250000   3.9710000   1.7750000  55.3100133   2.9140499   1.5225555
  55.6280000   4.6430000   2.8380000  56.1112503   4.2571548   3.6365565
  55.2840000   5.9650000   2.6880000  55.5325622   6.6847109   3.4679579
  53.7460000   8.3480000  -1.4180000  53.0910000   7.7470000  -2.2820000
  53.6500000   9.6650000  -1.2260000  54.1511992  10.1092726  -0.4700103
  52.7920000  10.4900000  -2.0640000  51.7438868  10.2610013  -1.8713410
  53.0340000  11.9600000  -1.7520000  52.9287565  12.0909562  -0.6750258
  54.0559162  12.1968330  -2.0481374  52.0910000  12.8690000  -2.4560000
  51.7783318  12.4143548  -3.3960198  51.2165524  13.0448163  -1.8294762
  52.7770000  14.1760000  -2.7360000  52.0278043  14.9628266  -2.8237988
  53.4536247  14.4093857  -1.9139236  53.5490000  14.1230000  -3.9780000
  53.4147331  13.3155209  -4.5696496  54.4050000  15.0690000  -4.3750000
  54.6190000  16.1420000  -3.6200000  54.1316192  16.2426527  -2.7411206
  55.2679867  16.8516527  -3.9287214  55.0600000  14.9470000  -5.5280000
  54.9091507  14.1335478  -6.1073445  55.7046304  15.6684793  -5.8178587
  53.0460000  10.2140000  -3.5350000  52.1250000   9.8840000  -4.2890000
  54.3070000  10.3180000  -3.9520000  55.0547529  10.6039598  -3.3362144
  54.6180000  10.0880000  -5.3530000  53.9603357  10.6868743  -5.9830210
  56.0600000  10.4810000  -5.6430000  56.6943093   9.9304843  -4.9482457
  56.2841306  10.1699256  -6.6633422  56.3230000  11.9630000  -5.4990000
  55.4271401  12.5079006  -5.7966897  56.5480042  12.1778799  -4.4543461
  57.4880000  12.4380000  -6.3550000  58.6100000  11.9230000  -6.2510000
  57.2280000  13.4280000  -7.2110000  57.9632134  13.7840381  -7.8049693
  56.2971741  13.8167925  -7.2610486  54.3650000   8.6450000  -5.7530000
  53.9470000   8.3830000  -6.8820000  54.6030000   7.6960000  -4.8550000
  54.9373275   7.8970641  -3.9233897  54.4440000   6.3040000  -5.2450000
  54.9341501   6.1418004  -6.2049705  55.0840000   5.3820000  -4.2080000
  54.5975641   5.5263375  -3.2432996  54.9668861   4.3447369  -4.5217990
  56.1447168   5.6163188  -4.1181461  52.9780000   5.9770000  -5.4330000
  52.6140000   5.2030000  -6.3310000  52.1200000   6.5750000  -4.6000000
  52.4482661   7.1240160  -3.8183849  50.6810000   6.4050000  -4.7700000
  50.4139269   5.3542220  -4.6575864  49.9270000   7.2170000  -3.7140000
  50.3055488   8.2386772  -3.7452369  48.8710492   7.2129072  -3.9842799
  50.0920000   6.6600000  -2.3140000  49.9800000   7.4600000  -1.3510000
  50.3300000   5.4320000  -2.1800000  50.2550000   6.8250000  -6.1690000
  49.6750000   6.0300000  -6.9230000  50.5850000   8.0660000  -6.5430000
  51.0673536   8.6803775  -5.9027074  50.1830000   8.5970000  -7.8400000
  49.0977225   8.5742853  -7.9387723  50.6540000  10.0440000  -7.9640000
  51.7408717  10.0592863  -8.0450888  50.2171042  10.4854644  -8.8597295
  50.2250000  10.8460000  -6.7420000  49.1355180  10.8674111  -6.7160876
  50.5972255  10.2814731  -5.8870984  50.7650000  12.2780000  -6.6820000
  50.2990000  13.1500000  -7.4580000  51.6400000  12.5380000  -5.8210000
  50.7050000   7.7330000  -8.9780000  50.0000000   7.5090000  -9.9660000
  51.9260000   7.2190000  -8.8540000  52.5567320   7.4804348  -8.1097364
  52.3970000   6.2830000  -9.8580000  52.4031436   6.7684320 -10.8339187
  53.8120000   5.8050000  -9.5420000  54.3656219   6.7057780  -9.2770452
  53.7322945   5.1580035  -8.6684197  54.5500000   5.0630000 -10.6610000
  54.3239257   5.5204974 -11.6241653  56.0160000   5.1530000 -10.4000000
  56.2429251   4.6952627  -9.4371498  56.5585485   4.6297318 -11.1873578
  56.3192210   6.1998608 -10.3845138  54.1860000   3.6060000 -10.7930000
  53.1202646   3.5147724 -11.0027262  54.7557105   3.1611043 -11.6088425
  54.4184715   3.0871884  -9.8630051  51.4540000   5.1040000  -9.9520000
  51.0610000   4.6970000 -11.0500000  51.0740000   4.5420000  -8.8040000
  51.3627864   4.9082885  -7.9081571  50.2900000   3.3140000  -8.8280000
  50.7453048   2.5936635  -9.5076412  50.2360000   2.6980000  -7.4260000
  51.0180380   3.1722136  -6.8330099  49.2616039   2.9410455  -7.0022297
  50.4350000   1.1750000  -7.4110000  49.4873152   0.7153724  -7.6916008
  51.1930022   0.9258804  -8.1536111  50.8710000   0.6490000  -6.0410000
  50.8050000   1.4290000  -5.0590000  51.2830000  -0.5380000  -5.9470000
  48.8990000   3.5790000  -9.3790000  48.2910000   2.7000000 -10.0110000
  48.4020000   4.8020000  -9.1750000  48.8448209   5.4271582  -8.5168312
  47.1770000   5.2430000  -9.8300000  46.3684960   4.5581399  -9.5742910
  46.8090000   6.6410000  -9.3320000  47.6050243   7.3399453  -9.5887506
  45.8791776   6.9615597  -9.8018640  46.6800839   6.6195273  -8.2498638
  47.3210000   5.2160000 -11.3520000  46.5250000   4.5770000 -12.0500000
  48.3600000   5.8670000 -11.8780000  49.0234150   6.3323978 -11.2751860
  48.5220000   6.0050000 -13.3230000  47.6505149   6.4771878 -13.7764883
  49.7830000   6.8500000 -13.6270000  50.4961428   6.7025772 -12.8159548
  50.4280000   6.4550000 -14.9470000  49.7155657   6.6025987 -15.7586358
  51.3090193   7.0728374 -15.1207317  50.7221995   5.4061524 -14.9087302
  49.4530000   8.3490000 -13.6570000  50.3884523   8.8615500 -13.8813264
  48.7551002   8.4899447 -14.4823302  48.8540000   8.9230000 -12.3840000
  49.5515737   8.7828325 -11.5582617  48.6618980   9.9872859 -12.5199837
  47.9182222   8.4112251 -12.1592642  48.5760000   4.6350000 -13.9980000
  48.1350000   4.4720000 -15.1400000  49.0760000   3.6210000 -13.2930000
  49.3781167   3.7530322 -12.3383313  49.2590000   2.3100000 -13.9000000
  49.6303869   2.4205377 -14.9187995  50.2700000   1.4940000 -13.0980000
  49.9492184   1.4939416 -12.0562714  50.2567197   0.4738814 -13.4817730
  51.6740000   2.0500000 -13.1930000  51.6792383   3.0202482 -12.6963192
  52.3364000   1.3667481 -12.6614973  52.2650000   2.2490000 -14.8970000
  52.1230000   0.5640000 -15.5000000  51.0844721   0.2398645 -15.4329555
  52.4503159   0.5204975 -16.5387841  52.7478757  -0.0928675 -14.8948911
  47.9520000   1.5540000 -14.0130000  47.8030000   0.7240000 -14.9230000
  47.0080000   1.8200000 -13.1030000  47.2378194   2.4353809 -12.3358047
  45.6900000   1.2000000 -13.1200000  45.6703750   0.3703224 -13.8266464
  45.3640000   0.6620000 -11.7250000  45.8568817   1.3105941 -11.0007814
  44.2838618   0.7264456 -11.5936672  45.8240000  -0.8000000 -11.5050000
  46.8803593  -0.8782195 -11.7620752  45.6875368  -1.0471878 -10.4522047
  45.0360000  -1.8110000 -12.3530000  43.8660000  -1.5830000 -12.6820000
  45.6780000  -2.9250000 -12.7120000  45.2031634  -3.6204152 -13.2697000
  46.6356315  -3.0673306 -12.4242758  44.6020000   2.1630000 -13.6110000
  43.4110000   1.9040000 -13.4000000  44.9900000   3.2530000 -14.2740000
  45.9777232   3.4476264 -14.3553802  44.0570000   4.1740000 -14.8850000
  44.6329844   4.8355262 -15.5320891  43.3692271   3.5832164 -15.4900144
  43.2610000   5.0100000 -13.9110000  42.2150000   5.5360000 -14.2790000
  43.7390000   5.1610000 -12.6830000  44.6183088   4.7193185 -12.4553318
  43.0430000   5.8970000 -11.6340000  41.9652784   5.8199896 -11.7778221
  43.3980000   5.3160000 -10.2520000  44.0298894   4.4468217 -10.4346036
  43.9750544   6.0815295  -9.7332777  42.2170000   4.9100000  -9.3980000
  41.5514139   5.7686366  -9.3094607  41.6957409   4.0975710  -9.9043103
  42.6470000   4.4470000  -7.9930000  43.1011177   5.2954433  -7.4811210
  41.7544249   4.1323793  -7.4522385  43.6080000   3.3340000  -8.0040000
  43.2917469   2.4640689  -8.4081080  44.8510000   3.3960000  -7.5160000
  45.6430000   2.3250000  -7.5780000  45.3003043   1.4706866  -7.9937022
  46.5819419   2.3730235  -7.2089723  45.3080000   4.5210000  -6.9590000
  44.7101706   5.3332860  -6.9052274  46.2492420   4.5540965  -6.5942166
  43.3480000   7.4010000 -11.6120000  42.7220000   8.1140000 -10.8180000
  44.2930000   7.9220000 -12.4070000  44.7791581   7.4301825 -13.1431149
  44.6290000   9.3120000 -12.1710000  43.7535945   9.7415825 -11.6839443
  45.4619489   9.2920023 -11.4682229  45.0060000  10.1750000 -13.3580000
  46.0510000   9.9600000 -13.9790000  44.1350000  11.1390000 -13.7060000
  43.1909017  11.0461011 -13.3593769  44.4360000  12.2510000 -14.6170000
  43.6037241  12.9545416 -14.6380984  45.6880000  12.9890000 -14.1390000
  45.5631860  13.2404436 -13.0857684  46.5471961  12.3283646 -14.2549435
  45.9000000  14.1740000 -14.8850000  46.6897898  14.6163420 -14.5653667
  44.5930000  11.8320000 -16.0900000  44.7350000  12.6930000 -16.9670000
  44.5230000  10.5400000 -16.3860000  44.4000407   9.8408823 -15.6675191
  44.6220000  10.1030000 -17.7530000  44.5705282  10.9636122 -18.4199307
  45.5668378   9.5814722 -17.9059372  43.4900000   9.1680000 -18.0730000
  43.5660000   7.9620000 -17.7920000  42.4280000   9.7300000 -18.6520000
  42.4813632  10.6746780 -19.0053203  41.1500000   9.0270000 -18.7440000
  40.8463785   8.6670777 -17.7609593  40.0790000   9.9770000 -19.2670000
  40.4808184  10.3368671 -20.2141731  39.1508473   9.4352542 -19.4490550
  39.8030000  11.1640000 -18.3480000  40.7483095  11.6363941 -18.0809145
  38.9100000  12.1780000 -19.0520000  37.9642549  11.7064327 -19.3190007
  38.7203825  13.0199482 -18.3862154  39.4055787  12.5340923 -19.9551613
  39.1920000  10.6400000 -17.0500000  39.8895993   9.9531181 -16.5707840
  38.9880215  11.4756503 -16.3805356  38.2617074  10.1167364 -17.2710201
  41.2710000   7.8040000 -19.6420000  41.8030000   7.8850000 -20.7540000
  40.8170000   6.6640000 -19.1370000  40.4637480   6.5861440 -18.1939990
  40.8760000   5.4680000 -19.9480000  41.8954567   5.3155271 -20.3023433
  40.4520000   4.2440000 -19.1410000  39.3898796   4.0880907 -19.3299229
  41.0173666   3.3952151 -19.5257401  40.6880000   4.3730000 -17.6360000
  41.7019298   4.0330206 -17.4251415  40.5869355   5.4175436 -17.3413534
  39.7060000   3.5320000 -16.8070000  39.2530000   2.4650000 -17.2520000
  39.3590000   4.0210000 -15.6050000  38.7159558   3.5064180 -15.0203626
  39.7427127   4.9010381 -15.2913140  39.9810000   5.6510000 -21.1720000
  38.9840000   6.3950000 -21.1260000  40.3220000   5.0030000 -22.2850000
  41.2710000   3.9080000 -22.4280000  41.3234845   3.3363958 -21.5013856
  42.2591525   4.2998689 -22.6690236  40.6790000   3.1230000 -23.5540000
  39.8651651   2.4883250 -23.2033442  41.4350549   2.5073783 -24.0413317
  40.1830000   4.1850000 -24.4750000  39.4386636   3.7971174 -25.1704203
  40.9782273   4.6791785 -25.0331225  39.5260000   5.1790000 -23.5090000
  39.6571185   6.2106101 -23.8356294  38.0440000   4.8910000 -23.3240000
  37.2090000   5.5730000 -23.9320000  37.6770000   3.9110000 -22.5010000
  38.3337050   3.2814322 -22.0622719  36.2560000   3.6750000 -22.3000000
  35.7806521   3.6013900 -23.2781233  36.0420000   2.3640000 -21.5550000
  36.5046097   2.4255633 -20.5699608  34.9736062   2.1792573 -21.4431740
  36.4944090   1.5475745 -22.1179163  35.5970000   4.8520000 -21.5750000
  34.4930000   5.2730000 -21.9400000  36.2690000   5.4320000 -20.5760000
  37.1625224   5.0873054 -20.2552155  35.6490000   6.5340000 -19.8450000
  34.6670465   6.2021298 -19.5077632  36.4890000   6.9160000 -18.6130000
  37.5444185   6.8978708 -18.8847763  36.1250000   8.2730000 -18.1340000
  35.0697582   8.2917883 -17.8615799  36.7292132   8.5255023 -17.2626393
  36.3083571   8.9995921 -18.9255465  36.2040000   5.9590000 -17.4890000
  36.4592391   4.9459944 -17.8000862  36.8002658   6.2322868 -16.6184364
  35.1455775   6.0039183 -17.2324360  35.4170000   7.7160000 -20.7760000
  34.3770000   8.3730000 -20.7230000  36.3530000   7.9730000 -21.6780000
  37.2270139   7.4676286 -21.7062607  36.1350000   9.0320000 -22.6560000
  35.8060687   9.9357433 -22.1430170  37.4080000   9.3460000 -23.4250000
  37.6785292   8.4749408 -24.0217990  37.2169729  10.1925456 -24.0845220
  38.8650000   9.7720000 -22.4810000  39.6635792   9.9482958 -23.5298514
  35.0610000   8.6560000 -23.6580000  34.4100000   9.5430000 -24.2180000
  34.9130000   7.3660000 -23.9600000  35.5804076   6.6580869 -23.6888442
  33.7640000   6.9620000 -24.7560000  33.7684438   7.5035898 -25.7019175
  33.7980000   5.4700000 -25.0500000  34.8166341   5.2346937 -25.3584066
  33.5738170   4.9554813 -24.1155951  32.8300000   5.0160000 -26.1200000
  31.8201012   5.1507060 -25.7326247  32.9780000   5.7760000 -27.4030000
  33.9875745   5.6413908 -27.7912505  32.2567801   5.4047440 -28.1310876
  32.7974514   6.8354609 -27.2212168  33.1210000   3.5680000 -26.3560000
  32.9724521   3.0114917 -25.4306182  32.4495612   3.1822582 -27.1231208
  34.1533583   3.4535018 -26.6864928  32.4910000   7.3250000 -24.0230000
  31.5950000   7.9650000 -24.5820000  32.4390000   6.9930000 -22.7350000
  33.2111098   6.5178609 -22.2898162  31.2410000   7.2460000 -21.9510000
  30.3990443   6.7162874 -22.3966617  31.4350000   6.7410000 -20.5260000
  32.2690375   7.2686767 -20.0633566  30.5274705   6.9206174 -19.9496078
  31.6474223   5.6720604 -20.5445486  30.8950000   8.7270000 -21.9630000
  29.7500000   9.1090000 -22.2340000  31.8840000   9.5780000 -21.7140000
  32.8177832   9.2541517 -21.5059840  31.6220000  11.0090000 -21.6610000
  30.8183884  11.2491808 -20.9648529  32.8950000  11.7550000 -21.2480000
  33.7254353  11.4075594 -21.8626240  32.7190000  13.2390000 -21.4350000
  31.8889789  13.5872790 -20.8202909  33.6322389  13.7541084 -21.1370760
  32.5082202  13.4511797 -22.4831655  33.1860000  11.3700000 -19.7990000
  32.4751851  11.9187973 -19.1812100  32.9904438  10.3010180 -19.7145333
  34.5820000  11.6610000 -19.3330000  34.7781456  12.7299313 -19.4167408
  34.6901731  11.3526460 -18.2931367  35.2934047  11.1121533 -19.9500660
  31.0980000  11.4850000 -23.0020000  30.0330000  12.1120000 -23.0960000
  31.8150000  11.1380000 -24.0700000  32.6824563  10.6312681 -23.9658763
  31.4130000  11.5490000 -25.4050000  31.3882871  12.6357745 -25.4850599
  32.4350000  11.0090000 -26.4040000  33.4078405  11.1092997 -25.9227302
  32.2008123   9.9521883 -26.5320830  32.4700000  11.6850000 -27.7570000
  32.0627557  12.6906963 -27.6529434  33.5068517  11.7458463 -28.0876633
  31.6500000  10.9070000 -28.7900000  30.8115177  10.4572774 -28.2582144
  31.2747921  11.6328995 -29.5113795  32.3620000   9.8600000 -29.5090000
  33.3413335   9.7202167 -29.3053681  31.7910000   9.0940000 -30.4310000
  30.4970000   9.2550000 -30.7280000  29.9560764   9.9606851 -30.2489276
  30.0665923   8.6701674 -31.4300112  32.5080000   8.1560000 -31.0410000
  33.4809271   8.0318206 -30.7999765  32.0767074   7.5716005 -31.7428281
  29.9880000  11.0720000 -25.7070000  29.1150000  11.8680000 -26.0700000
  29.7120000   9.7890000 -25.4980000  30.4153846   9.1423915 -25.1705144
  28.4020000   9.2610000 -25.8580000  28.2000664   9.4986786 -26.9024285
  28.3950000   7.7350000 -25.6920000  28.7668332   7.4927548 -24.6964315
  27.0050000   7.1700000 -25.8610000  26.6326524   7.4114605 -26.8565677
  27.0347725   6.0874321 -25.7374649  26.3427202   7.6026620 -25.1111395
  29.2810000   7.1730000 -26.7810000  30.2902272   7.5694688 -26.6697576
  29.3076135   6.0860727 -26.7036668  28.8847001   7.4577943 -27.7556484
  27.2880000   9.9530000 -25.0560000  26.3630000  10.5540000 -25.6280000
  27.3790000   9.9210000 -23.7340000  28.2108250   9.5361324 -23.3096848
  26.3010000  10.3720000 -22.8590000  25.3300676  10.0223252 -23.2098803
  26.5630000   9.7790000 -21.4840000  26.8955058   8.7512205 -21.6296313
  27.3532004  10.3504184 -20.9970047  25.3760000   9.7710000 -20.6050000
  25.2480000  10.6240000 -19.7120000  24.4860000   8.7910000 -20.8250000
  23.6533350   8.7322054 -20.2563948  24.6528845   8.1166889 -21.5581814
  26.1650000  11.8820000 -22.7650000  25.3800000  12.3500000 -21.9330000
  26.9250000  12.6570000 -23.5350000  27.6404435  12.2401750 -24.1133570
  26.7920000  14.1170000 -23.5380000  25.9637028  14.4360289 -22.9053520
  28.0880000  14.8190000 -23.0500000  27.9987963  15.8759859 -23.3008461
  28.3390000  14.6720000 -21.5570000  28.4287845  13.6152303 -21.3054524
  29.2614144  15.1880129 -21.2905763  27.5069216  15.1072655 -21.0035652
  29.2350000  14.3320000 -23.7430000  30.0188571  14.7830689 -23.4209671
  26.4390000  14.6450000 -24.9220000  26.4480000  15.8600000 -25.1280000
  26.1420000  13.7330000 -25.8720000  26.2163820  12.7619177 -25.6044820
  25.8420000  14.0480000 -27.2760000  25.7262252  13.1203120 -27.8364376
  24.5360000  14.8720000 -27.4070000  24.7270862  15.8509543 -26.9674164
  24.2023478  14.9957830 -28.4372689  23.3670000  14.2710000 -26.6400000
  23.0230000  14.7430000 -25.3730000  23.5592955  15.5947128 -24.9545836
  22.0250000  14.1480000 -24.6590000  21.7702553  14.5186923 -23.6661289
  21.3300000  13.0650000 -25.1990000  20.5237183  12.5971461 -24.6340907
  21.6640000  12.5870000 -26.4480000  21.1282351  11.7367068 -26.8699687
  22.6700000  13.1820000 -27.1580000  22.9371981  12.8048917 -28.1451648
  27.0260000  14.7380000 -27.9530000  26.8860000  15.6800000 -28.7300000
  28.2220000  14.2710000 -27.6700000  28.3468369  13.5058182 -27.0226888
  29.4150000  14.9070000 -28.2310000  29.1993043  15.9595757 -28.4144636
  30.6230000  14.8110000 -27.2950000  30.4344356  13.9332546 -26.6768530
  31.5331492  14.6576720 -27.8748440  30.7920000  16.0480000 -26.3920000
  29.8342818  16.2806344 -25.9264273  31.8220000  15.7830000 -25.3190000
  32.7801651  15.5507302 -25.7838325  31.9284833  16.6671978 -24.6905445
  31.5015353  14.9396060 -24.7073716  31.1750000  17.3160000 -27.1440000
  30.4010993  17.5540502 -27.8737323  31.2748694  18.1411241 -26.4388067
  32.1235024  17.1615191 -27.6583713  29.6910000  14.2580000 -29.5790000
  30.0870000  13.0930000 -29.6420000  29.3970000  14.9830000 -30.6590000
  28.8340635  15.8171272 -30.5727816  29.8760000  14.6050000 -31.9860000
  29.2406007  13.8314490 -32.4172606  29.8350000  15.8340000 -32.8950000
  28.8304929  16.2565554 -32.8723814  30.5471681  16.5712442 -32.5243416
  30.1670000  15.4850000 -34.2170000  30.1360340  16.2677193 -34.7719697
  31.3060000  14.0910000 -31.9040000  32.0880000  14.5590000 -31.0750000
  31.6790000  13.1370000 -32.7770000  31.0261048  12.6012702 -33.3309141
  33.1160000  12.8420000 -32.9120000  33.4764713  12.4042671 -31.9811136
  33.3990000  11.8700000 -34.0480000  32.7587455  12.1001690 -34.8995842
  34.4439456  11.9467488 -34.3484967  33.1170000  10.1410000 -33.6670000
  33.4659191   9.6763150 -34.8633367  33.9180000  14.1110000 -33.1670000
  34.9480000  14.3460000 -32.5230000  33.4780000  14.9130000 -34.1410000
  32.6748077  14.6549258 -34.6963190  34.1590000  16.1620000 -34.4510000
  35.1742633  15.9546750 -34.7891656  33.4240000  16.9110000 -35.5510000
  32.4411575  17.2162374 -35.1919040  33.9957990  17.7936353 -35.8375323
  33.2740000  16.0670000 -36.6670000  32.8100737  16.5371282 -37.3636718
  34.2660000  17.0520000 -33.2400000  35.2920000  17.6910000 -33.0230000
  33.2110000  17.1580000 -32.4700000  32.3418242  16.6683589 -32.6277476
  33.2860000  18.0830000 -31.3580000  33.7261380  19.0245215 -31.6865041
  31.8920000  18.3620000 -30.8110000  31.4456580  17.4140237 -30.5106353
  31.9890662  19.0095688 -29.9396029  31.0180000  19.0240000 -31.8290000
  30.9700727  18.3856550 -32.7112242  30.0169228  19.1478146 -31.4159425
  31.5460000  20.3930000 -32.2460000  32.0880000  21.1270000 -31.4260000
  31.3800000  20.7430000 -33.5240000  31.7135368  21.6402827 -33.8460846
  30.9216759  20.1088269 -34.1626430  34.1830000  17.5420000 -30.2710000
  34.8900000  18.3190000 -29.6230000  34.1310000  16.2280000 -30.0350000
  33.4562927  15.6366365 -30.4988520  35.0320000  15.6200000 -29.0700000
  34.8858778  16.0788991 -28.0921661  34.7660000  14.1190000 -28.9500000
  33.7565139  13.9949399 -28.5580229  34.8188110  13.7008824 -29.9552307
  35.7530000  13.3940000 -28.0470000  35.6370000  13.4540000 -26.6640000
  34.8220361  14.0341249 -26.2311162  36.5370000  12.7910000 -25.8340000
  36.4312074  12.8639693 -24.7516021  37.5710000  12.0540000 -26.3790000
  38.4500000  11.3860000 -25.5520000  38.2500930  11.5019202 -24.6202278
  37.7130000  11.9760000 -27.7500000  38.5274314  11.3997563 -28.1890274
  36.8040000  12.6420000 -28.5760000  36.9063756  12.5812915 -29.6594823
  36.4570000  15.8670000 -29.5070000  37.3210000  16.2480000 -28.7090000
  36.7030000  15.7030000 -30.8010000  35.9781727  15.4120571 -31.4413725
  38.0470000  15.8770000 -31.3170000  38.7344400  15.1972609 -30.8135318
  38.0670000  15.5740000 -32.8020000  37.6485949  14.5855830 -32.9919163
  37.4936895  16.3220111 -33.3496263  39.4380000  15.5760000 -33.3860000
  40.3240000  14.5350000 -33.2010000  41.4420000  14.8020000 -33.8440000
  42.2722302  14.0958749 -33.8297109  41.3160000  15.9810000 -34.4290000
  42.0175069  16.4399681 -34.9923260  40.0750000  16.4900000 -34.1510000
  39.7865419  17.4662470 -34.5406601  38.5690000  17.2790000 -31.0480000
  39.7390000  17.4440000 -30.7050000  37.7240000  18.2980000 -31.1970000
  36.7940291  18.1630206 -31.5671811  38.1500000  19.6550000 -30.8760000
  39.0693407  19.8937019 -31.4107273  37.0720000  20.6540000 -31.2890000
  36.1378789  20.3378867 -30.8246840  37.3611159  21.6285449 -30.8955864
  36.8830000  20.7510000 -32.7840000  37.7668308  21.2159178 -33.2208012
  36.7637621  19.7462237 -33.1893505  35.6460000  21.5880000 -33.1230000
  35.7936673  22.0403892 -34.1036311  34.7801555  20.9266560 -33.1551980
  35.4100000  22.6850000 -32.0870000  35.1277734  22.2089198 -31.1479599
  36.3445423  23.2293462 -31.9512905  34.3420000  23.6310000 -32.5030000
  33.4758445  23.1268649 -32.6283881  34.2208498  24.3364429 -31.7904181
  34.6035170  24.0725713 -33.3728981  38.4630000  19.8070000 -29.3940000
  39.3730000  20.5550000 -29.0190000  37.7040000  19.1350000 -28.5350000
  36.9448407  18.5488580 -28.8515660  37.9260000  19.2630000 -27.1010000
  38.1115166  20.3067091 -26.8473189  36.6980000  18.7820000 -26.3250000
  35.8815757  19.4767481 -26.5221690  36.4306028  17.7929647 -26.6970321
  36.9490000  18.7090000 -24.8340000  37.8323180  18.0970214 -24.6514283
  37.1197594  19.7155751 -24.4522281  35.5620000  17.9950000 -23.9940000
  35.6230000  16.3650000 -24.7150000  36.5814925  15.9004170 -24.4835830
  34.8165825  15.7560116 -24.3064360  35.5082608  16.4409034 -25.7962839
  39.1460000  18.4670000 -26.6990000  39.9530000  18.9130000 -25.8750000
  39.3030000  17.2890000 -27.2860000  38.5814773  16.9178896 -27.8874826
  40.4900000  16.4840000 -27.0570000  40.5269804  16.1348207 -26.0251059
  40.4390000  15.2730000 -27.9790000  39.7520693  14.5449836 -27.5474706
  40.0370204  15.6344763 -28.9254921  41.7600000  14.6290000 -28.2150000
  42.2320000  13.6710000 -27.3480000  41.6268389  13.4003999 -26.4827515
  43.4460000  13.0570000 -27.5580000  43.8100492  12.3042767 -26.8587306
  44.1970000  13.3980000 -28.6460000  45.3930000  12.7770000 -28.8310000
  45.5922385  12.1349293 -28.1456907  43.7490000  14.3460000 -29.5360000
  44.3484813  14.6189721 -30.4044520  42.5250000  14.9550000 -29.3210000
  42.1551706  15.6992058 -30.0263255  41.7550000  17.3000000 -27.3100000
  42.5780000  17.5150000 -26.4160000  41.8960000  17.7900000 -28.5320000
  41.1819457  17.6733783 -29.2367164  43.1490000  18.3870000 -28.9210000
  43.9886896  17.7789090 -28.5844797  43.1900000  18.4750000 -30.4490000
  44.2431111  18.4040049 -30.7210588  42.6616785  17.5926750 -30.8102189
  42.5970000  19.6990000 -31.0690000  41.5521572  19.7773064 -30.7685461
  43.1425186  20.5742732 -30.7162843  42.6840000  19.6250000 -32.5880000
  43.7224861  19.7578048 -32.8913291  42.3321848  18.6471543 -32.9168516
  41.8730000  20.6550000 -33.2320000  41.6608830  21.4903569 -32.7054219
  41.4020000  20.5490000 -34.4680000  41.6630000  19.4490000 -35.1720000
  42.2141983  18.7090961 -34.7611196  41.3085385  19.3597539 -36.1135369
  40.6770000  21.5350000 -34.9960000  40.4864977  22.3645968 -34.4523290
  40.3214561  21.4480238 -35.9373407  43.3840000  19.7330000 -28.2160000
  44.5230000  20.0370000 -27.8520000  42.3430000  20.5340000 -27.9560000
  41.4082663  20.3385493 -28.2848941  42.5780000  21.7880000 -27.2370000
  43.4011669  22.3422750 -27.6878600  41.3260000  22.6690000 -27.2570000
  40.4472501  22.0354768 -27.1363883  41.3710000  23.7080000 -26.1170000
  42.2492930  24.3422329 -26.2372069  40.4718948  24.3233307 -26.1498179
  41.4236463  23.1934002 -25.1575648  41.2200000  23.3450000 -28.5220000
  40.4330025  23.8947442 -28.5260728  43.0350000  21.5370000 -25.8020000
  43.9340000  22.2310000 -25.3100000  42.4180000  20.5760000 -25.1040000
  41.5828656  20.1201558 -25.4429041  42.9000000  20.2340000 -23.7690000
  42.9247447  21.0898351 -23.0944386  42.0240000  19.1350000 -23.1380000
  41.6154922  18.5124515 -23.9340239  42.8510000  18.2560000 -22.1690000
  43.2594780  18.8778175 -21.3723887  42.2094378  17.4879836 -21.7369707
  43.6673290  17.7822839 -22.7142537  40.8150000  19.7540000 -22.4360000
  40.2193224  20.3101678 -23.1598422  40.2063305  18.9643281 -21.9955010
  41.1562080  20.4294298 -21.6514794  44.3730000  19.8260000 -23.8270000
  45.2060000  20.3270000 -23.0600000  44.7210000  18.9170000 -24.7420000
  44.0407196  18.5001462 -25.3613149  46.1060000  18.4620000 -24.8280000
  46.4219480  18.0356873 -23.8758794  46.2290000  17.3890000 -25.9080000
  45.4314730  16.6714694 -25.7151275  46.0433461  17.8913103 -26.8573772
  47.5630000  16.6590000 -25.9730000  48.3422461  17.3535348 -26.2868435
  47.8073298  16.2604101 -24.9883523  47.4690000  15.5100000 -26.9790000
  46.8147719  14.7501975 -26.5514667  47.0192328  15.9052528 -27.8898151
  48.8180000  14.8900000 -27.3080000  49.4326993  15.6519265 -27.7872842
  49.2857724  14.5817472 -26.3729768  48.6920000  13.7060000 -28.2170000
  48.2589654  13.9915067 -29.0836410  49.6092909  13.3285600 -28.4073064
  48.1227948  12.9996895 -27.7728942  47.0400000  19.6260000 -25.1200000
  48.0560000  19.8110000 -24.4440000  46.7080000  20.4290000 -26.1270000
  45.8948809  20.2392904 -26.6952842  47.5510000  21.5660000 -26.4830000
  48.5449358  21.2021644 -26.7434120  46.9610000  22.2890000 -27.6970000
  45.9692392  22.6670286 -27.4487965  47.6076395  23.1214669 -27.9744104
  46.8855301  21.5939061 -28.5332105  47.7160000  22.5190000 -25.3080000
  48.8130000  23.0150000 -25.0390000  46.6410000  22.7660000 -24.5680000
  45.7426027  22.3466578 -24.7607013  46.7280000  23.7500000 -23.5000000
  47.4011527  24.5628166 -23.7725691  45.3400000  24.3160000 -23.2050000
  44.5990437  23.5255088 -23.3241965  45.2840000  24.8470000 -21.8000000
  46.0244109  25.6379052 -21.6801610  44.2898575  25.2476188 -21.6017931
  45.4970641  24.0411053 -21.0976920  45.0480000  25.4120000 -24.2280000
  45.9766302  25.9626021 -24.3782800  44.7670404  24.9142887 -25.1561404
  43.9560000  26.3700000 -23.8210000  44.2364713  26.8684675 -22.8931175
  43.8145279  27.1145399 -24.6044189  43.0268815  25.8201533 -23.6709757
  47.3790000  23.1570000 -22.2540000  48.1660000  23.8310000 -21.5810000
  47.0950000  21.9030000 -21.9270000  46.4348131  21.3540236 -22.4588623
  47.7150000  21.2950000 -20.7580000  48.0101040  22.0461653 -20.0253586
  46.7610000  20.3030000 -20.0850000  47.2628456  19.8527727 -19.2285266
  45.5040000  21.0110000 -19.6190000  45.0013284  21.4611155 -20.4750473
  44.8367945  20.2923371 -19.1431222  45.7688544  21.7893002 -18.9033174
  46.4380000  19.2400000 -20.9960000  45.8403210  18.6224708 -20.5681708
  49.0050000  20.5550000 -21.0710000  49.7010000  20.1550000 -20.1330000
  49.3250000  20.3270000 -22.3430000  48.8362375  20.8027223 -23.0879153
  50.3780000  19.3950000 -22.6970000  50.4908463  19.4390808 -23.7802459
  51.2918057  19.7522336 -22.2221920  50.1380000  17.9590000 -22.2850000
  50.9050000  17.0800000 -22.7060000  49.1080000  17.6840000 -21.4940000
  48.5094377  18.4428456 -21.2007836  48.8300000  16.3490000 -20.9840000
  49.6836679  15.6946846 -21.1606962  48.5660000  16.4130000 -19.4760000
  47.5045646  16.6109597 -19.3267818  48.8179478  15.4430382 -19.0472852
  49.3920000  17.5070000 -18.7860000  50.4461560  17.2912706 -18.9601173
  49.1360319  18.4611536 -19.2466227  49.1320000  17.5800000 -17.2990000
  49.8681666  18.2410320 -16.8416223  48.1319175  17.9802232 -17.1323992
  49.2230000  16.2640000 -16.6620000  49.1331861  15.4487824 -17.2514515
  49.4030000  16.0860000 -15.3540000  49.5230000  17.1420000 -14.5530000
  49.4770648  18.0736305 -14.9403688  49.6594563  17.0069385 -13.5614166
  49.4780000  14.8590000 -14.8430000  49.3979311  14.0563654 -15.4508377
  49.6146233  14.7363724 -13.8498257  47.6400000  15.7540000 -21.7300000
  46.6710000  16.4650000 -22.0290000  47.7220000  14.4620000 -22.0550000
  48.5333509  13.9293076 -21.7756295  46.7090000  13.8020000 -22.8860000
  46.2095095  14.5394395 -23.5143242  47.3540000  12.7560000 -23.7830000
  48.1309380  13.2691436 -24.3497011  47.8127545  12.0203850 -23.1223072
  46.4170000  12.0610000 -24.7330000  45.8124813  11.3439105 -24.1776257
  45.7667896  12.8080498 -25.1882418  47.1550000  11.3220000 -25.8370000
  47.9810000  11.9180000 -26.5290000  46.8700000  10.0230000 -26.0050000
  47.3386242   9.4956965 -26.7278027  46.1879378   9.5774672 -25.4080135
  45.6410000  13.2160000 -21.9590000  45.6060000  12.0170000 -21.6560000
  44.7390000  14.1070000 -21.5210000  44.8092980  15.0707868 -21.8147217
  43.6750000  13.7430000 -20.5880000  44.0961825  13.1482831 -19.7774346
  43.0190000  15.0020000 -20.0100000  42.4582743  15.5143062 -20.7918116
  42.0860000  14.6090000 -18.9010000  42.6461207  14.0970134 -18.1185454
  41.6169467  15.5014368 -18.4866979  41.3167144  13.9428680 -19.2915982
  44.0720000  15.9350000 -19.4720000  44.7644172  16.1929245 -20.2733327
  43.5918184  16.8408214 -19.1018479  44.7890000  15.3070000 -18.4070000
  45.2698689  14.4012871 -18.7765255  45.5474569  15.9909041 -18.0260571
  44.0972691  15.0491818 -17.6050411  42.6290000  12.8760000 -21.2730000
  42.2830000  11.7910000 -20.7910000  42.0440000  13.3850000 -22.3570000
  42.1946526  14.3523253 -22.6053646  41.1670000  12.5820000 -23.2030000
  40.6701420  11.8302246 -22.5897586  40.0940000  13.4400000 -23.8940000
  40.5925822  14.2173065 -24.4730593  39.4777301  12.8326743 -24.5569230
  39.1580000  14.1370000 -22.9590000  38.1440000  13.4350000 -22.3380000
  38.0277650  12.3689059 -22.5330200  37.2890000  14.0700000 -21.4830000
  36.4960918  13.5124021 -20.9845205  37.4320000  15.4240000 -21.2510000
  36.7517932  15.9285553 -20.5648203  38.4300000  16.1380000 -21.8830000
  38.5420856  17.2079516 -21.7076703  39.2780000  15.4950000 -22.7310000
  40.0646137  16.0513146 -23.2407576  42.0090000  11.8880000 -24.2620000
  42.9820000  12.4570000 -24.7580000  41.6260000  10.6550000 -24.6180000
  40.8254823  10.2398152 -24.1631457  42.3370000   9.8700000 -25.6130000
  43.4019349  10.1009536 -25.5870537  42.1540000   8.3950000 -25.3170000
  41.1242066   8.1166135 -25.5408877  42.8307066   7.8225158 -25.9513738
  42.4470000   8.1020000 -23.8890000  41.6833061   8.5304658 -23.2399318
  42.4720810   7.0205708 -23.7548958  43.8050000   8.6750000 -23.4890000
  44.7570000   8.6400000 -24.2790000  43.8970000   9.2310000 -22.2760000
  44.7757280   9.6228723 -21.9687955  43.0873234   9.2564404 -21.6727771
  41.8470000  10.1760000 -27.0120000  40.7320000  10.6360000 -27.2040000
  42.6430000   9.9110000 -28.0300000  43.9430000   9.2110000 -28.0090000
  43.7777451   8.1355171 -28.0732461  44.4657273   9.4429592 -27.0810722
  44.6380000   9.7510000 -29.1980000  45.2847370   8.9821559 -29.6207398
  45.2400719  10.6117008 -28.9067871  43.5140000  10.1700000 -30.2050000
  43.4163948   9.3913285 -30.9614674  43.7190202  11.1240258 -30.6906966
  42.2180000  10.2670000 -29.3850000  41.8309240  11.2857419 -29.3641329
  41.1380000   9.3230000 -29.9140000  40.8660000   8.2460000 -29.3710000
  40.5130000   9.7730000 -31.0060000  40.8034892  10.6373212 -31.4403549
  39.3440000   9.0850000 -31.5470000  38.5664690   9.0288686 -30.7851641
  38.7800000   9.8420000 -32.7750000  39.6589005   9.8489441 -33.4196587
  38.0223801   9.1845963 -33.2015356  38.2090000  11.2860000 -32.6610000
  38.9189871  11.8935804 -32.0998715  37.9810000  11.9070000 -34.0270000
  37.2707178  11.3001861 -34.5885824  37.5821915  12.9142744 -33.9067882
  38.9261167  11.9531542 -34.5680403  36.9190000  11.3790000 -31.8590000
  37.0947800  11.0215495 -30.8443917  36.5853094  12.4161282 -31.8255804
  36.1516405  10.7660273 -32.3317819  39.6610000   7.6420000 -31.8960000
  38.7810000   6.7740000 -31.7830000  40.9060000   7.3450000 -32.2990000
  41.6413140   8.0321167 -32.3843423  41.1940000   5.9650000 -32.7020000
  40.4430901   5.6345081 -33.4196410  42.5800000   5.8480000 -33.3530000
  42.6159927   5.0111826 -34.0505244  42.7905078   6.7746760 -33.8869084
  43.7090000   5.6460000 -32.3800000  44.1200000   4.3950000 -31.9490000
  45.1040000   4.5360000 -31.0740000  45.5608522   3.6618732 -30.6100094
  45.3550000   5.8280000 -30.9280000  46.0595817   6.2324180 -30.3279079
  44.4960000   6.5440000 -31.7310000  44.5456113   7.6327433 -31.7476711
  41.0900000   5.0310000 -31.5150000  40.6830000   3.8710000 -31.6730000
  41.4350000   5.5500000 -30.3200000  41.8094100   6.4876192 -30.2919507
  41.3290000   4.8090000 -29.0660000  41.8190767   3.8413481 -29.1735817
  42.0120000   5.5790000 -27.9390000  41.5263933   6.5466971 -27.8131088
  41.9352219   5.0111724 -27.0117583  43.0628470   5.7298143 -28.1861335
  39.8800000   4.5550000 -28.7060000  39.5020000   3.4110000 -28.4290000
  39.0610000   5.6190000 -28.6710000  39.4268539   6.5590153 -28.7222013
  37.6260000   5.4450000 -28.4670000  37.4400666   5.0430624 -27.4710210
  36.9010000   6.7880000 -28.5960000  37.5048100   7.3395657 -29.3166164
  35.9008404   6.6358146 -29.0017345  36.8060000   7.5920000 -27.2830000
  36.1407148   7.0541434 -26.6075693  38.1430000   7.7800000 -26.6240000
  38.8087307   8.3182288 -27.2986934  38.0182553   8.3520459 -25.7045964
  38.5733985   6.8063139 -26.3899211  36.1500000   8.9570000 -27.4320000
  35.1331363   8.8332812 -27.8045337  36.1232807   9.4555613 -26.4630707
  36.7230382   9.5612628 -28.1352728  37.0730000   4.4080000 -29.4410000
  36.4520000   3.4260000 -29.0220000  37.3700000   4.5620000 -30.7390000
  37.9439351   5.3303270 -31.0558145  36.8210000   3.6520000 -31.7370000
  35.7325507   3.7099318 -31.7323838  37.3230000   4.0250000 -33.1280000
  37.0013787   5.0500626 -33.3121349  38.4116355   3.9879559 -33.0879923
  36.8190000   3.1150000 -34.2690000  37.3798767   2.1809275 -34.2369570
  35.7615811   2.9091352 -34.1029069  37.0040000   3.7820000 -35.6590000
  38.0603536   3.7772405 -35.9276883  36.4368276   3.2282699 -36.4071964
  36.5310000   5.1660000 -35.6420000  35.5312773   5.3018455 -35.6889026
  37.3150000   6.2390000 -35.5710000  38.6430000   6.0940000 -35.5410000
  39.0477861   5.1691946 -35.5723576  39.2359193   6.9098684 -35.4871019
  36.7670000   7.4620000 -35.5290000  35.7623019   7.5628870 -35.5514436
  37.3614026   8.2767886 -35.4751123  37.1760000   2.2160000 -31.4210000
  36.3850000   1.3000000 -31.6650000  38.3550000   1.9950000 -30.8560000
  39.0346025   2.7275929 -30.7092097  38.7250000   0.6330000 -30.5110000
  38.4513930  -0.0480491 -31.3168601  40.2350000   0.5520000 -30.2950000
  40.7374844   1.1141945 -31.0821125  40.4754599   0.9899588 -29.3262528
  40.7360000  -0.8580000 -30.3200000  40.6950000  -1.5330000 -31.3630000
  41.2200000  -1.3260000 -29.1740000  41.5733333  -2.2710109 -29.1269906
  41.2322310  -0.7344667 -28.3554406  37.9500000   0.1550000 -29.2890000
  37.5230000  -1.0020000 -29.2310000  37.7270000   1.0400000 -28.3130000
  38.0710812   1.9875718 -28.3747666  36.9950000   0.6460000 -27.1120000
  37.4935964  -0.2091415 -26.6556736  36.9530000   1.7870000 -26.0950000
  36.4484545   2.6475603 -26.5342834  36.4106967   1.4629135 -25.2067572
  37.9698651   2.0650688 -25.8179399  35.5820000   0.2440000 -27.4460000
  34.9790000  -0.5550000 -26.7220000  35.0360000   0.8140000 -28.5230000
  35.5688327   1.4753777 -29.0695969  33.6470000   0.5650000 -28.8990000
  32.9886397   0.7947682 -28.0612247  33.2520000   1.4490000 -30.0900000
  34.0403490   1.3567543 -30.8370582  32.3210989   1.0509556 -30.4938365
  33.0600000   2.9370000 -29.7260000  32.1220870   3.0046508 -29.1747801
  33.8859932   3.2174696 -29.0724166  33.0150000   3.8910000 -30.9340000
  32.8430000   3.3850000 -32.0790000  33.1590000   5.1370000 -30.7260000
  33.4220000  -0.9050000 -29.2130000  32.3940000  -1.4650000 -28.8260000
  34.3780000  -1.5580000 -29.8840000  35.2817290  -1.1448036 -30.0646711
  34.1020000  -2.8910000 -30.4280000  33.3134460  -2.8202537 -31.1771840
  35.3550000  -3.4960000 -31.0880000  35.9261032  -3.9540371 -30.2804467
  34.9922269  -4.2724275 -31.7615400  36.2550000  -2.5260000 -31.8640000
  36.6202425  -1.7880667 -31.1497499  37.0943233  -3.1061394 -32.2475060
  35.5490000  -1.8030000 -33.0370000  35.1057806  -2.5565945 -33.6879615
  34.7622356  -1.1700378 -32.6265610  36.5440000  -0.9280000 -33.8580000
  37.1823398  -0.4191937 -33.1356850  37.1457187  -1.6143274 -34.4538091
  35.8990000   0.0910000 -34.7640000  35.3417314   0.7273257 -34.2120571
  36.6156167   0.6082456 -35.2528941  35.3077897  -0.3802968 -35.4336632
  33.5870000  -3.8510000 -29.3630000  32.7820000  -4.7450000 -29.6560000
  34.0470000  -3.6750000 -28.1250000  34.7632215  -2.9835222 -27.9547516
  33.5780000  -4.4750000 -27.0010000  33.6601316  -5.5524687 -27.1438800
  34.3560000  -4.0880000 -25.7410000  33.9266849  -3.1844451 -25.3081301
  34.2710000  -5.2070000 -24.7470000  34.7005728  -6.1108425 -25.1790148
  34.8235323  -4.9370069 -23.8470487  33.2270025  -5.3879165 -24.4911874
  35.7870000  -3.7020000 -26.1070000  35.7713031  -2.8544497 -26.7922111
  36.3323554  -3.4283004 -25.2037970  36.2804918  -4.5472643 -26.5866821
  32.0880000  -4.2780000 -26.7750000  31.3560000  -5.2230000 -26.4660000
  31.6240000  -3.0420000 -26.8620000  32.2245934  -2.2618039 -27.0871244
  30.2370000  -2.7700000 -26.5330000  29.8990107  -3.4114817 -25.7191427
  30.1230000  -1.3130000 -26.0860000  30.2983960  -0.7164747 -26.9812614
  29.1493968  -1.0598581 -25.6663381  31.2190000  -1.0170000 -25.0510000
  32.1623687  -1.3806350 -25.4583402  31.3480000   0.4630000 -24.7160000
  30.4050981   0.8272667 -24.3081464  32.1395474   0.6017188 -23.9795826
  31.5918148   1.0208072 -25.6201603  30.9550000  -1.8590000 -23.8030000
  30.9716176  -2.9163542 -24.0672449  31.7261662  -1.6587570 -23.0591541
  29.9786792  -1.6032073 -23.3913367  29.2780000  -3.0860000 -27.6800000
  28.0730000  -3.1880000 -27.4460000  29.7900000  -3.2960000 -28.9130000
  30.7867645  -3.2703674 -29.0739439  28.9130000  -3.5300000 -30.0510000
  27.9627000  -3.0198962 -29.8934458  29.5430000  -3.0010000 -31.3350000
  30.5017263  -3.5194059 -31.3209108  28.9832713  -3.2974038 -32.2221013
  29.7820000  -1.4840000 -31.3640000  30.6101847  -1.2704731 -30.6882655
  30.1150000  -0.9360000 -32.7810000  29.2870223  -1.1487569 -33.4572294
  30.2716381   0.1413305 -32.7269238  31.0200422  -1.4159836 -33.1533101
  28.6240000  -0.7240000 -30.7150000  28.5197132  -1.0375816 -29.6763036
  28.8251270   0.3466336 -30.7523203  27.7008054  -0.9387130 -31.2532463
  28.6080000  -5.0120000 -30.2170000  29.3460000  -5.8650000 -29.7200000
  27.4860000  -5.3190000 -30.8650000  26.3020000  -4.4450000 -30.9870000
  26.5069357  -3.6730754 -31.7287777  26.1060039  -3.9778510 -30.0218801
  25.1960000  -5.3740000 -31.4100000  24.5727903  -4.8802480 -32.1555989
  24.5882079  -5.6328897 -30.5430131  25.8770000  -6.6080000 -31.9840000
  26.0935391  -6.4018317 -33.0321910  25.3215073  -7.5425215 -31.9052782
  27.1850000  -6.7090000 -31.1920000  27.0762013  -7.2813992 -30.2707941
  28.3110000  -7.2970000 -32.0220000  28.9450000  -6.5940000 -32.8050000
  28.5930000  -8.5820000 -31.7890000  28.1205245  -9.0445863 -31.0255341
  29.5480000  -9.3520000 -32.5800000  29.0743935 -10.3155819 -32.7678986
  29.6614119  -8.8138215 -33.5210638  30.9280000  -9.5870000 -31.9730000
  31.8250000 -10.0350000 -32.6940000  31.1250000  -9.3220000 -30.6750000
  30.3226832  -9.0687990 -30.1161830  32.4410000  -9.3350000 -30.0340000
  33.2257859  -9.4673054 -30.7787856  32.6650000  -8.0060000 -29.3210000
  32.6702572  -7.2236948 -30.0799928  31.8007032  -7.8741730 -28.6700679
  33.9270000  -7.9200000 -28.5030000  35.1330000  -7.5150000 -29.0860000
  35.1447658  -7.2708968 -30.1482498  36.3140000  -7.4200000 -28.3300000
  37.2484351  -7.1145317 -28.8007674  36.2860000  -7.7260000 -26.9700000
  37.4480000  -7.6240000 -26.2180000  38.2046393  -7.3360871 -26.7339484
  35.0910000  -8.1250000 -26.3770000  35.0653426  -8.3675683 -25.3146428
  33.9200000  -8.2150000 -27.1460000  32.9836629  -8.5208724 -26.6792935
  32.6170000 -10.4730000 -29.0430000  33.6300000 -11.1620000 -29.0840000
  31.6690000 -10.6820000 -28.1330000  30.9061271 -10.0365751 -27.9861976
  31.7470000 -11.8610000 -27.2860000  32.7825150 -12.0418619 -26.9977347
  30.9160000 -11.6630000 -26.0210000  29.9318517 -11.3326827 -26.3533280
  30.8136651 -12.5777558 -25.4371768  31.4290000 -10.6080000 -25.0810000
  31.5220000  -9.2740000 -25.4150000  31.9650000  -8.5850000 -24.3760000
  32.1188987  -7.5083253 -24.4480128  32.1470000  -9.4200000 -23.3710000
  32.4788296  -9.1797938 -22.4478045  31.8090000 -10.6890000 -23.7830000
  31.8796951 -11.5248951 -23.0870238  31.2570000 -13.1090000 -28.0390000
  30.4140000 -13.0180000 -28.9380000  31.7970000 -14.2910000 -27.7050000
  33.0050000 -14.4860000 -26.8800000  32.7552658 -14.3335439 -25.8300046
  33.7681951 -13.7676802 -27.1794142  33.4050000 -15.9070000 -27.1790000
  33.1182161 -16.5357240 -26.3360527  34.4864755 -15.9460432 -27.3093372
  32.6900000 -16.3260000 -28.4520000  32.4761700 -17.3944669 -28.4245364
  33.2252303 -16.0866043 -29.3708677  31.3830000 -15.5320000 -28.3870000
  30.9998081 -15.2619213 -29.3710324  30.3140000 -16.2930000 -27.6190000
  30.2710000 -16.1890000 -26.3880000  29.4620000 -17.0670000 -28.2980000
  29.5997782 -17.2571347 -29.2803265  28.2780000 -17.6240000 -27.6430000
  28.5386658 -17.9184423 -26.6264095  27.1230000 -16.6070000 -27.5800000
  26.2447738 -17.1193102 -27.1871180  27.3509375 -15.7449964 -26.9530276
  26.7380000 -16.0670000 -28.9310000  25.8800000 -16.7710000 -29.7560000
  25.4533643 -17.7062640 -29.3935596  25.5610000 -16.3100000 -31.0170000
  24.8791407 -16.8805694 -31.6475705  26.0990000 -15.1390000 -31.4760000
  25.8551197 -14.7733444 -32.4734559  26.9560000 -14.4190000 -30.6670000
  27.3769187 -13.4794204 -31.0249356  27.2810000 -14.8870000 -29.4050000
  27.9704031 -14.3240364 -28.7757979  27.8150000 -18.8740000 -28.3770000
  28.1390000 -19.0970000 -29.5520000  27.0560000 -19.7010000 -27.6770000
  26.8283430 -19.5091790 -26.7118698  26.5650000 -20.9280000 -28.2670000
  26.6786187 -20.8972275 -29.3506249  27.3620000 -22.1100000 -27.7270000
  28.4128342 -21.8209846 -27.7448007  27.0453826 -22.2635959 -26.6953694
  27.1790000 -23.3940000 -28.5070000  26.1442104 -23.7177623 -28.3952446
  27.3837443 -23.1896692 -29.5579176  28.1030000 -24.4840000 -28.0170000
  28.8820000 -24.2130000 -27.0810000  28.0510000 -25.6040000 -28.5650000
  25.0900000 -21.1300000 -27.9850000  24.5980000 -20.7650000 -26.9240000
  24.3900000 -21.7140000 -28.9480000  24.8446620 -21.9936497 -29.8054251
  22.9750000 -21.9920000 -28.7980000  22.6161553 -21.5781921 -27.8556133
  22.1800000 -21.3640000 -29.9410000  22.6452420 -21.6043529 -30.8969705
  21.1596290 -21.7470967 -29.9275826  22.0790000 -19.8850000 -29.8780000
  22.8930000 -18.9860000 -30.4850000  23.7089839 -19.3889093 -31.0849451
  22.4890000 -17.7110000 -30.1950000  22.9319281 -16.8638018 -30.5208366
  21.3860000 -17.7710000 -29.3890000  20.6250000 -16.7530000 -28.8380000
  20.9045018 -15.7207269 -29.0486885  19.5650000 -17.1120000 -28.0600000
  18.9432010 -16.3383084 -27.6095920  19.2550000 -18.4490000 -27.8250000
  18.4046004 -18.7236678 -27.2009186  20.0080000 -19.4600000 -28.3700000
  19.7260758 -20.4899608 -28.1513675  21.0990000 -19.1250000 -29.1710000
  22.7760000 -23.4890000 -28.8420000  23.2290000 -24.1480000 -29.7700000
  22.1140000 -24.0330000 -27.8310000  21.7892203 -23.4704990 -27.0575596
  21.8370000 -25.4560000 -27.8100000  22.2366731 -25.9246246 -28.7093061
  22.4860000 -26.1040000 -26.5940000  21.8690342 -25.8610391 -25.7288859
  22.4751170 -27.1818101 -26.7561940  23.9100000 -25.6450000 -26.3440000
  24.4688879 -25.6973021 -27.2783498  23.8843899 -24.6130960 -25.9938282
  24.6190000 -26.4890000 -25.3090000  24.3070000 -27.6630000 -25.1310000
  25.5840000 -25.8950000 -24.6240000  26.0910442 -26.4118686 -23.9198307
  25.8085800 -24.9277863 -24.8088320  20.3340000 -25.6180000 -27.7470000
  19.7030000 -25.1600000 -26.8030000  19.7450000 -26.2750000 -28.7490000
  18.3520000 -26.7190000 -28.5990000  17.7533216 -25.9097161 -28.1809760
  18.3127021 -27.5808378 -27.9328241  17.9560000 -27.0620000 -29.9980000
  17.5649828 -26.1789244 -30.5033535  17.1951604 -27.8424933 -29.9906060
  19.2040000 -27.5450000 -30.6390000  19.1266923 -27.3632073 -31.7109487
  19.4289272 -28.5972076 -30.4647399  20.3040000 -26.6720000 -30.0430000
  21.2468418 -27.1884339 -29.8628788  20.5470000 -25.4770000 -30.9500000
  20.0000000 -24.4100000 -30.7090000  21.3770000 -25.6490000 -31.9840000
  22.0850000 -26.8810000 -32.3600000  21.3957038 -27.5646709 -32.8555453
  22.4912272 -27.3584503 -31.4683052  23.1560000 -26.3800000 -33.2770000
  23.4268333 -27.1552895 -33.9937110  24.0365436 -26.0942210 -32.7016091
  22.5590000 -25.2000000 -33.9540000  21.9335556 -25.5842560 -34.7597702
  23.2646570 -24.4737065 -34.3572933  21.6850000 -24.5410000 -32.8870000
  22.1720755 -23.7471581 -32.3207219  20.4160000 -24.0030000 -33.5220000
  19.5420000 -24.7660000 -33.9210000  20.3330000 -22.6840000 -33.6300000
  21.0839144 -22.1033879 -33.2848675  19.1500000 -22.0340000 -34.1630000
  18.2652228 -22.3553612 -33.6134589  19.2860000 -20.5210000 -34.0260000
  20.0513163 -20.2559883 -34.7554923  18.3375839 -20.0676054 -34.3141672
  19.6970000 -20.0080000 -32.6490000  20.6566629 -20.4471828 -32.3764814
  19.8200000 -18.4970000 -32.6670000  18.8605399 -18.0570586 -32.9390049
  20.1137627 -18.1440569 -31.6784478  20.5742538 -18.2020090 -33.3965080
  18.7040000 -20.4460000 -31.5910000  18.6610239 -21.5347338 -31.5608142
  19.0185286 -20.0682038 -30.6181470  17.7173119 -20.0505003 -31.8320924
  18.8340000 -22.3870000 -35.6060000  19.7120000 -22.4470000 -36.4560000
  17.5520000 -22.6030000 -35.8630000  16.8907112 -22.5722540 -35.1002083
  17.0570000 -22.9330000 -37.1940000  17.6287285 -23.7627050 -37.6097106
  15.5760000 -23.3450000 -37.1190000  15.5399260 -24.1869379 -36.4276691
  15.0559209 -22.4931838 -36.6807912  14.8840000 -23.7430000 -38.4590000
  14.9990464 -22.9078813 -39.1499717  15.4062351 -24.6147252 -38.8532939
  13.3630000 -24.0770000 -38.2930000  12.8479532 -23.1502171 -38.0402168
  12.9996555 -24.4437991 -39.2529680  13.0860000 -25.1370000 -37.1970000
  13.8202318 -25.9279747 -37.3498506  13.2776868 -24.6431765 -36.2443754
  11.6940000 -25.7360000 -37.1840000  11.5163399 -26.1940084 -38.0664766
  11.6244763 -26.4098934 -36.4349111  11.0135211 -25.0032864 -37.0419497
  17.2430000 -21.7410000 -38.1220000  16.6860000 -20.6630000 -37.8890000
  18.0530000 -21.9370000 -39.1570000  18.5879104 -22.7936804 -39.1487001
  18.2900000 -20.9840000 -40.2360000  18.9339579 -21.4393358 -40.9883874
  16.9730000 -20.5670000 -40.9050000  16.3672853 -20.0190860 -40.1831973
  17.1981760 -19.9214775 -41.7539385  16.1820000 -21.7510000 -41.3970000
  16.4720000 -22.8910000 -41.0500000  15.1750000 -21.4890000 -42.2090000
  14.6107795 -22.2453144 -42.5691994  14.9732945 -20.5334075 -42.4664077
  19.0630000 -19.7470000 -39.7890000  19.1350000 -18.7620000 -40.5290000
  19.6600000 -19.7650000 -38.6090000  19.4914935 -20.5401786 -37.9838575
  20.5150000 -18.6810000 -38.1490000  20.5094733 -17.8169519 -38.8134468
  20.0980000 -18.2230000 -36.7460000  20.3469722 -19.0068285 -36.0306504
  20.8220000 -16.9340000 -36.3610000  20.5731376 -16.1495243 -37.0756792
  20.5116544 -16.6267406 -35.3623120  21.8985071 -17.1047468 -36.3699285
  18.5930000 -18.0780000 -36.6970000  18.1274990 -19.0376492 -36.9216872
  18.2910432 -17.7525048 -35.7015229  18.2745065 -17.3392205 -37.4324370
  21.9560000 -19.1690000 -38.1720000  22.2670000 -20.2410000 -37.6410000
  22.8410000 -18.3880000 -38.7830000  22.5622877 -17.5702207 -39.3061212
  24.2590000 -18.7370000 -38.7470000  24.4103395 -19.6956520 -39.2431672
  25.1070000 -17.6770000 -39.4600000  24.9561047 -17.7611348 -40.5362208
  24.7978161 -16.6863573 -39.1266348  26.4880000 -17.8710000 -39.1570000
  27.0111576 -17.2036652 -39.6070780  24.7430000 -18.8990000 -37.3080000
  24.2190000 -18.2770000 -36.3700000  25.7560000 -19.7580000 -37.1410000
  26.0834602 -20.3398972 -37.8988026  26.3640000 -19.9260000 -35.8300000
  25.6396442 -19.6949801 -35.0489509  26.8290000 -21.3720000 -35.6530000
  27.4778451 -21.4313708 -34.7791726  25.9573741 -22.0087520 -35.5016222
  27.5350000 -21.8060000 -36.7920000  27.8196163 -22.7140424 -36.6653021
  27.5200000 -18.9730000 -35.5900000  27.9100000 -18.7950000 -34.4270000
  28.0530000 -18.3550000 -36.6520000  27.6840609 -18.5150538 -37.5784805
  29.1870000 -17.4480000 -36.5060000  30.0460965 -17.9973042 -36.1208801
  29.5690000 -16.8230000 -37.8550000  28.7395247 -16.1845685 -38.1590972
  30.4548084 -16.2108476 -37.6855514  29.8550000 -17.8330000 -38.9470000
  30.3371433 -18.6944287 -38.4848536  28.9004070 -18.1381637 -39.3756366
  30.7570000 -17.2760000 -40.0540000  30.7296934 -17.9582019 -40.9036787
  30.3754508 -16.3014954 -40.3587300  32.1480000 -17.1210000 -39.6210000
  32.6346503 -17.9590435 -39.3364760  32.8010000 -15.9580000 -39.5730000
  32.2080000 -14.8170000 -39.9470000  31.2515928 -14.8312428 -40.2713184
  32.7198777 -13.9474318 -39.9030446  34.0590000 -15.9340000 -39.1550000
  34.5120476 -16.7928353 -38.8770615  34.5584708 -15.0569933 -39.1164399
  28.8230000 -16.3510000 -35.5280000  27.7320000 -15.7890000 -35.6100000
  29.7040000 -16.0590000 -34.5890000  30.5925724 -16.5345596 -34.5228071
  29.3640000 -15.0870000 -33.5620000  28.3027437 -14.8422132 -33.6057460
  29.6860000 -15.6310000 -32.1580000  29.1291662 -15.0573764 -31.4170598
  29.3010000 -17.0860000 -32.0600000  29.8578112 -17.6603712 -32.8003773
  29.5341417 -17.4576539 -31.0621937  28.2324163 -17.1929791 -32.2465072
  31.0790000 -15.4920000 -31.8620000  31.2554883 -15.8370770 -30.9837210
  30.0480000 -13.7420000 -33.7610000  29.8380000 -12.8320000 -32.9410000
  30.8360000 -13.5800000 -34.8270000  30.9590453 -14.3413631 -35.4791392
  31.5720000 -12.3420000 -35.0620000  31.7538935 -11.8333482 -34.1152755
  32.9240000 -12.6430000 -35.7250000  33.4823508 -11.7085697 -35.7814236
  33.4616045 -13.3492497 -35.0923130  32.7720000 -13.2270000 -37.1200000
  31.6320000 -13.5870000 -37.5160000  33.8010000 -13.3310000 -37.8260000
  30.8050000 -11.3550000 -35.9280000  31.3910000 -10.3560000 -36.3760000
  29.5260000 -11.6210000 -36.1910000  29.0990580 -12.4663933 -35.8401010
  28.7420000 -10.7650000 -37.0670000  29.3281601 -10.2606644 -37.8352195
  27.6370000 -11.5890000 -37.7530000  28.1021554 -12.4402869 -38.2500315
  26.6140000 -12.0830000 -36.7640000  26.1480526 -11.2322055 -36.2668655
  25.8512898 -12.6599465 -37.2869784  27.1012927 -12.7148489 -36.0214272
  26.9990000 -10.8030000 -38.8540000  27.7525231 -10.5378028 -39.5956033
  26.2209821 -11.4031141 -39.3258589  26.5578807  -9.8944525 -38.4440537
  28.1950000  -9.5800000 -36.2680000  27.8720000  -9.6930000 -35.0720000
  28.1860000  -8.4050000 -36.9110000  28.5137988  -8.3862574 -37.8661419
  27.7330000  -7.1610000 -36.3140000  27.3476353  -7.3827450 -35.3188003
  28.5900710  -6.4927390 -36.2305983  26.6450000  -6.4720000 -37.1240000
  25.5390000  -7.0110000 -37.2830000  26.9200000  -5.2780000 -37.6350000
  27.8099031  -4.8317266 -37.4646710  25.9170000  -4.5490000 -38.3990000
  24.9218147  -4.7019027 -37.9814761  26.2320000  -3.0410000 -38.4360000
  27.2704642  -2.8984691 -38.7349608  25.3160000  -2.3410000 -39.4330000
  24.2773114  -2.4827053 -39.1344262  25.5458196  -1.2756800 -39.4524157
  25.4688596  -2.7632992 -40.4261750  26.1010000  -2.3860000 -37.0390000
  25.0948587  -2.6125224 -36.6861996  26.8303406  -2.8808226 -36.3976636
  26.3330000  -0.8380000 -36.9950000  25.6036828  -0.3424237 -37.6357811
  26.2178747  -0.4817840 -35.9713030  27.3391645  -0.6107238 -37.3472476
  25.8680000  -5.1570000 -39.7910000  26.9010000  -5.3640000 -40.4330000
  24.6720000  -5.5070000 -40.2420000  23.8461985  -5.3060245 -39.6963260
  24.5090000  -6.2010000 -41.5080000  25.4985123  -6.1532590 -41.9626267
  24.1140000  -7.6650000 -41.2990000  23.9916356  -8.1531278 -42.2658809
  25.1700000  -8.3460000 -40.5370000  25.2926326  -7.8586889 -39.5697411
  24.8938567  -9.3894495 -40.3851490  26.1078927  -8.2956976 -41.0901059
  22.8880000  -7.7060000 -40.4150000  23.0783002  -7.0337263 -39.5783790
  22.0575457  -7.3219459 -41.0074084  22.5440000  -9.0560000 -39.8970000
  23.3738525  -9.4405391 -39.3040630  21.6524170  -8.9901373 -39.2734287
  22.3531002  -9.7287596 -40.7330931  23.4390000  -5.4810000 -42.2930000
  22.6830000  -4.6880000 -41.7420000  23.3470000  -5.7970000 -43.5760000
  23.9088807  -6.5356644 -43.9744525  22.4720000  -5.0400000 -44.4620000
  22.5396774  -3.9771260 -44.2300134  22.8820000  -5.2490000 -45.9210000
  23.7678465  -4.6459212 -46.1201762  23.1300042  -6.3048553 -46.0294599
  21.7750000  -4.8780000 -46.9200000  21.3650000  -3.6920000 -46.9820000
  21.3270000  -5.7880000 -47.6660000  21.0210000  -5.4460000 -44.2440000
  20.6750000  -6.6280000 -44.3140000  20.1720000  -4.4530000 -43.9680000
  20.4867145  -3.4934946 -43.9880874  18.7900000  -4.7140000 -43.6350000
  18.7773156  -5.3739263 -42.7675695  18.3269135  -3.7624700 -43.3737704
  18.0000000  -5.3550000 -44.7520000  17.0390000  -6.0820000 -44.4790000
  18.3840000  -5.1220000 -46.0050000  19.1325570  -4.4903194 -46.2514578
  17.6530000  -5.7780000 -47.0790000  16.5920032  -5.5422435 -46.9965140
  18.1520000  -5.3090000 -48.4420000  19.1838860  -5.6601498 -48.4440784
  17.5776954  -5.8660575 -49.1822441  18.1200000  -3.8190000 -48.7880000
  18.6115392  -3.2701146 -47.9847473  18.8280000  -3.5280000 -50.1110000
  18.3367045  -4.0762126 -50.9148598  18.7829756  -2.4592470 -50.3203813
  19.8699301  -3.8407274 -50.0425633  16.6940000  -3.3530000 -48.8420000
  16.2221297  -3.5124990 -47.8724651  16.6671682  -2.2915383 -49.0883339
  16.1558185  -3.9161218 -49.6044654  17.7640000  -7.2940000 -47.0040000
  16.9860000  -7.9870000 -47.6690000  18.7050000  -7.8020000 -46.2060000
  19.3149582  -7.1275395 -45.7665078  18.9870000  -9.2290000 -46.0070000
  20.0083871  -9.3442546 -45.6442549  18.0330000  -9.8610000 -44.9910000
  17.0107379  -9.7240464 -45.3435949  18.2540324 -10.9262489 -44.9239969
  18.1750000  -9.2660000 -43.7070000  17.5656886  -9.6816828 -43.0925513
  18.9740000  -9.9910000 -47.3260000  18.3340000 -11.0400000 -47.4720000
  19.7040000  -9.4420000 -48.2970000  20.1463423  -8.5442857 -48.1608323
  19.8840000 -10.1080000 -49.5640000  20.8179500  -9.7341486 -49.9836091
  19.9839155 -11.1714156 -49.3465981  18.7800000  -9.9150000 -50.5740000
  18.8410000 -10.5260000 -51.6470000  17.7830000  -9.0850000 -50.2600000
  17.7816190  -8.6758000 -49.3366080  16.6710000  -8.7740000 -51.1580000
  15.9939600  -9.6232850 -51.2498201  15.8990000  -7.5960000 -50.5660000
  15.7046214  -7.9825606 -49.5655565  16.6447838  -6.8030492 -50.5100046
  14.6050000  -7.0370000 -51.1560000  14.8096123  -6.7544074 -52.1886549
  13.4560000  -8.0230000 -51.1210000  13.2504843  -8.3057247 -50.0885617
  12.5682293  -7.5627293 -51.5547221  13.7211485  -8.9112038 -51.6944898
  14.2490000  -5.7700000 -50.3810000  15.0553476  -5.0434734 -50.4813100
  13.3272737  -5.3464070 -50.7798620  14.1099489  -6.0146045 -49.3279414
  17.1660000  -8.4550000 -52.5650000  18.1610000  -7.7470000 -52.7400000
  16.4970000  -9.0200000 -53.5680000  15.6881485  -9.6035598 -53.4088882
  16.9620000  -8.8420000 -54.9380000  18.0203883  -9.0949142 -55.0008317
  16.1850000  -9.7540000 -55.8860000  15.1243875  -9.5066555 -55.8410359
  16.5474100  -9.6137214 -56.9043718  16.3280673 -10.7932088 -55.5898987
  16.8150000  -7.3890000 -55.3620000  15.7580000  -6.7820000 -55.1640000
  17.8840000  -6.8310000 -55.9380000  18.7204837  -7.3890589 -56.0326814
  17.9240000  -5.4390000 -56.3880000  17.0134978  -4.9240289 -56.0815858
  19.1250000  -4.7160000 -55.7740000  20.0306861  -5.2291882 -56.0972179
  19.1334213  -3.6932253 -56.1507772  19.0730000  -4.6970000 -54.3580000
  19.8421964  -4.2357205 -54.0157166  17.9790000  -5.3160000 -57.9110000
  18.1940000  -4.2130000 -58.4270000  17.8160000  -6.4210000 -58.6360000
  17.7257764  -7.2978509 -58.1429568  17.8410000  -6.4470000 -60.0960000
  18.7284536  -5.9404131 -60.4753350  17.8750000  -7.9170000 -60.5630000
  18.8963954  -8.2696146 -60.4197744  17.2043029  -8.4717088 -59.9068265
  17.4900000  -8.1200000 -61.9130000  17.5383069  -9.0556646 -62.1222799
  16.6420000  -5.6770000 -60.6820000  15.6070000  -5.5230000 -60.0490000
  16.7930000  -5.1970000 -61.9180000  17.6416703  -5.3696234 -62.4376722
  15.7560000  -4.3820000 -62.5390000  15.4236905  -3.5680685 -61.8946515
  16.2370000  -3.7890000 -63.8690000  15.3691466  -3.4647661 -64.4432839
  17.1530000  -2.6110000 -63.6330000  18.0213748  -2.9345727 -63.0591299
  17.4810124  -2.2075047 -64.5909665  16.6184331  -1.8398025 -63.0783882
  16.9060000  -4.8490000 -64.6940000  16.1985643  -5.6532129 -64.8961840
  17.2438190  -4.4175330 -65.6362389  17.7622553  -5.2473143 -64.1496899
  14.4990000  -5.1810000 -62.7900000  13.4030000  -4.6180000 -62.8930000
  14.6400000  -6.4920000 -62.9480000  15.5590652  -6.9088270 -62.9070894
  13.4990000  -7.3600000 -63.2040000  12.8434680  -6.9124546 -63.9510476
  13.9870000  -8.6950000 -63.7260000  14.7823207  -9.0510341 -63.0711688
  13.1473610  -9.3889898 -63.6874701  14.4900000  -8.6100000 -65.1070000
  15.7350000  -8.6620000 -65.3130000  13.6180000  -8.5010000 -65.9900000
  12.6670000  -7.5930000 -61.9540000  11.4520000  -7.8270000 -62.0550000
  13.3050000  -7.5790000 -60.7810000  14.3073547  -7.4549664 -60.7811575
  12.6390000  -7.8000000 -59.5100000  11.9409296  -8.6342402 -59.5795722
  13.6950000  -8.1340000 -58.4600000  14.2356440  -7.2173514 -58.2242914
  13.1802477  -8.4911787 -57.5680620  14.6760000  -9.1920000 -58.9360000
  14.9251418  -8.9916078 -59.9780519  15.5770952  -9.1191796 -58.3270469
  14.0970000 -10.5850000 -58.8150000  14.6860000 -11.5560000 -59.3430000
  13.0330000 -10.7050000 -58.1730000  11.7980000  -6.5790000 -59.0970000
  11.8310000  -5.5150000 -59.7270000  11.0140000  -6.7680000 -58.0350000
  10.9172195  -7.6947159 -57.6452173  10.2930000  -5.6750000 -57.4020000
   9.5334344  -5.2845273 -58.0792668   9.6100000  -6.1710000 -56.1420000
   9.3302263  -7.2130855 -56.2965437  10.3619152  -6.1100539 -55.3552287
   8.4050000  -5.3870000 -55.7400000   7.2830000  -5.3630000 -56.5590000
   7.3023701  -5.9197790 -57.4958679   6.1710000  -4.6590000 -56.2080000
   5.3064385  -4.6344812 -56.8713507   6.1400000  -3.9800000 -55.0130000
   4.9830000  -3.2920000 -54.6920000   4.3027512  -3.3673947 -55.3651841
   7.2410000  -3.9900000 -54.1650000   7.2225279  -3.4492733 -53.2187580
   8.3670000  -4.6960000 -54.5340000   9.2372976  -4.7155746 -53.8780282
  11.2580000  -4.5620000 -57.0230000  12.3230000  -4.8340000 -56.4560000
  10.9350000  -3.3100000 -57.3170000   9.8890000  -2.8870000 -58.2510000
   8.9598579  -3.4187270 -58.0459105  10.1978632  -3.0792750 -59.2784886
   9.7940000  -1.4380000 -57.9510000   9.1429932  -1.2799634 -57.0911665
   9.3910747  -0.9072112 -58.8135635  11.1980000  -1.0010000 -57.6620000
  11.1805500  -0.1863917 -56.9379780  11.7307069  -0.6795905 -58.5569966
  11.8900000  -2.2240000 -57.0530000  12.8197257  -2.4626821 -57.5694681
  12.1690000  -2.0360000 -55.5680000  11.2940000  -2.1810000 -54.7200000
  13.4200000  -1.7530000 -55.2570000  14.1223915  -1.7377839 -55.9826128
  13.8380000  -1.5010000 -53.8880000  13.0993886  -1.8915377 -53.1879767
  15.1890000  -2.1480000 -53.5840000  15.9153011  -1.8472897 -54.3390889
  15.6680000  -1.6970000 -52.2120000  14.9423869  -1.9977816 -51.4562772
  16.6314828  -2.1574911 -51.9934836  15.7737528  -0.6121876 -52.2019970
  15.0330000  -3.6200000 -53.6350000  14.6963270  -3.9160024 -54.6285471
  15.9901619  -4.0950003 -53.4197896  14.2975390  -3.9338267 -52.8942499
  13.9110000  -0.0080000 -53.6620000  14.7030000   0.6960000 -54.2980000
  13.1060000   0.4790000 -52.7340000  12.4790151  -0.1288541 -52.2265528
  13.0790000   1.8980000 -52.4360000  13.6427330   2.4442272 -53.1922672
  11.6440000   2.4170000 -52.4280000  11.0441062   1.7285117 -51.8328441
  11.6416034   3.4002160 -51.9574891  11.0560000   2.5230000 -53.8250000
  11.8520000   2.6910000 -54.7890000   9.8020000   2.4420000 -53.9520000
  13.7080000   2.2000000 -51.1040000  13.5660000   3.3190000 -50.6160000
  14.3210000   1.2290000 -50.4550000  14.5692058   0.3410319 -50.8673176
  14.5980000   1.4340000 -49.0520000  14.3735389   2.4679431 -48.7899349
  13.7780000   0.5160000 -48.1560000  12.7300548   0.8073951 -48.2267112
  13.9280000  -0.9380000 -48.5700000  14.9756870  -1.2302742 -48.4990968
  13.3302986  -1.5675269 -47.9107974  13.5857904  -1.0608927 -49.5975653
  14.2240000   0.6710000 -46.8040000  13.7125595   0.0956716 -46.2303919
  16.0700000   1.2260000 -48.8040000  16.7570000   0.5710000 -49.5810000
  16.5500000   1.8060000 -47.7190000  15.9818166   2.4720254 -47.2153364
  17.9020000   1.5710000 -47.2590000  18.3399208   0.6874689 -47.7234322
  18.8020000   2.7940000 -47.5310000  19.8378438   2.4964571 -47.3679164
  18.6410000   3.3240000 -48.9660000  17.6054403   3.6221945 -49.1296972
  19.2937267   4.1847710 -49.1113337  18.9095808   2.5411391 -49.6752900
  18.5310000   3.8870000 -46.5300000  18.4778353   4.8383936 -47.0592680
  17.5748518   3.6869153 -46.0464235  19.5890000   3.9510000 -45.5140000
  20.5454434   4.1515306 -45.9968078  19.3656600   4.7489963 -44.8058896
  19.6424613   3.0000509 -44.9839647  17.8140000   1.2280000 -45.7810000
  17.1690000   1.9440000 -45.0140000  18.4160000   0.1110000 -45.3880000
  19.0129586  -0.4090922 -46.0150917  18.1780000  -0.4280000 -44.0540000
  17.9382385   0.3887877 -43.3732126  16.9950000  -1.4000000 -44.0880000
  17.2237694  -2.2282535 -44.7586420  16.8117220  -1.7853013 -43.0849784
  16.1063345  -0.8792317 -44.4446136  19.4320000  -1.1180000 -43.5110000
  20.2990000  -1.5710000 -44.2680000  19.5310000  -1.1700000 -42.1840000
  18.7913490  -0.7545979 -41.6358606  20.6500000  -1.7820000 -41.4820000
  21.0337517  -2.6049798 -42.0849412  21.7940000  -0.7920000 -41.2180000
  21.3286340   0.0761856 -40.7513229  22.4475062  -1.2843299 -40.4978327
  22.6220000  -0.3380000 -42.4360000  21.9362498  -0.1096155 -43.2518970
  23.1718906   0.5622037 -42.1614901  23.5970000  -1.4090000 -42.8810000
  24.5580662  -1.1979572 -42.4120526  23.2218025  -2.3680210 -42.5237815
  23.7720000  -1.4640000 -44.3980000  24.4779525  -2.2584224 -44.6401252
  22.8068086  -1.6850099 -44.8536965  24.2780000  -0.1830000 -44.9180000
  25.1725642   0.0217680 -44.4961888  24.3847679  -0.2451894 -45.9204136
  23.6237871   0.5531944 -44.6941197  20.1380000  -2.3150000 -40.1530000
  19.2250000  -1.7440000 -39.5600000  20.7270000  -3.4130000 -39.6850000
  21.4718929  -3.8586494 -40.2013628  20.2840000  -4.0290000 -38.4420000
  19.9926391  -3.2475765 -37.7401558  19.0880000  -4.9600000 -38.6620000
  18.7399567  -5.2919167 -37.6838403  18.3023695  -4.3832814 -39.1501397
  19.4290000  -6.1610000 -39.5080000  19.8037575  -5.8182862 -40.4724713
  20.2023126  -6.7400646 -39.0032487  18.2090000  -7.0280000 -39.7210000
  17.8307548  -7.3246726 -38.7427286  17.4560544  -6.4307389 -40.2352485
  18.4690000  -8.2330000 -40.5080000  18.4636059  -8.1479748 -41.5144000
  18.7260000  -9.4210000 -39.9740000  18.7690000  -9.5540000 -38.6580000
  18.6061690  -8.7514579 -38.0668044  18.9644512 -10.4574304 -38.2509226
  18.9230000 -10.4770000 -40.7470000  18.8776811 -10.3793971 -41.7512509
  19.1177512 -11.3756308 -40.3291084  21.4430000  -4.7990000 -37.8290000
  22.5070000  -4.9600000 -38.4350000  21.2260000  -5.2360000 -36.5960000
  20.5026822  -4.7689297 -36.0680264  21.9620000  -6.3040000 -35.9550000
  22.9681320  -6.3653797 -36.3697650  22.0680000  -6.0390000 -34.4540000
  21.0664426  -5.9631184 -34.0306515  22.6103974  -6.8453899 -33.9604005
  22.7890000  -4.7490000 -34.0990000  24.0210000  -4.4380000 -34.6570000
  24.4764609  -5.1202369 -35.3747799  24.6710000  -3.2680000 -34.3060000
  25.6425849  -3.0479800 -34.7483965  24.1080000  -2.3890000 -33.4130000
  24.6225853  -1.4626368 -33.1577488  22.9140000  -2.6750000 -32.8510000
  22.4775482  -1.9833812 -32.1303937  22.2380000  -3.8510000 -33.1890000
  21.2701801  -4.0718950 -32.7388556  21.2490000  -7.6320000 -36.2110000
  20.0920000  -7.6780000 -36.6370000  21.9630000  -8.7230000 -35.9690000
  22.9710896  -8.6826651 -35.9218006  21.3160000 -10.0160000 -35.8060000
  20.4944727 -10.1072738 -36.5165358  22.3030000 -11.1490000 -36.0550000
  23.1756250 -10.7399105 -36.5641863  22.6047912 -11.5607434 -35.0919374
  21.6990000 -12.2320000 -36.8930000  20.8320150 -12.6220898 -36.3598323
  21.3758966 -11.7852880 -37.8332950  22.6720000 -13.3680000 -37.1790000
  22.1378964 -14.1666548 -37.6937649  23.4703230 -12.9936753 -37.8198282
  23.2640000 -13.9100000 -35.9650000  22.7987117 -13.7211561 -35.0886758
  24.3740000 -14.6400000 -35.9490000  25.0100000 -14.9130000 -37.0850000
  24.6465727 -14.5636325 -37.9601931  25.8533963 -15.4683939 -37.0671133
  24.8490000 -15.0910000 -34.7950000  24.3646124 -14.8772087 -33.9349058
  25.6927492 -15.6459936 -34.7820345  20.7310000 -10.1250000 -34.3980000
  21.3970000  -9.7940000 -33.4070000  19.4720000 -10.5950000 -34.3150000
  18.9825938 -10.9131158 -35.1392471  18.7560000 -10.5960000 -33.0400000
  18.5897296  -9.5702028 -32.7110724  17.4110000 -11.2840000 -33.1810000
  17.0946500 -11.2022176 -34.2208719  17.5362568 -12.3352175 -32.9214761
  16.3520000 -10.6600000 -32.2770000  16.6930000 -10.0330000 -31.0880000
  17.7432866  -9.9868652 -30.8001302  15.7290000  -9.4730000 -30.2740000
  16.0189684  -8.9895869 -29.3410841  14.4010000  -9.5310000 -30.6360000
  13.4500000  -8.9570000 -29.8120000  13.8280440  -8.5531963 -29.0273823
  14.0320000 -10.1480000 -31.8090000  12.9819076 -10.1992945 -32.0967068
  15.0010000 -10.7050000 -32.6250000  14.7146936 -11.1898617 -33.5582941
  19.5610000 -11.2610000 -31.9270000  19.6850000 -10.7070000 -30.8300000
  20.1110000 -12.4520000 -32.1730000  19.9710903 -12.9354230 -33.0486865
  20.8620000 -13.1310000 -31.1190000  20.2609061 -13.1742742 -30.2107530
  21.2190000 -14.5620000 -31.5390000  21.9584123 -14.9267773 -30.8260441
  20.3199439 -15.1749318 -31.4748699  21.7870000 -14.6440000 -32.9420000
  21.5930000 -13.6880000 -33.7180000  22.4130000 -15.6710000 -33.2800000
  22.1100000 -12.3410000 -30.7330000  22.3380000 -12.0740000 -29.5430000
  22.9240000 -11.9480000 -31.7220000  22.7381078 -12.2095664 -32.6796672
  24.1220000 -11.1550000 -31.4390000  24.8680308 -11.7751917 -30.9421102
  24.7190000 -10.6180000 -32.7320000  24.1151069  -9.7842441 -33.0901389
  25.7366464 -10.2750278 -32.5452761  24.7380000 -11.6310000 -33.7010000
  25.1150879 -11.2884428 -34.5146701  23.8080000  -9.9960000 -30.5160000
  24.5030000  -9.7760000 -29.5160000  22.7530000  -9.2340000 -30.8470000
  22.2083779  -9.4628519 -31.6662148  22.3860000  -8.0410000 -30.0800000
  23.2508305  -7.3827734 -29.9969030  21.2690000  -7.2900000 -30.7980000
  20.3928664  -7.9331485 -30.8807650  21.0100108  -6.3951134 -30.2321354
  21.6048790  -7.0043786 -31.7948475  21.9490000  -8.4050000 -28.6680000
  22.2750000  -7.7080000 -27.6990000  21.1820000  -9.4840000 -28.5390000
  20.8022661  -9.9615189 -29.3439082  20.8130000  -9.9640000 -27.2130000
  20.3131147  -9.1719429 -26.6554523  19.8580000 -11.1570000 -27.3320000
  20.0643907 -11.5206671 -28.3386024  20.0097299 -11.9648601 -26.6161508
  18.3970000 -10.6670000 -27.2520000  18.3611913  -9.6420198 -27.6210991
  17.4780000 -11.5160000 -28.0570000  17.5129178 -12.5411060 -27.6881677
  16.4607686 -11.1339531 -27.9710864  17.7860493 -11.4958481 -29.1023707
  17.8220000 -10.4440000 -25.8230000  18.4183434  -9.6937020 -25.3038402
  16.7900268 -10.1006754 -25.8955319  17.8543666 -11.3812262 -25.2674297
  22.0560000 -10.3290000 -26.4270000  22.2470000  -9.8600000 -25.2950000
  22.9440000 -11.1200000 -27.0480000  22.7201901 -11.5008272 -27.9562836
  24.2000000 -11.5310000 -26.4120000  23.9745956 -12.0633121 -25.4879135
  24.9960000 -12.4760000 -27.3460000  25.0353434 -12.0436858 -28.3458278
  26.3730000 -12.6540000 -26.8310000  26.3344828 -13.0867334 -25.8313205
  26.9260133 -13.3198450 -27.4935158  26.8734792 -11.6866215 -26.7885601
  24.3640000 -13.8650000 -27.4340000  23.3495711 -13.7791662 -27.8234467
  24.9563144 -14.4927355 -28.0997413  24.3347968 -14.3149903 -26.4416509
  25.0250000 -10.3100000 -26.0060000  25.5170000 -10.2240000 -24.8770000
  25.1900000  -9.3570000 -26.9250000  24.9040511  -9.5228332 -27.8793751
  25.8220000  -8.0820000 -26.6040000  26.8571334  -8.2403182 -26.3014553
  25.8060000  -7.1750000 -27.8360000  26.3341573  -7.6833313 -28.6426898
  24.7685862  -7.0116871 -28.1278929  26.4300000  -5.9190000 -27.5770000
  26.4014577  -5.3780484 -28.3695632  25.1300000  -7.3920000 -25.4400000
  25.7740000  -6.9920000 -24.4670000  23.8160000  -7.2230000 -25.5340000
  23.2952737  -7.5447700 -26.3373726  23.1000000  -6.5160000 -24.4880000
  23.5404187  -5.5272851 -24.3592625  21.6340000  -6.3500000 -24.8730000
  21.1768463  -7.3317541 -24.9965695  21.1115105  -5.8026293 -24.0884681
  21.5641677  -5.7967821 -25.8095750  23.2090000  -7.2420000 -23.1630000
  23.4300000  -6.6130000 -22.1220000  23.0420000  -8.5650000 -23.1850000
  22.7892731  -9.0441441 -24.0374373  23.1600000  -9.3480000 -21.9610000
  22.3950751  -9.0407442 -21.2478500  22.9760000 -10.8280000 -22.2640000
  23.1108497 -10.9271595 -23.3410711  23.7163199 -11.4392558 -21.7478675
  21.5750000 -11.2960000 -21.8820000  20.8435266 -10.7275868 -22.4564163
  21.4090000 -12.7650000 -22.1720000  22.1398797 -13.3341390 -21.5975485
  20.4034447 -13.0796368 -21.8927814  21.5634016 -12.9455865 -23.2357900
  21.2830000 -10.9890000 -20.4230000  21.3516566  -9.9139692 -20.2565835
  20.2788290 -11.3314325 -20.1730364  22.0087221 -11.5010280 -19.7911348
  24.5000000  -9.0990000 -21.2940000  24.5630000  -8.7780000 -20.1030000
  25.5810000  -9.1920000 -22.0640000  25.5358086  -9.4891356 -23.0282445
  26.8840000  -8.9080000 -21.4920000  27.0581888  -9.5592094 -20.6354466
  27.9800000  -9.1430000 -22.5090000  27.6202761  -9.8535134 -23.2532236
  28.2150814  -8.1961801 -22.9951777  29.2300000  -9.6950000 -21.8450000
  30.1052065  -9.5299351 -22.4733852  29.3881713  -9.2282702 -20.8727618
  28.9900000 -11.4540000 -21.6210000  28.4170000 -11.8020000 -23.2740000
  29.1880269 -11.5237829 -23.9924788  28.2008348 -12.8662379 -23.3676529
  27.5114978 -11.2289305 -23.4733952  26.9840000  -7.4870000 -20.9700000
  27.6180000  -7.2500000 -19.9440000  26.3820000  -6.5300000 -21.6570000
  25.9091413  -6.7248519 -22.5279401  26.4710000  -5.1470000 -21.2150000
  27.5009781  -4.7910659 -21.2385639  25.6390000  -4.2990000 -22.1770000
  26.0652139  -4.3794248 -23.1769864  24.6381508  -4.7307265 -22.1733866
  25.5610000  -2.8480000 -21.7800000  26.6450000  -2.2090000 -21.7220000
  24.4110000  -2.3500000 -21.5620000  26.0340000  -4.9800000 -19.7560000
  26.5590000  -4.1100000 -19.0420000  25.1130000  -5.8210000 -19.2790000
  24.7697283  -6.5652137 -19.8692625  24.5170000  -5.6560000 -17.9550000
  24.8881134  -4.7407971 -17.4937216  22.9910000  -5.5660000 -18.0630000
  22.6006062  -5.6650205 -17.0501393  22.7637989  -4.5702230 -18.4436676
  22.3370000  -6.6230000 -18.9700000  22.7121475  -6.4630325 -19.9808292
  22.6581828  -7.6020664 -18.6145107  20.5220000  -6.5610000 -18.9900000
  20.2880000  -4.7860000 -18.9150000  20.7609142  -4.3198118 -19.7793609
  19.2218864  -4.5590837 -18.9183825  20.7386600  -4.3978651 -18.0015679
  24.9170000  -6.7670000 -16.9930000  24.2630000  -6.9600000 -15.9600000
  25.9770000  -7.5080000 -17.3310000  26.4058111  -7.3930317 -18.2381949
  26.5040000  -8.5420000 -16.4410000  25.7900056  -9.3601733 -16.3466411
  27.8120000  -9.0970000 -17.0210000  27.5382418  -9.6435333 -17.9234727
  28.4178936  -8.2319144 -17.2904805  28.6140000 -10.0120000 -16.0950000
  28.4996663  -9.6340389 -15.0790403  28.1753647 -11.0075090 -16.1632652
  30.1000000 -10.0850000 -16.4470000  30.4300000 -10.3580000 -17.6270000
  30.9380000  -9.8640000 -15.5350000  26.7210000  -8.0090000 -15.0240000
  26.3080000  -8.6490000 -14.0470000  27.3430000  -6.8270000 -14.8890000
  27.7141501  -6.3283041 -15.6850209  27.5680000  -6.2720000 -13.5590000
  28.1729475  -6.9605975 -12.9691091  28.3020000  -4.9360000 -13.6540000
  27.8030423  -4.3371360 -14.4159070  28.2139438  -4.4399753 -12.6874051
  29.7860000  -5.0910000 -14.0160000  29.8495011  -5.5498103 -15.0026922
  30.2131033  -4.0888719 -14.0536993  30.5680000  -5.9430000 -13.0040000
  30.6560000  -5.5200000 -11.8250000  31.0820000  -7.0350000 -13.3750000
  26.2610000  -6.1170000 -12.7920000  26.2230000  -6.3120000 -11.5710000
  25.1710000  -5.7810000 -13.4840000  25.2039108  -5.5130652 -14.4572560
  23.8890000  -5.7160000 -12.7920000  24.0115807  -5.2090393 -11.8348877
  22.8690000  -4.9440000 -13.6260000  22.5646065  -5.5832226 -14.4547571
  22.0051247  -4.7297429 -12.9967835  23.4310000  -3.6480000 -14.1690000
  24.2650000  -3.7400000 -15.1020000  23.0540000  -2.5550000 -13.6720000
  23.3850000  -7.1140000 -12.4590000  22.8410000  -7.3380000 -11.3700000
  23.5800000  -8.0770000 -13.3650000  24.0262478  -7.8828385 -14.2500218
  23.0700000  -9.4270000 -13.1270000  22.0160923  -9.3812854 -12.8526136
  23.2350000 -10.2990000 -14.3830000  24.2818632 -10.2902168 -14.6864809
  22.8050000 -11.7200000 -14.0990000  21.7580383 -11.7296425 -13.7958846
  22.9280108 -12.3239374 -14.9980154  23.4184299 -12.1325786 -13.2980120
  22.4130000  -9.7500000 -15.5360000  21.3641555  -9.7729290 -15.2401955
  22.7199939  -8.7177699 -15.7043905  22.5920000 -10.5330000 -16.7930000
  22.2847526 -11.5653010 -16.6255081  21.9816406 -10.0965153 -17.5835958
  23.6405921 -10.5101438 -17.0897020  23.7660000 -10.0490000 -11.9180000
  23.1220000 -10.6460000 -11.0460000  25.0960000  -9.9070000 -11.8420000
  25.6017813  -9.4501286 -12.5873544  25.8570000 -10.4360000 -10.7100000
  25.6564975 -11.5008822 -10.5920011  27.3490000 -10.2450000 -10.9450000
  27.3496590  -9.1681964 -11.1140942  27.9089664 -10.4700673 -10.0373204
  28.0010000 -10.9450000 -12.1300000  27.5397845 -10.5896595 -13.0514740
  29.5370000 -10.6400000 -12.1640000  29.9990174 -10.9954945 -11.2429884
  29.9898181 -11.1468251 -13.0161649  29.6925597  -9.5651335 -12.2565396
  27.6440000 -12.4440000 -12.1470000  26.5628514 -12.5596985 -12.2233611
  28.1213606 -12.9220358 -13.0024004  27.9949135 -12.9120528 -11.2272798
  25.4620000  -9.7630000  -9.4030000  25.2000000 -10.4400000  -8.4020000
  25.4600000  -8.4240000  -9.3770000  25.7411979  -7.8764737 -10.1777759
  25.0810000  -7.7210000  -8.1580000  25.7072405  -8.0671819  -7.3357591
  25.2520000  -6.2130000  -8.2990000  26.1793197  -6.0197574  -8.8382910
  24.4109738  -5.8223753  -8.8718764  25.3030000  -5.5240000  -6.9350000
  24.7037439  -6.1192569  -6.2460427  26.3429219  -5.5285812  -6.6084413
  24.7830000  -4.0920000  -6.9530000  24.6350000  -3.5300000  -8.0600000
  24.5190000  -3.5240000  -5.8620000  23.6470000  -7.9980000  -7.7600000
  23.3170000  -7.8950000  -6.5750000  22.7860000  -8.3140000  -8.7260000
  23.0644104  -8.3639424  -9.6955838  21.4070000  -8.5970000  -8.3930000
  21.0173924  -7.7822039  -7.7827440  20.8293379  -8.6683388  -9.3145838
  21.2730000  -9.8910000  -7.6280000  20.5440000  -9.9560000  -6.6350000
  21.9880000 -10.9340000  -8.0730000  22.5035134 -10.8721623  -8.9393263
  22.0130000 -12.1960000  -7.3420000  21.0040696 -12.6012093  -7.2647720
  22.8890000 -13.2070000  -8.0690000  23.9157946 -12.8460191  -8.0099674
  22.8051845 -14.1519192  -7.5321548  22.5160000 -13.4130000  -9.4990000
  21.6653252 -14.0938682  -9.5285247  22.2224231 -12.4475125  -9.9110055
  23.8570000 -14.0970000 -10.4900000  23.4160000 -15.8190000 -10.5740000
  22.4399576 -15.9219197 -11.0481812  24.1619360 -16.3575308 -11.1585210
  23.3756043 -16.2337966  -9.5668192  22.5290000 -11.9930000  -5.9310000
  21.9720000 -12.5400000  -4.9720000  23.5970000 -11.2070000  -5.7900000
  24.0959566 -10.8559626  -6.5949313  24.1040000 -10.8780000  -4.4670000
  24.4267843 -11.7849957  -3.9558560  25.2960000  -9.9320000  -4.5810000
  25.0596431  -9.2104895  -5.3630852  25.3879012  -9.4147698  -3.6259465
  26.6030000 -10.6210000  -4.9090000  26.6999563 -11.5019011  -4.2744028
  26.5809144 -10.9278115  -5.9546964  27.7840000  -9.7000000  -4.6780000
  27.7744207  -9.3875940  -3.6337732  28.6976621 -10.2585897  -4.8812207
  27.7660000  -8.5060000  -5.5250000  27.3352473  -7.6688388  -5.1593327
  28.2880000  -8.4690000  -6.7480000  28.8480000  -9.5630000  -7.2580000
  28.8734638 -10.4138724  -6.7144306  29.2450322  -9.5375004  -8.1863398
  28.2530000  -7.3470000  -7.4640000  27.8270864  -6.5172762  -7.0763712
  28.6525222  -7.3307578  -8.3914788  23.0170000 -10.2550000  -3.6090000
  22.8260000 -10.6370000  -2.4500000  22.2750000  -9.3020000  -4.1750000
  22.4345113  -9.0137776  -5.1297687  21.2710000  -8.5890000  -3.3970000
  21.7105614  -8.1944180  -2.4809268  20.7280000  -7.4220000  -4.2200000
  21.5028836  -7.0811770  -4.9066545  19.8626219  -7.7615236  -4.7891612
  20.3450000  -6.3520000  -3.3710000  20.0064520  -5.6275179  -3.9021410
  20.1460000  -9.5080000  -2.9270000  19.4450000  -9.1730000  -1.9670000
  19.9860000 -10.6710000  -3.5530000  20.5320774 -10.8519967  -4.3831440
  19.0110000 -11.6690000  -3.1370000  18.2367724 -11.2048521  -2.5260683
  18.3530000 -12.2960000  -4.3660000  19.1520325 -12.6475135  -5.0187515
  17.7651913 -13.1468274  -4.0215094  17.4490000 -11.3310000  -5.1400000
  18.0344151 -10.4360418  -5.3508077  17.1466333 -11.7961072  -6.0782706
  16.1930000 -10.9230000  -4.3700000  15.1760000 -11.6310000  -4.3900000
  16.2540000  -9.7630000  -3.7080000  15.4536883  -9.4427686  -3.1816403
  17.1001140  -9.2122420  -3.7372927  19.6210000 -12.7560000  -2.2550000
  18.9310000 -13.7320000  -1.9230000  20.8980000 -12.6050000  -1.8710000
  21.3520213 -11.8059030  -2.2898175  21.7010000 -13.4910000  -0.9990000
  22.6265584 -12.9748036  -0.7440840  20.9820000 -13.8800000   0.3010000
  20.1775528 -14.5704667   0.0475842  21.7066719 -14.3857421   0.9391031
  20.4030000 -12.6730000   1.0440000  21.1500000 -11.7040000   1.3070000
  19.1920000 -12.6980000   1.3590000  22.1590000 -14.7690000  -1.6910000
  22.6110000 -15.6820000  -0.9940000  22.0820000 -14.8560000  -3.0190000
  21.6199720 -14.1125708  -3.5229271  22.5740000 -16.0020000  -3.7750000
  22.5627175 -16.8911168  -3.1445691  21.6930000 -16.2590000  -4.9980000
  21.4999139 -15.2583560  -5.3846893  22.3236668 -16.8039582  -5.7004101
  20.3720000 -16.9990000  -4.8220000  20.5937524 -17.9827793  -4.4083516
  19.4020000 -16.2670000  -3.9000000  19.1793966 -15.2832481  -4.3132539
  18.4795461 -16.8410771  -3.8127357  19.8529368 -16.1528628  -2.9142368
  19.7580000 -17.1630000  -6.1840000  20.4322902 -17.7359826  -6.8204929
  18.8083660 -17.6904264  -6.0939006  19.5874210 -16.1816975  -6.6267723
  24.0390000 -15.7990000  -4.2010000  24.6540000 -14.7550000  -3.9680000
  24.6000000 -16.8240000  -4.8340000  24.0354745 -17.6180779  -5.1001776
  26.0260000 -16.8560000  -5.1390000  26.5623781 -16.1767748  -4.4763908
  26.5790000 -18.2680000  -4.9430000  25.9599081 -18.9393623  -5.5380605
  27.6024072 -18.2907748  -5.3174583  26.5610000 -18.7190000  -3.4830000
  27.6430000 -18.7080000  -2.8480000  25.4720000 -19.0960000  -2.9830000
  26.2800000 -16.4070000  -6.5730000  25.5320000 -16.7650000  -7.4830000
  27.3770000 -15.6550000  -6.7730000  28.0019431 -15.4697732  -6.0014843
  27.6970000 -15.0740000  -8.0830000  26.8983084 -14.3976848  -8.3876123
  29.0050000 -14.2900000  -8.0270000  29.7524134 -14.9216419  -7.5468949
  29.3121773 -14.0789985  -9.0513146  28.8770000 -13.0000000  -7.2670000
  27.7430000 -12.6560000  -6.9010000  29.9130000 -12.3330000  -7.0380000
  27.8390000 -16.1240000  -9.1730000  27.5680000 -15.8440000 -10.3460000
  28.3170000 -17.3150000  -8.8190000  28.4343926 -17.5245156  -7.8379691
  28.7470000 -18.3090000  -9.7940000  29.1076901 -17.8197860 -10.6988047
  29.8930000 -19.1510000  -9.1990000  30.0244561 -20.0214194  -9.8417975
  30.7951521 -18.5398945  -9.2267802  29.6350000 -19.6100000  -7.7700000
  28.6250000 -20.5370000  -7.4880000  28.0298408 -20.9256933  -8.3143187
  28.3720000 -20.9650000  -6.1840000  27.5801453 -21.6876920  -5.9870630
  29.1340000 -20.4700000  -5.1380000  28.8840000 -20.8920000  -3.8490000
  28.1644713 -21.5251731  -3.7945021  30.1460000 -19.5480000  -5.3860000
  30.7449632 -19.1568711  -4.5635879  30.3950000 -19.1210000  -6.7020000
  31.1883278 -18.4002785  -6.9002212  27.6140000 -19.2130000 -10.2590000
  27.8390000 -20.0620000 -11.1360000  26.4100000 -19.0450000  -9.7050000
  26.2852738 -18.4076591  -8.9314761  25.2580000 -19.8230000 -10.1540000
  25.4116351 -20.8797087  -9.9352256  23.9990000 -19.3530000  -9.4300000
  24.2391923 -18.3770691  -9.0081401  23.1676234 -19.2520356 -10.1276527
  23.6120000 -20.2980000  -8.3210000  24.5137337 -20.6378858  -7.8116329
  22.7010000 -19.5980000  -7.3250000  21.7987801 -19.2582151  -7.8335709
  22.4295934 -20.2923324  -6.5298008  23.2206319 -18.7409305  -6.8966135
  22.9480000 -21.5110000  -8.9660000  23.6502214 -21.9904596  -9.6479846
  22.6533826 -22.2192163  -8.1915766  22.0653966 -21.1910569  -9.5198471
  25.0960000 -19.7130000 -11.6700000  25.4720000 -18.7090000 -12.2870000
  24.5830000 -20.7830000 -12.2870000  24.3880816 -21.6386585 -11.7870453
  24.3790000 -20.7640000 -13.7280000  24.3542007 -19.7318709 -14.0775621
  25.5200000 -21.5090000 -14.4650000  25.3936050 -21.3891229 -15.5409893
  26.4512629 -21.0355099 -14.1541035  25.6020000 -23.0250000 -14.1410000
  24.6050000 -23.6910000 -13.8200000  26.8130000 -23.5750000 -14.2670000
  26.9406517 -24.5578035 -14.0723154  27.5953101 -23.0054738 -14.5563641
  23.0380000 -21.3330000 -14.1590000  22.7350000 -21.2810000 -15.3560000
  22.2390000 -21.8840000 -13.2320000  22.5279024 -21.8685990 -12.2643236
  20.9740000 -22.5030000 -13.5600000  21.1486813 -23.3948992 -14.1617487
  20.4540590 -22.7801408 -12.6429647  20.1090000 -21.5410000 -14.3450000
  20.1040000 -20.3340000 -14.0790000  19.3490000 -22.0610000 -15.3220000
  19.0140000 -23.4790000 -15.5210000  18.9159747 -23.9749822 -14.5553433
  19.7975614 -23.9662653 -16.1012613  17.7190000 -23.4050000 -16.2620000
  16.8988288 -23.4287849 -15.5444677  17.6429034 -24.2640354 -16.9286099
  17.7290000 -22.1180000 -17.0430000  16.7544778 -21.6298364 -17.0329098
  18.0172631 -22.3313822 -18.0723066  18.7800000 -21.2040000 -16.3810000
  19.5951677 -20.9950659 -17.0737817  18.1580000 -19.8850000 -15.9130000
  17.1940000 -19.8720000 -15.1220000  18.7560000 -18.7740000 -16.3860000
  19.6512845 -18.8534365 -16.8467113  18.1550000 -17.4490000 -16.2650000
  17.6965855 -17.3539122 -15.2806659  19.1860000 -16.3400000 -16.4310000
  19.6222423 -16.3212340 -17.4297191  18.6661855 -15.4002755 -16.2444236
  20.3210000 -16.3960000 -15.4720000  21.3610000 -17.2850000 -15.6730000
  21.3234015 -17.9616163 -16.5267428  22.4450000 -17.3230000 -14.8030000
  23.2462115 -18.0451055 -14.9602401  22.5060000 -16.4440000 -13.7380000
  23.3595396 -16.4616913 -13.0603149  21.4760000 -15.5370000 -13.5330000
  21.5135567 -14.8481095 -12.6891282  20.3940000 -15.5080000 -14.4070000
  19.5931992 -14.7834719 -14.2590909  17.0900000 -17.2440000 -17.3340000
  17.2800000 -17.6100000 -18.4960000  15.9880000 -16.6090000 -16.9620000
  15.8133916 -16.4126155 -15.9867850  14.9580000 -16.2670000 -17.9290000
  15.2058421 -16.7113236 -18.8929761  13.5980000 -16.8090000 -17.4750000
  13.4033375 -16.4717859 -16.4569168  12.5090000 -16.3170000 -18.3810000
  12.7027418 -16.6542346 -19.3992517  11.5500291 -16.7110672 -18.0445702
  12.4815571 -15.2275745 -18.3586489  13.6310000 -18.2470000 -17.5270000
  12.7829580 -18.5969621 -17.2442427  14.9550000 -14.7520000 -18.1370000
  14.9280000 -13.9800000 -17.1700000  15.0620000 -14.3270000 -19.3940000
  15.1397952 -15.0024978 -20.1408266  15.1110000 -12.9080000 -19.7360000
  15.1455776 -12.2765489 -18.8482089  16.3170000 -12.5780000 -20.6180000
  16.3187144 -13.2384637 -21.4851124  16.2420000 -11.1220000 -21.0860000
  16.2407109 -10.4608703 -20.2193935  17.1045503 -10.8964924 -21.7130995
  15.3272707 -10.9706955 -21.6591308  17.6220000 -12.8560000 -19.8730000
  17.6656578 -13.9093631 -19.5961928  18.4673548 -12.6148824 -20.5174666
  17.6651241 -12.2423261 -18.9731970  13.8200000 -12.5420000 -20.4480000
  13.4630000 -13.1610000 -21.4610000  13.1200000 -11.5440000 -19.9270000
  13.4246459 -11.1003690 -19.0723178  11.8720000 -11.0960000 -20.5310000
  11.5052516 -11.8411210 -21.2369671  10.7870000 -10.8410000 -19.4810000
  10.9644664  -9.8916108 -18.9757624   9.4550000 -10.7900000 -20.1960000
   9.2766087 -11.7392745 -20.7011292   8.6602502 -10.6091498 -19.4722829
   9.4669372  -9.9847722 -20.9305525  10.7860000 -11.9070000 -18.4390000
  11.7548024 -11.9289047 -17.9399569  10.0054330 -11.6995746 -17.7070236
  10.5970352 -12.8731032 -18.9070146  12.1450000  -9.8340000 -21.3390000
  12.6370000  -8.8310000 -20.8010000  11.7790000  -9.8590000 -22.6160000
  11.2268323 -10.6305875 -22.9622121  12.1850000  -8.8260000 -23.5550000
  12.8144114  -8.0889803 -23.0562592  12.9730000  -9.4400000 -24.7070000
  12.4565162 -10.3361673 -25.0508428  13.0950000  -8.4550000 -25.8550000
  13.6118272  -7.5586991 -25.5120200  13.6604412  -8.9113717 -26.6674663
  12.1004812  -8.1864396 -26.2112433  14.3080000  -9.7900000 -24.1870000
  14.2045644 -10.5046930 -23.3705338  14.9041762 -10.2337973 -24.9843190
  14.8033192  -8.8905505 -23.8212811  10.9480000  -8.0930000 -24.0780000
  10.0790000  -8.7020000 -24.7210000  10.8860000  -6.7710000 -23.8530000
  11.5572866  -6.3146572 -23.2519801   9.8370000  -5.9580000 -24.4620000
   8.9139640  -6.5371262 -24.4887678   9.5790000  -4.6610000 -23.6880000
   9.3297157  -4.9195282 -22.6588646  10.4921877  -4.0660184 -23.7016084
   8.4230000  -3.8440000 -24.3080000   8.3683116  -4.1301645 -25.3583428
   7.5120171  -4.1580361 -23.7984968   8.5700000  -2.3160000 -24.2000000
   9.5777673  -2.0424904 -24.5125644   7.8443799  -1.8506710 -24.8671160
   8.3360000  -1.8410000 -22.7990000   7.3855623  -2.2431341 -22.4482054
   9.1423467  -2.2109186 -22.1657036   8.2990000  -0.3670000 -22.7370000
   7.5516126  -0.0240431 -23.3234233   8.1403063  -0.0740374 -21.7835383
   9.1797597   0.0058139 -23.0616094  10.2480000  -5.6060000 -25.8790000
  11.3050000  -4.9950000 -26.0830000   9.4260000  -5.9630000 -26.8540000
   8.6104740  -6.5283867 -26.6659716   9.7080000  -5.5960000 -28.2340000
  10.7569787  -5.3139102 -28.3243785   9.4320000  -6.7460000 -29.1830000
   8.3623701  -6.9550474 -29.1659604   9.7258752  -6.4397399 -30.1869632
  10.1810000  -7.9690000 -28.8000000  11.2335001  -7.7099751 -28.6848894
   9.7843408  -8.3091157 -27.8434008  10.0440000  -9.0660000 -29.8170000
   8.9230000  -9.5980000 -29.9730000  11.0550000  -9.3940000 -30.4770000
   8.8700000  -4.3780000 -28.6050000   7.6540000  -4.3830000 -28.4100000
   9.5160000  -3.3460000 -29.1390000  10.5256007  -3.3695876 -29.1547890
   8.8460000  -2.1700000 -29.6680000   7.7698242  -2.2796189 -29.5341023
   9.2970000  -0.9010000 -28.9610000  10.3832094  -0.9327756 -28.8759196
   9.0061827  -0.0516112 -29.5791133   8.7240000  -0.7630000 -27.6660000
   9.0377129   0.0494888 -27.2622105   9.1110000  -2.0330000 -31.1590000
  10.1320000  -2.4980000 -31.6710000   8.1760000  -1.4180000 -31.8640000
   7.2823135  -1.1765071 -31.4601375   8.4080000  -1.1010000 -33.2630000
   9.4205612  -0.7099456 -33.3624756   8.2560000  -2.3050000 -34.1920000
   9.1403601  -2.9420231 -34.1775814   7.3765989  -2.8994317 -33.9442004
   8.0420000  -1.7860000 -35.9040000   7.9454377  -3.0122027 -36.4099653
   7.4100000  -0.0250000 -33.6390000   6.2910000  -0.0470000 -33.1490000
   7.8020000   0.9010000 -34.5100000   8.6899690   0.8017959 -34.9809236
   7.0090000   2.1040000 -34.7700000   5.9905800   1.8052487 -35.0183296
   6.9610000   3.0670000 -33.5440000   6.2985486   2.6329749 -32.7950811
   7.9657726   3.1569528 -33.1311555   6.4110000   4.5470000 -33.9650000
   5.3550000   4.5870000 -34.5910000   7.0550000   5.6670000 -33.6640000
   7.5730000   2.8330000 -35.9840000   8.7400000   2.6730000 -36.3150000
   6.7310000   3.5940000 -36.6650000   5.7717528   3.6719209 -36.3586138
   7.1370000   4.3290000 -37.8480000   8.1270592   3.9827925 -38.1446854
   6.4246055   4.1173387 -38.6453662   7.1870000   5.8250000 -37.6160000
   6.5390000   6.3550000 -36.7190000   7.9560000   6.5080000 -38.4270000
   8.5255395   6.0523531 -39.1256487   8.0090000   7.9560000 -38.3330000
   7.1817839   8.2964752 -37.7101923   9.3170000   8.4590000 -37.7250000
  10.0614822   8.4614589 -38.5211403   9.1427648   9.4808620 -37.3880427
   9.8150000   7.6340000 -36.5790000   9.2707828   7.9003041 -35.6729036
   9.6628412   6.5767326 -36.7961067  11.5570000   7.9370000 -36.3280000
  11.5050000   9.6650000 -35.8900000  10.8978920   9.7951709 -34.9941348
  12.5166943  10.0222290 -35.6977432  11.0685853  10.2352408 -36.7100421
   7.8720000   8.5220000 -39.7260000   8.3990000   7.9410000 -40.6730000
   7.1880000   9.6570000 -39.8590000   6.6430822  10.0211249 -39.0905099
   7.2040000  10.3970000 -41.0970000   7.6602587   9.8002075 -41.8867885
   6.1888327  10.6676907 -41.3872778   8.0180000  11.6660000 -40.9030000
   8.6570000  11.8720000 -39.8740000   7.9810000  12.5390000 -41.9130000
   7.4559190  12.3542068 -42.7557578   8.7600000  13.7720000 -41.8390000
   8.7531807  14.2737029 -42.8066502   8.1630000  14.7140000 -40.7970000
   7.6194420  14.1192314 -40.0629058   8.9925355  15.2245659 -40.3078237
   7.2390000  15.7280000 -41.4010000   7.5800000  16.2830000 -42.4840000
   6.1540000  15.9700000 -40.8060000  10.2260000  13.4760000 -41.5110000
  10.7920000  14.0670000 -40.5950000  10.8230000  12.5390000 -42.2490000
  10.2323844  12.0069922 -42.8720893  12.2490000  12.2040000 -42.1880000
  12.8315596  12.7630725 -41.4557696  12.4360000  10.7090000 -41.9230000
  11.6859606  10.1677635 -42.4997175  13.8350000  10.2170000 -42.3150000
  14.5856075  10.7574907 -41.7383206  13.9168979   9.1500885 -42.1074115
  13.9980331  10.3933122 -43.3782196  12.0690000  10.3920000 -40.4890000
  11.0277989  10.6614563 -40.3118120  12.2040935   9.3260011 -40.3059816
  12.7104717  10.9599650 -39.8151821  12.8920000  12.6190000 -43.5110000
  12.8580000  11.8590000 -44.4830000  13.4730000  13.8110000 -43.5990000
  13.6648113  14.4140486 -42.8118277  13.7630000  14.3100000 -44.9400000
  12.8638177  14.2449903 -45.5526534  14.2250000  15.7680000 -44.9030000
  14.2481600  16.1486078 -45.9241271  13.5070894  16.3426690 -44.3177992
  15.5190000  15.8920000 -44.3210000  15.7789187  16.8161070 -44.3127279
  14.7930000  13.4360000 -45.6560000  15.7170000  12.8790000 -45.0470000
  14.5980000  13.2940000 -46.9610000  13.7868047  13.7049249 -47.4005477
  15.5210000  12.5340000 -47.7900000  15.8375834  11.6288203 -47.2718071
  14.8290000  12.1360000 -49.0850000  14.0198371  11.4564504 -48.8174800
  14.4111266  13.0461912 -49.5151555  15.7100000  11.4860000 -50.0720000
  16.4977128  12.1910180 -50.3376294  16.1501466  10.6187052 -49.5798924
  14.9830000  11.0390000 -51.3330000  13.8620000  11.5650000 -51.6740000
  15.5870000  10.1420000 -51.9880000  16.7600000  13.3570000 -48.1030000
  16.6660000  14.5390000 -48.4100000  17.9280000  12.7380000 -48.0390000
  18.0061453  11.7799209 -47.7290369  19.1430000  13.4430000 -48.4110000
  19.0998674  14.4636536 -48.0308619  20.3830000  12.7580000 -47.8330000
  20.3856882  11.7489615 -48.2452298  21.2378581  13.3111406 -48.2220414
  20.4750000  12.6850000 -46.2960000  20.6061409  13.6982173 -45.9161401
  19.5377541  12.2749560 -45.9197872  21.6550000  11.7980000 -45.8200000
  21.5977456  10.8498500 -46.3546331  22.5827890  12.3066912 -46.0818021
  21.6250000  11.5340000 -44.3020000  20.9305898  10.7202311 -44.0930137
  22.6236257  11.2539174 -43.9667396  21.1850000  12.7590000 -43.5800000
  20.2594958  13.0184534 -43.8902024  21.1683951  12.5766661 -42.5867334
  21.8285616  13.5130626 -43.7731764  19.2990000  13.5030000 -49.9250000
  18.7620000  12.6820000 -50.6710000  20.0910000  14.4660000 -50.3750000
  20.4049641  15.2206678 -49.7817021  20.5220000  14.4550000 -51.7590000
  19.6542786  14.3204970 -52.4048078  21.2170000  15.7600000 -52.1410000
  21.9713139  16.0522223 -51.4104414  21.6926929  15.5961272 -53.1079343
  20.3070000  16.9300000 -52.3060000  19.5820000  17.1580000 -53.4580000
  18.8930000  18.2800000 -53.3300000  18.2455620  18.6310976 -54.1335257
  19.1560000  18.7940000 -52.1410000  18.7717765  19.6492544 -51.7654841
  20.0460000  17.9730000 -51.4850000  20.3961133  18.2359453 -50.4868108
  21.4960000  13.3070000 -52.0030000  22.1620000  12.8050000 -51.0930000
  21.6030000  12.9050000 -53.2580000  21.0061866  13.2085777 -54.0141440
  22.6550000  11.9630000 -53.5530000  23.4694599  12.5372223 -53.9946140
  22.9782580  11.5509926 -52.5970432  22.2960000  10.8310000 -54.4780000
  21.1330000  10.6790000 -54.8900000  23.3360000  10.0410000 -54.7910000
  24.2420894  10.2830591 -54.4161551  23.2340000   8.8660000 -55.6480000
  22.6286346   9.1067766 -56.5218756  24.6120000   8.4020000 -56.1210000
  24.4755851   7.6729847 -56.9197659  25.1536732   9.2656821 -56.5066726
  25.3550000   7.8110000 -55.0620000  26.2126012   7.5310075 -55.3902138
  22.5710000   7.7260000 -54.9030000  23.0270000   7.3180000 -53.8270000
  21.5080000   7.2010000 -55.4810000  21.1118191   7.6014567 -56.3193164
  20.8870000   6.0400000 -54.9260000  21.3755617   5.1596228 -55.3435436
  21.0336149   6.0583743 -53.8460621  19.4120000   5.9670000 -55.2190000
  18.8710000   6.5770000 -56.1590000  18.7270000   5.1780000 -54.3940000
  19.2340000   4.5480000 -53.1480000  19.1337148   5.2503880 -52.3205375
  20.2842471   4.2860340 -53.2762731  18.3600000   3.3420000 -52.9880000
  18.1385534   3.1953762 -51.9308520  18.8807258   2.4659036 -53.3745244
  17.0390000   3.6310000 -53.8230000  16.2515812   3.8256746 -53.0948705
  16.7331939   2.8159197 -54.4789165  17.3100000   4.9000000 -54.6530000
  17.1650015   4.7421285 -55.7217143  16.4560000   6.0710000 -54.1940000
  16.6930000   6.6530000 -53.1320000  15.4800000   6.4440000 -55.0170000
  15.4343107   6.1607116 -55.9853798  14.4550000   7.3350000 -54.5130000
  14.8855235   8.2842826 -54.1942349  13.4060000   7.6110000 -55.5830000
  12.9593341   6.6705755 -55.9057869  12.6309907   8.2592707 -55.1740916
  13.8761608   8.1008819 -56.4356804  13.8260000   6.6930000 -53.2840000
  13.4660000   5.5210000 -53.3120000  13.7300000   7.4440000 -52.1950000
  13.8560395   8.4444089 -52.2532705  13.5170000   6.8510000 -50.8840000
  13.1876397   5.8151213 -50.9650949  14.8120000   6.8890000 -50.0800000
  15.4163188   7.7188453 -50.4464079  14.5590000   7.0650000 -48.6210000
  13.9550831   6.2352342 -48.2537480  15.5089816   7.0865465 -48.0869858
  14.0277374   8.0020521 -48.4542818  15.5550000   5.6320000 -50.3110000
  15.7829210   5.5338550 -51.3723772  16.4836241   5.6481378 -49.7404770
  14.9470599   4.7858766 -49.9907112  12.3860000   7.5810000 -50.1780000
  12.2860000   8.8070000 -50.2710000  11.4900000   6.8990000 -49.4950000
  11.3790000   5.4440000 -49.2950000  12.3495683   5.0259254 -49.0279587
  11.0159582   4.9659715 -50.2048288  10.3900000   5.3630000 -48.1740000
  10.9101533   5.4336412 -47.2187255   9.8526218   4.4160635 -48.2253550
   9.4680000   6.5060000 -48.3740000   9.0402159   6.7699182 -47.4068149
   8.6657301   6.3506309 -49.0953342  10.3940000   7.6250000 -48.8560000
   9.9200584   8.2742617 -49.5921637  10.9160000   8.4630000 -47.7060000
  11.8700000   8.0950000 -47.0350000  10.2720000   9.5920000 -47.4610000
   9.5372628   9.9411530 -48.0596257  10.7130000  10.4260000 -46.3500000
  11.7874792  10.3157424 -46.2035864  10.4100000  11.8870000 -46.6440000
   9.3423645  11.9827282 -46.8417114  10.6701436  12.4750017 -45.7638413
  11.2000000  12.3990000 -47.8510000  12.2363663  12.0827958 -47.7324225
  10.7670583  11.9045900 -48.7206088  11.1490000  13.9230000 -48.0500000
  12.2390000  14.5820000 -48.1220000  10.0110000  14.4500000 -48.1600000
  10.1120000   9.9770000 -45.0160000   9.7400000  10.7970000 -44.1770000
  10.0710000   8.6560000 -44.7950000  10.3347409   8.0378712 -45.5489608
   9.6140000   8.0620000 -43.5390000   9.5503577   8.8309210 -42.7690589
   8.2250000   7.4280000 -43.7160000   8.3385669   6.6080110 -44.4250979
   7.9319530   7.0296863 -42.7446248   7.1500000   8.3880000 -44.2170000
   6.8880606   9.0818054 -43.4181742   7.5364976   8.9459255 -45.0699014
   5.9150000   7.6120000 -44.6380000   6.1791922   7.0276990 -45.5194158
   5.6559448   6.9388753 -43.8207528   4.7290000   8.4980000 -44.9570000
   5.0018068   9.2325005 -45.7147507   3.8963288   7.8950893 -45.3192934
   4.3280000   9.1970000 -43.7140000   5.0992920   9.7560657 -43.3783602
   3.5365594   9.7949039 -43.9043490   4.0747622   8.5165834 -43.0118583
  10.6200000   7.0150000 -43.0400000  11.5640000   6.6410000 -43.7530000
  10.4120000   6.5330000 -41.8010000   9.6344790   6.8690334 -41.2508710
  11.3180000   5.5540000 -41.1970000  11.8320267   5.0041847 -41.9854027
  12.3640000   6.2400000 -40.3180000  11.8648850   6.7873030 -39.5183478
  13.0251911   5.4889156 -39.8857977  12.9487388   6.9335672 -40.9222717
  10.5270000   4.5480000 -40.3750000   9.4030000   4.8270000 -39.9600000
  11.1060000   3.3640000 -40.1610000  11.9446996   3.1325740 -40.6739564
  10.5810000   2.3840000 -39.2140000   9.8450192   2.8198162 -38.5383554
   9.9570000   1.1580000 -39.8940000  10.7518502   0.5749783 -40.3591860
   9.2200000   0.2970000 -38.8950000   8.4246421   0.8792407 -38.4297016
   8.7883688  -0.5640496 -39.4052828   9.9145053  -0.0462658 -38.1282323
   9.0840000   1.5700000 -41.0090000   9.6693414   2.1214031 -41.7448207
   8.6512700   0.6863165 -41.4779860   8.2852602   2.2072156 -40.6294320
  11.7410000   1.9200000 -38.3480000  12.8490000   1.7060000 -38.8460000
  11.5000000   1.7650000 -37.0470000  10.5943580   1.9863785 -36.6585371
  12.5490000   1.3040000 -36.1400000  13.3910686   0.9311054 -36.7230689
  13.0420000   2.4300000 -35.2370000  12.2477259   2.6416495 -34.5211562
  13.9189258   2.0587170 -34.7066698  13.3930000   3.6670000 -35.9620000
  14.1817752   3.4260835 -36.6746667  12.5072094   4.0029945 -36.5010591
  13.8700000   4.7720000 -35.0330000  14.9545914   4.6763775 -34.9818454
  13.6112414   5.7108651 -35.5225669  13.3360000   4.7910000 -33.6700000
  12.4124948   5.1753167 -33.5302210  13.9960000   4.3260000 -32.6140000
  15.1930000   3.7810000 -32.7710000  15.6000399   3.7207835 -33.6933841
  15.6931631   3.4281604 -31.9676067  13.4720000   4.4080000 -31.4060000
  12.5617267   4.8274166 -31.2811309  13.9835497   4.0509812 -30.6116744
  12.0030000   0.1630000 -35.2990000  10.9700000   0.3210000 -34.6390000
  12.7170000  -0.9600000 -35.2890000  13.4901075  -1.0547186 -35.9319872
  12.3980000  -2.0830000 -34.4260000  11.3870157  -1.9709233 -34.0342748
  12.4780000  -3.3940000 -35.2000000  11.9762310  -3.2901504 -36.1620511
  13.5187289  -3.6745904 -35.3620257  11.8370000  -4.5300000 -34.5100000
  12.4840000  -5.1600000 -33.4560000  13.4704744  -4.8108191 -33.1509739
  11.8810000  -6.2370000 -32.7840000  12.4016065  -6.7156703 -31.9545760
  10.6190000  -6.6950000 -33.1750000  10.1445690  -7.5292895 -32.6583026
   9.9680000  -6.0730000 -34.2370000   8.9851413  -6.4228521 -34.5527411
  10.5810000  -4.9880000 -34.9060000  10.0712870  -4.5028045 -35.7383929
  13.3720000  -2.0480000 -33.2590000  14.5300000  -1.6680000 -33.4280000
  12.8960000  -2.3990000 -32.0710000  11.9886994  -2.8376697 -32.0041126
  13.6370000  -2.1540000 -30.8410000  14.7024011  -2.2379065 -31.0554283
  13.3640000  -0.7630000 -30.2420000  12.3229960  -0.5235775 -30.4589947
  13.4990604  -0.8504439 -29.1639405  14.1970000   0.2650000 -30.7390000
  13.9649893   1.0962362 -30.3185036  13.2640000  -3.2010000 -29.8080000
  12.2140000  -3.8450000 -29.9010000  14.1460000  -3.3790000 -28.8190000
  15.0538899  -2.9375249 -28.8495778  13.8390000  -4.2520000 -27.6910000
  12.7568994  -4.2707628 -27.5613640  14.3360000  -5.6910000 -27.8690000
  13.9680413  -6.3492300 -27.0819556  13.9819035  -6.0484168 -28.8359379
  15.8340000  -5.8300000 -27.8810000  16.5590000  -5.8870000 -26.7000000
  16.0359887  -5.8148174 -25.7464022  17.9240000  -6.0330000 -26.7250000
  18.4894847  -6.0544620 -25.7934061  18.5760000  -6.1520000 -27.9260000
  19.6591161  -6.2731463 -27.9428234  17.8690000  -6.1190000 -29.1060000
  18.3904446  -6.2207773 -30.0577547  16.5080000  -5.9580000 -29.0840000
  15.9473527  -5.9298759 -30.0183359  14.4430000  -3.6800000 -26.4330000
  15.4170000  -2.9310000 -26.4750000  13.8310000  -4.0520000 -25.3230000
  13.0455922  -4.6800339 -25.4168471  14.2210000  -3.6300000 -23.9860000
  15.2053972  -3.1619714 -23.9827431  13.2050000  -2.6550000 -23.3260000
  12.2554180  -3.1775735 -23.2106257  13.6890000  -2.1660000 -21.9550000
  14.6383731  -1.6428861 -22.0696390  12.9499662  -1.4874088 -21.5290397
  13.8230733  -3.0197378 -21.2907284  12.9050000  -1.5330000 -24.1740000
  12.2767545  -0.9570006 -23.7322618  14.2940000  -4.9030000 -23.1610000
  13.4180000  -5.7700000 -23.2830000  15.3320000  -5.0390000 -22.3380000
  16.1260398  -4.4181151 -22.4020478  15.3950000  -6.1470000 -21.3910000
  14.8468756  -7.0021603 -21.7864234  16.8450000  -6.5700000 -21.1370000
  17.4652107  -5.6736970 -21.1458779  17.0110000  -7.2850000 -19.8130000
  16.3914020  -8.1817218 -19.8035480  18.0559705  -7.5646009 -19.6789831
  16.7053181  -6.6242209 -19.0018088  17.2430000  -7.4860000 -22.2510000
  17.1592350  -6.9600718 -23.2020442  18.2734554  -7.8099987 -22.1051027
  16.5866771  -8.3562203 -22.2586018  14.6600000  -5.7110000 -20.1250000
  15.1250000  -4.8160000 -19.4100000  13.4880000  -6.3090000 -19.8840000
  13.1604976  -7.0681283 -20.4641428  12.6290000  -5.8500000 -18.7920000
  12.7630192  -4.7786443 -18.6425508  11.1640000  -6.1170000 -19.1160000
  11.0682845  -7.1881818 -19.2935030  10.5883230  -5.8428662 -18.2319487
  10.6400000  -5.3610000 -20.3110000  11.3299060  -5.5414462 -21.1353602
   9.6642146  -5.7803622 -20.5561125  10.4740000  -3.5830000 -20.0550000
   9.4230000  -3.4960000 -18.6160000   9.9081806  -3.9999091 -17.7800727
   9.2461841  -2.4520474 -18.3571568   8.4715964  -3.9828154 -18.8303436
  12.9770000  -6.5240000 -17.4780000  12.9910000  -5.8690000 -16.4260000
  13.2450000  -7.8320000 -17.5110000  13.3598021  -8.3065383 -18.3951568
  13.3520000  -8.6160000 -16.2870000  13.8205946  -8.0219173 -15.5024083
  11.9660000  -9.0380000 -15.8160000  11.2996790  -8.1942392 -15.9953967
  11.6619884  -9.8792180 -16.4389199  11.8930000  -9.4330000 -14.3750000
  12.2412129 -10.4616978 -14.2821050  12.5484249  -8.7751632 -13.8042365
  10.4680000  -9.3270000 -13.8330000  10.4449231  -9.8336622 -12.8681892
  10.2478271  -8.2687635 -13.6924336   9.4360000  -9.9110000 -14.6950000
   9.4982602 -10.8959479 -14.9097106   8.4250000  -9.2090000 -15.2120000
   8.3290000  -7.9050000 -14.9530000   9.0202591  -7.4571269 -14.3684741
   7.5654387  -7.3707768 -15.3424603   7.5070000  -9.7980000 -15.9810000
   7.5750695 -10.7866321 -16.1761233   6.7483812  -9.2524342 -16.3643460
  14.2190000  -9.8480000 -16.5390000  14.0530000 -10.5500000 -17.5500000
  15.1210000 -10.1280000 -15.6010000  15.2703870  -9.4633161 -14.8553606
  15.9240000 -11.3460000 -15.6130000  15.6446851 -12.0263477 -16.4174932
  17.4340000 -11.0570000 -15.6870000  17.7813890 -10.6357412 -14.7436219
  18.1590000 -12.3700000 -15.9540000  17.8124504 -12.7916590 -16.8975082
  19.2322375 -12.1881002 -16.0103431  17.9517755 -13.0710092 -15.1454561
  17.7540000  -9.9560000 -16.7040000  16.9505765  -9.9487652 -17.4405861
  17.7620133  -9.0077563 -16.1665344  19.0640000 -10.1460000 -17.3980000
  19.0565723 -11.0938869 -17.9361032  19.2241495  -9.3299974 -18.1026922
  19.8680094 -10.1528803 -16.6620507  15.6310000 -12.1380000 -14.3530000
  15.7130000 -11.6000000 -13.2440000  15.3340000 -13.4150000 -14.5210000
  15.3668677 -13.7964954 -15.4556017  14.9370000 -14.2950000 -13.4290000
  15.0215329 -13.7702767 -12.4773599  13.4690000 -14.7680000 -13.6060000
  13.3449852 -15.1338877 -14.6252383  13.1210000 -15.8600000 -12.6370000
  13.2443365 -15.4946892 -11.6174728  12.0861076 -16.1660689 -12.7900313
  13.7794605 -16.7134445 -12.7987492  12.5800000 -13.6730000 -13.3970000
  11.6740610 -13.9707410 -13.5075676  15.8700000 -15.4990000 -13.3950000
  16.1780000 -16.0840000 -14.4410000  16.3380000 -15.8710000 -12.2060000
  16.2377462 -15.2601963 -11.4078976  17.0720000 -17.1210000 -12.0330000
  17.2501906 -17.5434258 -13.0218901  18.4170000 -16.9270000 -11.3080000
  18.9600387 -16.1122608 -11.7869671  18.2000000 -16.5990000  -9.8550000
  17.6573864 -17.4135435  -9.3752188  19.1640795 -16.4665007  -9.3639853
  17.6211763 -15.6791090  -9.7721578  19.2110000 -18.2130000 -11.4190000
  18.6945216 -18.9748830 -10.8351462  19.2239730 -18.5070067 -12.4685195
  20.5800000 -18.0760000 -10.9360000  20.5678379 -17.7824415  -9.8863451
  21.0996831 -19.0284365 -11.0403718  21.0972888 -17.3145631 -11.5197174
  16.1780000 -18.0970000 -11.2870000  15.3790000 -17.6940000 -10.4320000
  16.2890000 -19.3770000 -11.6300000  16.9308372 -19.6523388 -12.3596115
  15.4560000 -20.4060000 -11.0170000  14.5516947 -19.9531110 -10.6105240
  15.0540000 -21.4580000 -12.0470000  14.5465460 -20.9427638 -12.8625497
  15.9684973 -21.9178396 -12.4216229  14.1460000 -22.5280000 -11.4850000
  14.6101216 -22.9167368 -10.5785919  13.1942431 -22.0601269 -11.2333001
  13.9070000 -23.6690000 -12.4610000  13.2320000 -24.6510000 -12.0640000
  14.3930000 -23.5820000 -13.6180000  16.1990000 -21.0480000  -9.8450000
  17.3140000 -21.5590000 -10.0110000  15.5800000 -21.0160000  -8.6600000
  14.7352861 -20.4683158  -8.5787608  16.0970000 -21.6710000  -7.4640000
  17.1465236 -21.9298800  -7.6039301  15.9810000 -20.7310000  -6.2600000
  15.8614365 -19.7077046  -6.6159076  15.1261082 -21.0018531  -5.6404044
  17.1820000 -20.7350000  -5.3600000  18.4660000 -20.9430000  -5.8230000
  19.3120000 -20.8810000  -4.8100000  20.3809354 -21.0226026  -4.9694517
  18.6240000 -20.6370000  -3.7070000  19.0069240 -20.5377987  -2.7776840
  17.2900000 -20.5380000  -4.0250000  16.5572858 -20.3340090  -3.2442191
  15.3850000 -22.9970000  -7.1790000  15.3540000 -23.4470000  -6.0260000
  14.8080000 -23.6250000  -8.2010000  14.8670156 -23.2368508  -9.1315680
  14.0870000 -24.8660000  -8.0200000  13.9932862 -25.3459156  -8.9941653
  14.6733189 -25.5022253  -7.3570167  12.7050000 -24.6780000  -7.4280000
  11.7030000 -24.9900000  -8.0790000  12.6390000 -24.1630000  -6.1920000
  13.4777140 -23.9332357  -5.6783206  11.3460000 -23.9730000  -5.5310000
  10.7358818 -24.8689226  -5.6457938  11.5460000 -23.7060000  -4.0390000
  11.9606426 -24.6015242  -3.5761747  12.2472106 -22.8796316  -3.9227285
  10.3130000 -23.3740000  -3.4090000  10.4644815 -23.2112494  -2.4751020
  10.5530000 -22.8330000  -6.1600000   9.3390000 -22.9540000  -6.3810000
  11.2160000 -21.7150000  -6.4480000  12.2019218 -21.6321288  -6.2450470
  10.5290000 -20.5640000  -7.0080000   9.6982882 -20.8982691  -7.6295153
   9.9780000 -19.6690000  -5.8950000   9.4368094 -18.8479919  -6.3652739
   9.2866159 -20.2654853  -5.2997746  11.0610000 -19.1110000  -5.0000000
  11.4993175 -19.9259732  -4.4239815  11.8313061 -18.6466309  -5.6157044
  10.5230000 -18.0790000  -4.0420000   9.3050000 -17.9410000  -3.8760000
  11.4260000 -17.3400000  -3.4030000  11.1235164 -16.6325477  -2.7486940
  12.4098890 -17.4898025  -3.5751137  11.4800000 -19.7830000  -7.9100000
  12.7040000 -19.9410000  -7.8510000  10.8870000 -18.9520000  -8.7700000
   9.8796649 -18.9691347  -8.8412860  11.6250000 -18.0320000  -9.6270000
  12.5719221 -18.4836164  -9.9227707  10.8230000 -17.7100000 -10.8870000
   9.8275025 -17.3648039 -10.6078521  11.3426476 -16.9193547 -11.4282453
  10.6820000 -18.8990000 -11.7930000  11.5610000 -19.7520000 -11.8410000
   9.5690000 -18.9770000 -12.5060000   9.4266463 -19.7579179 -13.1305018
   8.8675086 -18.2552197 -12.4220730  11.8990000 -16.7610000  -8.8400000
  10.9580000 -16.0860000  -8.4040000  13.1740000 -16.4430000  -8.6390000
  13.8969792 -17.0765606  -8.9488410  13.5720000 -15.2380000  -7.9210000
  12.7094948 -14.7479379  -7.4693108  14.5980000 -15.5460000  -6.8150000
  14.1014912 -16.0929307  -6.0134733  15.7280000 -16.3730000  -7.3600000
  16.2253178 -15.8264957  -8.1613170  16.4433752 -16.5809725  -6.5643328
  15.3361768 -17.3122944  -7.7502592  15.1370000 -14.2550000  -6.2040000
  14.3140471 -13.6856544  -5.7719165  15.8602771 -14.4954908  -5.4248119
  15.6220690 -13.6607628  -6.9783972  14.1210000 -14.2390000  -8.9290000
  14.9320000 -14.5980000  -9.7920000  13.6770000 -12.9870000  -8.8300000
  13.0098473 -12.7228777  -8.1191934  14.0790000 -11.9830000  -9.8080000
  14.2210207 -12.4578884 -10.7787782  13.0110000 -10.8870000  -9.9490000
  13.4314075 -10.1437669 -10.6264669  12.1522089 -11.3639003 -10.4213812
  12.5700000 -10.2090000  -8.6660000  11.8450038 -10.8439119  -8.1567179
  13.4376146 -10.0610682  -8.0229889  11.9340000  -8.8620000  -8.9770000
  11.4646117  -8.4873602  -8.0673744  12.7216143  -8.1756756  -9.2880016
  10.8960000  -8.9680000 -10.0730000  11.3867869  -8.9203451 -11.0450894
  10.3646935  -9.9152713  -9.9808602   9.9280000  -7.8420000  -9.9500000
  10.4200571  -6.9641498 -10.0357816   9.2350034  -7.9123959 -10.6813687
   9.4728057  -7.8862231  -9.0494770  15.4340000 -11.3880000  -9.4400000
  15.6370000 -10.9050000  -8.3250000  16.3530000 -11.4350000 -10.3990000
  16.0992599 -11.8871847 -11.2657435  17.7160000 -10.9200000 -10.2580000
  18.0391822 -10.8860631  -9.2175670  18.6710000 -11.8350000 -11.0390000
  18.3814547 -11.8481506 -12.0897568  20.0540000 -11.3310000 -10.9160000
  20.3444394 -11.3179952  -9.8654874  20.7292698 -11.9821435 -11.4710886
  20.1103018 -10.3204119 -11.3205287  18.5730000 -13.2330000 -10.5260000
  17.5517869 -13.5942993 -10.6471970  19.2536467 -13.8745146 -11.0857130
  18.8418845 -13.2527108  -9.4698686  17.8280000  -9.4800000 -10.7480000
  18.6410000  -8.7020000 -10.2430000  17.0570000  -9.1190000 -11.7670000
  16.4261563  -9.7832160 -12.1923852  17.1190000  -7.7780000 -12.3190000
  17.3170993  -7.0643394 -11.5192848  18.2280000  -7.6630000 -13.3610000
  19.1988540  -7.5783529 -12.8727616  18.2240149  -8.5376629 -14.0114221
  18.0900000  -6.4640000 -14.2530000  18.5250000  -5.2150000 -13.8250000
  18.9695162  -5.1130917 -12.8349899  18.3980000  -4.1090000 -14.6420000
  18.7437331  -3.1334858 -14.3000333  17.8260000  -4.2420000 -15.9070000
  17.7199427  -3.3685345 -16.5503582  17.3930000  -5.4820000 -16.3460000
  16.9484219  -5.5918315 -17.3351348  17.5270000  -6.5830000 -15.5230000
  17.1904128  -7.5621966 -15.8635627  15.7830000  -7.4220000 -12.9510000
  15.1470000  -8.2610000 -13.6020000  15.3740000  -6.1680000 -12.7670000
  15.7827501  -5.5891293 -12.0473254  14.2530000  -5.6360000 -13.5260000
  14.2547140  -6.0804135 -14.5212853  12.8990000  -5.9430000 -12.8510000
  12.1514193  -5.7451054 -13.6191537  12.9272485  -7.0118145 -12.6390150
  12.5340000  -5.1800000 -11.5760000  13.1823667  -5.5132235 -10.7656399
  12.6993253  -4.1183971 -11.7597553  11.0730000  -5.4080000 -11.1860000
  10.2840000  -5.8360000 -12.0710000  10.7070000  -5.1750000 -10.0010000
  14.4730000  -4.1440000 -13.7390000  14.8140000  -3.4110000 -12.8040000
  14.3050000  -3.7210000 -14.9830000  13.9328878  -4.3548748 -15.6757009
  14.6620000  -2.3810000 -15.4000000  15.7271383  -2.2132651 -15.2404867
  14.3580000  -2.1930000 -16.8690000  15.0712158  -2.7839531 -17.4436276
  13.3485461  -2.5580968 -17.0582281  14.4550000  -0.7450000 -17.2840000
  13.9949470  -0.6262490 -18.2649945  13.8914166  -0.1725441 -16.5472727
  15.8980000  -0.2340000 -17.3320000  16.7750000  -0.9620000 -17.8800000
  16.1370000   0.9050000 -16.8470000  13.9040000  -1.3460000 -14.5910000
  12.6690000  -1.3480000 -14.6060000  14.5840000  -0.4390000 -13.9030000
  16.0310000  -0.2260000 -13.8750000  16.4276222  -0.2762791 -14.8890331
  16.5019384  -0.9950093 -13.2626759  16.1600000   1.1500000 -13.2700000
  16.1832942   1.8977452 -14.0627380  17.0798243   1.2092864 -12.6881841
  14.9730000   1.3200000 -12.4010000  14.7300288   2.3780471 -12.3030181
  15.0958665   0.8826838 -11.4101630  13.8530000   0.5960000 -13.1570000
  13.1624786   0.0938866 -12.4793860  13.0800000   1.5350000 -14.0600000
  11.9000000   1.8070000 -13.8090000  13.7050000   2.0260000 -15.1100000
  14.6621198   1.7740658 -15.3113708  13.0490000   2.9810000 -15.9790000
  12.1242113   3.3412029 -15.5283128  13.9790000   4.1630000 -16.1890000
  14.9485709   3.7835590 -16.5115770  13.5585973   4.7956111 -16.9707703
  14.1490000   4.9650000 -14.9360000  13.2875343   5.6214600 -14.8133705
  14.2126581   4.2871096 -14.0848159  15.4140000   5.8000000 -15.0130000
  15.2682077   6.6133571 -15.7238403  15.6353678   6.2134086 -14.0290340
  16.5880000   4.9200000 -15.4750000  16.6050112   4.0436688 -14.8270379
  16.3726478   4.6108295 -16.4978080  17.9120000   5.5950000 -15.4300000
  18.1119340   5.8811812 -14.4822519  18.6268281   4.9555085 -15.7464986
  17.8965843   6.4068145 -16.0306819  12.6670000   2.3570000 -17.3140000
  13.3810000   2.5590000 -18.2990000  11.5360000   1.6510000 -17.4160000
  10.3540000   1.6940000 -16.5440000   9.6459455   2.4387870 -16.9073888
  10.6485205   1.9407050 -15.5239543   9.8350000   0.3070000 -16.6640000
   8.7559174   0.3057961 -16.5101226  10.3090581  -0.3268595 -15.9146053
  10.2070000  -0.1640000 -18.1110000   9.3445058  -0.1157737 -18.7757382
  10.5976736  -1.1814831 -18.0967886  11.2950000   0.8090000 -18.5950000
  12.2344037   0.2999634 -18.8106402  10.8250000   1.5510000 -19.8360000
  10.7160000   0.9240000 -20.9040000  10.5120000   2.8390000 -19.7300000
  10.4988874   3.2523710 -18.8085599  10.1490000   3.6760000 -20.8690000
  10.1748132   3.0719543 -21.7759518   8.7500000   4.2740000 -20.7200000
   8.7020521   4.7517177 -19.7414367   8.5816895   5.0200919 -21.4966070
   7.6560000   3.2340000 -20.8040000   7.4190000   2.6330000 -21.8640000
   6.9550000   3.0360000 -19.6850000   6.2094946   2.3546830 -19.6736528
   7.1734508   3.5684476 -18.8550123  11.1440000   4.8010000 -21.0510000
  10.7650000   5.9200000 -21.4150000  12.4060000   4.5110000 -20.7270000
  12.6009345   3.6072304 -20.3204284  13.5080000   5.4330000 -20.9120000
  13.1275968   6.4544514 -20.9065508  14.5440000   5.2940000 -19.8060000
  14.0799007   5.5141708 -18.8446281  14.9306792   4.2749300 -19.7973048
  15.6040000   6.1970000 -20.0340000  16.2562921   6.1077076 -19.3353286
  14.1540000   5.1540000 -22.2450000  14.2770000   3.9970000 -22.6550000
  14.5410000   6.2280000 -22.9280000  14.2836688   7.1615774 -22.6410971
  15.3170000   6.0710000 -24.1470000  14.8028296   5.3917518 -24.8269632
  15.4950000   7.4140000 -24.8430000  15.9838108   7.2139711 -25.7964945
  14.4963281   7.8116496 -25.0236359  16.3210000   8.4430000 -24.0490000
  17.0390616   7.8895956 -23.4438290  16.8550633   9.0660740 -24.7663941
  15.4690000   9.3260000 -23.1450000  14.3000000   8.9510000 -22.9180000
  15.9650000  10.3790000 -22.6750000  16.6730000   5.4630000 -23.8610000
  17.2890000   4.8930000 -24.7680000  17.1500000   5.5720000 -22.6170000
  16.6815462   6.1229573 -21.9119494  18.4160000   4.9490000 -22.2750000
  19.2041232   5.3470516 -22.9141525  18.7820000   5.2250000 -20.8210000
  17.9295081   4.8412905 -20.2605326  19.6777364   4.6685409 -20.5451201
  18.9800000   6.6950000 -20.4970000  18.1143287   7.2516080 -20.8560286
  19.1350000   6.9100000 -18.9900000  20.0008021   6.3540323 -18.6302980
  19.2753588   7.9715883 -18.7864552  18.2394112   6.5577531 -18.4781962
  20.1830000   7.1940000 -21.2920000  19.9935466   7.0654895 -22.3576884
  20.3482158   8.2498593 -21.0776028  21.0678270   6.6236202 -21.0094279
  18.3650000   3.4590000 -22.5480000  19.2830000   2.9140000 -23.1510000
  17.3010000   2.7780000 -22.1550000  16.4772201   3.2026010 -21.7535029
  17.3700000   1.3250000 -22.2130000  18.3995964   1.0117959 -22.3860133
  16.8870000   0.7110000 -20.9000000  16.9232406  -0.3769522 -20.9560890
  17.5085794   1.0525306 -20.0722948  15.1930000   1.1320000 -20.4590000
  15.1688353   0.4398819 -19.3235323  16.6100000   0.7190000 -23.3860000
  16.5340000  -0.5060000 -23.4790000  16.0870000   1.5310000 -24.3020000
  16.1336701   2.5320823 -24.1764794  15.3840000   1.0120000 -25.4720000
  14.9002749   0.0664585 -25.2269274  14.3160000   2.0030000 -25.9250000
  13.7033123   2.3163834 -25.0797167  14.7772272   2.8780165 -26.3829471
  13.1540000   1.3290000 -27.1730000  12.4257276   2.4350147 -27.2964873
  16.3810000   0.7260000 -26.5920000  16.6480000   1.5800000 -27.4320000
  16.8990000  -0.4890000 -26.6480000  16.5449931  -1.2315686 -26.0620219
  18.0220000  -0.7890000 -27.5540000  18.7708574  -0.0008750 -27.4754457
  18.6730000  -2.1120000 -27.2050000  17.9353428  -2.8788061 -27.4415787
  19.5265145  -2.2103865 -27.8757705  19.1290000  -2.2790000 -25.7910000
  19.2905085  -1.3022865 -25.3348787  18.3783243  -2.8261024 -25.2206781
  20.4320000  -3.0590000 -25.7910000  20.3232015  -3.9235972 -25.1362226
  20.6386094  -3.3967049 -26.8065626  21.5800000  -2.1960000 -25.3020000
  22.5389739  -2.6986645 -25.4276900  21.6039967  -1.2349985 -25.8158087
  21.3200000  -1.9760000 -23.8460000  21.2981533  -2.8663373 -23.3696368
  22.0546036  -1.4032264 -23.4556311  20.4316364  -1.5098470 -23.7293360
  17.5650000  -0.8530000 -29.0120000  16.7540000  -1.7300000 -29.3630000
  18.1090000  -0.0250000 -29.9030000  19.0810000   1.0670000 -29.6920000
  19.8401025   0.7596789 -28.9726827  18.5709937   1.9569856 -29.3233292
  19.6400000   1.2580000 -31.0760000  20.4509410   0.5515133 -31.2530602
  20.0134962   2.2754644 -31.1916207  18.5060000   1.0100000 -31.9770000
  18.8957803   0.7086122 -32.9492838  17.8276714   1.8537463 -32.1037365
  17.7660000  -0.1620000 -31.3270000  16.6824471  -0.1001698 -31.4279378
  18.2520000  -1.4840000 -31.8950000  19.3740000  -1.9040000 -31.6260000
  17.4160000  -2.1260000 -32.7010000  16.4710882  -1.7952558 -32.8346011
  17.8150000  -3.3580000 -33.3620000  18.8487638  -3.5974287 -33.1127903
  16.9210000  -4.5130000 -32.9030000  17.1294054  -4.5426503 -31.8335201
  15.9161475  -4.1234502 -33.0661641  17.0200000  -5.9290000 -33.4820000
  17.0161321  -5.8765954 -34.5707330  18.2870000  -6.5730000 -33.0190000
  18.2913918  -6.6261821 -31.9303076  18.3554740  -7.5795253 -33.4316971
  19.1393456  -5.9835644 -33.3568951  15.8170000  -6.7660000 -33.0320000
  14.8969516  -6.2990882 -33.3835733  15.8962927  -7.7702324 -33.4483306
  15.8012110  -6.8246286 -31.9436929  17.7870000  -3.2730000 -34.8760000
  18.6690000  -3.8260000 -35.5200000  16.8060000  -2.6040000 -35.4780000
  16.0506932  -2.2143999 -34.9322686  16.7570000  -2.4590000 -36.9330000
  17.7635954  -2.5250012 -37.3459271  15.9060000  -3.5620000 -37.5470000
  16.3777136  -4.5354422 -37.4128517  14.9109435  -3.5766489 -37.1023114
  15.6610000  -3.3700000 -39.2970000  14.9152968  -4.4601199 -39.4534087
  16.2120000  -1.0910000 -37.3380000  15.2730000  -0.5940000 -36.7280000
  16.7920000  -0.4790000 -38.3680000  17.5066643  -0.9741365 -38.8819982
  16.4570000   0.8810000 -38.7830000  15.5069251   1.1681911 -38.3324690
  17.5220000   1.8830000 -38.3540000  18.4075461   1.5656361 -38.9046246
  17.1548716   2.8222842 -38.7675964  17.8780000   2.0790000 -36.8970000
  18.4267399   1.2229020 -36.5044679  18.7630000   3.3110000 -36.8510000
  18.2147515   4.1676682 -37.2429718  19.0573359   3.5092884 -35.8203940
  19.6534514   3.1421625 -37.4565499  16.6350000   2.2890000 -36.0930000
  15.9871658   1.4178352 -36.1903772  16.8990388   2.4294432 -35.0448299
  16.1113480   3.1730309 -36.4568364  16.3230000   0.9050000 -40.2950000
  17.2750000   0.5620000 -41.0010000  15.1560000   1.3150000 -40.7960000
  14.4078952   1.5503260 -40.1595566  14.9030000   1.4180000 -42.2290000
  15.8379761   1.2700514 -42.7693981  13.8990000   0.3760000 -42.7000000
  13.7459843   0.5062107 -43.7713219  14.3161898  -0.6130409 -42.5106569
  12.5950000   0.5080000 -41.9930000  12.7867451   0.8596230 -40.9792466
  11.9884529   1.2423169 -42.5230767  11.7050000  -1.0500000 -41.9190000
  11.4670000  -1.3570000 -43.6760000  12.4371588  -1.4240828 -44.1683321
  10.9257493  -2.2933387 -43.8117135  10.8937173  -0.5398053 -44.1137683
  14.3700000   2.8000000 -42.5710000  13.8330000   3.5190000 -41.7290000
  14.4980000   3.1510000 -43.8140000  15.1017914   2.6193059 -44.4246035
  13.8450000   4.3290000 -44.3490000  13.3935850   4.8937089 -43.5332626
  14.8370000   5.2330000 -45.0780000  15.3565616   4.5688735 -45.7687177
  14.2965626   5.9928173 -45.6425398  15.8590000   5.9120000 -44.1550000
  16.4339571   5.1260534 -43.6652928  16.8000000   6.8420000 -44.8890000
  16.2257682   7.6285344 -45.3786124  17.4963791   7.2891800 -44.1796433
  17.3567397   6.2792364 -45.6382920  15.1470000   6.6710000 -43.0520000
  14.5424237   5.9789352 -42.4657975  15.8830672   7.1477294 -42.4046706
  14.5030078   7.4326664 -43.4915877  12.7760000   3.7090000 -45.2300000
  13.0820000   3.1350000 -46.2770000  11.5750000   3.5900000 -44.6980000
  11.3873267   3.8769920 -43.7479928  10.5000000   3.0020000 -45.4600000
  10.4900460   3.4044942 -46.4729159  10.6730000   1.4990000 -45.5380000
  10.6757654   1.0803508 -44.5316078   9.8505790   1.0671962 -46.1083240
  11.6173067   1.2665004 -46.0302682   9.1820000   3.3450000 -44.8270000
   9.1260000   3.6900000 -43.6610000   8.1150000   3.2360000 -45.5950000
   8.1950729   2.9638689 -46.5643463   6.8010000   3.5180000 -45.0700000
   6.8423626   4.3726410 -44.3947392   5.8490000   3.8450000 -46.2100000
   6.3689220   4.4998558 -46.9092455   5.5919806   2.9112015 -46.7100614
   4.5990000   4.5160000 -45.7340000   4.2080000   4.2780000 -44.5800000
   4.0090000   5.2830000 -46.5110000   6.3040000   2.3070000 -44.3100000
   6.4380000   1.1890000 -44.7820000   5.7130000   2.5170000 -43.1380000
   5.6906240   3.4438423 -42.7372980   5.1810000   1.4070000 -42.3480000
   5.9519675   0.6435656 -42.2437106   4.7440000   1.8530000 -40.9540000
   4.3819930   0.9635526 -40.4383126   5.6349721   2.2272951 -40.4498453
   3.6680000   2.9200000 -40.9360000   4.0223723   3.7562862 -41.5386164
   2.7683278   2.5025471 -41.3881307   3.3510000   3.4050000 -39.5370000
   3.3930000   2.5920000 -38.5970000   3.0530000   4.6030000 -39.3810000
   4.0460000   0.7060000 -43.0820000   3.8910000  -0.5020000 -42.9950000
   3.2260000   1.4870000 -43.7670000   3.3528339   2.4882152 -43.7272419
   2.1260000   0.9670000 -44.5430000   1.5478832   0.2606826 -43.9471847
   1.2130000   2.1030000 -44.9700000   1.7478949   2.7433305 -45.6714012
   0.3324815   1.6857656 -45.4585721   0.8140000   2.8620000 -43.8520000
   0.2382894   3.5749159 -44.1381958   2.5870000   0.2070000 -45.7800000
   1.7830000  -0.4730000 -46.4020000   3.8520000   0.3280000 -46.1740000
   4.5401359   0.8857814 -45.6887699   4.2570000  -0.3600000 -47.4070000
   3.4395971  -0.3033196 -48.1258456   5.4970000   0.2530000 -48.0330000
   5.3036107   1.3071575 -48.2316247   6.3062829   0.1628435 -47.3084084
   5.8920000  -0.4360000 -49.3160000   5.3960000  -1.5540000 -49.5730000
   6.6900000   0.1440000 -50.0840000   4.5030000  -1.8090000 -47.0480000
   5.6410000  -2.2630000 -46.9280000   3.4020000  -2.5500000 -46.9320000
   2.4975238  -2.1857586 -47.1953445   3.4670000  -3.8820000 -46.3570000
   3.7276805  -3.8296694 -45.2999255   2.1200000  -4.5390000 -46.4880000
   1.3087081  -3.8123366 -46.5311858   2.1058207  -5.1525884 -47.3887820
   1.8190000  -5.4430000 -45.3550000   1.6550000  -4.9870000 -44.0660000
   1.4030000  -6.0110000 -43.2710000   1.2271388  -5.8572564 -42.2063241
   1.4170000  -7.1170000 -43.9980000   1.2592752  -8.0548383 -43.6578792
   1.6830000  -6.7870000 -45.3050000   1.7452599  -7.5682633 -46.0625306
   4.5460000  -4.7400000 -46.9980000   5.3370000  -5.3740000 -46.2960000
   4.6170000  -4.7380000 -48.3340000   3.9607231  -4.1882253 -48.8698616
   5.6110000  -5.5320000 -49.0580000   5.4150597  -6.5935592 -48.9070080
   5.5520000  -5.2320000 -50.5590000   5.5749950  -4.1457749 -50.6466665
   6.4655685  -5.6495731 -50.9822321   4.3510000  -5.7750000 -51.3130000
   4.5531957  -5.7207303 -52.3827067   4.2320621  -6.8177524 -51.0186866
   3.0800000  -5.0150000 -51.0010000   1.9740000  -5.4810000 -51.3790000
   3.1940000  -3.9470000 -50.3500000   7.0120000  -5.2430000 -48.5550000
   7.8090000  -6.1510000 -48.2730000   7.3360000  -3.9600000 -48.4690000
   6.7089936  -3.2259462 -48.7658623   8.6450000  -3.5870000 -47.9770000
   9.4226599  -4.1340108 -48.5100324   8.8700000  -2.1080000 -48.1800000
   8.2095324  -1.5275142 -47.5358579  10.3030000  -1.8210000 -47.8180000
  10.9641191  -2.4008169 -48.4620757  10.5062955  -0.7585173 -47.9517931
  10.4774857  -2.0955981 -46.7776870   8.6020000  -1.7940000 -49.5520000
   8.7406071  -0.8554109 -49.6984200   8.8010000  -3.9370000 -46.5090000
   9.8270000  -4.4760000 -46.1050000   7.8020000  -3.6240000 -45.6930000
   6.9393108  -3.2360411 -46.0470546   7.9360000  -3.8100000 -44.2580000
   8.7685094  -3.2165440 -43.8800617   6.6600000  -3.3630000 -43.5540000
   6.5284983  -2.3033840 -43.7731358   5.8416746  -3.9296477 -43.9982455
   6.6620000  -3.5730000 -42.0430000   6.9256299  -4.6087652 -41.8290129
   7.6560000  -2.6580000 -41.3870000   7.3927454  -1.6219715 -41.6001683
   7.6444742  -2.8209047 -40.3093034   8.6532174  -2.8661042 -41.7747505
   5.2950000  -3.2640000 -41.5830000   4.5868330  -3.9337927 -42.0708286
   5.2356793  -3.3975542 -40.5028400   5.0508944  -2.2319903 -41.8349276
   8.2130000  -5.2580000 -43.9100000   9.0190000  -5.5500000 -43.0150000
   7.5010000  -6.1770000 -44.5600000   6.8077454  -5.9195713 -45.2479156
   7.6600000  -7.5830000 -44.2360000   7.7299765  -7.7135169 -43.1561075
   6.4690000  -8.3900000 -44.7490000   6.7292780  -9.4477649 -44.7104116
   5.2270000  -8.1460000 -43.9200000   4.9658178  -7.0884545 -43.9584847
   4.4024164  -8.7380469 -44.3170409   5.4167623  -8.4354704 -42.8864151
   6.1960000  -8.0250000 -46.1000000   5.4475004  -8.5317425 -46.4233585
   8.9620000  -8.1010000 -44.8100000   9.6910000  -8.8270000 -44.1270000
   9.2990000  -7.6840000 -46.0320000   8.6299909  -7.2290477 -46.6366029
  10.6400000  -7.9450000 -46.5540000  10.6824915  -8.9960083 -46.8397886
  10.9050000  -7.0930000 -47.7900000  10.8747478  -6.0379281 -47.5179557
  11.8875280  -7.3352132 -48.1950578  10.1424769  -7.2957848 -48.5420213
  11.7310000  -7.7040000 -45.5120000  12.5770000  -8.5660000 -45.2790000
  11.6950000  -6.5550000 -44.8460000  10.9189908  -5.9169006 -44.9496250
  12.8020000  -6.1600000 -43.9930000  13.7483192  -6.5574351 -44.3599121
  12.8900000  -4.6420000 -43.9030000  11.9226332  -4.2359508 -43.6073213
  13.9290000  -4.2650000 -42.8750000  14.8967979  -4.6703333 -43.1702504
  13.9959792  -3.1792096 -42.8066348  13.6455730  -4.6728320 -41.9047210
  13.2100000  -4.0560000 -45.2640000  12.4298822  -4.3829114 -45.9514926
  13.1773143  -2.9707522 -45.1677280  14.5490000  -4.4700000 -45.7950000
  14.5822816  -5.5551660 -45.8919896  14.7102032  -4.0133442 -46.7715133
  15.3297139  -4.1430085 -45.1082233  12.6680000  -6.7540000 -42.6130000
  13.6620000  -7.0850000 -41.9640000  11.4640000  -6.8640000 -42.1100000
  10.6140962  -6.5872683 -42.5803004  11.3730000  -7.3170000 -40.7420000
  12.2712654  -7.0433731 -40.1885140  10.1700000  -6.6550000 -40.0770000
   9.3919335  -6.7144854 -40.8380343   9.9276703  -7.3307377 -39.2567836
  10.2570000  -5.2220000 -39.5480000  10.4804555  -4.5222164 -40.3532772
   8.9090000  -4.8990000 -38.9630000   8.6850335  -5.5981241 -38.1572933
   8.9172080  -3.8825234 -38.5695427   8.1467814  -4.9820164 -39.7377461
  11.3270000  -5.0930000 -38.4880000  12.2935959  -5.3656000 -38.9116520
  11.3642478  -4.0634454 -38.1320066  11.0957858  -5.7568063 -37.6549333
  11.3190000  -8.8380000 -40.6380000  11.6010000  -9.3840000 -39.5690000
  11.0260000  -9.5360000 -41.7180000  10.8684612  -9.1479986 -42.6370951
  10.7870000 -10.9580000 -41.5190000  10.1262078 -11.0992158 -40.6637159
  10.1290000 -11.5890000 -42.7580000   9.5494404 -12.4398699 -42.3999074
   9.4543199 -10.8363854 -43.1660173  11.0230000 -12.0190000 -43.7690000
  10.5245895 -12.3965925 -44.4974303  12.0660000 -11.6920000 -41.1110000
  11.9870000 -12.6200000 -40.2990000  13.2600000 -11.3160000 -41.5930000
  13.5540000 -10.6570000 -42.8770000  13.3466699  -9.5906586 -42.7873868
  12.9196687 -11.0860112 -43.6526753  14.9940000 -10.9410000 -43.1020000
  15.4576187 -10.0892447 -43.5996642  15.0947309 -11.8266676 -43.7293337
  15.5920000 -11.1750000 -41.7440000  15.8548293 -10.2555825 -41.2208449
  16.4699672 -11.8173684 -41.8120886  14.4770000 -11.8960000 -40.9960000
  14.4846864 -12.9516730 -41.2672817  14.5830000 -11.7600000 -39.4750000
  14.8220000 -12.7770000 -38.8170000  14.4050000 -10.5760000 -38.8750000
  14.2907939  -9.7033029 -39.3704352  14.3770000 -10.5520000 -37.4080000
  15.3515484 -10.8690666 -37.0367544  14.0680000  -9.1790000 -36.8460000
  13.0302851  -9.0135904 -37.1356319  14.1241902  -9.3296036 -35.7679178
  14.8790000  -7.9990000 -37.2220000  14.7137070  -7.6844771 -38.2524632
  14.3690000  -6.9330000 -36.2830000  14.5343783  -7.2466250 -35.2522778
  14.9012977  -6.0000158 -36.4682039  13.3024979  -6.7814432 -36.4494460
  16.3290000  -8.3430000 -37.0010000  16.5985669  -9.1982870 -37.6206106
  16.9506887  -7.4892718 -37.2707269  16.4883259  -8.5906833 -35.9515395
  13.3240000 -11.4950000 -36.8530000  13.5000000 -12.0590000 -35.7660000
  12.2070000 -11.6510000 -37.5580000  12.0308900 -11.1537691 -38.4193049
  11.1550000 -12.4930000 -37.0230000  10.9754699 -12.3251723 -35.9610669
   9.8550000 -12.2610000 -37.8040000  10.0576869 -12.3615434 -38.8702596
   8.8120000 -13.2660000 -37.3950000   8.6084315 -13.1657477 -36.3288809
   7.8954368 -13.0886392 -37.9576329   9.1756828 -14.2725020 -37.6018521
   9.3970000 -10.8080000 -37.5970000   9.9794461 -10.1932254 -38.2832285
   8.3443817 -10.7664940 -37.8769492   9.5670000 -10.2780000 -36.1650000
  10.6194984 -10.3187649 -35.8844911   9.2178476  -9.2466507 -36.1148961
   8.9844354 -10.8920354 -35.4782112  11.5740000 -13.9530000 -37.0310000
  11.2210000 -14.6990000 -36.1090000  12.3390000 -14.3880000 -38.0460000
  12.5639379 -13.7817360 -38.8218519  12.8210000 -15.7670000 -38.0820000
  11.9880544 -16.4401439 -37.8790759  13.3950000 -16.1010000 -39.4610000
  14.2358800 -15.4411701 -39.6746480  13.7344517 -17.1367298 -39.4726907
  12.6240240 -15.9632954 -40.2191113  13.8700000 -16.0000000 -37.0070000
  13.8410000 -17.0140000 -36.3070000  14.8110000 -15.0720000 -36.8690000
  14.9290253 -14.3431898 -37.5582061  15.7530000 -15.1340000 -35.7630000
  16.3819353 -16.0201618 -35.8481874  16.6530000 -13.8880000 -35.7940000
  16.0157879 -13.0130635 -35.9226317  17.1721554 -13.8213327 -34.8378969
  17.7020000 -13.9440000 -36.9540000  18.4380358 -14.6976871 -36.6741645
  17.1512162 -14.2829469 -37.8314118  18.4210000 -12.6200000 -37.2790000
  18.5930000 -11.7520000 -36.3700000  18.8230000 -12.4750000 -38.4670000
  15.0120000 -15.2770000 -34.4420000  15.3560000 -16.1220000 -33.6110000
  13.9480000 -14.4910000 -34.2620000  13.6619418 -13.8480787 -34.9865151
  13.2020000 -14.4960000 -33.0070000  13.8847250 -14.3887480 -32.1640986
  12.2170000 -13.3330000 -32.9870000  12.8197207 -12.4249380 -33.0028245
  11.6445174 -13.4046415 -33.9117871  11.2730000 -13.2880000 -31.8150000
  10.6905519 -14.2085585 -31.7772243  11.8403315 -13.1794309 -30.8906355
  10.3310000 -12.0960000 -31.9770000  10.8921387 -11.1710928 -31.8437000
   9.8933233 -12.1141890 -32.9751021   9.2600000 -12.1350000 -30.9990000
   9.3400162 -11.5772178 -30.1608021   8.1820000 -12.8810000 -31.1590000
   7.2360000 -12.9140000 -30.2230000   7.3421631 -12.3641904 -29.3824414
   6.4164396 -13.4886967 -30.3577001   8.0660000 -13.6050000 -32.2730000
   8.7956488 -13.5730846 -32.9706347   7.2490338 -14.1818950 -32.4139151
  12.4690000 -15.8090000 -32.8080000  12.3870000 -16.3130000 -31.6840000
  11.9250000 -16.3670000 -33.8860000  11.9308513 -15.9095554 -34.7864496
  11.2410000 -17.6390000 -33.7660000  10.4778602 -17.5827378 -32.9897581
  10.5660000 -17.9910000 -35.0890000  10.4934627 -17.0680460 -35.6643203
  11.2240104 -18.6897683 -35.6055706   9.1490000 -18.6240000 -34.9420000
   8.6848569 -18.6005502 -35.9279625   9.2855421 -19.6593691 -34.6298042
   8.2450000 -17.9010000 -33.9340000   7.6280000 -18.5850000 -33.0830000
   8.1500000 -16.6540000 -33.9970000  12.2140000 -18.7230000 -33.3380000
  11.8860000 -19.5730000 -32.4990000  13.4360000 -18.6710000 -33.8740000
  13.6364698 -17.9730163 -34.5759473  14.4850000 -19.6230000 -33.5260000
  14.1540311 -20.6350063 -33.7592425  15.7350000 -19.3190000 -34.3430000
  16.0837182 -18.3121116 -34.1134974  16.5154380 -20.0385033 -34.0953474
  15.5011776 -19.3886389 -35.4053449  14.7890000 -19.5810000 -32.0390000
  14.6940000 -20.5900000 -31.3440000  15.1210000 -18.4080000 -31.5220000
  15.1604798 -17.5905328 -32.1138514  15.4910000 -18.2640000 -30.1180000
  16.3475696 -18.8928746 -29.8752975  15.8700000 -16.8070000 -29.8700000
  14.9880905 -16.1821924 -30.0112455  16.2279812 -16.7031045 -28.8457172
  16.9510000 -16.3730000 -30.8260000  17.8173371 -16.9918418 -30.5923426
  16.5833206 -16.6243159 -31.8208639  17.4330000 -14.6510000 -30.7950000
  17.9000000 -14.4670000 -29.0950000  18.7156588 -15.1526514 -28.8654749
  18.2260806 -13.4424198 -28.9160932  17.0458400 -14.6926209 -28.4565589
  14.4050000 -18.6860000 -29.1350000  14.7160000 -18.8100000 -27.9400000
  13.1600000 -18.8880000 -29.5870000  12.9363575 -18.7497567 -30.5621780
  12.0830000 -19.2800000 -28.6770000  12.0539683 -18.6059737 -27.8208780
  10.7350000 -19.2120000 -29.3990000  10.9564216 -19.4173697 -30.4463275
  10.1435044 -20.0292122 -28.9862080   9.9400000 -17.8980000 -29.2910000
   9.7038275 -17.6919854 -28.2470261  10.5263257 -17.0749664 -29.6995828
   8.6420000 -18.0440000 -30.0880000   8.9246940 -18.1162705 -31.1382191
   8.1822179 -18.9799920 -29.7707952   7.6520000 -16.9080000 -29.9080000
   7.5058611 -16.6941255 -28.8492263   8.0064072 -16.0099706 -30.4140018
   6.3490000 -17.3430000 -30.5150000   6.0202092 -18.1748762 -30.0459816
   5.6664500 -16.6058324 -30.4110317   6.4841043 -17.5408194 -31.4961796
  12.3060000 -20.6880000 -28.1410000  12.0310000 -20.9810000 -26.9640000
  12.8160000 -21.5740000 -28.9890000  13.0938119 -21.2443625 -29.9023778
  12.9360000 -23.0000000 -28.7020000  12.4230189 -23.2467714 -27.7724552
  12.2950000 -23.7940000 -29.8390000  12.9105503 -24.6711554 -30.0384880
  11.3018715 -24.1121973 -29.5219096  12.1860000 -23.0070000 -31.0300000
  11.7807301 -23.5317167 -31.7242827  14.3970000 -23.4220000 -28.4940000
  14.7700000 -24.5530000 -28.8460000  15.2230000 -22.5590000 -27.8930000
  14.8925377 -21.6619227 -27.5671990  16.6350000 -22.8710000 -27.7390000
  16.7610962 -23.9385158 -27.5584207  17.4010000 -22.4970000 -29.0020000
  16.7602160 -22.6030461 -29.8773567  17.7583295 -21.4693336 -28.9362935
  18.4910000 -23.3620000 -29.1160000  18.9902538 -23.1451410 -29.9067703
  17.2000000 -22.1360000 -26.5300000  16.5720000 -21.2160000 -25.9960000
  18.3880000 -22.5530000 -26.0790000  18.8707517 -23.3083123 -26.5443530
  18.9870000 -21.9870000 -24.8750000  18.3354435 -21.2003046 -24.4946270
  19.1870000 -23.0360000 -23.7700000  19.8557486 -23.7926459 -24.1803189
  19.6814266 -22.5240361 -22.9444485  17.9050000 -23.7090000 -23.2600000
  17.3595363 -22.9690640 -22.6742825  17.3112827 -23.9934778 -24.1287182
  18.1720000 -24.9440000 -22.3990000  19.3520000 -25.2300000 -22.0880000
  17.1900000 -25.6280000 -22.0400000  20.3130000 -21.3250000 -25.2110000
  21.0400000 -21.7550000 -26.1100000  20.6250000 -20.2730000 -24.4750000
  20.0343252 -20.0144175 -23.6976084  21.7970000 -19.4530000 -24.7550000
  22.1897928 -19.7135735 -25.7378094  21.4620000 -17.9670000 -24.7430000
  20.7176129 -17.8040731 -25.5223856  21.0512206 -17.6639787 -23.7799120
  22.6990000 -17.1440000 -25.0460000  23.5292068 -17.4551845 -24.4119481
  23.0570000 -17.3800000 -26.4970000  22.2273981 -17.0686016 -27.1317366
  23.9453023 -16.8017627 -26.7512860  23.2565720 -18.4398951 -26.6547774
  22.4650000 -15.6810000 -24.7570000  22.2122525 -15.5539463 -23.7043484
  23.3692344 -15.1161599 -24.9837534  21.6443045 -15.3149815 -25.3739185
  22.8560000 -19.7330000 -23.7040000  22.6650000 -19.3990000 -22.5250000
  23.9820000 -20.2860000 -24.1330000  24.0332008 -20.6521280 -25.0729085
  25.1400000 -20.4510000 -23.2630000  24.8542006 -20.3792600 -22.2135853
  25.7890000 -21.8170000 -23.5010000  26.2885767 -21.8049087 -24.4696987
  26.8160000 -22.1350000 -22.3980000  26.3170403 -22.1477236 -21.4289918
  27.2640184 -23.1102900 -22.5882316  27.5947453 -21.3723415 -22.3951121
  24.7640000 -22.8360000 -23.5280000  25.1690955 -23.6934654 -23.6771681
  26.1260000 -19.3060000 -23.5000000  26.5310000 -19.0500000 -24.6470000
  26.5150000 -18.6370000 -22.4170000  26.2692230 -19.0097196 -21.5110347
  27.2690000 -17.3930000 -22.4700000  27.9285343 -17.3916849 -23.3378203
  26.3110000 -16.2080000 -22.5830000  25.6056210 -16.5464600 -23.3419364
  25.7965609 -16.1112839 -21.6269151  26.8790000 -14.8690000 -22.9860000
  27.6344533 -14.5517206 -22.2671642  27.5250000 -15.0150000 -24.3800000
  26.7700082 -15.3318292 -25.0995176  27.9420593 -14.0568156 -24.6899114
  28.3198288 -15.7596179 -24.3365051  25.7370000 -13.8510000 -22.9400000
  25.3322690 -13.8036656 -21.9290343  26.1132376 -12.8689398 -23.2265384
  24.9510505 -14.1543857 -23.6316209  28.1090000 -17.2440000 -21.2100000
  27.6090000 -17.4580000 -20.1020000  29.3630000 -16.8390000 -21.3720000
  29.6849818 -16.5438663 -22.2826718  30.3070000 -16.8120000 -20.2640000
  30.0253486 -17.5547596 -19.5176221  31.7090000 -17.1290000 -20.7600000
  31.7130590 -16.8847842 -21.8222812  32.3752573 -16.4492040 -20.2288893
  32.1850000 -18.5550000 -20.5680000  31.7531409 -18.9234400 -19.6374891
  31.8375143 -19.1703107 -21.3979070  33.7090000 -18.6260000 -20.4850000
  34.2930000 -17.9630000 -19.5900000  34.3160000 -19.3250000 -21.3290000
  30.3200000 -15.4430000 -19.6050000  30.6720000 -14.4580000 -20.2540000
  30.0120000 -15.3840000 -18.3150000  29.7867261 -16.2288948 -17.8095262
  29.9500000 -14.1120000 -17.6000000  30.2980999 -13.3169737 -18.2594383
  28.5260000 -13.7780000 -17.1390000  28.1616770 -14.6576346 -16.6083297
  28.6173013 -12.9454154 -16.4414564  27.5520000 -13.4120000 -18.2350000
  28.1034398 -12.9265674 -19.0402144  27.0929120 -14.3268141 -18.6097737
  26.2550000 -12.2940000 -17.6430000  25.8590000 -13.0280000 -16.0480000
  26.7484640 -13.0310161 -15.4179653  25.0739943 -12.4464038 -15.5646652
  25.5143848 -14.0517205 -16.1940751  30.8770000 -14.1670000 -16.3970000
  30.7080000 -15.0320000 -15.5280000  31.8300000 -13.2270000 -16.3350000
  31.8865590 -12.5217502 -17.0557796  32.8030000 -13.1850000 -15.2480000
  33.6062809 -12.5086850 -15.5402959  32.3027610 -12.7928857 -14.3625020
  33.3970000 -14.5460000 -14.9190000  33.3910000 -14.9680000 -13.7580000
  33.8640000 -15.2550000 -15.9520000  33.7834458 -14.8933090 -16.8915690
  34.4920000 -16.5460000 -15.7650000  35.3403517 -16.5798847 -16.4485571
  34.8533278 -16.5688616 -14.7368857  33.6140000 -17.7600000 -16.0070000
  33.8850000 -18.5490000 -16.9190000  32.5800000 -17.9350000 -15.1940000
  32.4288819 -17.2601092 -14.4579395  31.6720000 -19.0870000 -15.2800000
  32.2302299 -20.0079899 -15.4480955  30.8250000 -19.2260000 -13.9970000
  30.1322733 -18.3860211 -13.9453708  30.0440000 -20.5260000 -13.9910000
  30.7361211 -21.3665078 -14.0421443  29.4577243 -20.5940207 -13.0746187
  29.3760323 -20.5531455 -14.8519190  31.6920000 -19.1440000 -12.7340000
  31.3318622 -19.9091710 -12.0463119  32.7150973 -19.3751901 -13.0305172
  31.6580000 -17.7860000 -12.0450000  30.6352254 -17.5543126 -11.7477579
  32.2959491 -17.8101691 -11.1615205  32.0184586 -17.0203310 -12.7319646
  30.7490000 -18.9650000 -16.4970000  30.3110000 -17.8470000 -16.8400000
  30.4380000 -20.0710000 -17.1860000  31.1220000 -21.3650000 -17.1730000
  30.7463609 -21.9716696 -16.3490172  32.1945922 -21.2131787 -17.0521895
  30.7740000 -21.9350000 -18.5110000  30.7554983 -23.0224609 -18.4389889
  31.5319092 -21.6320704 -19.2334324  29.4730000 -21.4060000 -18.8730000
  28.7329896 -22.0967972 -18.4689173  29.3121356 -21.2880191 -19.9445889
  29.3540000 -20.0480000 -18.1740000  29.5018199 -19.2016183 -18.8447351
  28.0090000 -19.9150000 -17.4810000  27.8390000 -20.3450000 -16.3380000
  27.0420000 -19.3180000 -18.1940000  27.2844043 -18.9422452 -19.0996201
  25.6760000 -19.1390000 -17.7140000  25.5184896 -19.7592110 -16.8316010
  25.4040000 -17.6830000 -17.3420000  25.1778260 -17.1557580 -18.2688012
  24.5243132 -17.6790741 -16.6983886  26.5440000 -16.9940000 -16.6380000
  27.4406344 -17.1207504 -17.2446976  26.3028388 -15.9335829 -16.5641162
  26.7910000 -17.5570000 -15.2430000  25.9201206 -17.3628771 -14.6169135
  26.9554258 -18.6322806 -15.3125365  27.9650000 -16.9420000 -14.6180000
  28.8250621 -16.9924265 -15.1451146  27.9780000 -16.3240000 -13.4380000
  26.8810000 -16.2290000 -12.7030000  26.0164484 -16.6300104 -13.0374268
  26.9137042 -15.7559504 -11.8112298  29.1120000 -15.8070000 -12.9860000
  29.9543945 -15.8852969 -13.5376712  29.1283133 -15.3372133 -12.0920576
  24.6870000 -19.6040000 -18.7800000  25.0410000 -19.8320000 -19.9410000
  23.4260000 -19.7510000 -18.3900000  23.1543290 -19.5872695 -17.4311014
  22.4210000 -20.2420000 -19.3160000  22.7826442 -20.1451887 -20.3396895
  22.1040000 -21.7170000 -19.0460000  21.9039869 -21.8451620 -17.9822004
  20.8830000 -22.1660000 -19.8520000  21.0824483 -22.0385593 -20.9159920
  20.6763037 -23.2159778 -19.6448228  20.0193666 -21.5637110 -19.5700676
  23.2440000 -22.5120000 -19.4220000  23.0562247 -23.4388639 -19.2568814
  21.1750000 -19.3710000 -19.2380000  20.6350000 -19.1290000 -18.1460000
  20.7410000 -18.8950000 -20.4180000  21.2388699 -19.1919679 -21.2450641
  19.6230000 -17.9750000 -20.5780000  19.1361286 -17.8157694 -19.6158664
  20.1000000 -16.6510000 -21.0990000  20.5231350 -16.7781312 -22.0954405
  19.2838462 -15.9297149 -21.1407219  21.1500000 -16.0490000 -20.2710000
  22.4680000 -16.2270000 -20.5890000  22.7414364 -16.8175010 -21.4634376
  23.4480000 -15.6620000 -19.8070000  24.4974391 -15.7974842 -20.0685764
  23.1070000 -14.9300000 -18.7010000  23.8830567 -14.4873876 -18.0765561
  21.7820000 -14.7540000 -18.3790000  21.5017866 -14.1684063 -17.5034084
  20.8200000 -15.3140000 -19.1580000  19.7681957 -15.1832899 -18.9035939
  18.5850000 -18.5320000 -21.5400000  18.9300000 -19.1660000 -22.5440000
  17.3120000 -18.2950000 -21.2170000  17.0952664 -18.0275810 -20.2674670
  16.2120000 -18.4830000 -22.1480000  16.6105456 -18.5972782 -23.1560680
  15.3820000 -19.7340000 -21.8020000  14.3781104 -19.5780765 -22.1969591
  15.8437105 -20.5813917 -22.3088044  15.3000000 -20.0220000 -20.2930000
  16.3201151 -20.0416512 -19.9094900  14.7554162 -19.1972241 -19.8333531
  14.5950000 -21.3590000 -19.9530000  13.6514701 -21.4039175 -20.4969050
  15.2359751 -22.1816973 -20.2698902  14.3200000 -21.4750000 -18.4310000
  15.2738994 -21.3157412 -17.9281947  13.6353679 -20.6664693 -18.1747656
  13.7340000 -22.7860000 -17.9890000  14.3684377 -23.5352939 -18.2259538
  13.5897812 -22.7703678 -16.9894718  12.8498849 -22.9335649 -18.4544719
  15.3740000 -17.2100000 -22.1400000  15.3490000 -16.4640000 -21.1490000
  14.7040000 -16.9580000 -23.2610000  14.6295400 -17.6627632 -23.9806276
  14.1090000 -15.6530000 -23.5090000  14.2673814 -15.0045091 -22.6473306
  14.7460000 -15.0010000 -24.7340000  14.6202585 -15.6544365 -25.5973128
  14.2911222 -14.0326638 -24.9425936  16.2170000 -14.7610000 -24.5890000
  17.1270000 -15.6890000 -25.0630000  16.7581840 -16.5944519 -25.5449040
  18.4910000 -15.4800000 -24.9320000  19.1951348 -16.2147198 -25.3224891
  18.9560000 -14.3450000 -24.3090000  20.0285777 -14.1835249 -24.2012838
  18.0660000 -13.4120000 -23.8210000  18.4338185 -12.5128617 -23.3266721
  16.6970000 -13.6190000 -23.9600000  15.9924504 -12.8823066 -23.5740045
  12.6080000 -15.7810000 -23.6960000  12.1250000 -16.7720000 -24.2600000
  11.8730000 -14.7800000 -23.2050000  12.2964164 -14.1312282 -22.5569930
  10.4580000 -14.6130000 -23.5270000  10.2072373 -15.4052619 -24.2323640
   9.5440000 -14.7180000 -22.2910000   9.5338074 -13.7648563 -21.7623096
   8.1520000 -15.0600000 -22.7310000   8.1613161 -16.0133141 -23.2593996
   7.5027680 -15.1350233 -21.8586640   7.7785571 -14.2806357 -23.3952521
   9.9990000 -15.8250000 -21.3440000  10.0587374 -16.7510872 -21.9157471
  10.9900727 -15.5625488 -20.9738733   9.0610000 -16.0140000 -20.1780000
   8.0697671 -16.2769447 -20.5473472   9.4333265 -16.8134218 -19.5373777
   9.0011007 -15.0884049 -19.6054744  10.2980000 -13.2610000 -24.2000000
  10.7630000 -12.2390000 -23.6720000   9.6420000 -13.2610000 -25.3570000
   9.2814357 -14.1369000 -25.7075595   9.4780000 -12.0670000 -26.1790000
  10.1222717 -11.2702984 -25.8071403   9.8540000 -12.3620000 -27.6240000
   9.2273327 -13.1711717 -27.9990048   9.7300845 -11.4837037 -28.2575145
  11.2620000 -12.8060000 -27.7840000  12.3170000 -11.9530000 -27.4350000
  12.0880463 -10.9655542 -27.0342121  13.6390000 -12.3490000 -27.5930000
  14.4535827 -11.6789271 -27.3181217  13.9190000 -13.6080000 -28.1050000
  14.9507185 -13.9381638 -28.2260322  12.8570000 -14.4630000 -28.4700000
  13.0750239 -15.4487220 -28.8809962  11.5490000 -14.0570000 -28.3090000
  10.7331574 -14.7208284 -28.5950639   8.0490000 -11.5250000 -26.0930000
   7.0950000 -12.1710000 -26.5430000   7.9170000 -10.3220000 -25.5570000
   8.7428145  -9.8521937 -25.2143458   6.6340000  -9.6850000 -25.3590000
   5.8248855 -10.3513847 -25.6579388   6.4710000  -9.3540000 -23.8830000
   7.3710082  -8.8503157 -23.5303151   5.6132598  -8.6927950 -23.7597540
   6.2530000 -10.6170000 -23.0800000   5.4458472 -11.1648464 -23.5662813
   7.1746246 -11.1953544 -23.1449329   5.9000000 -10.3870000 -21.6150000
   5.2827879 -11.2284375 -21.3001492   6.8361510 -10.3948033 -21.0567349
   5.1850000  -9.1420000 -21.3160000   5.7490197  -8.3320053 -21.1017811
   3.8590000  -9.0160000 -21.2980000   3.0910000 -10.0660000 -21.6040000
   3.5197196 -10.9476798 -21.8467761   2.0853675  -9.9730689 -21.5910899
   3.3050000  -7.8340000 -20.9850000   3.8961072  -7.0452868 -20.7644918
   2.2995917  -7.7387695 -20.9714333   6.5720000  -8.4670000 -26.2820000
   7.1560000  -7.4210000 -25.9890000   5.8990000  -8.6260000 -27.4260000
   5.5531379  -9.5398649 -27.6815969   5.6440000  -7.5180000 -28.3260000
   6.5544274  -6.9228265 -28.3966374   5.4011614  -7.9273699 -29.3065840
   4.5040000  -6.6250000 -27.8670000   3.3430000  -6.8180000 -28.2340000
   4.8360000  -5.6400000 -27.0510000   5.7996409  -5.5411959 -26.7651095
   3.8610000  -4.7190000 -26.5070000   2.8750302  -4.9317912 -26.9201375
   3.7950000  -4.8650000 -24.9790000   2.8712539  -4.4160814 -24.6139445
   3.8280000  -6.3370000 -24.5980000   4.7517343  -6.7865227 -24.9623404
   3.7808895  -6.4332254 -23.5132787   2.9750610  -6.8477311 -25.0449332
   4.9170000  -4.1980000 -24.3830000   4.8740281  -4.2903082 -23.4284148
   4.1390000  -3.2650000 -26.8490000   3.3470000  -2.4010000 -26.4940000
   5.2200000  -2.9540000 -27.5140000   5.8791830  -3.6390954 -27.8549126
   5.4860000  -1.5590000 -27.7750000   4.9494004  -0.9281401 -27.0663563
   6.5543551  -1.3539638 -27.7066121   5.0160000  -1.2420000 -29.1640000
   5.8210000  -0.9410000 -30.0520000   3.7010000  -1.3550000 -29.3580000
   3.1302924  -1.7226670 -28.6101944   3.0560000  -1.0140000 -30.6110000
   3.7657971  -0.5086911 -31.2659429   2.5670000  -2.2400000 -31.2960000
   1.9108733  -2.7056901 -30.5606567   1.9838474  -1.9485274 -32.1695426
   3.6310000  -3.2180000 -31.7080000   3.9550000  -3.3670000 -33.0390000
   3.4503346  -2.7372363 -33.7716732   4.8970000  -4.2900000 -33.4530000
   5.1473162  -4.3755627 -34.5104132   5.5290000  -5.0930000 -32.5280000
   6.4450000  -6.0080000 -32.9780000   6.5539923  -5.9917877 -33.9316548
   5.2320000  -4.9820000 -31.1830000   5.7322446  -5.6068152 -30.4430934
   4.2730000  -4.0500000 -30.7770000   4.0125120  -3.9602042 -29.7223992
   1.9030000  -0.0550000 -30.3580000   1.2830000  -0.0810000 -29.2970000
   1.6630000   0.8340000 -31.3250000   2.4106936   1.0934407 -31.9524903
   0.4070000   1.5710000 -31.4040000  -0.0447686   1.6250196 -30.4135020
   0.6410000   3.0550000 -31.9390000  -0.2823469   3.6265678 -31.8449793
   1.3947103   3.4706848 -31.2702497   1.1690000   3.1350000 -33.4580000
   0.5770000   2.3150000 -34.1670000   2.0160000   3.9350000 -33.9480000
  -0.5820000   0.6880000 -32.2250000  -0.1710000  -0.1690000 -33.0200000
  -1.8930000   0.8790000 -31.9820000  -2.1822600   1.6227443 -31.3629100
  -2.9230000   0.0000000 -32.5400000  -2.8114840  -1.0073543 -32.1388757
  -4.3190000   0.5240000 -32.1700000  -4.3191011   0.6123602 -31.0835877
  -4.3854023   1.5169083 -32.6147741  -5.5650000  -0.3460000 -32.6300000
  -5.5496960  -0.4059674 -33.7182419  -5.4396926  -1.3439320 -32.2098465
  -6.9190000   0.2430000 -32.1650000  -6.9350000   1.3260000 -31.5290000
  -7.9760000  -0.3820000 -32.4450000  -2.7880000  -0.1280000 -34.0430000
  -2.9090000  -1.2320000 -34.5880000  -2.5390000   0.9920000 -34.7290000
  -2.3945727   1.8783110 -34.2667307  -2.5060000   0.9590000 -36.1860000
  -3.5039089   0.7242046 -36.5563351  -2.0640000   2.2910000 -36.7860000
  -2.7618727   3.0721697 -36.4845918  -1.0657685   2.5367614 -36.4237359
  -2.0410000   2.1870000 -38.3420000  -1.4256615   1.3198185 -38.5816990
  -3.0691255   1.9990137 -38.6513885  -1.4960000   3.4290000 -39.0900000
  -2.3187904   4.1268428 -39.2453396  -0.7338893   3.8991998 -38.4685509
  -0.8790000   3.0430000 -40.4620000  -1.6855818   2.7140960 -41.1172469
  -0.4072362   3.9301526 -40.8844906   0.1580000   1.9280000 -40.3320000
  -0.2790431   1.1057127 -39.9409288   0.5326536   1.7087062 -41.2439457
   0.9056976   2.2327253 -39.7252135  -1.5750000  -0.1200000 -36.6810000
  -1.9340000  -0.8710000 -37.5950000  -0.3650000  -0.2000000 -36.0900000
  -0.0925929   0.4742074 -35.3890449   0.6020000  -1.2240000 -36.4790000
   0.6864815  -1.2531020 -37.5653310   1.9750000  -0.9260000 -35.8920000
   2.1382211   0.1499423 -35.9536958   1.9187837  -1.2250090 -34.8453227
   3.1370000  -1.6580000 -36.5700000   2.9277891  -2.7277259 -36.5657377
   3.3130000  -1.1910000 -37.9780000   3.5227157  -0.1213773 -37.9830466
   4.1441750  -1.7258615 -38.4375346   2.4007124  -1.3845210 -38.5422529
   4.3490000  -1.3280000 -35.7980000   4.2266682  -1.6628102 -34.7679337
   5.2102972  -1.8272179 -36.2419030   4.5073264  -0.2496596 -35.8126202
   0.1470000  -2.6080000 -36.0400000   0.1550000  -3.5540000 -36.8410000
  -0.2430000  -2.7560000 -34.7690000  -0.1261368  -2.0321306 -34.0744099
  -0.7920000  -4.0390000 -34.3450000   0.0092519  -4.7741458 -34.2697988
  -1.4850000  -3.9280000 -32.9810000  -2.2876395  -3.1919876 -33.0274198
  -2.0590000  -5.2740000 -32.6330000  -1.2568424  -6.0104980 -32.5859381
  -2.5572624  -5.2178785 -31.6651749  -2.7794594  -5.5704452 -33.3953386
  -0.4960000  -3.5070000 -31.9610000  -0.0781343  -2.5388956 -32.2371598
  -0.9857267  -3.4272691 -30.9904793   0.3043950  -4.2447122 -31.9039966
  -1.7510000  -4.5660000 -35.3990000  -1.6380000  -5.7110000 -35.8570000
  -2.6620000  -3.7120000 -35.8550000  -2.7452815  -2.7645241 -35.5152162
  -3.6390000  -4.1860000 -36.8190000  -4.1341113  -5.0815708 -36.4436110
  -4.6930000  -3.1090000 -37.0550000  -4.1890892  -2.2272348 -37.4508072
  -5.3986693  -3.4864178 -37.7950585  -5.4580000  -2.7290000 -35.7570000
  -5.7795970  -3.6503518 -35.2714209  -4.7694550  -2.1949839 -35.1021453
  -6.6770000  -1.8500000 -36.0400000  -6.7550016  -1.1070632 -35.2462370
  -6.5218597  -1.3465152 -36.9942190  -7.9220000  -2.5950000 -36.1040000
  -8.1826293  -3.0616675 -36.9609674  -8.7370000  -2.6860000 -35.0600000
  -9.8760000  -3.3610000 -35.1040000 -10.1491820  -3.8295813 -35.9559995
 -10.4659665  -3.4039402 -34.2853454  -8.3990000  -2.0830000 -33.9330000
  -7.5332226  -1.5655121 -33.8806939  -9.0081301  -2.1426272 -33.1295674
  -2.9490000  -4.6080000 -38.1130000  -3.2970000  -5.6350000 -38.7170000
  -1.8790000  -3.8980000 -38.4810000  -1.5142440  -3.1614088 -37.8940709
  -1.2600000  -4.1150000 -39.7820000  -2.0243232  -4.2792798 -40.5415534
  -0.4470000  -2.8900000 -40.1680000  -0.8123772  -2.0379577 -39.5947438
   0.5974218  -3.0751447 -39.9169929  -0.5640000  -2.5920000 -41.6390000
  -0.9792388  -3.4713543 -42.1313551  -1.2195724  -1.7378286 -41.8084561
   0.7930000  -2.2990000 -42.2020000   1.0490000  -2.6060000 -43.4070000
   1.6230000  -1.7780000 -41.4040000  -0.4080000  -5.3780000 -39.7730000
  -0.4650000  -6.1660000 -40.7360000   0.3350000  -5.6230000 -38.6680000
   0.3845261  -4.9418714 -37.9238829   1.1710000  -6.8270000 -38.5670000
   1.5625543  -7.1423325 -39.5341348   2.3550000  -6.6100000 -37.6030000
   3.1047317  -7.3806459 -37.7821828   2.9560000  -5.2810000 -37.8170000
   2.2069418  -4.5097630 -37.6375391   3.7901007  -5.1437874 -37.1288509
   3.3159621  -5.2054022 -38.8430672   1.9920000  -6.7750000 -36.1270000
   1.6177786  -7.7841884 -35.9549557   2.8771860  -6.6067989 -35.5136047
   1.2218713  -6.0518137 -35.8586640   0.3660000  -8.0740000 -38.1630000
   0.8910000  -9.1960000 -38.3020000  -0.8820000  -7.9200000 -37.6850000
  -1.2624834  -6.9919903 -37.5661311  -1.6890000  -9.0600000 -37.2550000
  -1.0810838  -9.9647075 -37.2485708  -2.2300000  -8.8220000 -35.8370000
  -2.7060708  -7.8414767 -35.8315255  -2.9786261  -9.5898900 -35.6420540
  -1.1550000  -8.8720000 -34.7520000  -0.2322075  -8.4958604 -35.1936718
  -1.4797411  -8.1969441 -33.9602034  -0.9050000 -10.2880000 -34.1560000
  -1.1340000 -11.3300000 -34.8360000  -0.4610000 -10.3490000 -32.9800000
  -2.8340000  -9.3610000 -38.2110000  -3.6870000 -10.1920000 -37.8820000
  -2.8560000  -8.7330000 -39.3840000  -2.1628591  -8.0299870 -39.5971381
  -3.8600000  -9.0310000 -40.3820000  -3.5856266  -8.5017703 -41.2945428
  -3.8354992 -10.1053606 -40.5643411  -5.2500000  -8.6350000 -39.9880000
  -6.2170000  -9.1670000 -40.5320000  -5.3850000  -7.7600000 -39.0030000
  -4.5665601  -7.4754043 -38.4840966  -6.6700000  -7.2200000 -38.6090000
  -7.4369408  -7.9924312 -38.6660179  -6.5940000  -6.7120000 -37.1680000
  -5.7937176  -5.9721379 -37.1838531  -7.5322946  -6.2258708 -36.9008266
  -6.2670000  -7.7970000 -36.1320000  -5.2415550  -8.1233330 -36.3054074
  -6.4070000  -7.3130000 -34.7080000  -7.4323682  -6.9869099 -34.5336895
  -6.1627585  -8.1243145 -34.0222773  -5.7270427  -6.4780173 -34.5389962
  -7.1190000  -9.0230000 -36.3190000  -6.9481555  -9.4366787 -37.3128720
  -6.8566677  -9.7666326 -35.5664752  -8.1702645  -8.7550964 -36.2133136
  -7.0650000  -6.0950000 -39.5630000  -6.2050000  -5.4380000 -40.1550000
  -8.3750000  -5.8820000 -39.7330000  -9.0606816  -6.5380311 -39.3872208
  -8.8460000  -4.7200000 -40.4920000  -8.4266116  -4.7375643 -41.4979344
 -10.3850000  -4.7430000 -40.5990000 -10.7895498  -4.7247459 -39.5870190
 -10.6954397  -3.8431994 -41.1301178 -10.9150000  -5.9870000 -41.3420000
 -10.4507569  -5.9875814 -42.3281941 -10.5675958  -6.8519430 -40.7769486
 -12.4300000  -6.0550000 -41.4940000 -12.9000000  -6.8150000 -42.3820000
 -13.1360000  -5.3630000 -40.7310000  -8.3480000  -3.4280000 -39.8300000
  -7.9030000  -3.4260000 -38.6710000  -8.4120000  -2.3130000 -40.5790000
  -8.7698773  -2.3610506 -41.5222467  -7.9280000  -1.0180000 -40.0830000
  -6.8985732  -1.1202440 -39.7395968  -7.9680000   0.0150000 -41.1970000
  -8.9938979   0.1351425 -41.5451369  -7.5980782   0.9692065 -40.8218359
  -7.3407544  -0.3174108 -42.0241428  -8.7590000  -0.5500000 -38.9000000
  -9.7110000  -1.2530000 -38.5310000  -8.4730000   0.6470000 -38.3390000
  -7.8052456   1.2735837 -38.7651412  -9.0900000   1.0470000 -37.0590000
  -9.1145555   0.1913019 -36.3842578  -8.3040000   2.1630000 -36.3980000
  -7.9106930   2.8124703 -37.1800468  -8.9851330   2.7303219 -35.7637258
  -7.2120000   1.6560000 -35.5990000  -6.7405416   2.3902555 -35.1987555
 -10.5420000   1.5040000 -37.1700000 -11.2550000   1.5160000 -36.1460000
 -11.0000000   1.9010000 -38.3700000 -10.3901731   2.0053025 -39.1683304
 -12.4140000   2.1930000 -38.5400000 -12.6693467   2.9209493 -37.7699435
 -12.5137240   2.6541770 -39.5225834 -13.3730000   1.0160000 -38.4460000
 -14.5920000   1.2280000 -38.3650000 -12.8670000  -0.2190000 -38.4110000
 -11.8811152  -0.3613572 -38.2440722 -13.7030000  -1.3920000 -38.6740000
 -14.2241706  -1.2773163 -39.6244357 -12.8260000  -2.6450000 -38.7450000
 -12.4019575  -2.7039883 -39.7474009 -12.0222101  -2.5362556 -38.0168541
 -13.5530000  -3.8260000 -38.4710000 -12.9657305  -4.5833895 -38.5264577
 -14.7870000  -1.5530000 -37.6120000 -14.6210000  -1.1720000 -36.4530000
 -15.9190000  -2.1200000 -38.0180000 -16.1524853  -2.2385390 -38.9934653
 -16.9150000  -2.4890000 -37.0190000 -17.3077055  -1.6855718 -36.3957948
 -18.0890000  -3.1920000 -37.7090000 -18.4673219  -2.5520186 -38.5061171
 -17.6320000  -4.5480000 -38.3080000 -17.2539532  -5.1887403 -37.5113612
 -18.4775763  -5.0343789 -38.7943506 -16.8428960  -4.3750410 -39.0397799
 -19.2900000  -3.2740000 -36.7450000 -19.5932593  -2.2679572 -36.4551486
 -20.1213424  -3.7747245 -37.2412303 -19.0054437  -3.8373547 -35.8563156
 -16.2850000  -3.3350000 -35.9140000 -16.7000000  -3.2570000 -34.7480000
 -15.2590000  -4.1210000 -36.2420000 -14.9636113  -4.2006497 -37.2045491
 -14.5500000  -4.9020000 -35.2340000 -15.2547421  -5.2410463 -34.4747336
 -13.8830000  -6.1150000 -35.8520000 -13.1346603  -5.7528721 -36.5569470
 -13.3900877  -6.6646309 -35.0501002 -14.8330000  -7.0140000 -36.5570000
 -14.8870000  -7.0520000 -37.9490000 -14.2221183  -6.4116759 -38.5286696
 -15.7820000  -7.9000000 -38.6010000 -15.8329390  -7.9215146 -39.6895973
 -16.6250000  -8.7190000 -37.8460000 -17.5250000  -9.5880000 -38.4370000
 -17.4993322  -9.5594600 -39.3962321 -16.5770000  -8.6920000 -36.4670000
 -17.2309223  -9.3389129 -35.8822010 -15.6960000  -7.8410000 -35.8280000
 -15.6650844  -7.8059339 -34.7390029 -13.5300000  -3.9800000 -34.6180000
 -12.4940000  -3.7040000 -35.2180000 -13.8220000  -3.4990000 -33.4080000
 -14.5778427  -3.8725683 -32.8518994 -13.1190000  -2.3220000 -32.9160000
 -12.6847857  -1.7491413 -33.7353839 -14.1070000  -1.4290000 -32.1300000
 -13.7240421  -0.4093090 -32.0890862 -15.4010000  -1.4350000 -32.8000000
 -15.7848369  -2.4543616 -32.8408878 -16.0994956  -0.8061701 -32.2479334
 -15.2879841  -1.0489645 -33.8130662 -14.2930000  -1.8600000 -30.6820000
 -15.0294322  -2.6619990 -30.6313437 -13.3430766  -2.2138539 -30.2813349
 -14.7750000  -0.6820000 -29.8680000 -15.7251775  -0.3278609 -30.2678101
 -14.9092372  -0.9873357 -28.8302863 -14.0388224   0.1202855 -29.9178033
 -11.8890000  -2.7010000 -32.1040000 -11.1010000  -1.8160000 -31.7230000
 -11.6570000  -3.9900000 -31.9000000 -12.1061828  -4.6891014 -32.4741011
 -10.7850000  -4.4350000 -30.8320000 -10.2586259  -3.5822275 -30.4032700
 -11.5980000  -5.1100000 -29.7310000 -11.9933979  -6.0567228 -30.0990714
 -12.4235868  -4.4611771 -29.4385358 -10.6120000  -5.4280000 -28.2770000
  -9.7440000  -5.4020000 -31.3840000 -10.0330000  -6.1970000 -32.2840000
  -8.5190000  -5.2750000 -30.8800000  -8.3274811  -4.5142463 -30.2438603
  -7.4400000  -6.1910000 -31.2020000  -7.6058454  -6.6240375 -32.1884446
  -6.1170000  -5.4660000 -31.2100000  -5.3090539  -6.1971421 -31.1825300
  -5.9900000  -4.6180000 -32.4650000  -6.7973931  -3.8862654 -32.4929385
  -5.0309640  -4.1000151 -32.4586152  -6.0504403  -5.2587311 -33.3447222
  -6.0620000  -4.6260000 -30.0510000  -5.2259003  -4.1544705 -30.0369465
  -7.3460000  -7.3100000 -30.1910000  -6.6080000  -8.2700000 -30.4140000
  -8.0950000  -7.2010000 -29.0940000  -8.6150605  -6.3420137 -28.9854691
  -8.1620000  -8.1880000 -28.0260000  -7.3383317  -8.8951026 -28.1243654
  -8.0610000  -7.5080000 -26.6630000  -8.9277048  -6.8474213 -26.6393804
  -8.1476993  -8.2488410 -25.8681806  -6.7790000  -6.6800000 -26.4550000
  -5.9505063  -7.1801988 -26.9564979  -6.9460000  -5.2760000 -27.0270000
  -7.7740731  -4.7749731 -26.5256360  -6.0293093  -4.7076280 -26.8697353
  -7.1541353  -5.3406001 -28.0949920  -6.3520000  -6.6070000 -24.9960000
  -6.1617529  -7.6129219 -24.6217987  -5.4433358  -6.0108367 -24.9122146
  -7.1446654  -6.1448860 -24.4075859  -9.4240000  -9.0470000 -28.0750000
  -9.3470000 -10.2480000 -27.8070000 -10.5950000  -8.5000000 -28.3630000
 -10.7018999  -7.5122897 -28.5449363 -11.7940000  -9.3370000 -28.3540000
 -11.5196023 -10.3851615 -28.2349903 -12.6960000  -8.9340000 -27.1910000
 -12.1489057  -9.0363379 -26.2538155 -13.5740460  -9.5795470 -27.1708948
 -13.1640000  -7.2570000 -27.4600000 -12.5180000  -9.2170000 -29.6970000
 -12.1170000  -8.4550000 -30.5850000 -13.5590000 -10.0350000 -29.8700000
 -13.8635307 -10.6100664 -29.0975630 -14.2520000 -10.1730000 -31.1550000
 -13.5566795  -9.9442760 -31.9626595 -14.7950000 -11.6010000 -31.3620000
 -15.2193941 -11.9327611 -30.4144118 -15.5818918 -11.5521857 -32.1146743
 -13.7190000 -12.5910000 -31.8130000 -12.5470000 -12.1910000 -31.8850000
 -14.0180000 -13.7720000 -32.1030000 -15.4030000  -9.1920000 -31.2990000
 -16.0910000  -9.2040000 -32.3350000 -15.6170000  -8.3400000 -30.2950000
 -14.9634105  -8.2417897 -29.5312757 -16.8530000  -7.5760000 -30.2470000
 -17.7098930  -8.2340604 -30.3911878 -17.0100000  -6.8550000 -28.9050000
 -16.6441511  -7.5111667 -28.1152531 -16.2310000  -5.5490000 -28.8800000
 -16.5966271  -4.8920863 -29.6692280 -16.3649107  -5.0639154 -27.9131184
 -15.1723686  -5.7536748 -29.0397131 -18.4050000  -6.5830000 -28.6650000
 -18.5027639  -6.1310689 -27.8236910 -16.9320000  -6.5700000 -31.3930000
 -15.9390000  -6.2250000 -32.0440000 -18.1540000  -6.1290000 -31.6590000
 -18.9294081  -6.5734339 -31.1885532 -18.4420000  -5.0750000 -32.6170000
 -17.6389148  -4.9825851 -33.3481722 -19.7690000  -5.3090000 -33.3690000
 -19.9603731  -4.4700965 -34.0381170 -19.6750000  -6.5800000 -34.1720000
 -19.4840855  -7.4194732 -33.5034673 -20.6124585  -6.7450340 -34.7030692
 -18.8603383  -6.4965023 -34.8913434 -20.9070000  -5.3680000 -32.4700000
 -21.7085674  -5.5142471 -32.9776434 -18.4940000  -3.7360000 -31.8990000
 -18.4800000  -3.6550000 -30.6630000 -18.4800000  -2.6720000 -32.6990000
 -18.3321868  -2.7485684 -33.6951867 -18.6390000  -1.3460000 -32.1260000
 -17.8680660  -1.1734040 -31.3750203 -18.5130000  -0.2750000 -33.2110000
 -17.7080180  -0.5855277 -33.8770899 -19.4541626  -0.2621668 -33.7606802
 -18.2190000   1.1200000 -32.6760000 -19.1225001   1.5154194 -32.2118536
 -17.4282575   1.0499002 -31.9290634 -17.7710000   2.0610000 -33.8110000
 -18.5979523   2.1304923 -34.5176963 -17.5905694   3.0396643 -33.3662974
 -16.5710000   1.6470000 -34.5340000 -16.6688058   1.3245963 -35.4861498
 -15.3520000   1.6980000 -34.0030000 -15.2060000   2.1210000 -32.7420000
 -16.0177361   2.3961694 -32.2077094 -14.2847257   2.1631945 -32.3302076
 -14.2770000   1.3120000 -34.6970000 -14.3847770   0.9742216 -35.6427219
 -13.3617617   1.3598413 -34.2725607 -19.9820000  -1.2300000 -31.4340000
 -20.0810000  -0.7310000 -30.2970000 -21.0400000  -1.6770000 -32.1150000
 -20.9476313  -2.0446108 -33.0511782 -22.3730000  -1.6010000 -31.5310000
 -22.6477117  -0.5678027 -31.3185474 -23.3570000  -2.1670000 -32.5310000
 -23.1596704  -1.5940390 -33.4370220 -22.9354835  -3.1668064 -32.6349762
 -24.8240000  -2.2680000 -32.3190000 -25.0592105  -3.1228119 -31.6849074
 -25.2670000  -1.0180000 -31.6490000 -25.0325275  -0.1627266 -32.2827419
 -26.3426902  -1.0585541 -31.4776909 -24.7512300  -0.9144098 -30.6943531
 -25.2520000  -2.3220000 -33.7520000 -24.8019293  -3.1900478 -34.2336937
 -26.3379137  -2.4002020 -33.8046985 -24.9283352  -1.4151375 -34.2628234
 -22.4300000  -2.3590000 -30.2170000 -22.9260000  -1.8540000 -29.2030000
 -21.8950000  -3.5730000 -30.2220000 -21.4840719  -3.9411762 -31.0679809
 -21.9360000  -4.4280000 -29.0470000 -22.9561305  -4.5477568 -28.6821832
 -21.4010000  -5.7930000 -29.4510000 -21.9829614  -6.0941544 -30.3220489
 -20.3643317  -5.6302822 -29.7458588 -21.4610000  -6.8680000 -28.4170000
 -20.8913555  -6.5683389 -27.5373357 -22.5028970  -7.0255411 -28.1381979
 -20.8850000  -8.1610000 -28.9780000 -20.8690000  -8.2960000 -30.2420000
 -20.4410000  -9.0240000 -28.1690000 -21.1380000  -3.8240000 -27.8960000
 -21.5200000  -3.9510000 -26.7240000 -20.0180000  -3.1690000 -28.2080000
 -19.6647929  -3.1291731 -29.1533877 -19.2500000  -2.5270000 -27.1600000
 -19.1325987  -3.2229705 -26.3293731 -17.8670000  -2.1560000 -27.6840000
 -17.9677029  -1.4523933 -28.5103756 -17.2863429  -1.6959123 -26.8844646
 -17.3568903  -3.0541017 -28.0322826 -19.9420000  -1.2910000 -26.6320000
 -19.7130000  -0.9040000 -25.4860000 -20.7830000  -0.6580000 -27.4300000
 -20.9435001  -0.9233654 -28.3912077 -21.4350000   0.5390000 -26.9280000
 -20.7369192   1.1131647 -26.3188060 -21.9080000   1.4200000 -28.0950000
 -22.1274394   2.4107647 -27.6970918 -21.0904212   1.4900733 -28.8124640
 -23.0570000   0.9060000 -28.7390000 -23.3099704   1.4908818 -29.4569966
 -22.5910000   0.2310000 -25.9820000 -23.1570000   1.1790000 -25.4230000
 -22.8990000  -1.0610000 -25.7540000 -22.3486806  -1.7454117 -26.2528271
 -23.9810000  -1.5370000 -24.8880000 -24.5364451  -0.6947152 -24.4755242
 -24.9400000  -2.4000000 -25.7080000 -24.3989113  -3.3091518 -25.9702315
 -25.7750464  -2.6506879 -25.0538187 -25.4650000  -1.7450000 -26.9670000
 -26.2685878  -1.0543833 -26.7112735 -24.6561097  -1.1973468 -27.4506057
 -26.0040000  -2.7770000 -27.9430000 -25.6270000  -3.9590000 -27.8750000
 -26.8880000  -2.3490000 -28.8520000 -27.2738845  -2.9990637 -29.5217849
 -27.1652495  -1.3778730 -28.8641004 -23.4770000  -2.3350000 -23.6860000
 -23.7110000  -1.9410000 -22.5340000 -22.8140000  -3.4780000 -23.9170000
 -22.7946547  -3.8949559 -24.8367135 -22.1490000  -4.1840000 -22.8210000
 -22.8528263  -4.3383852 -22.0031413 -21.6350000  -5.5480000 -23.2880000
 -22.4227682  -6.0803390 -23.8210438 -20.7982865  -5.3675416 -23.9628669
 -21.1490000  -6.4250000 -22.1290000 -21.3020000  -6.0820000 -20.9450000
 -20.5870000  -7.5850000 -22.4730000 -20.2456402  -8.2094288 -21.7562978
 -20.5054599  -7.8334637 -23.4485603 -20.9990000  -3.3550000 -22.2520000
 -20.8590000  -3.2380000 -21.0280000 -20.1530000  -2.7880000 -23.1290000
 -20.2269645  -3.0903235 -24.0898481 -19.0900000  -1.8300000 -22.7780000
 -18.6402696  -1.4537925 -23.6968632 -19.6150000  -0.6370000 -21.9640000
 -20.2928707  -1.3015765 -21.4283429 -18.7837005  -0.3654549 -21.3133815
 -20.3700000   0.6320000 -22.3860000 -20.5993910   1.1796649 -21.4719192
 -19.6460000   1.4970000 -23.2990000 -19.4166445   0.9501362 -24.2135681
 -20.2584516   2.3659312 -23.5397538 -18.7183294   1.8255618 -22.8304119
 -21.7700000   0.4210000 -22.8320000 -22.3465729  -0.0255011 -22.0218766
 -22.2123667   1.3783966 -23.1073264 -21.7805490  -0.2450547 -23.6947623
 -17.9100000  -2.4440000 -22.0110000 -16.7560000  -2.1180000 -22.3250000
 -18.1840000  -3.2820000 -20.9860000 -19.1379754  -3.5997117 -20.8906609
 -17.2090000  -3.6870000 -19.9630000 -16.1977569  -3.3630037 -20.2089939
 -17.5950000  -3.1000000 -18.5790000 -17.0798239  -3.6756086 -17.8099958
 -17.2130000  -1.6260000 -18.4530000 -17.7281840  -1.0496425 -19.2214390
 -17.5021267  -1.2580662 -17.4685555 -16.1357812  -1.5172454 -18.5789913
 -19.0860000  -3.2700000 -18.3210000 -19.3395920  -4.3299618 -18.3375570
 -19.3364893  -2.8522033 -17.3459099 -19.6507633  -2.7497034 -19.0945856
 -17.0260000  -5.2100000 -19.8500000 -15.9410000  -5.6840000 -19.4750000
 -18.0720000  -5.9940000 -20.1430000 -18.9245318  -5.5913579 -20.5051716
 -18.0520000  -7.4390000 -19.8460000 -17.2607116  -7.6588829 -19.1293317
 -19.3860000  -7.8770000 -19.2490000 -20.2227624  -7.6325330 -19.9033423
 -19.3657138  -8.9523981 -19.0723439 -19.6720000  -7.2310000 -17.9280000
 -18.8250000  -7.4600000 -16.8400000 -17.9681437  -8.1214858 -16.9678036
 -19.0620000  -6.8580000 -15.6070000 -18.3985253  -7.0461342 -14.7628984
 -20.1630000  -6.0050000 -15.4560000 -20.3571610  -5.5333461 -14.4927015
 -21.0170000  -5.7570000 -16.5450000 -21.8727004  -5.0909971 -16.4340173
 -20.7640000  -6.3690000 -17.7730000 -21.4194558  -6.1776189 -18.6226181
 -17.6860000  -8.2710000 -21.0780000 -18.4180000  -9.1630000 -21.5150000
 -16.5200000  -7.9610000 -21.6410000 -16.0578242  -7.0996484 -21.3869011
 -15.8880000  -8.8150000 -22.6270000 -16.5470190  -9.6596672 -22.8278244
 -15.6030000  -8.0970000 -23.9400000 -14.7150904  -7.4761880 -23.8203833
 -15.4402056  -8.8113552 -24.7470283 -16.7000000  -7.1910000 -24.3870000
 -17.0510000  -6.0500000 -23.6940000 -18.0390000  -5.4460000 -24.3270000
 -18.4665569  -4.5230323 -23.9353053 -18.3350000  -6.1490000 -25.4060000
 -19.0510511  -5.9226490 -26.0813783 -17.5120000  -7.2450000 -25.4690000
 -17.6045365  -7.9492299 -26.2958001 -14.5860000  -9.3090000 -22.0330000
 -14.1060000  -8.7860000 -21.0290000 -14.0110000 -10.3160000 -22.6610000
 -14.4385984 -10.7459282 -23.4687256 -12.7530000 -10.8530000 -22.1820000
 -12.2842355 -10.1372693 -21.5066567 -12.9680000 -12.1570000 -21.4340000
 -12.0192619 -12.5412552 -21.0593759 -13.6538970 -12.0082475 -20.6000228
 -13.5230000 -13.0800000 -22.3380000 -13.6702253 -13.9167323 -21.8910060
 -11.8310000 -11.0770000 -23.3690000 -12.2780000 -11.1210000 -24.5180000
 -10.5410000 -11.2560000 -23.0760000 -10.2451735 -11.3022469 -22.1114031
  -9.5190000 -11.3330000 -24.1190000  -9.7011331 -10.5256997 -24.8283609
  -8.1180000 -11.1780000 -23.5180000  -7.9103993 -12.0111803 -22.8465739
  -7.1200000 -11.1690000 -24.6190000  -7.3266867 -10.3357588 -25.2906326
  -6.1190032 -11.0590676 -24.2018418  -7.1812379 -12.1055617 -25.1732574
  -8.0350000  -9.8500000 -22.7630000  -8.2707993  -9.0682840 -23.4850939
  -8.8090737  -9.8810992 -21.9962260  -6.6710000  -9.5480000 -22.1050000
  -5.8964451  -9.5162812 -22.8712627  -6.7176853  -8.5851532 -21.5962311
  -6.4347184 -10.3290982 -21.3823960  -9.6280000 -12.6530000 -24.8780000
  -9.5190000 -13.7380000 -24.2960000  -9.7500000 -12.5560000 -26.1980000
  -9.6583067 -11.6345397 -26.6012402 -10.0280000 -13.6770000 -27.0900000
 -10.0629051 -14.6229503 -26.5495753 -11.3780000 -13.4620000 -27.7910000
 -11.4604530 -12.4027973 -28.0347035 -11.5280000 -14.3010000 -29.0820000
 -11.4461158 -15.3604105 -28.8390103 -12.5016600 -14.1060724 -29.5315426
 -10.7420631 -14.0285229 -29.7863863 -12.4210000 -13.7940000 -26.8780000
 -13.2718388 -13.6641734 -27.3032279  -8.9570000 -13.8580000 -28.1470000
  -8.5010000 -14.9830000 -28.3750000  -8.5630000 -12.7880000 -28.8230000
  -8.9040501 -11.8680389 -28.5833008  -7.6990000 -12.9210000 -29.9800000
  -8.0210331 -13.7659828 -30.5886033  -7.7580000 -11.6440000 -30.8400000
  -7.1223212 -10.8959287 -30.3662902  -7.3586688 -11.8887160 -31.8242503
  -9.1850000 -11.0840000 -30.9900000  -9.7640454 -11.8759764 -31.4649533
  -9.5486528 -10.9278486 -29.9743842  -9.3410000  -9.7720000 -31.8020000
 -10.1698339  -9.1814255 -31.4116731  -8.4234227  -9.1856179 -31.7539650
  -9.6150000 -10.0970000 -33.1960000  -8.8904432 -10.6030669 -33.6848896
 -10.7330000  -9.7840000 -33.8590000 -11.7040000  -9.0890000 -33.2680000
 -11.5971416  -8.7937661 -32.3080426 -12.5424820  -8.8605713 -33.7826532
 -10.8830000 -10.1670000 -35.1330000 -10.1502146 -10.6915499 -35.5890405
 -11.7282639  -9.9296482 -35.6322912  -6.2670000 -13.2440000 -29.5440000
  -5.8630000 -13.0740000 -28.3820000  -5.5120000 -13.7580000 -30.5000000
  -5.9130698 -13.9319017 -31.4104947  -4.1270000 -14.1120000 -30.2820000
  -3.6433196 -13.3066239 -29.7292597  -3.9670000 -15.4160000 -29.4890000
  -2.9685161 -15.4464564 -29.0528790  -4.7114322 -15.4415927 -28.6932200
  -4.1470000 -16.5460000 -30.3460000  -4.0441890 -17.3533384 -29.8368492
  -3.5000000 -14.2410000 -31.6520000  -4.2050000 -14.4050000 -32.6570000
  -2.1680000 -14.1530000 -31.6790000  -1.6274364 -13.8842702 -30.8692627
  -1.4680000 -14.3850000 -32.9260000  -1.7614867 -13.6437986 -33.6693607
   0.0340000 -14.2710000 -32.6910000   0.3148739 -13.2908700 -32.3055725
   0.3331539 -15.0401994 -31.9790033   0.8410000 -14.4920000 -33.9200000
   0.7650000 -13.6500000 -35.0060000   1.5720000 -14.0920000 -35.9550000
   1.6606034 -13.5545670 -36.8991473   2.1600000 -15.1950000 -35.5270000
   2.8305609 -15.7499583 -36.0393174   1.7110000 -15.4740000 -34.2580000
   2.0725287 -16.3589161 -33.7342428  -1.8380000 -15.7430000 -33.5010000
  -2.1330000 -15.8640000 -34.7000000  -1.8380000 -16.7770000 -32.6510000
  -1.5768789 -16.6576151 -31.6826703  -2.1740000 -18.1120000 -33.1140000
  -1.4616487 -18.4343690 -33.8734294  -2.1180000 -19.0880000 -31.9500000
  -2.8325087 -18.7835712 -31.1852121  -2.3677890 -20.0888803 -32.3020574
  -1.1134899 -19.0924068 -31.5268696  -3.5500000 -18.1260000 -33.7470000
  -3.7300000 -18.6250000 -34.8670000  -4.5340000 -17.5600000 -33.0360000
  -4.3476502 -17.1297688 -32.1414195  -5.9120000 -17.6000000 -33.5100000
  -6.2009692 -18.6273389 -33.7317449  -6.8480000 -17.0510000 -32.4400000
  -6.9115368 -17.7747357 -31.6274306  -6.4349213 -16.1159766 -32.0615858
  -8.2450000 -16.7980000 -33.0070000  -8.1752770 -15.9827790 -33.7271765
  -8.5276702 -17.7152607 -33.5235555  -9.3000000 -16.4600000 -31.9570000
  -9.1840000 -15.4140000 -31.2530000 -10.2710000 -17.2470000 -31.8620000
  -6.0580000 -16.8150000 -34.8010000  -6.8190000 -17.2000000 -35.7030000
  -5.3070000 -15.7150000 -34.9060000  -4.7323888 -15.4111328 -34.1329631
  -5.3380000 -14.8940000 -36.1070000  -6.3656257 -14.6180695 -36.3435310
  -4.5300000 -13.6220000 -35.8920000  -3.5266435 -13.8894928 -35.5606052
  -4.4680275 -13.0807389 -36.8360847  -5.1500000 -12.7240000 -34.8650000
  -6.2520000 -12.9960000 -34.3980000  -4.4590000 -11.6460000 -34.4940000
  -4.8433298 -11.0163282 -33.8041421  -3.5543202 -11.4638979 -34.9044802
  -4.8120000 -15.6640000 -37.2940000  -5.3500000 -15.5540000 -38.4030000
  -3.7540000 -16.4490000 -37.0870000  -3.2251179 -16.4586441 -36.2265989
  -3.2860000 -17.2650000 -38.1910000  -3.1073658 -16.6411287 -39.0667703
  -1.9840000 -17.9570000 -37.8130000  -2.1649572 -18.3990417 -36.8332282
  -1.8043007 -18.7485079 -38.5405462  -0.7700000 -17.0510000 -37.7420000
  -1.0744284 -16.0539529 -37.4236900   0.2110000 -17.6170000 -36.7490000
   0.5162634 -18.6139214 -37.0669007   1.0864544 -16.9700327 -36.6931993
  -0.2588030 -17.6772182 -35.7672876  -0.1810000 -16.9700000 -39.1340000
  -0.9225460 -16.5598484 -39.8195543   0.6970317 -16.3242597 -39.1205497
   0.1072630 -17.9674801 -39.4657182  -4.3560000 -18.2620000 -38.6120000
  -4.6600000 -18.3780000 -39.8110000  -4.9730000 -18.9560000 -37.6360000
  -4.6577183 -18.8898534 -36.6787532  -6.0680000 -19.8850000 -37.9460000
  -5.6951630 -20.6945995 -38.5734077  -6.6500000 -20.4880000 -36.6630000
  -6.5203783 -19.7495091 -35.8718435  -7.7136970 -20.6507018 -36.8367149
  -5.9950000 -21.8050000 -36.2430000  -6.1432289 -22.5294692 -37.0437955
  -4.9283272 -21.6243789 -36.1100063  -6.5560000 -22.3870000 -34.9490000
  -7.5050000 -21.8540000 -34.3620000  -5.9650000 -23.4950000 -34.4990000
  -6.2917732 -23.9274901 -33.6467835  -5.1934624 -23.8963530 -35.0125629
  -7.1620000 -19.2040000 -38.7600000  -7.5720000 -19.7200000 -39.8050000
  -7.6230000 -18.0220000 -38.3170000  -7.2602228 -17.6035176 -37.4723909
  -8.7050000 -17.3330000 -39.0240000  -9.5707865 -17.9911382 -39.0972603
  -9.1190000 -16.0620000 -38.2830000  -8.3323010 -15.3275455 -38.4555701
 -10.0446583 -15.7172325 -38.7438602  -9.3320000 -16.2350000 -36.7840000
  -9.0715443 -17.2674414 -36.5509155  -8.6289221 -15.5633728 -36.2913536
 -10.7370000 -15.9450000 -36.2920000 -11.2594293 -15.3236494 -37.0193858
 -11.2793528 -16.8809946 -36.1583328 -10.7000000 -15.2350000 -35.0070000
  -9.8119826 -14.8499093 -34.7185046 -11.7590000 -15.0550000 -34.2160000
 -12.9250000 -15.5620000 -34.5680000 -13.0069063 -16.0808139 -35.4306839
 -13.7303434 -15.4289784 -33.9731665 -11.6640000 -14.3910000 -33.0700000
 -10.7737067 -14.0101828 -32.7828482 -12.4824706 -14.2698248 -32.4907581
  -8.3190000 -16.9760000 -40.4510000  -9.1350000 -17.1150000 -41.3660000
  -7.1010000 -16.4650000 -40.6610000  -6.4596530 -16.2582857 -39.9086420
  -6.7040000 -16.1210000 -42.0230000  -7.3824997 -15.3566825 -42.4018880
  -5.2650000 -15.5850000 -42.1050000  -5.2998526 -14.5718164 -41.7045709
  -4.5500565 -16.1766837 -41.5332779  -4.8330000 -15.5390000 -43.5650000
  -5.4550000 -14.6860000 -44.4580000  -6.2223385 -14.0106430 -44.0796033
  -5.1190000 -14.6750000 -45.8280000  -5.6319258 -13.9878952 -46.5009754
  -4.1520000 -15.5190000 -46.3150000  -3.8190000 -15.4990000 -47.6560000
  -4.3252117 -14.8565944 -48.1586573  -3.5250000 -16.3830000 -45.4510000
  -2.7540039 -17.0553331 -45.8273426  -3.8750000 -16.4040000 -44.0770000
  -3.3891870 -17.1081624 -43.4015438  -6.8640000 -17.3260000 -42.9330000
  -7.4930000 -17.2350000 -43.9970000  -6.3060000 -18.4700000 -42.5200000
  -5.7419803 -18.5326976 -41.6845061  -6.4460000 -19.6560000 -43.3470000
  -5.9804662 -19.4791607 -44.3165903  -5.7770000 -20.8640000 -42.6980000
  -4.8095762 -20.5491435 -42.3067766  -6.4077981 -21.2029371 -41.8762242
  -5.5750000 -22.0170000 -43.6990000  -4.8929593 -22.7487403 -43.2660134
  -6.5487604 -22.4795211 -43.8601336  -5.0170000 -21.5290000 -45.0330000
  -5.5990000 -21.8810000 -46.0850000  -4.0080000 -20.7750000 -45.0270000
  -7.9140000 -19.9330000 -43.6320000  -8.2800000 -20.2620000 -44.7700000
  -8.7810000 -19.7430000 -42.6260000  -8.4679622 -19.5230740 -41.6912598
 -10.2200000 -19.9110000 -42.8560000 -10.4548030 -20.8894651 -43.2750141
 -11.0250000 -19.7260000 -41.5580000 -10.7946315 -18.7582761 -41.1124216
 -12.5000000 -19.7890000 -41.8920000 -12.7312372 -20.7566795 -42.3372267
 -13.0850913 -19.6594170 -40.9815183 -12.7473483 -18.9963344 -42.5981174
 -10.6450000 -20.7450000 -40.5360000  -9.5844880 -20.6489358 -40.3032167
 -11.2309094 -20.5880727 -39.6303601 -10.8416646 -21.7432992 -40.9269253
 -10.7020000 -18.9290000 -43.9140000 -11.4220000 -19.2970000 -44.8510000
 -10.3460000 -17.6480000 -43.7470000  -9.8777686 -17.3414235 -42.9062446
 -10.6900000 -16.6490000 -44.7490000 -11.7735432 -16.5466181 -44.8085924
 -10.0860000 -15.2810000 -44.3840000 -10.4967066 -14.8225848 -43.4844030
  -9.0103021 -15.4115524 -44.2659740 -10.2800000 -14.2870000 -45.5020000
  -9.4660000 -14.1050000 -46.5920000  -8.5601640 -14.7099486 -46.6319764
 -10.0020000 -13.1470000 -47.4400000  -9.6031234 -12.8390991 -48.3153251
 -11.1780000 -12.6990000 -46.9010000 -12.0770000 -11.7530000 -47.3790000
 -11.8533250 -11.2530552 -48.3214030 -13.1940000 -11.5080000 -46.6300000
 -13.9193338 -10.7717829 -46.9763745 -13.4320000 -12.1810000 -45.4240000
 -14.3255203 -11.9741017 -44.8350059 -12.5430000 -13.1260000 -44.9450000
 -12.7690393 -13.6149730 -43.9974177 -11.3910000 -13.4020000 -45.6890000
 -10.2260000 -17.0920000 -46.1280000 -10.9700000 -16.9790000 -47.1110000
  -8.9930000 -17.5970000 -46.2190000  -8.4402991 -17.8086675 -45.4005760
  -8.4010000 -17.8200000 -47.5260000  -8.5514012 -16.9477342 -48.1621062
  -6.9090000 -18.0590000 -47.3750000  -6.4723571 -17.1499263 -46.9614456
  -6.7789208 -18.8782046 -46.6678344  -6.2240000 -18.4000000 -48.6670000
  -6.8735965 -19.0533598 -49.2494484  -6.0412062 -17.4805994 -49.2232292
  -4.9040000 -19.1030000 -48.4040000  -4.0649570 -18.4072857 -48.3946480
  -4.9192312 -19.6656125 -47.4705469  -4.7260000 -20.0280000 -49.4990000
  -4.1724000 -19.7194724 -50.2854077  -5.2550000 -21.2470000 -49.5350000
  -5.9650000 -21.7230000 -48.5100000  -6.1065969 -21.1517293 -47.6892076
  -6.3574429 -22.6523044 -48.5598158  -5.0560000 -21.9960000 -50.6070000
  -4.5101895 -21.6358146 -51.3767126  -5.4507874 -22.9246114 -50.6508455
  -9.0510000 -19.0010000 -48.2120000  -9.3880000 -18.9430000 -49.4060000
  -9.2700000 -20.0590000 -47.4390000  -9.1264803 -19.9504513 -46.4451597
  -9.6900000 -21.3540000 -47.9350000  -9.2769131 -21.5286704 -48.9284529
  -9.1890000 -22.4500000 -46.9990000  -9.1929729 -23.4058984 -47.5227764
  -8.1741916 -22.2173130 -46.6763225 -10.0440000 -22.5290000 -45.8590000
  -9.7290066 -23.2184874 -45.2699447 -11.1880000 -21.4650000 -48.0370000
 -11.6840000 -22.2650000 -48.8380000 -11.9030000 -20.7240000 -47.1940000
 -11.3921669 -20.2224462 -46.4815446 -13.3550000 -20.6220000 -47.2030000
 -13.6918531 -20.0441757 -46.3423327 -13.8280000 -19.9240000 -48.4740000
 -13.2309876 -19.0239985 -48.6212164 -13.6897423 -20.5939338 -49.3226304
 -15.2830000 -19.5310000 -48.4020000 -15.9400000 -19.6710000 -47.3540000
 -15.8060000 -19.0390000 -49.5190000 -16.7755819 -18.7567377 -49.5374071
 -15.2318080 -18.9493066 -50.3450505 -14.0020000 -21.9960000 -47.0970000
 -14.6820000 -22.4250000 -48.0410000 -13.8460000 -22.7070000 -45.9770000
 -13.3850000 -22.2980000 -44.6460000 -14.2137154 -21.8881280 -44.0686474
 -12.5977488 -21.5491126 -44.7326161 -12.8850000 -23.5850000 -44.0930000
 -12.9386550 -23.5460176 -43.0050200 -11.8483008 -23.7222316 -44.4004469
 -13.7360000 -24.6490000 -44.6330000 -14.5725270 -24.8196180 -43.9553488
 -13.1945077 -25.5829682 -44.7832970 -14.2550000 -24.1200000 -45.9820000
 -13.7640815 -24.6086573 -46.8236123 -15.7570000 -24.2910000 -46.1050000
 -16.2210000 -25.1580000 -46.8560000 -16.5280000 -23.4660000 -45.4070000
 -16.1194481 -22.7470628 -44.8270742 -17.9720000 -23.6190000 -45.3990000
 -18.2316887 -24.6755403 -45.4652093 -18.5640000 -23.0500000 -44.1080000
 -18.3104164 -21.9902481 -44.0811564 -19.6472452 -23.1628476 -44.1521061
 -18.0380000 -23.7250000 -42.8630000 -16.9820000 -23.1840000 -42.1480000
 -16.5355612 -22.2551333 -42.5029626 -16.4910000 -23.7970000 -41.0040000
 -15.6620526 -23.3534344 -40.4524589 -17.0590000 -24.9810000 -40.5660000
 -16.5870000 -25.6030000 -39.4330000 -15.8598224 -25.1306392 -39.0210684
 -18.1110000 -25.5480000 -41.2650000 -18.5636096 -26.4800891 -40.9266882
 -18.5900000 -24.9170000 -42.4090000 -19.4149615 -25.3570785 -42.9692405
 -18.6320000 -22.9720000 -46.5980000 -19.8350000 -22.7360000 -46.5470000
 -17.8680000 -22.6550000 -47.6480000 -16.8672019 -22.7504034 -47.5510425
 -18.3980000 -22.1030000 -48.9060000 -17.5855268 -21.6665738 -49.4869636
 -19.0600000 -23.1980000 -49.7390000 -19.9255707 -23.5883279 -49.2037144
 -19.3766792 -22.8105451 -50.7073455 -18.1680000 -24.3630000 -50.0160000
 -17.4560000 -24.4940000 -51.1900000 -16.7500000 -25.6110000 -51.1490000
 -16.1216540 -25.9008666 -51.9911743 -16.9710000 -26.2030000 -49.9870000
 -16.5579946 -27.0702409 -49.6748788 -17.8600000 -25.4470000 -49.2610000
 -18.1751076 -25.7772803 -48.2711903 -19.3810000 -20.9520000 -48.6870000
 -20.4070000 -20.8670000 -49.3570000 -19.0480000 -20.0420000 -47.7600000
 -18.1572315 -20.1548231 -47.2975048 -19.9090000 -18.9270000 -47.3490000
 -20.9506455 -19.2456097 -47.3885172 -19.5910000 -18.4580000 -45.9140000
 -18.5152284 -18.2862907 -45.8775225 -20.1143094 -17.5118066 -45.7762853
 -19.9940000 -19.4370000 -44.7900000 -21.0602798 -19.3233703 -44.5944584
 -19.8063247 -20.4224214 -45.2164058 -19.2050000 -19.2900000 -43.4590000
 -19.8910000 -19.0780000 -42.4160000 -17.9330000 -19.4410000 -43.4480000
 -19.7890000 -17.7280000 -48.2860000 -18.9070000 -17.6360000 -49.1460000
 -20.7050000 -16.7910000 -48.0980000 -21.4997182 -16.9611422 -47.4983552
 -20.6080000 -15.5070000 -48.7620000 -20.2393524 -15.6403715 -49.7790596
 -21.9810000 -14.8430000 -48.8240000 -21.9400389 -13.9659192 -49.4698721
 -22.7161523 -15.5468662 -49.2141584 -22.3540000 -14.4480000 -47.5140000
 -23.2170936 -14.0284747 -47.5398423 -19.6320000 -14.6180000 -48.0030000
 -19.2470000 -14.8960000 -46.8600000 -19.2560000 -13.5120000 -48.6450000
 -19.6820166 -13.2425063 -49.5202042 -18.1490000 -12.7040000 -48.1350000
 -17.2905294 -13.3371616 -47.9108710 -17.7370000 -11.6780000 -49.1960000
 -17.5273207 -12.1959963 -50.1318492 -18.8300000 -10.6940000 -49.4090000
 -19.0399428 -10.1752420 -48.4736310 -18.5256721  -9.9701142 -50.1649592
 -19.7272442 -11.2138538 -49.7448668 -16.5310000 -10.9680000 -48.7460000
 -15.7217915 -11.6830738 -48.5978341 -16.2363195 -10.2376097 -49.4995204
 -16.7393989 -10.4561229 -47.8065041 -18.5180000 -12.0320000 -46.8110000
 -17.6770000 -11.8890000 -45.9160000 -19.7790000 -11.6130000 -46.6590000
 -20.4307050 -11.6132999 -47.4306086 -20.2260000 -11.0780000 -45.3750000
 -19.5015649 -10.3543748 -45.0012896 -21.5750000 -10.3800000 -45.5350000
 -22.3448831 -11.1332491 -45.3676831 -21.6348507  -9.6206280 -44.7553384
 -21.7910000  -9.7240000 -46.9050000 -22.5425326  -8.9442221 -46.7815253
 -20.8387075  -9.2699650 -47.1790264 -22.2380000 -10.6990000 -48.0220000
 -22.7910000 -11.8040000 -47.7470000 -22.0420000 -10.3360000 -49.2080000
 -20.3090000 -12.1790000 -44.3320000 -20.0050000 -11.9430000 -43.1540000
 -20.7040000 -13.3900000 -44.7440000 -21.0357538 -13.5596949 -45.6827451
 -20.7110000 -14.4970000 -43.7990000 -21.2369382 -14.2050707 -42.8900085
 -21.4210000 -15.7120000 -44.4070000 -20.9330040 -15.8954243 -45.3642433
 -21.2204500 -16.5441589 -43.7321732 -22.9510000 -15.5800000 -44.6240000
 -23.3865996 -15.2847807 -43.6694324 -23.1478360 -14.8072433 -45.3671029
 -23.5810000 -16.9110000 -45.0870000 -24.2360000 -17.5980000 -44.2550000
 -23.3950000 -17.2820000 -46.2790000 -19.2830000 -14.8490000 -43.4010000
 -18.9800000 -15.0610000 -42.2150000 -18.3890000 -14.8850000 -44.3960000
 -18.6836126 -14.6531421 -45.3338404 -16.9910000 -15.2620000 -44.1810000
 -16.9248159 -16.2779617 -43.7917177 -16.2520000 -15.2010000 -45.5060000
 -16.8323720 -15.7990407 -46.2085773 -16.2381578 -14.1629364 -45.8381631
 -14.8500000 -15.7240000 -45.4450000 -14.2110400 -15.0319428 -44.8964676
 -14.8840000 -17.0440000 -44.7330000 -15.5224409 -17.7367767 -45.2812266
 -13.8746396 -17.4510177 -44.6727589 -15.2796597 -16.9046634 -43.7269488
 -14.3310000 -15.8620000 -46.8770000 -14.3469237 -14.8876075 -47.3652675
 -13.3095591 -16.2420361 -46.8587705 -14.9660985 -16.5548488 -47.4290049
 -16.3390000 -14.3300000 -43.1950000 -15.6870000 -14.7500000 -42.2290000
 -16.5420000 -13.0400000 -43.4310000 -17.0803556 -12.7509160 -44.2351785
 -15.9560000 -12.0170000 -42.5950000 -14.8714410 -12.1220170 -42.5666739
 -16.2960000 -10.6550000 -43.1670000 -15.8471853 -10.5775082 -44.1572826
 -17.3800311 -10.5804347 -43.2531200 -15.7920000  -9.5560000 -42.3090000
 -16.2085776  -9.6719328 -41.3084384 -14.7049902  -9.6193506 -42.2590154
 -16.1910000  -8.2160000 -42.8660000 -15.7731932  -8.0783569 -43.8632917
 -17.2766704  -8.1308316 -42.9125362 -15.6810000  -7.1740000 -42.0020000
 -14.8037916  -7.3696813 -41.5412250 -16.2640000  -6.0010000 -41.7830000
 -17.4170000  -5.6800000 -42.3560000 -17.8698516  -6.3369749 -42.9752006
 -17.8364400  -4.7801750 -42.1702996 -15.6820000  -5.1380000 -40.9640000
 -14.8082723  -5.3795444 -40.5186279 -16.1146021  -4.2423478 -40.7886111
 -16.4330000 -12.1430000 -41.1610000 -15.6270000 -12.0350000 -40.2290000
 -17.7410000 -12.3750000 -40.9590000 -18.3994060 -12.3256638 -41.7233080
 -18.2570000 -12.6300000 -39.6150000 -18.0250728 -11.7944452 -38.9545780
 -19.7810000 -12.7960000 -39.6790000 -20.1886275 -11.9713497 -40.2637144
 -19.9917362 -13.7383042 -40.1847203 -20.4240000 -12.8060000 -38.3000000
 -19.6870000 -12.4630000 -37.3390000 -21.6380000 -13.1410000 -38.1610000
 -17.5910000 -13.8590000 -38.9770000 -17.3450000 -13.8840000 -37.7590000
 -17.2660000 -14.8860000 -39.7770000 -17.4407341 -14.8840344 -40.7717681
 -16.6740000 -16.0770000 -39.1820000 -17.2725582 -16.3865510 -38.3252588
 -16.6150000 -17.2300000 -40.1770000 -17.6313880 -17.4590536 -40.4972955
 -16.0267014 -16.9109026 -41.0373381 -15.9790000 -18.4830000 -39.5590000
 -14.9698886 -18.2420780 -39.2247073 -16.5774243 -18.8020250 -38.7056458
 -15.9200000 -19.5840000 -40.5640000 -15.3614325 -19.2466567 -41.4370984
 -15.4202775 -20.4475097 -40.1249921 -17.2560000 -19.9840000 -40.9900000
 -17.6053801 -19.6261140 -41.8674682 -18.0390000 -20.7840000 -40.2750000
 -17.6180000 -21.2510000 -39.1020000 -16.7031516 -20.9951100 -38.7589654
 -18.2152867 -21.8591495 -38.5602413 -19.2310000 -21.1260000 -40.7370000
 -19.5412696 -20.7770345 -41.6325758 -19.8249739 -21.7344023 -40.1918942
 -15.2810000 -15.7780000 -38.6750000 -14.9200000 -16.1910000 -37.5600000
 -14.4830000 -15.0570000 -39.4750000 -14.7962527 -14.7483291 -40.3842273
 -13.1080000 -14.7810000 -39.0890000 -12.7023588 -15.5559266 -38.4385823
 -12.2040000 -14.6620000 -40.3400000 -11.1631393 -14.5981625 -40.0227730
 -12.3860000 -15.8750000 -41.2400000 -13.4265920 -15.9392456 -41.5580280
 -11.7443111 -15.7778650 -42.1157286 -12.1176813 -16.7782080 -40.6919836
 -12.4760000 -13.3930000 -41.1230000 -12.2908793 -12.5267840 -40.4877818
 -11.8184125 -13.3532724 -41.9913893 -13.5145918 -13.3850722 -41.4537039
 -13.0000000 -13.5360000 -38.2210000 -11.9340000 -13.2890000 -37.6430000
 -14.0790000 -12.7690000 -38.0760000 -14.9001246 -12.9827360 -38.6238783
 -14.1110000 -11.5880000 -37.2070000 -15.0808680 -11.0981071 -37.2933728
 -13.8890000 -11.9750000 -35.7500000 -12.9505121 -12.5247462 -35.6784543
 -13.8211288 -11.0626542 -35.1574473 -14.9910000 -12.8140000 -35.2370000
 -15.2931900 -13.5351882 -35.9963877 -14.6679830 -13.3442963 -34.3411496
 -16.1410000 -11.9350000 -34.9040000 -15.8250924 -11.2101784 -34.1537100
 -16.4560993 -11.4098869 -35.8057029 -17.3060000 -12.7540000 -34.3600000
 -16.9300816 -13.3161573 -33.5051520 -18.0646088 -12.0470390 -34.0241160
 -17.9100000 -13.7000000 -35.3530000 -17.2073274 -14.3554422 -35.6640410
 -18.6709445 -14.2028407 -34.9191628 -18.2587794 -13.1792525 -36.1450064
 -13.0760000 -10.5520000 -37.6390000 -12.5400000  -9.7940000 -36.8170000
 -12.7950000 -10.5050000 -38.9350000 -13.1411838 -11.2198665 -39.5588766
 -11.9960000  -9.4450000 -39.4890000 -12.5484880  -9.0431787 -40.3383503
 -11.9080508  -8.6792256 -38.7183160 -10.6200000  -9.8410000 -39.9440000
  -9.8730000  -8.9710000 -40.3930000 -10.2540000 -11.1130000 -39.8760000
 -10.9085597 -11.8208405 -39.5749806  -8.8820000 -11.5160000 -40.1590000
  -8.2195875 -10.6570263 -40.0518876  -8.4170000 -12.6080000 -39.2130000
  -8.8837058 -13.5550670 -39.4838302  -6.9190000 -12.7380000 -39.3190000
  -6.4515401 -11.7913941 -39.0478552  -6.5729462 -13.5202018 -38.6433466
  -6.6477406 -12.9965421 -40.3425604  -8.7970000 -12.2630000 -37.8170000
  -9.8804406 -12.1652540 -37.7484128  -8.4603899 -13.0507535 -37.1430285
  -8.3290475 -11.3197986 -37.5350558  -8.8340000 -11.9520000 -41.6220000
  -8.9840000 -13.1350000 -41.9420000  -8.6040000 -10.9950000 -42.5370000
  -8.4967068 -10.0335616 -42.2467866  -8.5490000 -11.2980000 -43.9670000
  -8.8317502 -12.3375710 -44.1326613  -9.5030000 -10.4050000 -44.7450000
  -9.0578973  -9.4174610 -44.8664481  -9.6901512 -10.8417469 -45.7259824
 -10.7250000 -10.2880000 -44.0400000 -11.3258323  -9.7240607 -44.5325168
  -7.1630000 -11.1460000 -44.5470000  -7.0040000 -11.1690000 -45.7870000
  -6.1700000 -10.9970000 -43.6870000  -6.3970094 -10.9624164 -42.7034503
  -4.7910000 -10.8600000 -44.0740000  -4.6097326 -11.2231881 -45.0856006
  -4.3400000  -9.4140000 -43.9900000  -4.5067592  -9.0389235 -42.9802431
  -3.2788195  -9.3492878 -44.2304342  -4.9099124  -8.8133447 -44.6988810
  -3.9850000 -11.7330000 -43.1340000  -4.3370000 -11.8760000 -41.9600000
  -2.8990000 -12.3140000 -43.6650000  -2.6214229 -12.1001916 -44.6122783
  -2.0900000 -13.2600000 -42.9040000  -2.7452624 -13.9298394 -42.3471827
  -1.2080000 -14.0920000 -43.8160000  -1.8495321 -14.4826963 -44.6058685
  -0.4719726 -13.4142059 -44.2483874  -0.4930000 -15.2440000 -43.1280000
   0.3451384 -14.8784742 -42.5346909  -1.1794293 -15.7952010 -42.4852758
   0.0230000 -16.1610000 -44.2200000  -0.8401554 -16.5597196 -44.7529958
   0.6239244 -15.5589543 -44.9015646   0.8620000 -17.3090000 -43.6850000
   1.8226656 -16.9161994 -43.3519387   0.3417367 -17.7599177 -42.8399565
   1.0840000 -18.3340000 -44.7320000   1.5664590 -17.9164751 -45.5149470
   1.6428676 -19.0856542 -44.3541336   0.1939675 -18.6984126 -45.0404555
  -1.1990000 -12.5080000 -41.9370000  -0.3630000 -11.7130000 -42.3790000
  -1.3040000 -12.7460000 -40.6430000  -2.3490000 -13.5020000 -39.9530000
  -2.1751992 -14.5707008 -40.0785872  -3.3245919 -13.2423207 -40.3639575
  -2.1920000 -13.0590000 -38.5390000  -2.4787182 -13.8798884 -37.8817070
  -2.8496983 -12.2075460 -38.3641848  -0.8030000 -12.6880000 -38.3480000
  -0.2257808 -13.5810929 -38.1086212  -0.6491024 -11.9378214 -37.5723408
  -0.3640000 -12.1330000 -39.7060000  -0.4758169 -11.0506750 -39.7705590
   1.0720000 -12.5110000 -40.0110000   1.3610000 -13.5260000 -40.6550000
   1.9730000 -11.6880000 -39.5150000   1.6883668 -10.8377796 -39.0500178
   3.3900000 -11.9270000 -39.7030000   3.5811294 -12.9989972 -39.7518959
   3.8740000 -11.2810000 -41.0130000   4.5850067 -11.9484143 -41.4999567
   3.0325353 -11.0974394 -41.6810888   4.5610000  -9.9900000 -40.8360000
   3.8260000  -8.8450000 -40.6720000   2.7374393  -8.9008647 -40.6758299
   4.4460000  -7.6430000 -40.5050000   3.8620341  -6.7336650 -40.3628930
   5.8450000  -7.5820000 -40.5170000   6.3480047  -6.6232640 -40.3908590
   6.5860000  -8.7320000 -40.6880000   7.6754197  -8.6969233 -40.6938805
   5.9410000  -9.9230000 -40.8510000   6.5149494 -10.8383135 -40.9955103
   4.2390000 -11.4540000 -38.5370000   5.4580000 -11.6660000 -38.5610000
   3.6590000 -10.8830000 -37.4970000   2.7040953 -10.5552269 -37.5256560
   4.4220000 -10.6770000 -36.2770000   5.2536342 -11.3799781 -36.2289843
   4.9510000  -9.2530000 -36.1310000   4.1160317  -8.5526324 -36.1513337
   5.6800000  -9.1190000 -34.8380000   6.5154479  -9.8187794 -34.8171133
   6.0566261  -8.1011901 -34.7364296   5.0018437  -9.3388908 -34.0134690
   5.8350000  -8.8670000 -37.2940000   6.7237119  -9.4979318 -37.3087328
   5.2890781  -8.9873203 -38.2297306   6.2320000  -7.4720000 -37.1390000
   6.7784150  -7.3509791 -36.2036474   6.8708895  -7.1807331 -37.9727164
   5.3437803  -6.8403676 -37.1246429   3.5350000 -11.0130000 -35.0920000
   2.4460000 -10.4480000 -34.9420000   4.0130000 -11.9060000 -34.2390000
   4.8731995 -12.3890251 -34.4554322   3.3260000 -12.2430000 -33.0050000
   2.2784218 -12.4718137 -33.2007635   3.9880000 -13.4750000 -32.3870000
   3.5959616 -14.3330436 -32.9330461   5.0549995 -13.3749674 -32.5860114
   3.7640000 -13.6830000 -30.8710000   4.3872647 -12.9757477 -30.3237925
   2.7137305 -13.4737459 -30.6679090   4.0970000 -15.1130000 -30.4210000
   3.5670000 -15.5560000 -29.3750000   4.8760000 -15.7970000 -31.1280000
   3.3760000 -11.0740000 -32.0380000   4.4600000 -10.6970000 -31.5830000
   2.2110000 -10.5240000 -31.6900000   1.3630584 -10.7798288 -32.1754339
   2.1310000  -9.5080000 -30.6480000   3.1373608  -9.2761334 -30.2993238
   1.4890000  -8.2250000 -31.1750000   1.3900287  -7.5209326 -30.3488075
   2.3260000  -7.6030000 -32.2690000   2.4250332  -8.3063524 -33.0957935
   1.8431526  -6.6922627 -32.6232810   3.3143124  -7.3611670 -31.8780319
   0.2040000  -8.5280000 -31.7130000  -0.2017095  -7.7237202 -32.0448647
   1.3480000 -10.0090000 -29.4390000   0.5170000 -10.9210000 -29.5230000
   1.5980000  -9.3680000 -28.3100000   2.3096376  -8.6514283 -28.2959905
   0.8860000  -9.6570000 -27.0750000   0.6374512 -10.7174292 -27.0324266
   1.7170000  -9.3010000 -25.8450000   2.1319364  -8.2991544 -25.9556004
   0.8300000  -9.3440000 -24.6350000   0.4150291 -10.3457290 -24.5234693
   1.4115558  -9.0914096 -23.7483820   0.0183310  -8.6261332 -24.7531626
   2.8340000 -10.2530000 -25.6870000   3.4721249 -10.2149730 -26.5698662
   3.4175084  -9.9862830 -24.8058192   2.4383528 -11.2617207 -25.5684816
  -0.3950000  -8.8440000 -27.0550000  -0.3390000  -7.6100000 -27.1800000
  -1.5610000  -9.4610000 -26.8870000  -1.8300000 -10.8810000 -26.6370000
  -1.1061615 -11.2800743 -25.9264384  -1.7713839 -11.4431719 -27.5690011
  -3.2170000 -10.8410000 -26.0820000  -3.1722708 -10.6819580 -25.0045939
  -3.7179589 -11.7867464 -26.2886527  -3.8950000  -9.7300000 -26.7600000
  -4.7122588  -9.3678380 -26.1362807  -4.2737410  -9.9625756 -27.7552706
  -2.7970000  -8.6610000 -26.8540000  -2.8550360  -8.0819062 -27.7756184
  -2.8290000  -7.7160000 -25.6580000  -3.0630000  -8.1580000 -24.5220000
  -2.5790000  -6.4260000 -25.8810000  -2.3656728  -6.0466504 -26.7924191
  -2.5500000  -5.5330000 -24.7420000  -3.3060551  -5.8516565 -24.0244082
  -1.1850000  -5.5240000 -24.0440000  -0.9767096  -6.5090202 -23.6263285
  -0.4056373  -5.2609778 -24.7592015  -1.2120000  -4.5540000 -22.9890000
  -0.3609585  -4.5403781 -22.5449926  -2.9220000  -4.1270000 -25.1830000
  -3.4370000  -3.9140000 -26.2830000  -2.6410000  -3.1710000 -24.2950000
  -2.1978596  -3.4513320 -23.4317851  -2.9430000  -1.7660000 -24.4880000
  -3.3575948  -1.6046156 -25.4830706  -3.9490000  -1.2770000 -23.4270000
  -3.4586395  -1.2879963 -22.4535905  -4.4330000   0.1190000 -23.7300000
  -4.9239177   0.1306947 -24.7031206  -5.1406602   0.4332765 -22.9628312
  -3.5846984   0.8033287 -23.7433342  -5.1560000  -2.1980000 -23.3340000
  -5.8032336  -2.0442185 -24.1974470  -4.8251707  -3.2362781 -23.3088963
  -5.9050000  -1.8890000 -22.0950000  -6.2365762  -0.8509477 -22.1195860
  -6.7721711  -2.5452099 -22.0208238  -5.2585120  -2.0430052 -21.2310350
  -1.6400000  -0.9930000 -24.3750000  -0.8050000  -1.3150000 -23.5260000
  -1.4530000   0.0310000 -25.2410000  -2.1269732   0.1865085 -25.9769868
  -0.2760000   0.9010000 -25.1820000   0.5202570   0.3681509 -24.6622445
   0.2360000   1.3200000 -26.5630000   0.6161647   0.4489193 -27.0966595
  -0.6239165   1.7253726 -27.0962135   1.3580000   2.4100000 -26.4770000
   1.3410000   3.4330000 -27.2150000   2.2560000   2.2680000 -25.6260000
  -0.6140000   2.1360000 -24.3700000  -1.2040000   3.0880000 -24.8900000
  -0.1870000   2.1440000 -23.1070000   0.3745319   1.3887020 -22.7405219
  -0.5750000   3.2220000 -22.2000000  -1.6410003   3.1188951 -21.9972394
   0.1810000   3.0910000 -20.8940000   1.2494476   3.2011347 -21.0794456
  -0.1491719   3.8666972 -20.2030726  -0.0124743   2.1107650 -20.4583323
  -0.3450000   4.6070000 -22.7860000  -1.0630000   5.5480000 -22.4490000
   0.6560000   4.7740000 -23.6430000   1.3372427   4.0632014 -23.8683286
   0.8270000   6.1000000 -24.2170000   0.8135859   6.8450253 -23.4214772
   2.1530000   6.2090000 -24.9650000   2.9620951   5.9903032 -24.2681241
   2.1915497   5.5066510 -25.7976583   2.3080000   7.6350000 -25.4940000
   1.4455876   7.8680627 -26.1185218   2.3970000   8.6310000 -24.3710000
   3.2595027   8.3988469 -23.7462658   2.5065696   9.6344072 -24.7824235
   1.4895339   8.5827590 -23.7691043   3.5200000   7.7460000 -26.3400000
   3.4378545   7.0622341 -27.1848762   3.6145714   8.7676521 -26.7079463
   4.4001256   7.4898567 -25.7501962  -0.3510000   6.4390000 -25.1160000
  -1.1070000   7.3670000 -24.8360000  -0.5490000   5.6790000 -26.1880000
   0.0112675   4.8666073 -26.4029834  -1.5730000   6.0770000 -27.1330000
  -1.4538762   7.1260119 -27.4040769  -1.4490000   5.2430000 -28.3760000
  -1.2766572   4.1966020 -28.1241101  -2.3502346   5.3262832 -28.9834044
  -0.3150000   5.6650000 -29.2380000   0.9760000   5.2350000 -29.0330000
   1.7590000   5.7560000 -29.9610000   2.8252681   5.5304076 -29.9777146
   1.0230000   6.5120000 -30.7500000   1.3528171   7.0317760 -31.5507206
  -0.2760000   6.4840000 -30.3110000  -1.0387785   7.0659275 -30.8283302
  -2.9810000   5.9710000 -26.5560000  -3.8990000   6.6550000 -27.0350000
  -3.1620000   5.1310000 -25.5430000  -2.4556915   4.4491780 -25.3056261
  -4.4030000   5.1270000 -24.7900000  -5.2584245   5.0226038 -25.4574201
  -4.3870000   3.9410000 -23.8280000  -4.4036258   3.0137453 -24.4007316
  -3.4792707   3.9792502 -23.2257838  -5.7370000   3.8340000 -22.6780000
  -5.3255437   2.7173576 -22.0841045  -4.5710000   6.4470000 -24.0600000
  -5.6540000   7.0360000 -24.0500000  -3.5000000   6.9240000 -23.4450000
  -2.6806700   6.3447475 -23.3298299  -3.4850000   8.2680000 -22.8700000
  -4.2067607   8.3469342 -22.0570240  -2.0920000   8.5470000 -22.3140000
  -1.5226795   7.6212297 -22.3972025  -1.6252552   9.3164778 -22.9289416
  -2.1110000   8.9900000 -20.8980000  -3.2030000   8.8830000 -20.2900000
  -1.0500000   9.4580000 -20.3910000  -3.8790000   9.3300000 -23.8970000
  -4.8600000  10.0690000 -23.7120000  -3.1290000   9.4090000 -24.9940000
  -2.2995895   8.8421764 -25.0983488  -3.4190000  10.4020000 -26.0170000
  -3.4643835  11.4239871 -25.6407262  -2.3520000  10.3110000 -27.1350000
  -2.4277699   9.3259874 -27.5955534  -2.5380000  11.3840000 -28.1990000
  -2.4618937  12.3693623 -27.7392505  -1.7657643  11.2785400 -28.9609914
  -3.5196939  11.2733806 -28.6595862  -0.9590000  10.3520000 -26.4760000
  -0.8904131  11.3299082 -25.9994580  -0.9753249   9.5758767 -25.7108428
   0.2480000  10.1440000 -27.3850000   0.2652596  10.9200740 -28.1501870
   1.1621851  10.1970265 -26.7937699   0.1803463   9.1660428 -27.8615737
  -4.8540000  10.2310000 -26.5220000  -5.6130000  11.2020000 -26.5920000
  -5.2830000   8.9900000 -26.7750000  -4.7333156   8.1811367 -26.5226380
  -6.5720000   8.7750000 -27.4300000  -6.5712624   9.3377198 -28.3635122
  -6.6635761   7.7109276 -27.6478602  -7.7610000   9.2120000 -26.5900000
  -8.6130000   9.9860000 -27.0470000  -7.8580000   8.6970000 -25.3640000
  -7.2296861   7.9667917 -25.0604924  -8.8870000   9.1520000 -24.4380000
  -9.8685966   8.8301564 -24.7858276  -8.6460000   8.5680000 -23.0570000
  -7.6043185   8.7408376 -22.7865816  -9.2952760   9.0603654 -22.3330408
  -8.9090000   7.1180000 -23.0160000  -9.4920000   6.5540000 -23.9550000
  -8.5070000   6.4820000 -21.9360000  -8.6606426   5.4872210 -21.8528829
  -8.0467540   6.9917073 -21.1954105  -8.9170000  10.6630000 -24.3340000
  -9.9750000  11.2830000 -24.4310000  -7.7740000  11.2650000 -24.0420000
  -6.9149113  10.7542940 -23.8962424  -7.7590000  12.7010000 -23.8560000
  -8.3799111  12.9500279 -22.9954457  -6.3370000  13.1910000 -23.5900000
  -5.7052424  12.9569343 -24.4468521  -6.3475197  14.2692549 -23.4307646
  -5.9420082  12.6969879 -22.7022879  -8.3540000  13.4090000 -25.0620000
  -9.0140000  14.4390000 -24.9110000  -8.1520000  12.8790000 -26.2640000
  -7.6178959  12.0358183 -26.4185213  -8.6810000  13.5820000 -27.4220000
  -8.4425451  14.6416979 -27.3310114  -8.0660000  13.0540000 -28.7100000
  -8.3038803  11.9959514 -28.8197548  -8.4690335  13.6064362 -29.5588101
  -6.9839693  13.1808961 -28.6752710 -10.1860000  13.4570000 -27.4740000
 -10.8760000  14.3430000 -27.9870000 -10.7130000  12.3540000 -26.9480000
 -10.1224624  11.5684786 -26.7149318 -12.1540000  12.2220000 -26.7440000
 -12.6859576  12.3233823 -27.6899608 -12.4460000  10.8440000 -26.1670000
 -11.5560489  10.2442285 -26.3576842 -12.5636280  10.9873348 -25.0928870
 -13.6610000  10.1310000 -26.7160000 -13.5154235   9.0611374 -26.5666603
 -14.5045725  10.4698076 -26.1145900 -13.9480000  10.4070000 -28.2040000
 -12.9800000  10.6240000 -29.0070000 -15.1770000  10.3760000 -28.5480000
 -12.6800000  13.3200000 -25.8280000 -13.5120000  14.1290000 -26.2360000
 -12.1980000  13.3660000 -24.5800000 -11.5460820  12.6694523 -24.2484529
 -12.6220000  14.4150000 -23.6540000 -13.6845615  14.3016900 -23.4390045
 -11.8490000  14.3380000 -22.3430000 -10.7874266  14.1779204 -22.5315093
 -11.9841065  15.2737696 -21.8006149 -12.2880000  13.2490000 -21.4290000
 -12.2990000  11.9280000 -21.8460000 -11.9839135  11.6903769 -22.8620490
 -12.7080000  10.9030000 -20.9810000 -12.7180330   9.8691049 -21.3260521
 -13.0980000  11.2040000 -19.6920000 -13.4180330  10.4167667 -19.0094001
 -13.0800000  12.5120000 -19.2720000 -13.3883574  12.7528522 -18.2546475
 -12.6690000  13.5340000 -20.1410000 -12.6496719  14.5677812 -19.7960032
 -12.4260000  15.8010000 -24.2330000 -13.1680000  16.7300000 -23.8990000
 -11.4010000  15.9850000 -25.0530000 -10.6679665  15.3036669 -25.1891850
 -11.2780000  17.2720000 -25.7180000 -11.3127494  18.0718928 -24.9783628
  -9.9490000  17.3660000 -26.4800000  -9.1483602  17.1923186 -25.7610355
  -9.9635389  16.5562188 -27.2094814  -9.7120000  18.6790000 -27.1900000
  -9.2810000  19.8100000 -26.4940000  -9.1136869  19.7368580 -25.4194042
  -9.0690000  20.9950000 -27.1390000  -8.7419723  21.8861008 -26.6031884
  -9.2770000  21.0470000 -28.5130000  -9.0810000  22.2040000 -29.2230000
  -8.7952623  22.9374725 -28.6734805  -9.6910000  19.9410000 -29.2160000
  -9.8487271  19.9964709 -30.2931006  -9.9030000  18.7760000 -28.5600000
 -10.2296788  17.8929390 -29.1091669 -12.4750000  17.4920000 -26.6260000
 -13.0040000  18.6020000 -26.6920000 -12.9750000  16.4290000 -27.2710000
 -12.5471319  15.5162865 -27.2078941 -14.1520000  16.5870000 -28.1310000
 -14.0060301  17.4462400 -28.7855980 -14.3870000  15.3510000 -28.9940000
 -13.4230233  15.0028545 -29.3650026 -14.8368099  14.5777645 -28.3712015
 -15.2900000  15.6470000 -30.1520000 -15.6448835  14.7148282 -30.5915615
 -16.1423923  16.2366581 -29.8146089 -14.5290000  16.4150000 -31.1690000
 -14.1754045  17.3421037 -30.7178370 -13.6748715  15.8201578 -31.4926151
 -15.3980000  16.7350000 -32.3590000 -15.7219671  15.8130123 -32.8417883
 -16.2713924  17.3036391 -32.0397283 -14.6010000  17.5480000 -33.3240000
 -13.7918758  17.0210987 -33.6202986 -15.1707235  17.7704826 -34.1277516
 -14.3010686  18.4025769 -32.8769670 -15.3910000  16.8590000 -27.2980000
 -16.1210000  17.8220000 -27.5540000 -15.6590000  15.9880000 -26.3190000
 -15.1008500  15.1522544 -26.2185154 -16.7940000  16.1750000 -25.4190000
 -17.7591199  16.1210246 -25.9227156 -16.7510000  15.1380000 -24.2790000
 -15.7577600  15.1453653 -23.8300897 -17.7890000  15.4700000 -23.2180000
 -18.7826091  15.4623695 -23.6660887 -17.7447572  14.7278600 -22.4208981
 -17.5845683  16.4580346 -22.8055748 -16.9070000  13.7100000 -24.8170000
 -17.9141781  13.6298300 -25.2259815 -16.1789810  13.5883612 -25.6190547
 -16.6920000  12.6020000 -23.7510000 -17.4200080  12.7227145 -22.9487954
 -16.8200147  11.6230120 -24.2128376 -15.6848110  12.6812474 -23.3418668
 -16.7870000  17.5920000 -24.8840000 -17.7740000  18.3240000 -25.0130000
 -15.6480000  18.0110000 -24.3260000 -14.8455796  17.4037222 -24.2397758
 -15.5530000  19.3570000 -23.7910000 -16.1128941  19.4159524 -22.8576499
 -14.1090000  19.7410000 -23.5160000 -13.4721767  19.4507554 -24.3516515
 -14.0403928  20.8182562 -23.3646324 -13.5350000  19.1040000 -22.3030000
 -14.3630000  18.5500000 -21.3430000 -15.4439904  18.5769066 -21.4802435
 -13.8270000  17.9670000 -20.2190000 -14.4841870  17.5435547 -19.4594607
 -12.4650000  17.9180000 -20.0530000 -12.0397169  17.4474018 -19.1665625
 -11.6330000  18.4660000 -21.0110000 -10.5522115  18.4322087 -20.8736886
 -12.1610000  19.0480000 -22.1260000 -11.5018862  19.4721027 -22.8834997
 -16.1610000  20.3530000 -24.7510000 -16.9900000  21.1710000 -24.3580000
 -15.8170000  20.2650000 -26.0320000 -15.1580650  19.5978403 -26.4072359
 -16.3180000  21.3110000 -26.9130000 -16.3609753  22.2595677 -26.3777695
 -15.3870000  21.4730000 -28.1260000 -15.5410837  22.5054399 -28.4397282
 -14.3868318  21.3668888 -27.7058762 -15.5310000  20.5600000 -29.3160000
 -15.6603641  19.5351783 -28.9679967 -16.4059991  20.8606541 -29.8922689
 -14.2960000  20.6160000 -30.2320000 -14.3760000  21.0280000 -31.3940000
 -13.1460000  20.1980000 -29.6990000 -12.3016478  20.2117969 -30.2530582
 -13.1253557  19.8697978 -28.7440348 -17.7800000  21.0670000 -27.2930000
 -18.5340000  22.0230000 -27.5470000 -18.2190000  19.8100000 -27.2330000
 -17.5901195  19.0510634 -27.0124915 -19.6090000  19.4900000 -27.5370000
 -19.9270952  20.0120095 -28.4394526 -19.7510000  17.9920000 -27.7660000
 -19.0992880  17.5617031 -27.0055953 -20.7779031  17.6739702 -27.5859247
 -19.3090000  17.5190000 -29.1360000 -18.2334379  17.6710663 -29.2262381
 -19.6330000  16.0400000 -29.3420000 -20.7085093  15.8872138 -29.2523615
 -19.3039468  15.7301565 -30.3338779 -19.1179952  15.4460982 -28.5869165
 -19.9100000  18.3700000 -30.2230000 -19.5926439  19.4045780 -30.0924895
 -19.5758041  18.0078817 -31.1952575 -20.9972597  18.3144914 -30.1692963
 -20.5390000  19.9480000 -26.4170000 -21.6540000  20.4310000 -26.6710000
 -20.1000000  19.7660000 -25.1680000 -19.2767724  19.2105821 -24.9838625
 -20.8290000  20.3140000 -24.0360000 -21.8599657  19.9604867 -24.0514072
 -20.1810000  19.8710000 -22.7270000 -19.1303328  20.1557345 -22.7828913
 -20.6669581  20.4319768 -21.9287208 -20.2880000  18.3760000 -22.4360000
 -19.7754525  17.8444467 -23.2377774 -19.7677985  18.2010818 -21.4942499
 -21.7220000  17.8690000 -22.3260000 -21.9350000  16.6390000 -22.4840000
 -22.6430000  18.6850000 -22.0710000 -20.8950000  21.8320000 -24.1030000
 -21.8910000  22.4370000 -23.6970000 -19.8480000  22.4680000 -24.6030000
 -19.0125773  21.9849503 -24.9010459 -19.8560000  23.9210000 -24.6450000
 -20.1747607  24.3308603 -23.6866132 -18.4590000  24.4530000 -24.9890000
 -17.9501372  23.7312940 -25.6279831 -18.5640000  25.7620000 -25.7020000
 -19.0723770  26.4844027 -25.0634173 -17.5651892  26.1278370 -25.9399938
 -19.1311359  25.6299678 -26.6234247 -17.6370000  24.6040000 -23.7090000
 -17.9098206  25.5575610 -23.2569036 -17.9216149  23.7911077 -23.0409431
 -16.1570000  24.5660000 -23.9390000 -15.8715462  25.3789381 -24.6066434
 -15.6378565  24.6788910 -22.9872411 -15.8833408  23.6124850 -24.3906853
 -20.9060000  24.4090000 -25.6260000 -21.7090000  25.2960000 -25.3110000
 -20.9240000  23.8380000 -26.8240000 -20.2259734  23.1516062 -27.0724386
 -21.9310000  24.1750000 -27.8020000 -22.0355920  25.2597833 -27.7818775
 -21.5406949  23.8660613 -28.7717000 -23.2940000  23.5440000 -27.5950000
 -24.2180000  23.8890000 -28.3440000 -23.4470000  22.6520000 -26.6040000
 -22.6341211  22.4390257 -26.0436705 -24.6970000  21.9140000 -26.3330000
 -24.4888075  21.0815182 -25.6608920 -25.7400000  22.8170000 -25.6820000
 -25.8739276  23.6924222 -26.3174515 -26.6775542  22.2640985 -25.6237582
 -25.3300000  23.2580000 -24.2990000 -25.2395288  22.3693218 -23.6743666
 -24.3577055  23.7436465 -24.3820068 -26.3130000  24.2090000 -23.6770000
 -26.8490000  25.0730000 -24.4220000 -26.5480000  24.0840000 -22.4470000
 -25.2490000  21.2870000 -27.6150000 -26.2870000  21.6750000 -28.1410000
 -24.4970000  20.3150000 -28.1280000 -23.7110626  19.9010882 -27.6472934
 -24.7710000  19.8930000 -29.4850000 -24.9788374  20.7198964 -30.1640767
 -23.5870000  19.0880000 -30.0400000 -22.6617242  19.6369131 -29.8649047
 -23.5150000  17.7370000 -29.3420000 -24.4398062  17.1872766 -29.5170392
 -22.6739796  17.1674765 -29.7375101 -23.3795907  17.8875647 -28.2709742
 -23.6870000  18.9470000 -31.5760000 -23.6824624  19.9364368 -32.0332704
 -22.8369539  18.3729692 -31.9447951 -24.6122058  18.4320235 -31.8346392
 -26.0620000  19.1030000 -29.5520000 -26.6750000  19.0190000 -30.6230000
 -26.4950000  18.5250000 -28.4260000 -25.9370728  18.5330012 -27.5841256
 -27.7600000  17.7930000 -28.4120000 -27.7515581  17.0194863 -29.1799221
 -27.9670000  17.1290000 -27.0530000 -29.0407532  16.9904242 -26.9267065
 -27.4754230  16.1563316 -27.0721902 -27.4270000  17.9420000 -25.9040000
 -28.1860000  18.9310000 -25.2990000 -29.1968372  19.1231158 -25.6587210
 -27.6650000  19.6830000 -24.2320000 -28.2691651  20.4536251 -23.7532273
 -26.3780000  19.4320000 -23.7820000 -25.7990000  20.1310000 -22.7450000
 -26.3782133  20.8011331 -22.3748199 -25.6280000  18.4650000 -24.3800000
 -24.6152050  18.2714231 -24.0266237 -26.1440000  17.7330000 -25.4270000
 -25.5378778  16.9632923 -25.9047719 -28.9290000  18.7130000 -28.7630000
 -29.8240000  18.3340000 -29.5270000 -28.9160000  19.9410000 -28.2570000
 -28.2618541  20.1862949 -27.5276010 -29.8580000  20.9530000 -28.7070000
 -30.8659160  20.5383334 -28.7230052 -29.8400000  22.1600000 -27.7630000
 -28.8352289  22.5795969 -27.8127263 -30.5539455  22.8796516 -28.1636038
 -30.1860000  21.8550000 -26.3290000 -31.1536876  21.3542093 -26.2991647
 -29.4231876  21.1953273 -25.9154166 -30.2510000  23.1300000 -25.5080000
 -29.3303270  23.6922297 -25.6640705 -31.0999670  23.7218430 -25.8501643
 -30.4120000  22.8220000 -24.0260000 -31.4763466  22.6818434 -23.8372596
 -29.8827029  21.8897802 -23.8287435 -29.8840000  23.8940000 -23.1280000
 -30.3746249  24.7577971 -23.3103227 -30.0229620  23.6247629 -22.1645162
 -28.8976724  24.0237328 -23.3024317 -29.5950000  21.4610000 -30.1180000
 -30.3240000  22.3540000 -30.5570000 -28.5790000  21.0070000 -30.8440000
 -27.9997758  20.2568618 -30.4948706 -28.2100000  21.6360000 -32.1180000
 -29.0888792  22.0951176 -32.5706384 -27.1560000  22.7150000 -31.8970000
 -26.2443238  22.2938406 -31.4732423 -26.9244014  23.2024883 -32.8440044
 -27.6070000  23.7940000 -30.9580000 -27.5560000  23.6550000 -29.5850000
 -28.0230000  24.7510000 -29.0130000 -28.0630806  24.8387129 -27.9272749
 -28.3790000  25.5950000 -29.9640000 -28.7708856  26.5153086 -29.8241517
 -28.1310000  25.0210000 -31.1890000 -28.3624175  25.5669829 -32.1035763
 -27.7450000  20.5860000 -33.1090000 -26.5570000  20.4910000 -33.4470000
 -28.6860000  19.7970000 -33.6300000 -30.1410000  19.9770000 -33.4810000
 -30.3930740  21.0282419 -33.6204613 -30.4459337  19.6599967 -32.4836919
 -30.7090000  19.1000000 -34.5590000 -30.8593238  19.6808972 -35.4689781
 -31.6617867  18.6823547 -34.2336215 -29.6630000  17.9870000 -34.7680000
 -29.7126542  17.6025526 -35.7867412 -29.7729897  17.1626846 -34.0633682
 -28.3200000  18.6930000 -34.5420000 -27.6023661  18.0614302 -34.0183403
 -27.7170000  19.1630000 -35.8530000 -26.8040000  18.5140000 -36.3880000
 -28.2300000  20.2700000 -36.3960000 -28.9493817  20.7549331 -35.8788644
 -27.8610000  20.7800000 -37.7100000 -27.4421850  19.9782844 -38.3182313
 -29.0970000  21.3380000 -38.4200000 -29.3299656  22.3208737 -38.0103837
 -28.8719060  21.4317438 -39.4823770 -30.3130000  20.4450000 -38.2590000
 -30.1800000  19.2250000 -38.0820000 -31.5040000  21.0460000 -38.3110000
 -32.3470535  20.4991116 -38.2096405 -31.5565101  22.0448066 -38.4514593
 -26.7710000  21.8480000 -37.6340000 -26.6160000  22.6320000 -38.5810000
 -26.0220000  21.8880000 -36.5320000 -26.2089049  21.2552889 -35.7672500
 -24.9630000  22.8690000 -36.3710000 -25.3958760  23.8691994 -36.3531455
 -24.2230000  22.6350000 -35.0590000 -23.7762825  21.6407662 -35.0655387
 -23.4394680  23.3840582 -34.9445894 -24.9233593  22.7126149 -34.2273919
 -24.0020000  22.8140000 -37.5450000 -23.5570000  21.7330000 -37.9630000
 -23.7080000  23.9920000 -38.0910000 -24.0760442  24.8521850 -37.7105731
 -22.8940000  24.0630000 -39.2830000 -23.1906693  23.2777837 -39.9783574
 -23.0650000  25.4170000 -39.9730000 -22.6069696  25.3622813 -40.9605795
 -24.1308478  25.6195345 -40.0781109 -22.4610000  26.4530000 -39.2320000
 -22.5849666  27.2878541 -39.6894394 -21.4360000  23.8220000 -38.9300000
 -21.0290000  23.8380000 -37.7610000 -20.6560000  23.5570000 -39.9800000
 -21.0544484  23.3948361 -40.8938058 -19.2150000  23.4370000 -39.8250000
 -18.9647645  22.5490648 -39.2444378 -18.5750000  23.3120000 -41.2110000
 -18.9494510  22.3810792 -41.6367607 -18.9467908  24.1536374 -41.7953955
 -17.0320000  23.3070000 -41.2410000 -16.6843362  23.9290877 -40.4162348
 -16.7026734  22.2797891 -41.0845270 -16.4420000  23.8430000 -42.5800000
 -16.6588861  24.9103932 -42.6216071 -15.3631440  23.6933600 -42.5378449
 -17.0110000  23.1500000 -43.8470000 -16.2041576  23.1545853 -44.5798608
 -17.2299936  22.1229553 -43.5549038 -18.2420000  23.7730000 -44.4520000
 -18.0391647  24.7245506 -44.7231254 -18.5222045  23.2436440 -45.2652452
 -18.9898858  23.7684617 -43.7732178 -18.6720000  24.6330000 -39.0650000
 -18.0020000  24.4820000 -38.0350000 -19.0260000  25.8390000 -39.5190000
 -19.6516332  25.9374754 -40.3057560 -18.4420000  27.0430000 -38.9470000
 -17.3557284  26.9592653 -38.9138086 -18.8120000  28.2430000 -39.8120000
 -19.8466024  28.5107228 -39.5974737 -18.1588441  29.0722790 -39.5403684
 -18.6620000  27.9440000 -41.3050000 -17.8998958  27.1707731 -41.4020473
 -19.6162836  27.5601675 -41.6657139 -18.2600000  29.1580000 -42.1290000
 -19.0370000  30.1440000 -42.1930000 -17.1580000  29.1130000 -42.7220000
 -18.8630000  27.2430000 -37.4970000 -18.0920000  27.7920000 -36.7020000
 -20.0530000  26.7660000 -37.1180000 -20.6730394  26.3125489 -37.7737687
 -20.5010000  26.9220000 -35.7340000 -20.3046249  27.9385327 -35.3931229
 -21.9890000  26.6550000 -35.6290000 -22.1579484  25.6415155 -35.9928748
 -22.2492327  26.7090532 -34.5719015 -22.8380000  27.6060000 -36.3980000
 -22.5639199  28.6352414 -36.1663902 -22.6687433  27.4151673 -37.4577331
 -24.2770000  27.3920000 -36.0790000 -24.7000000  26.2110000 -35.9860000
 -24.9640000  28.4130000 -35.8900000 -19.7660000  25.9860000 -34.7860000
 -19.5180000  26.3400000 -33.6240000 -19.4710000  24.7620000 -35.2400000
 -19.8257736  24.4193963 -36.1213954 -18.6580000  23.8630000 -34.4240000
 -19.0813048  23.7868938 -33.4224412 -18.6220000  22.4770000 -35.0420000
 -18.2606248  22.5693126 -36.0662000 -17.9280939  21.8645481 -34.4662422
 -19.9740000  21.8300000 -35.0460000 -20.1274326  21.3390495 -34.0849970
 -20.7294188  22.6037723 -35.1828246 -20.0900000  20.8130000 -36.1540000
 -19.8051664  21.2883381 -37.0926280 -19.4075223  19.9898599 -35.9424249
 -21.4480000  20.2740000 -36.2930000 -22.0404739  20.7194336 -36.9790488
 -21.9440000  19.2610000 -35.5880000 -23.1800000  18.8700000 -35.8390000
 -23.7201219  19.3397043 -36.5515631 -23.5795656  18.1030340 -35.3172623
 -21.2220000  18.6510000 -34.6460000 -20.2785665  18.9590550 -34.4585558
 -21.6222799  17.8840484 -34.1247899 -17.2500000  24.4020000 -34.2630000
 -16.6600000  24.3040000 -33.1770000 -16.6940000  24.9670000 -35.3360000
 -17.1534143  24.9841227 -36.2353023 -15.3600000  25.5210000 -35.2360000
 -14.6372431  24.7258192 -35.0532183 -14.9900000  26.2270000 -36.5400000
 -15.5538544  25.7376356 -37.3341599 -15.3216607  27.2608320 -36.4436019
 -13.5050000  26.2000000 -36.8810000 -12.9718483  26.8436173 -36.1812809
 -13.1404063  25.1774308 -36.7833999 -13.2640000  26.6960000 -38.3210000
 -13.4992744  27.7595524 -38.3610143 -12.2115411  26.5478847 -38.5628504
 -14.1360000  25.9390000 -39.3400000 -15.1780859  26.0352758 -39.0352239
 -13.9993696  26.4027719 -40.3169068 -13.7720000  24.4890000 -39.4210000
 -13.8989463  24.0589736 -38.5159797 -14.3649750  24.0303510 -40.0978469
 -12.8065380  24.3995605 -39.7038121 -15.2810000  26.4680000 -34.0530000
 -14.3020000  26.4490000 -33.2950000 -16.3360000  27.2560000 -33.8320000
 -17.1726265  27.2015588 -34.3951977 -16.2580000  28.2900000 -32.8100000
 -15.2830456  28.7763590 -32.8419083 -17.3360000  29.3420000 -33.0550000
 -18.2806667  28.8063800 -33.1488897 -17.3640362  29.9742160 -32.1675222
 -17.1170000  30.2180000 -34.3020000 -16.1648390  30.7406774 -34.2109038
 -17.0991849  29.5833482 -35.1880033 -18.2540000  31.2440000 -34.4300000
 -18.0161405  32.1234418 -33.8315821 -18.3624363  31.5346652 -35.4749185
 -19.5370000  30.6840000 -33.9590000 -19.5760165  30.4440862 -32.9786845
 -20.6230000  30.4700000 -34.7130000 -20.6240000  30.7880000 -36.0080000
 -19.7989845  31.1940994 -36.4257713 -21.4497684  30.6213049 -36.5651526
 -21.7170000  29.9400000 -34.1670000 -21.7230454  29.7014408 -33.1855964
 -22.5350908  29.7792954 -34.7370878 -16.3640000  27.6820000 -31.4300000
 -15.8730000  28.2550000 -30.4480000 -16.9560000  26.5010000 -31.3520000
 -17.4417723  26.0925294 -32.1376694 -16.9680000  25.7880000 -30.0910000
 -17.3398733  26.4367971 -29.2979857 -17.8800000  24.5680000 -30.1910000
 -17.5423274  23.8951996 -30.9792995 -17.8892754  24.0363130 -29.2395154
 -19.2950000  24.9110000 -30.5010000 -19.8640000  26.1420000 -30.4750000
 -19.2201461  26.9749474 -30.1925986 -21.1870000  26.0600000 -30.8270000
 -21.8309405  26.8357975 -30.8868202 -21.4910000  24.7560000 -31.0890000
 -22.6870000  24.1810000 -31.4780000 -23.5582665  24.8223460 -31.6109233
 -22.6970000  22.8250000 -31.6730000 -23.6238258  22.3355322 -31.9721910
 -21.5400000  22.0450000 -31.4970000 -21.5555580  20.9676188 -31.6616429
 -20.3530000  22.6220000 -31.1110000 -19.4826173  21.9782521 -30.9840228
 -20.3160000  24.0040000 -30.8980000 -15.5640000  25.3870000 -29.7070000
 -15.1880000  25.4780000 -28.5320000 -14.7750000  24.9410000 -30.6980000
 -15.1735980  24.7476157 -31.6056461 -13.3430000  24.6830000 -30.4970000
 -13.2082601  23.9525943 -29.6992206 -12.7120000  24.1310000 -31.7770000
 -13.3866373  23.3738795 -32.1766652 -12.6306417  24.9550213 -32.4858510
 -11.3450000  23.5210000 -31.5540000 -10.6639870  24.3127238 -31.2417572
 -11.4280458  22.7795413 -30.7593652 -10.7730000  22.8480000 -32.7870000
 -11.3850000  21.9530000 -33.3600000  -9.5920000  23.2800000 -33.2000000
  -9.1639301  22.8672015 -34.0163669  -9.1243455  24.0204484 -32.6968730
 -12.6180000  25.9500000 -30.0750000 -11.9680000  25.9850000 -29.0290000
 -12.7480000  27.0070000 -30.8730000 -13.2673481  26.9352503 -31.7362664
 -12.0950000  28.2650000 -30.5660000 -11.0179285  28.1195298 -30.6487929
 -12.5240000  29.3280000 -31.5790000 -13.5989293  29.4913248 -31.5018501
 -11.9994993  30.2607686 -31.3717757 -12.2796819  28.9904014 -32.5861917
 -12.3830000  28.7360000 -29.1490000 -11.4910000  29.2670000 -28.4850000
 -13.6070000  28.5590000 -28.6660000 -14.3481825  28.1476878 -29.2151541
 -13.9220000  29.0320000 -27.3260000 -13.6233030  30.0685509 -27.1696624
 -15.4320000  28.9140000 -27.0780000 -15.7866073  28.0107412 -27.5744650
 -15.7780000  28.8420000 -25.5600000 -15.4240889  29.7451894 -25.0629130
 -16.8578122  28.7592714 -25.4364659 -15.2944149  27.9711147 -25.1175015
 -16.0950000  30.0300000 -27.6920000 -17.0406747  29.9630120 -27.5409624
 -13.1340000  28.2630000 -26.2820000 -12.5380000  28.8570000 -25.3810000
 -13.1300000  26.9380000 -26.3990000 -13.6790970  26.5031228 -27.1266494
 -12.4000000  26.0790000 -25.4790000 -12.6792432  26.2844527 -24.4456019
 -12.7590000  24.6360000 -25.8020000 -13.8003449  24.5961284 -25.4824530
 -12.7016353  24.4546484 -26.8752758 -11.9640000  23.5740000 -25.0670000
 -10.9039466  23.6843904 -25.2954769 -12.1790000  23.7390000 -23.5750000
 -13.2388341  23.6282724 -23.3456753 -11.6105043  22.9788418 -23.0392082
 -11.8424241  24.7286579 -23.2661402 -12.2820000  22.1630000 -25.5670000
 -12.0427083  22.0903859 -26.6279270 -11.6884783  21.4374796 -25.0107146
 -13.3416294  21.9547288 -25.4189876 -10.8880000  26.3120000 -25.5770000
 -10.1970000  26.4680000 -24.5570000 -10.3700000  26.3190000 -26.8030000
 -10.9287827  25.9779540 -27.5721221  -9.0050000  26.7110000 -27.0690000
  -8.3106934  25.9319911 -26.7540673  -8.8460000  26.9280000 -28.5780000
  -9.7200998  27.4874926 -28.9111918  -7.9460119  27.5112795 -28.7726961
  -8.7680000  25.5880000 -29.3470000  -8.8750000  24.5320000 -28.6780000
  -8.5690000  25.5770000 -30.5970000  -8.6220000  27.9420000 -26.2560000
  -7.7810000  27.8680000 -25.3440000  -9.2720000  29.0720000 -26.5410000
  -9.9817185  29.0894529 -27.2593971  -8.9390000  30.3180000 -25.8710000
  -7.9262517  30.6322132 -26.1234087  -9.9080000  31.3910000 -26.3300000
 -10.6790974  30.8764387 -26.9033540 -10.3474187  31.8087226 -25.4241749
  -9.3220000  32.5010000 -27.1610000  -9.2340916  33.3889675 -26.5349915
  -8.3312438  32.1933115 -27.4954128 -10.2080000  32.8240000 -28.3960000
  -9.8743059  33.7817886 -28.7952345 -10.0341765  32.0423045 -29.1354843
 -11.7330000  32.9000000 -28.0680000 -11.9942441  31.9207176 -27.6669287
 -11.8253952  33.6501462 -27.2826065 -12.6730000  33.2460000 -29.2120000
 -12.5878534  32.5507833 -29.9396837 -13.6241261  33.2634515 -28.8726557
 -12.4313667  34.1535775 -29.5835043  -8.9770000  30.1500000 -24.3590000
  -8.1330000  30.6850000 -23.6400000  -9.9120000  29.3580000 -23.8600000
 -10.5644139  28.8542970 -24.4437283 -10.0810000  29.2880000 -22.4200000
  -9.9390617  30.2721474 -21.9734504 -11.5030000  28.8020000 -22.0960000
 -12.2479258  29.2145565 -22.7764278 -11.5099756  27.7143140 -22.1666437
 -11.9530000  29.1440000 -20.7100000 -12.0260000  30.4440000 -20.2430000
 -12.4160000  30.4310000 -18.9770000 -12.5420227  31.3631547 -18.4262688
 -12.5890000  29.1720000 -18.6050000 -12.8801258  28.8565781 -17.6907491
 -12.3070000  28.3490000 -19.6710000 -12.3933936  27.2678477 -19.5626160
  -9.0060000  28.4150000 -21.7880000  -8.5200000  28.7300000 -20.7020000
  -8.5910000  27.3340000 -22.4630000  -9.0463358  27.0440539 -23.3166392
  -7.4940000  26.5090000 -21.9450000  -7.7205946  26.1948661 -20.9261408
  -7.2990000  25.2620000 -22.8090000  -7.2982718  25.6730451 -23.8185250
  -6.3268463  24.8164901 -22.5979592  -8.3910000  24.1860000 -22.6950000
  -9.3590579  24.6692475 -22.8270478  -8.2270000  23.0970000 -23.7290000
  -7.2592988  22.6129504 -23.5972837  -9.0207685  22.3595567 -23.6097955
  -8.2824280  23.5315990 -24.7270741  -8.4770000  23.5690000 -21.3060000
  -8.7018259  24.3464220 -20.5758166  -9.2660304  22.8171501 -21.2900590
  -7.5248089  23.1010154 -21.0561571  -6.1980000  27.3020000 -21.8780000
  -5.3980000  27.1250000 -20.9470000  -5.9850000  28.1960000 -22.8350000
  -6.5531622  28.2587547 -23.6676782  -4.8440000  29.0800000 -22.7140000
  -3.9223012  28.5041382 -22.6306116  -4.7590000  29.9590000 -23.9590000
  -4.9269914  29.3175817 -24.8241362  -5.5587295  30.6967327 -23.8935536
  -3.4430000  30.6610000 -24.1060000  -3.2407400  31.1913313 -23.1754408
  -2.6756540  29.9036073 -24.2661201  -3.4310000  31.6530000 -25.2710000
  -4.4214018  32.1016879 -25.3476977  -2.6973012  32.4286425 -25.0515366
  -3.0940000  31.0390000 -26.5550000  -3.8568391  30.7735751 -27.1614037
  -1.8470000  30.7980000 -26.9590000  -1.6090000  30.2420000 -28.1380000
  -2.3803470  29.9959420 -28.7418040  -0.6573427  30.0668254 -28.4274165
  -0.8330000  31.1020000 -26.1680000  -1.0085284  31.5146851 -25.2630244
   0.1128370  30.9202577 -26.4720738  -4.9640000  29.9070000 -21.4390000
  -4.0660000  29.9040000 -20.5840000  -6.1250000  30.5540000 -21.2640000
  -6.8737199  30.4050282 -21.9253058  -6.3410000  31.5040000 -20.1760000
  -5.5994411  32.3021052 -20.2108946  -7.7270000  32.1200000 -20.3270000
  -7.8054198  32.4687688 -21.3567135  -8.4469097  31.3189019 -20.1594536
  -8.0150000  33.2490000 -19.3970000  -8.1394650  32.8440271 -18.3927061
  -7.1648054  33.9309762 -19.4104080  -9.2690000  33.9980000 -19.7980000
  -9.1048725  34.4838575 -20.7598231 -10.0960798  33.2932666 -19.8839607
  -9.6060000  35.0510000 -18.7480000  -9.6462821  34.5470150 -17.7823515
  -8.7943538  35.7785393 -18.7439662 -10.9070000  35.7550000 -18.9990000
 -11.6592745  35.0810774 -19.0023487 -11.0677181  36.4353691 -18.2700504
 -10.8697278  36.2224243 -19.8935526  -6.2040000  30.8370000 -18.8160000
  -5.6420000  31.4050000 -17.8770000  -6.6900000  29.6210000 -18.6970000
  -6.9975423  29.0943942 -19.5021108  -6.8090000  29.0100000 -17.3920000
  -6.6547116  29.7583686 -16.6146721  -8.1970000  28.4090000 -17.2200000
  -8.1905438  27.4556793 -17.7484291  -8.3286465  28.2313144 -16.1526683
  -9.3270000  29.2550000 -17.7290000  -9.1106257  29.5283807 -18.7617371
 -10.2404697  28.6612887 -17.6946193  -9.5100000  30.5100000 -16.9030000
  -8.6521242  31.1675767 -17.0435026 -10.4174390  31.0251090 -17.2181455
  -9.6240000  30.1880000 -15.4880000  -9.2830324  29.2875442 -15.1830085
 -10.1400000  31.0080000 -14.5840000 -10.5950000  32.2040000 -14.9690000
 -10.5421186  32.4719236 -15.9413788 -10.9896987  32.8345736 -14.2858532
 -10.2040000  30.6230000 -13.3040000  -9.8594543  29.7122064 -13.0359638
 -10.5965591  31.2449686 -12.6117926  -5.8000000  27.9160000 -17.1620000
  -5.3580000  27.7270000 -16.0250000  -5.4560000  27.1720000 -18.2060000
  -5.8591681  27.3624874 -19.1122391  -4.5450000  26.0470000 -18.0800000
  -4.3821899  25.8093658 -17.0287521  -5.1440000  24.8230000 -18.7700000
  -5.2111338  25.0358195 -19.8369115  -4.4701910  23.9813596 -18.6096166
  -6.4880000  24.4850000 -18.2490000  -7.2210533  25.2341487 -18.5481822
  -6.8068144  23.5042184 -18.6018837  -6.3700000  24.4580000 -16.4690000
  -5.5190000  22.9150000 -16.1900000  -4.5483272  22.9401043 -16.6852405
  -5.3764645  22.7664594 -15.1196169  -6.1115402  22.0943760 -16.5944424
  -3.1600000  26.3050000 -18.6520000  -2.3530000  25.3770000 -18.6670000
  -2.8700000  27.5170000 -19.1420000  -3.5826625  28.2316666 -19.1037483
  -1.6020000  27.8340000 -19.8090000  -1.6916849  28.7918373 -20.3214485
  -0.4600000  27.9230000 -18.8090000  -0.2796067  26.9538517 -18.3439097
   0.4311649  28.2358100 -19.3531278  -0.7370000  28.9150000 -17.7440000
  -1.2650000  30.0040000 -18.0140000  -0.4260000  28.5500000 -16.5120000
  -0.5918228  29.1841938 -15.7436246  -0.0240195  27.6386415 -16.3448530
  -1.2810000  26.8260000 -20.9040000  -0.1420000  26.3840000 -21.0610000
  -2.3070000  26.4620000 -21.6660000  -3.2090845  26.8878890 -21.5080079
  -2.1970000  25.4430000 -22.6970000  -1.2210760  24.9618674 -22.6323250
  -3.2740000  24.3820000 -22.5300000  -4.1549146  24.9225285 -22.1837088
  -3.4797629  23.9394260 -23.5046230  -2.9310000  23.2820000 -21.5360000
  -3.1028978  23.6543291 -20.5260876  -3.7940000  22.0460000 -21.7760000
  -3.6222897  21.6727987 -22.7856213  -3.5312482  21.2729665 -21.0538632
  -4.8455845  22.3083857 -21.6601375  -1.4650000  22.9260000 -21.6420000
  -0.8601510  23.8062849 -21.4243866  -1.2292970  22.1379809 -20.9267579
  -1.2474376  22.5767847 -22.6513633  -2.3070000  26.0860000 -24.0650000
  -3.3770000  26.5700000 -24.4400000  -1.2090000  26.0500000 -24.8120000
  -0.3326498  25.7634373 -24.3996996  -1.2210000  26.4190000 -26.2160000
  -1.6324650  27.4208018 -26.3392438   0.1980000  26.4070000 -26.7580000
   0.8062803  27.0470604 -26.1189249   0.5686100  25.3833458 -26.7043316
   0.2780000  26.8910000 -28.1660000  -0.5524444  26.4682882 -28.7314889
   0.2030504  27.9784156 -28.1694574   1.5570000  26.4830000 -28.7890000
   1.5650948  26.8095945 -29.8288892   2.3795327  26.9570235 -28.2534245
   1.7170000  24.9900000 -28.7320000   1.8245852  24.6640726 -27.6974482
   0.8494897  24.5030712 -29.1774496   2.9500000  24.6190000 -29.5040000
   3.7540307  25.0697537 -29.0911376   3.0750860  23.6171281 -29.4774257
   2.8503355  24.9205433 -30.4627688  -2.0740000  25.4390000 -27.0280000
  -2.1500000  24.2540000 -26.7050000  -2.7280000  25.8940000 -28.0940000
  -3.1470000  27.2780000 -28.3760000  -2.5083179  27.7168328 -29.1425580
  -3.0923918  27.8808157 -27.4695066  -4.5480000  27.0800000 -28.8430000
  -4.8936688  27.9396314 -29.4171480  -5.2198588  26.9119681 -28.0012920
  -4.4480000  25.8670000 -29.6910000  -4.0063006  26.1497011 -30.6465526
  -5.3927874  25.3523980 -29.8661034  -3.4880000  24.9510000 -28.9240000
  -4.0006476  24.2479055 -28.2675330  -2.5770000  24.1850000 -29.8750000
  -1.8790000  24.7940000 -30.6840000  -2.6100000  22.8480000 -29.8180000
  -3.1684564  22.3885019 -29.1129559  -1.7990000  22.0180000 -30.7110000
  -1.0935313  22.6611649 -31.2370723  -1.0300000  20.9250000 -29.9570000
  -0.4869945  20.3105366 -30.6751087  -0.0730000  21.5350000 -29.0070000
  -0.6153489  22.1492863 -28.2882437   0.4661587  20.7488246 -28.4784767
   0.6360023  22.1567814 -29.5536285  -1.9900000  20.0370000 -29.1960000
  -2.4998715  20.6653658 -28.4657342  -2.7147243  19.6554473 -29.9152299
  -1.3390000  18.9010000 -28.5010000  -0.6144220  19.2818046 -27.7812262
  -2.0939249  18.3127906 -27.9792747  -0.8292725  18.2718871 -29.2307223
  -2.6480000  21.3800000 -31.7970000  -3.8460000  21.1310000 -31.6190000
  -1.9830000  21.0600000 -32.9160000  -0.9825892  21.1953733 -32.9468494
  -2.6560000  20.5970000 -34.1250000  -3.6404475  21.0596848 -34.1948932
  -1.8480000  20.9680000 -35.3810000  -1.4111775  21.9492613 -35.1954962
  -1.0526797  20.2283610 -35.4731941  -2.6760000  21.0090000 -36.7040000
  -1.9551491  21.2481027 -37.4858598  -3.0405874  19.9915709 -36.8454785
  -4.0970000  22.1830000 -36.8090000  -5.5790000  21.2070000 -36.3830000
  -5.4722629  20.8042167 -35.3757901  -6.4606618  21.8464382 -36.4264961
  -5.6905071  20.3865660 -37.0919115  -2.9390000  19.1010000 -34.1280000
  -3.7260000  18.6400000 -34.9590000  -2.3080000  18.3630000 -33.2200000
  -1.6328368  18.8101485 -32.6164171  -2.5440000  16.9310000 -33.0540000
  -3.5818465  16.6998631 -33.2938949  -1.6370000  16.1220000 -33.9800000
  -1.3209532  16.7878205 -34.7830547  -0.7677418  15.8201038 -33.3957493
  -2.3000000  14.8900000 -34.5750000  -3.3068994  14.8053923 -34.1662264
  -2.3566883  15.0137551 -35.6564681  -1.5140000  13.6300000 -34.2500000
  -1.5687404  12.9485509 -35.0989579  -0.4735466  13.8980679 -34.0664361
  -2.0370000  12.9490000 -33.0690000  -2.6654779  13.4697241 -32.4740535
  -1.7370000  11.6980000 -32.7340000  -0.9160000  10.9850000 -33.4920000
  -0.5187954  11.3950115 -34.3251981  -0.6914130  10.0349903 -33.2328826
  -2.2590000  11.1590000 -31.6410000  -2.8852743  11.7017039 -31.0636326
  -2.0279908  10.2081589 -31.3907308  -2.2390000  16.6130000 -31.6000000
  -1.2960000  17.1700000 -31.0380000  -3.0260000  15.7460000 -30.9680000
  -3.7409257  15.2014124 -31.4288742  -2.8750000  15.6080000 -29.5260000
  -2.8356409  16.5914363 -29.0575951  -4.0640000  14.8400000 -28.9500000
  -4.9399996  15.4616282 -29.1352090  -4.1396453  13.9230762 -29.5344900
  -3.9930000  14.4970000 -27.4860000  -4.6646951  13.6545148 -27.3212420
  -2.9680342  14.1898806 -27.2780942  -4.4450000  15.8400000 -26.3760000
  -5.8940000  16.5560000 -27.1660000  -6.6754176  15.8003191 -27.2461989
  -6.2579172  17.3922953 -26.5691121  -5.6278566  16.9098252 -28.1620304
  -1.5740000  14.8930000 -29.1830000  -1.0840000  14.0500000 -29.9370000
  -1.0090000  15.2170000 -28.0290000  -1.3555863  15.9711662 -27.4534910
   0.1760000  14.4990000 -27.5850000   0.1919574  13.5178038 -28.0594456
   1.4770000  15.2390000 -27.9420000   2.3029637  14.7587457 -27.4173678
   1.6382483  15.1649394 -29.0174599   1.4450000  16.7190000 -27.5530000
   0.9590000  17.0870000 -26.4630000   1.9570000  17.5750000 -28.4380000
   1.9625194  18.5642276 -28.2342893   2.3369398  17.2302092 -29.3079804
   0.1130000  14.2860000 -26.0860000  -0.5990000  14.9900000 -25.3790000
   0.9270000  13.3480000 -25.6020000   1.5778781  12.8753923 -26.2128183
   0.9070000  12.9760000 -24.1930000  -0.0236353  12.4332519 -24.0273451
   1.7513428  12.3047635 -24.0360728   0.9950000  14.1240000 -23.1970000
   0.3270000  14.0950000 -22.1670000   1.8500000  15.1130000 -23.4330000
   2.4400856  15.1920660 -24.2488719   1.9720000  16.1300000 -22.3870000
   2.1070757  15.6418665 -21.4218164   3.1610000  17.0440000 -22.6400000
   3.3387492  17.1130221 -23.7131917   2.9226606  18.0325148 -22.2474025
   4.4050000  16.5580000 -21.9820000   4.3680000  15.8100000 -21.0060000
   5.5340000  16.9720000 -22.5210000   6.4160297  16.6802939 -22.1247287
   5.5120423  17.5790906 -23.3278827   0.7090000  16.9660000 -22.2710000
   0.3660000  17.4320000 -21.1780000   0.0340000  17.2180000 -23.3920000
   0.4133972  16.9678378 -24.2939845  -1.2530000  17.9020000 -23.3490000
  -1.1630460  18.8646834 -22.8457624  -1.7200000  18.1420000 -24.7790000
  -0.8426848  18.4859209 -25.3268463  -2.1186529  17.2472966 -25.2572068
  -2.7570000  19.2020000 -24.9260000  -4.1090000  18.8840000 -24.9150000
  -4.4122388  17.8493537 -24.7548339  -5.0540000  19.8510000 -25.1020000
  -6.1124347  19.5912035 -25.0840428  -4.6680000  21.1590000 -25.3140000
  -5.4203606  21.9352899 -25.4533826  -3.3410000  21.4800000 -25.3490000
  -3.0405990  22.5139061 -25.5189929  -2.3850000  20.5060000 -25.1710000
  -1.3273661  20.7643626 -25.2235288  -2.2510000  17.0640000 -22.5720000
  -2.8200000  17.5190000 -21.5760000  -2.4260000  15.8090000 -23.0030000
  -2.0081316  15.5496806 -23.8851784  -3.2380000  14.8200000 -22.3060000
  -4.2892119  15.0540726 -22.4741155  -2.9450000  13.4460000 -22.8950000
  -1.8981098  13.1935874 -22.7264507  -3.5796471  12.7013255 -22.4146010
  -3.1472963  13.4585635 -23.9659891  -3.0090000  14.8190000 -20.7960000
  -3.9620000  14.8320000 -20.0200000  -1.7580000  14.8140000 -20.3550000
  -0.9736634  14.7058248 -20.9820675  -1.4960000  14.8580000 -18.9220000
  -2.0327093  14.0547676 -18.4171633   0.0080000  14.6820000 -18.6630000
   0.5041432  15.5587973 -19.0791342   0.1420288  14.6684779 -17.5813561
   0.6080000  13.4370000 -19.2580000   0.0277617  12.5870076 -18.8989215
   0.5123500  13.5098951 -20.3413464   2.0650000  13.2440000 -18.8920000
   2.6465028  14.0684885 -19.3045195   2.1604185  13.2403173 -17.8061910
   2.6040000  11.9760000 -19.4180000   2.4399881  11.1605899 -18.8450203
   3.2760000  11.8250000 -20.5680000   3.5730000  12.8670000 -21.3720000
   3.2856332  13.7996318 -21.1117725   4.0813482  12.7096704 -22.2304458
   3.6600000  10.6020000 -20.9190000   3.4424234   9.8168872 -20.3220423
   4.1676286  10.4633311 -21.7810805  -2.0380000  16.1430000 -18.2650000
  -2.4750000  16.1000000 -17.1110000  -2.0040000  17.3000000 -18.9510000
  -1.6061150  17.3414926 -19.8783970  -2.4720000  18.5490000 -18.3380000
  -2.2879966  18.5170239 -17.2641194  -1.7360000  19.7730000 -18.9290000
  -1.8885577  19.7322190 -20.0075000  -2.2331292  20.6550593 -18.5253493
  -0.1840000  19.8530000 -18.6180000  -0.0971398  20.1205063 -17.5649110
   0.2100866  18.8482888 -18.7708178   0.6430000  20.8840000 -19.4950000
   0.4111809  20.6676042 -20.5378479   0.2768370  21.8786859 -19.2407872
   2.1940000  20.8290000 -19.2830000   2.4051877  21.2992802 -18.3226163
   2.4768661  19.7771456 -19.2419123   2.9940000  21.5280000 -20.3780000
   2.7323506  22.5027816 -20.4159504   3.9804483  21.4518346 -20.1749763
   2.7987788  21.0921034 -21.2679336  -3.9880000  18.7110000 -18.4930000
  -4.6220000  19.3800000 -17.6730000  -4.5820000  18.0940000 -19.5250000
  -4.0246367  17.5371979 -20.1569944  -6.0120000  18.2200000 -19.7910000
  -6.3350526  19.2413768 -19.5896904  -6.3200000  17.8890000 -21.2520000
  -5.6218544  18.4676834 -21.8568285  -6.1208511  16.8257079 -21.3856029
  -7.7650000  18.2010000 -21.6950000  -8.4607172  17.9328903 -20.8998927
  -7.8770000  19.6520000 -21.9810000  -7.1818629  19.9207941 -22.7763823
  -8.8947841  19.8834444 -22.2950857  -7.6367802  20.2196495 -21.0820179
  -8.2060000  17.4640000 -22.9240000  -8.1529845  16.3904216 -22.7431184
  -9.2321289  17.7409591 -23.1657734  -7.5539382  17.7240761 -23.7578314
  -6.8450000  17.3040000 -18.8990000  -7.9190000  17.6980000 -18.4400000
  -6.4160000  16.0620000 -18.6790000  -5.5890671  15.7188597 -19.1464784
  -7.1490000  15.1470000 -17.8080000  -8.2206078  15.2622005 -17.9707414
  -6.7650000  13.7060000 -18.1030000  -5.6864181  13.6403426 -17.9599983
  -7.2681923  13.0947347 -17.3538323  -7.1190000  13.2080000 -19.4750000
  -6.5486454  13.7999672 -20.1908011  -6.8030540  12.1663629 -19.5322043
  -8.8660000  13.3180000 -19.8770000  -8.8300000  14.8980000 -20.7150000
  -8.1647145  14.8379533 -21.5763295  -9.8348709  15.1551897 -21.0499457
  -8.4684464  15.6649763 -20.0300710  -6.8870000  15.4750000 -16.3390000
  -6.3350000  14.6700000 -15.5790000  -7.2890000  16.6860000 -15.9470000
  -7.6589654  17.3308596 -16.6306527  -7.2230000  17.1160000 -14.5570000
  -6.9355158  16.2646688 -13.9400015  -6.2230000  18.2320000 -14.3380000
  -6.6127186  19.1499424 -14.7780016  -5.9820000  18.4460000 -12.8430000
  -5.5918108  17.5285617 -12.4023653  -5.2610122  19.2512798 -12.7022871
  -6.9211681  18.7108964 -12.3573110  -4.9900000  17.8840000 -14.9690000
  -4.3514500  18.5879498 -14.8336894  -8.5840000  17.6260000 -14.1320000
  -9.3650000  18.1120000 -14.9610000  -8.8580000  17.5350000 -12.8270000
  -8.2645193  17.0417458 -12.1754017 -10.1170000  18.0800000 -12.3380000
 -10.9475616  17.6906393 -12.9267825 -10.3240000  17.6810000 -10.8790000
  -9.7779227  16.7501915 -10.7257216  -9.8782000  18.4676434 -10.2702681
 -11.7890000  17.4870000 -10.4700000 -11.7963943  17.3197152  -9.3929383
 -12.3544196  18.3898406 -10.7008282 -12.4660000  16.2980000 -11.1540000
 -13.1180000  16.4500000 -12.1930000 -12.3410000  15.1140000 -10.5500000
 -12.7681415  14.2947687 -10.9580584 -11.8198618  15.0429070  -9.6877575
 -10.1740000  19.6000000 -12.5350000 -11.2340000  20.1360000 -12.8750000
  -9.0360000  20.3050000 -12.3800000  -8.1797235  19.8447882 -12.1059652
  -9.0170000  21.7570000 -12.5570000  -9.8407103  22.2004193 -11.9975539
  -7.7100000  22.3590000 -12.0580000  -7.8480022  23.4399363 -12.0328735
  -7.5572324  21.9890797 -11.0441356  -6.4980000  22.0240000 -12.9060000
  -6.0661230  21.0924338 -12.5402577  -6.8366122  21.8882714 -13.9331410
  -5.4460000  23.1230000 -12.8600000  -5.8450000  24.3110000 -12.8100000
  -4.2300000  22.8080000 -12.8650000  -9.2160000  22.1880000 -14.0020000
  -9.5440000  23.3560000 -14.2440000  -8.9500000  21.3100000 -14.9720000
  -8.4980308  20.4265434 -14.7840435  -9.2900000  21.6320000 -16.3510000
  -8.8907037  22.6177129 -16.5898132  -8.6690000  20.6120000 -17.2990000
  -9.0772303  19.6278859 -17.0688529  -8.9660000  20.9550000 -18.7350000
  -8.5576421  21.9388524 -18.9660368  -8.5109335  20.2107035 -19.3884801
 -10.0446955  20.9640574 -18.8913158  -7.2560000  20.6220000 -17.1370000
  -6.8611089  19.9808167 -17.7324371 -10.7910000  21.6400000 -16.5030000
 -11.3770000  22.5560000 -17.1010000 -11.4290000  20.6120000 -15.9480000
 -10.9124924  19.8474153 -15.5372332 -12.8830000  20.5250000 -15.9800000
 -13.2690083  20.5138991 -16.9993005 -13.3480000  19.2500000 -15.2660000
 -12.9168475  19.2031868 -14.2659923 -14.8140000  19.2840000 -15.1660000
 -15.2459114  19.3303536 -16.1657024 -15.1651683  18.3844714 -14.6604017
 -15.1196508  20.1624279 -14.5976307 -12.8640000  18.0030000 -16.0230000
 -11.7750005  18.0055286 -16.0696443 -13.2027821  17.1071524 -15.5026314
 -13.2704829  18.0107120 -17.0343422 -13.4930000  21.7620000 -15.3570000
 -14.4080000  22.3690000 -15.9240000 -12.9610000  22.1830000 -14.2060000
 -12.2801595  21.6287233 -13.7066676 -13.4180000  23.4250000 -13.6000000
 -14.4569952  23.3254765 -13.2858612 -12.5700000  23.7570000 -12.3790000
 -11.5246317  23.7782281 -12.6869835 -12.8659032  24.7466984 -12.0310943
 -12.7460000  22.7500000 -11.2520000 -13.3400000  21.6460000 -11.4590000
 -12.2750000  23.0690000 -10.1430000 -13.3970000  24.5540000 -14.6160000
 -14.4220000  25.1910000 -14.8690000 -12.2550000  24.7690000 -15.2600000
 -11.4193375  24.2463234 -15.0395987 -12.1700000  25.8120000 -16.2730000
 -12.3721817  26.7769410 -15.8081230 -10.7690000  25.8430000 -16.8690000
 -10.5553412  24.8865690 -17.3461683 -10.7063037  26.6400902 -17.6098216
 -10.0411240  26.0245605 -16.0782209 -13.2020000  25.6070000 -17.3730000
 -13.7790000  26.5740000 -17.8870000 -13.3650000  24.3620000 -17.7910000
 -12.7724937  23.6347641 -17.4166159 -14.3070000  24.0110000 -18.8430000
 -14.1577054  24.6540824 -19.7103266 -14.1520000  22.5550000 -19.2820000
 -14.4433397  21.8981070 -18.4624196 -15.0350000  22.2840000 -20.4850000
 -14.7439355  22.9402436 -21.3051992 -14.9205807  21.2448866 -20.7936292
 -16.0759765  22.4718345 -20.2219644 -12.7010000  22.2790000 -19.6230000
 -12.0801413  22.4607674 -18.7457332 -12.5919254  21.2405696 -19.9358332
 -12.3860912  22.9369236 -20.4329813 -15.7420000  24.2870000 -18.4370000
 -16.5640000  24.6900000 -19.2490000 -16.0300000  24.0730000 -17.1610000
 -15.3173299  23.6797015 -16.5630727 -17.3660000  24.2670000 -16.6090000
 -18.0877575  23.6922436 -17.1893622 -17.4290000  23.8050000 -15.1590000
 -16.4961860  24.0174678 -14.6366833 -18.2566871  24.2777163 -14.6302530
 -17.6910000  22.0290000 -15.0110000 -17.6906185  21.9987435 -13.6813449
 -17.8780000  25.6920000 -16.7470000 -19.0590000  25.9040000 -16.9790000
 -16.9790000  26.6600000 -16.6470000 -16.0042751  26.4442482 -16.4938271
 -17.3680000  28.0530000 -16.7400000 -18.0923652  28.2889245 -15.9604271
 -16.1490000  28.9560000 -16.5630000 -15.5298310  28.8401340 -17.4525527
 -16.5130587  29.9817917 -16.5054436 -15.3230000  28.6420000 -15.3270000
 -15.9895704  28.6812120 -14.4654623 -14.9313287  27.6307628 -15.4369644
 -14.1750000  29.6080000 -15.1210000 -13.2740000  29.3080000 -14.3130000
 -14.1710000  30.6700000 -15.7650000 -17.9910000  28.2640000 -18.1010000
 -18.9570000  28.9970000 -18.2500000 -17.4120000  27.6220000 -19.0990000
 -16.5574774  27.1125710 -18.9247228 -17.9010000  27.6990000 -20.4630000
 -18.0208763  28.7419237 -20.7563241 -16.9140000  27.0360000 -21.4150000
 -16.7090282  26.0599376 -20.9752410 -17.3932938  26.9035057 -22.3849602
 -15.6050000  27.7970000 -21.5950000 -15.1730600  28.0006566 -20.6151772
 -14.6300000  26.9770000 -22.4160000 -15.0610795  26.7733242 -23.3961966
 -13.6996347  27.5318693 -22.5370007 -14.4270848  26.0352358 -21.9060922
 -15.8630000  29.1390000 -22.2540000 -16.5339724  29.7282719 -21.6289767
 -14.9198690  29.6715700 -22.3763699 -16.3207809  28.9826790 -23.2307801
 -19.2960000  27.1100000 -20.6420000 -20.0840000  27.6150000 -21.4290000
 -19.5940000  26.0530000 -19.8960000 -18.9097445  25.6785879 -19.2543542
 -20.8860000  25.3870000 -19.9940000 -21.2593275  25.4247841 -21.0173759
 -20.7830000  23.9270000 -19.5420000 -20.4758912  23.8985410 -18.4965457
 -22.1230000  23.2330000 -19.6940000 -22.4305708  23.2606495 -20.7393403
 -22.0347707  22.1963067 -19.3690640 -22.8680498  23.7425761 -19.0829908
 -19.7120000  23.2010000 -20.3500000 -20.0125717  23.2373546 -21.3971083
 -18.7786136  23.7490023 -20.2212260 -19.5130000  21.7650000 -19.9340000
 -20.4459027  21.2162137 -20.0629417 -18.7371300  21.3116485 -20.5509258
 -19.2119466  21.7278613 -18.8870581 -21.9580000  26.0650000 -19.1600000
 -21.7860000  26.2630000 -17.9610000 -23.0760000  26.4150000 -19.8070000
 -23.2480000  26.1190000 -21.2350000 -23.6126516  25.0994708 -21.3602588
 -22.2954810  26.2298714 -21.7531835 -24.2490000  27.1420000 -21.6590000
 -24.7995152  26.7891312 -22.5310755 -23.7477061  28.0791061 -21.9011528
 -25.1430000  27.3070000 -20.4830000 -25.9500590  26.5743762 -20.4871283
 -25.5651762  28.3117716 -20.4656534 -24.2510000  27.0930000 -19.2540000
 -23.8870371  28.0259705 -18.8236567 -25.0360000  26.3220000 -18.2020000
 -25.4200000  26.9020000 -17.1910000 -25.2450000  25.0310000 -18.4170000
 -24.9016272  24.5787499 -19.2522630 -26.0450000  24.2480000 -17.4880000
 -26.7544942  24.8936648 -16.9704731 -26.8220000  23.1770000 -18.2420000
 -27.6557921  23.6436501 -18.7665262 -26.1608979  22.6985595 -18.9645917
 -27.3160000  22.2070000 -17.3420000 -27.8033718  21.5380249 -17.8283547
 -25.2630000  23.5950000 -16.3680000 -24.3590000  22.8080000 -16.5990000
 -25.6620000  23.9000000 -15.1430000 -26.3889105  24.5916493 -15.0275804
 -25.0260000  23.3630000 -13.9510000 -23.9490603  23.5207687 -14.0093880
 -25.5510000  24.0490000 -12.6970000 -26.6176982  23.8371178 -12.6237879
 -25.0353427  23.6155183 -11.8400921 -25.3340000  25.5490000 -12.7110000
 -24.4274496  25.7605447 -13.2780238 -26.1893002  26.0026699 -13.2117438
 -25.2030000  26.1220000 -11.3220000 -24.8380000  25.3620000 -10.4030000
 -25.4560000  27.3310000 -11.1520000 -25.1650000  21.8560000 -13.8440000
 -24.2730000  21.1770000 -13.3530000 -26.2960000  21.3330000 -14.2850000
 -27.0471138  21.9159169 -14.6257863 -26.5190000  19.9050000 -14.2020000
 -26.4040254  19.5759383 -13.1692375 -27.9270000  19.5460000 -14.6750000
 -28.1311105  20.1223414 -15.5773684 -27.9358755  18.4825529 -14.9139592
 -28.9950000  19.8400000 -13.6340000 -28.7571759  19.2438719 -12.7529939
 -28.9413036  20.8988495 -13.3809120 -30.3930000  19.5050000 -14.1070000
 -30.7410000  19.8670000 -15.2480000 -31.1500000  18.8890000 -13.3300000
 -25.4630000  19.1410000 -14.9860000 -25.0080000  18.0940000 -14.5390000
 -25.0630000  19.6430000 -16.1480000 -25.4776182  20.4637572 -16.5657903
 -24.0410000  18.9320000 -16.8950000 -24.2557641  17.8636702 -16.9204383
 -24.0250000  19.4550000 -18.3120000 -23.5533617  20.4376028 -18.3241780
 -23.4532343  18.7703257 -18.9384225 -25.4140000  19.5650000 -18.8370000
 -26.1062984  19.1748792 -18.0909240 -25.6386084  20.6146139 -19.0266410
 -25.5590000  18.7880000 -20.1050000 -26.5902904  18.4415311 -20.1720699
 -25.3467130  19.4587064 -20.9375782 -24.6660000  17.6270000 -20.1970000
 -23.6782966  17.8000319 -20.0761637 -25.0710000  16.3740000 -20.4170000
 -26.3580000  16.1030000 -20.5550000 -27.0372218  16.8479712 -20.4935539
 -26.6557617  15.1523084 -20.7212022 -24.1920000  15.3910000 -20.5100000
 -23.2061488  15.5884422 -20.4140099 -24.5103429  14.4470742 -20.6766154
 -22.6750000  19.0510000 -16.2300000 -21.8570000  18.1380000 -16.3450000
 -22.4110000  20.1470000 -15.5180000 -22.9944924  20.9695453 -15.5732730
 -21.2330000  20.1910000 -14.6580000 -20.3340788  20.2487054 -15.2717671
 -21.2750000  21.4050000 -13.7420000 -22.1554741  21.3748830 -13.1001608
 -20.3766410  21.4225566 -13.1249563 -21.3200000  22.7070000 -14.4670000
 -21.0910000  23.9100000 -13.8340000 -21.2100000  24.8920000 -14.7110000
 -21.0634619  25.9279072 -14.4051866 -21.5100000  24.3690000 -15.8880000
 -21.6631817  24.8818147 -16.7445374 -21.5820000  23.0030000 -15.7640000
 -21.8165469  22.3884687 -16.6331606 -21.1180000  18.9360000 -13.8110000
 -20.0450000  18.3420000 -13.7120000 -22.2200000  18.5200000 -13.1860000
 -23.0934120  19.0156866 -13.2934504 -22.1910000  17.3480000 -12.3120000
 -21.4514341  17.4898467 -11.5239512 -23.5560000  17.1390000 -11.6670000
 -24.2669993  17.0901219 -12.4917364 -23.5036160  16.1677227 -11.1750891
 -24.0110000  18.1870000 -10.6690000 -23.2222454  18.3471802  -9.9339426
 -24.1961778  19.1146990 -11.2104636 -25.2920000  17.7490000  -9.9550000
 -25.9620000  16.7950000 -10.4420000 -25.6230000  18.3480000  -8.9040000
 -21.8140000  16.0850000 -13.0710000 -21.1890000  15.1740000 -12.5140000
 -22.2490000  15.9820000 -14.3240000 -22.8525575  16.6810023 -14.7329175
 -21.9130000  14.8100000 -15.1190000 -22.1139186  13.9103977 -14.5372384
 -22.7730000  14.7790000 -16.3760000 -22.5762339  15.6691398 -16.9735235
 -22.5328694  13.8900790 -16.9593155 -23.8261240  14.7555693 -16.0958570
 -20.4300000  14.7950000 -15.4720000 -19.7330000  13.8100000 -15.1960000
 -19.9380000  15.8820000 -16.0880000 -20.5725140  16.6152853 -16.3704606
 -18.5220000  16.0360000 -16.3980000 -18.2422119  15.3462216 -17.1942560
 -18.2260000  17.4550000 -16.8580000 -19.0657804  18.0543652 -16.5063901
 -17.3069431  17.8088503 -16.3908550 -18.1090000  17.5840000 -18.3650000
 -19.0864465  17.4514371 -18.8288170 -17.5870000  18.9550000 -18.6820000
 -16.6093066  19.0881483 -18.2188736 -17.4952996  19.0686472 -19.7621741
 -18.2767548  19.7053034 -18.2954983 -17.2120000  16.5020000 -18.9380000
 -17.6283294  15.5223041 -18.7035533 -17.1463338  16.6188989 -20.0197226
 -16.2162371  16.5866496 -18.5028106 -17.6660000  15.7120000 -15.1980000
 -16.8890000  14.7600000 -15.2230000 -17.8240000  16.4760000 -14.1190000
 -18.5127893  17.2136761 -14.0802354 -16.9390000  16.2980000 -12.9780000
 -15.9101821  16.4966058 -13.2783142 -17.3080000  17.2480000 -11.8550000
 -18.2996056  16.9736549 -11.4950662 -16.5818866  17.1177722 -11.0525661
 -17.3150000  18.6640000 -12.2890000 -16.4477877  18.8384537 -12.9258748
 -18.2260779  18.8506141 -12.8575194 -17.2630000  19.5960000 -11.1020000
 -18.1734621  19.4910228 -10.5119682 -16.3993088  19.3544799 -10.4824800
 -17.1490000  20.9820000 -11.5430000 -17.1287837  21.1536972 -12.5380933
 -17.0720000  22.0220000 -10.7180000 -17.1060000  21.8290000  -9.3980000
 -17.1902208  20.8923334  -9.0296760 -17.0473587  22.6204769  -8.7733200
 -16.9600000  23.2540000 -11.2110000 -16.9339234  23.3940701 -12.2109002
 -16.9016445  24.0426625 -10.5827446 -16.9410000  14.8730000 -12.4580000
 -15.9460000  14.4410000 -11.8570000 -18.0370000  14.1270000 -12.6660000
 -18.8877986  14.5101669 -13.0525543 -18.0320000  12.7250000 -12.2580000
 -17.4891629  12.6261372 -11.3179717 -19.4520000  12.1910000 -12.0610000
 -19.8745843  12.6190345 -11.1519850 -20.0655468  12.4762209 -12.9155814
 -19.4230000  10.6580000 -11.9400000 -19.2345626  10.3011696 -12.9525533
 -18.5839817  10.3887389 -11.2984036 -20.6970000  10.0170000 -11.4050000
 -20.6250000   9.3670000 -10.3360000 -21.7520000  10.1290000 -12.0640000
 -17.2900000  11.8600000 -13.2640000 -16.4540000  11.0370000 -12.8810000
 -17.5980000  12.0210000 -14.5540000 -18.3787672  12.6052351 -14.8170043
 -16.8690000  11.3190000 -15.6120000 -17.0658375  10.2477633 -15.5695014
 -17.3380000  11.8470000 -16.9620000 -18.4266703  11.8489618 -16.9082196
 -16.9777073  12.8711130 -17.0593748 -16.8940000  11.0400000 -18.1630000
 -15.8171452  10.8768733 -18.1197062 -17.6050000   9.7090000 -18.1490000
 -18.6819593   9.8713088 -18.1927419 -17.2915553   9.1199688 -19.0109138
 -17.3557727   9.1729715 -17.2332164 -17.2110000  11.8160000 -19.4160000
 -16.6828725  12.7693199 -19.3969727 -16.8951440  11.2435924 -20.2881730
 -18.2845108  11.9969597 -19.4701025 -15.3440000  11.4690000 -15.4680000
 -14.5950000  10.4870000 -15.5590000 -14.8720000  12.6990000 -15.2550000
 -15.4890860  13.4984555 -15.2682294 -13.4520000  12.9280000 -15.0460000
 -12.8800199  12.4753475 -15.8559652 -13.1550000  14.4290000 -15.0170000
 -13.4329470  14.8294232 -15.9919390 -13.7931400  14.8670303 -14.2495322
 -11.6870000  14.7750000 -14.7210000 -11.5796807  15.8595018 -14.7419580
 -11.4419323  14.4053374 -13.7253126 -10.5600000  14.0470000 -15.9150000
 -10.9770000  14.9840000 -17.3790000 -10.7963906  16.0433573 -17.1966776
 -10.3604643  14.6491429 -18.2131793 -12.0287921  14.8316856 -17.6211464
 -12.9900000  12.2780000 -13.7560000 -11.9040000  11.6840000 -13.6910000
 -13.7870000  12.4010000 -12.7030000 -14.6371643  12.9461929 -12.7122100
 -13.3780000  11.7840000 -11.4530000 -12.3938783  12.1503334 -11.1607613
 -14.3700000  12.1260000 -10.3530000 -14.3760416  13.2092085 -10.2316655
 -15.3589721  11.7903482 -10.6650449 -14.0120000  11.4800000  -9.0500000
 -12.8130000  11.4600000  -8.7220000 -14.9200000  10.9860000  -8.3520000
 -13.2330000  10.2790000 -11.6140000 -12.3160000   9.6660000 -11.0480000
 -14.1000000   9.6750000 -12.4220000 -14.8571545  10.1836986 -12.8556383
 -14.0080000   8.2420000 -12.6570000 -13.9160186   7.7146208 -11.7075213
 -15.2550000   7.7460000 -13.3690000 -15.5024115   8.4724469 -14.1430554
 -15.1049505   6.7672306 -13.8246267 -16.3940000   7.6680000 -12.3650000
 -16.4780434   8.6303737 -11.8601490 -17.7020000   7.3400000 -13.0430000
 -17.6188733   6.3774773 -13.5477166 -18.4959854   7.2915324 -12.2977894
 -17.9370780   8.1137831 -13.7738204 -16.0220000   6.6260000 -11.3290000
 -15.0976919   6.9207302 -10.8321217 -16.8204854   6.5449514 -10.5914680
 -15.8799273   5.6619250 -11.8173378 -12.7720000   7.9010000 -13.4640000
 -12.0170000   6.9870000 -13.1060000 -12.5610000   8.6160000 -14.5690000
 -13.2573114   9.2554324 -14.9244939 -11.3450000   8.4280000 -15.3360000
 -11.3491264   7.4467226 -15.8105281 -11.2470000   9.4960000 -16.4240000
 -12.2249337   9.5612876 -16.9009513 -11.0193505  10.4417099 -15.9321581
 -10.1970000   9.2070000 -17.4680000 -10.4020000   8.2460000 -18.4460000
 -11.3452064   7.6997830 -18.4563982  -9.4350000   7.9750000 -19.3980000
  -9.6164633   7.2183755 -20.1613428  -8.2550000   8.6690000 -19.3890000
  -7.2830000   8.4030000 -20.3350000  -7.5384490   7.7128459 -20.9514680
  -8.0240000   9.6330000 -18.4200000  -7.0817607  10.1807272 -18.4032511
  -8.9930000   9.8980000 -17.4740000  -8.8194139  10.6606869 -16.7148712
 -10.1330000   8.4470000 -14.4160000  -9.3310000   7.5060000 -14.4130000
 -10.0290000   9.4640000 -13.5520000 -10.7487914  10.1645483 -13.4460198
  -8.7950000   9.6120000 -12.7740000  -7.9310412   9.5040533 -13.4297605
  -8.7380000  10.9790000 -12.1180000  -9.6192155  11.0165423 -11.4775712
  -7.8400460  11.0480485 -11.5039878  -8.7730000  12.1380000 -13.0930000
  -9.7591330  12.2163411 -13.5507173  -8.4720000  13.4090000 -12.3200000
  -7.4857643  13.3315894 -11.8623478  -8.4908344  14.2611496 -12.9994020
  -9.2229256  13.5483499 -11.5423158  -7.7850000  11.9080000 -14.2270000
  -8.0456108  10.9915063 -14.7563587  -7.8225516  12.7496477 -14.9186070
  -6.7780351  11.8178407 -13.8195788  -8.6110000   8.5400000 -11.7050000
  -7.5140000   8.4350000 -11.1360000  -9.6510000   7.7570000 -11.4060000
 -10.5778739   7.9775986 -11.7411722  -9.4890000   6.6040000 -10.5390000
  -8.7034151   6.7926830  -9.8073209 -10.7990000   6.3260000  -9.7910000
 -11.5688766   6.1789224 -10.5484678 -10.6540800   5.3990127  -9.2362092
 -11.2390000   7.4420000  -8.8210000 -10.4948451   7.5370251  -8.0302380
 -11.3070561   8.3812266  -9.3699296 -12.6030000   7.1120000  -8.2020000
 -13.2659819   6.8225154  -9.0173237 -12.4574571   6.2631339  -7.5339109
 -13.2290000   8.2730000  -7.4230000 -12.8677893   8.2450136  -6.3949707
 -12.9298999   9.2127666  -7.8871950 -14.7280000   8.1660000  -7.4300000
 -15.0053778   7.2954546  -6.9995212 -15.1230503   8.9382940  -6.9127020
 -15.0629405   8.1923437  -8.3824809  -9.0510000   5.3680000 -11.3050000
  -8.4820000   4.4500000 -10.7070000  -9.2930000   5.3270000 -12.6110000
  -9.8235699   6.0557425 -13.0665539  -8.8670000   4.1850000 -13.4050000
  -8.7785917   3.3012419 -12.7731339  -9.9000000   3.9000000 -14.5060000
  -9.8020771   4.6926662 -15.2477484  -9.6295799   2.9453776 -14.9572971
 -11.3480000   3.8390000 -14.0130000 -11.4134116   2.9484971 -13.3878386
 -11.4912606   4.7264175 -13.3965030 -12.6460000   3.7760000 -15.2780000
 -12.2550000   2.2780000 -16.0920000 -12.3032945   1.4538209 -15.3803151
 -12.9688594   2.1043648 -16.8972057 -11.2488395   2.3409868 -16.5064575
  -7.4740000   4.3890000 -14.0060000  -6.7030000   3.4190000 -14.1160000
  -7.1120000   5.6280000 -14.3520000  -7.7269168   6.4182905 -14.2200243
  -5.8450000   5.8450000 -15.0430000  -5.8487648   5.3156613 -15.9958303
  -5.6290000   7.3430000 -15.3140000  -6.5269839   7.7236727 -15.8006337
  -5.5005098   7.8378520 -14.3513413  -4.4080000   7.6250000 -16.2010000
  -3.5312217   7.6039612 -15.5537612  -4.3443173   6.8123973 -16.9246874
  -4.4640000   8.9780000 -16.9490000  -3.6370551   8.9978889 -17.6588349
  -5.4086936   9.0171677 -17.4913276  -4.3630000  10.1790000 -16.0190000
  -4.1430063  11.0607436 -16.6208567  -5.3244400  10.3094150 -15.5222865
  -3.3010000   9.9990000 -15.0000000  -2.4099611   9.8785678 -15.4600494
  -3.2648043  10.8135784 -14.4039699  -3.5048855   9.1822520 -14.4419208
  -4.6600000   5.2470000 -14.3080000  -3.8850000   4.5200000 -14.9530000
  -4.4820000   5.4440000 -12.9950000  -5.2720000   6.2670000 -12.0580000
  -6.1613663   5.7155239 -11.7530378  -5.5701437   7.1920545 -12.5514405
  -4.3260000   6.5050000 -10.9230000  -4.8768320   6.6555777  -9.9945553
  -3.7057419   7.3787917 -11.1226731  -3.4940000   5.2590000 -10.8700000
  -4.0250830   4.4553736 -10.3598682  -2.5315756   5.4228091 -10.3852263
  -3.2820000   4.8910000 -12.3410000  -2.4172635   5.4061994 -12.7592088
  -3.1190000   3.3980000 -12.5300000  -1.9940000   2.8930000 -12.5190000
  -4.2100000   2.6650000 -12.7260000  -5.1376448   3.0644661 -12.7248814
  -4.0810000   1.2200000 -12.8460000  -3.4551556   0.8204356 -12.0480236
  -5.4640000   0.5670000 -12.7570000  -6.1145480   1.0006939 -13.5164710
  -5.3510000  -0.9100000 -12.9810000  -4.7009285  -1.3445005 -12.2215810
  -6.3395199  -1.3645994 -12.9156681  -4.9302179  -1.0970374 -13.9689580
  -6.0250000   0.8460000 -11.4040000  -6.1097791   1.9231560 -11.2603007
  -7.0111581   0.3897452 -11.3178411  -5.3647560   0.4293508 -10.6433541
  -3.3480000   0.8460000 -14.1260000  -2.5450000  -0.0950000 -14.1400000
  -3.5920000   1.5690000 -15.2160000  -4.2252990   2.3555851 -15.1982355
  -3.0200000   1.1750000 -16.4900000  -2.6897245   0.1375084 -16.4387320
  -4.0570000   1.3050000 -17.6160000  -3.8233654   0.6301185 -18.4394373
  -5.0267465   1.0407192 -17.1942805  -4.2080000   2.6850000 -18.2170000
  -3.2960000   3.3850000 -18.9740000  -2.3395721   2.8968999 -19.1613600
  -3.8190000   4.6100000 -19.3470000  -3.3516975   5.3184265 -19.8945945
  -5.0870000   4.7010000 -18.8490000  -5.9970000   5.7150000 -18.9610000
  -5.7218220   6.6121723 -19.5154885  -7.2130000   5.5300000 -18.3580000
  -7.9686434   6.3120744 -18.4319103  -7.5140000   4.3570000 -17.6450000
  -8.4811324   4.2268342 -17.1593959  -6.6030000   3.3460000 -17.5400000
  -6.8812486   2.4544820 -16.9779732  -5.3640000   3.5030000 -18.1420000
  -1.7590000   1.9510000 -16.8370000  -1.1740000   1.7050000 -17.9010000
  -1.3220000   2.8760000 -15.9700000  -1.8771337   3.0943623 -15.1549884
  -0.0990000   3.6360000 -16.1970000   0.4019894   3.2602346 -17.0891374
  -0.4020000   5.1250000 -16.3960000  -1.4312100   5.3240775 -16.0973460
   0.2755414   5.7140790 -15.7779194  -0.2170000   5.5030000 -17.8460000
   0.5223222   4.8221510 -18.2678390  -1.1742107   5.3539957 -18.3456474
   0.2380000   6.9250000 -18.0470000  -0.5625100   7.5981701 -17.7402024
   1.1188380   7.1039766 -17.4304035   0.5780000   7.2060000 -19.4440000
  -0.0710443   7.7692320 -19.9746699   1.6890000   6.7810000 -20.0440000
   2.5580000   6.0200000 -19.3860000   2.3744804   5.7631443 -18.4266014
   3.3977509   5.7021834 -19.8485047   1.9220000   7.1040000 -21.3110000
   1.2554218   7.6710823 -21.8151738   2.7646945   6.7810631 -21.7645156
   0.9680000   3.5300000 -15.1230000   2.0890000   3.9910000 -15.3620000
   0.6650000   2.9890000 -13.9490000  -0.2827103   2.7766534 -13.6717756
   1.7330000   2.7420000 -12.9960000   2.4796843   3.5325276 -13.0710191
   1.1940000   2.7140000 -11.5680000   2.0359431   2.6583996 -10.8779712
   0.6366610   3.6330862 -11.3870197   0.3400000   1.5940000 -11.3650000
   0.0149129   1.5990492 -10.4617322   2.4390000   1.4260000 -13.3260000
   1.9260000   0.5850000 -14.0790000   3.6320000   1.2570000 -12.7300000
   3.9605563   1.9702161 -12.0948048   4.5050000   0.1180000 -13.0040000
   4.3928818  -0.2049353 -14.0390080   5.9580000   0.5260000 -12.7750000
   6.1366183   0.6028869 -11.7024875   6.6087933  -0.2396998 -13.1972226
   6.2350000   1.7740000 -13.3910000   7.1520540   2.0112629 -13.2350576
   4.1560000  -1.0980000 -12.1520000   4.4280000  -2.2390000 -12.5490000
   3.5720000  -0.8880000 -10.9770000   3.5303597   0.0488180 -10.6018501
   3.0420000  -1.9840000 -10.1660000   2.7573368  -2.8065091 -10.8221592
   4.0650000  -2.4960000  -9.1590000   5.0571039  -2.6326913  -9.5892843
   4.1385167  -1.8711573  -8.2689063   3.5440000  -4.1110000  -8.5900000
   4.5689847  -4.3050626  -7.7649883   1.7800000  -1.5110000  -9.4690000
   1.8060000  -1.0640000  -8.3140000   0.6400000  -1.6140000 -10.1450000
   0.4040000  -2.3090000 -11.4250000   0.8850125  -3.2868719 -11.4027817
   0.8192090  -1.7189069 -12.2420010  -1.0750000  -2.4030000 -11.4900000
  -1.3956272  -3.3545471 -11.0659065  -1.3956210  -2.3428938 -12.5300436
  -1.6060000  -1.2420000 -10.6970000  -2.5777338  -1.4967874 -10.2740157
  -1.6934027  -0.3256771 -11.2807916  -0.5830000  -1.0500000  -9.5730000
  -0.4119148   0.0093854  -9.3818700  -0.9790000  -1.7380000  -8.2820000
  -1.4970000  -1.0720000  -7.3730000  -0.6970000  -3.0460000  -8.1600000
  -0.2930336  -3.5552627  -8.9330213  -1.0290000  -3.7820000  -6.9450000
  -2.0981097  -3.6628888  -6.7691701  -0.7260000  -5.2660000  -7.1170000
   0.3423615  -5.4021573  -7.2848242  -1.0235079  -5.8047571  -6.2173723
  -1.2798817  -5.6537410  -7.9719686  -0.3000000  -3.2400000  -5.7270000
  -0.7030000  -3.5450000  -4.5970000   0.7390000  -2.4300000  -5.9270000
   1.0799876  -2.3062842  -6.8696140   1.4480000  -1.7650000  -4.8440000
   1.0622835  -2.1056729  -3.8831338   2.9420000  -2.0870000  -4.9130000
   3.3411033  -1.6011525  -5.8033752   3.4104283  -1.6603558  -4.0260672
   3.2360000  -3.5740000  -4.9740000   2.4078978  -4.1116797  -4.5122121
   3.3220031  -3.8691063  -6.0197618   4.5310000  -3.9110000  -4.2430000
   4.3860301  -3.7043387  -3.1826351   4.7324888  -4.9732394  -4.3813806
   5.7210000  -3.0920000  -4.7660000   5.8661238  -3.3844117  -5.8059688
   5.4207596  -2.0450912  -4.7219909   7.0120000  -3.2770000  -4.0070000
   7.2906101  -4.2469451  -4.0480206   7.7315912  -2.7021795  -4.4215719
   6.8778562  -3.0056955  -3.0434138   1.2600000  -0.2570000  -4.8270000
   1.0370000   0.3050000  -3.7550000   1.3100000   0.4160000  -5.9860000
   1.4323676  -0.0743271  -6.8604740   1.2400000   1.8810000  -6.0140000
   1.8128266   2.2961661  -5.1847799   1.8160000   2.4090000  -7.3130000
   1.0231136   2.4135516  -8.0609370   2.1608906   3.4290375  -7.1436657
   2.9410000   1.5830000  -7.7940000   3.6669790   1.4925925  -6.9859890
   2.5536507   0.5957707  -8.0458692   3.6000000   2.1760000  -8.9880000
   3.7890000   1.4430000  -9.9890000   3.9270000   3.3820000  -8.9180000
  -0.1790000   2.4170000  -5.8470000  -0.3640000   3.5110000  -5.2980000
  -1.1870000   1.7090000  -6.3630000  -0.9933384   0.8525340  -6.8620596
  -2.5780000   2.1700000  -6.2860000  -2.6962569   2.8443837  -5.4378720
  -2.9680000   2.9160000  -7.5610000  -3.9993939   3.2636913  -7.5023776
  -2.3070511   3.7669792  -7.7255631  -2.8640000   1.9020000  -9.0590000
  -3.2581110   2.8545886  -9.8993272  -3.5210000   0.9930000  -6.0380000
  -4.4750000   0.7740000  -6.7860000  -3.3170000   0.2480000  -4.9450000
  -2.6020000   0.6310000  -3.7200000  -2.7738636   1.6864183  -3.5086820
  -1.5337820   0.4558274  -3.8477649  -3.2090000  -0.2690000  -2.6870000
  -4.0875858   0.2057099  -2.2501515  -2.4817376  -0.4780341  -1.9024647
  -3.5700000  -1.5080000  -3.4180000  -4.3519732  -2.0542135  -2.8904892
  -2.7246341  -2.1712246  -3.6012736  -4.1130000  -0.9750000  -4.7460000
  -3.8986958  -1.6470050  -5.5770121  -5.6030000  -0.7130000  -4.6810000
  -6.3890000  -1.5250000  -5.1900000  -6.0180000   0.4100000  -4.0830000
  -5.3637573   1.0298277  -3.6270620  -7.4370000   0.7370000  -4.0220000
  -7.9739092  -0.0491076  -3.4910926  -7.6530000   2.0630000  -3.2830000
  -6.7436241   2.6482851  -3.4192940  -8.4847717   2.5644484  -3.7777781
  -7.9560000   1.9290000  -1.7800000  -8.5302876   1.0132411  -1.6397138
  -6.9985682   1.8390366  -1.2668431  -8.7390000   3.1190000  -1.1990000
  -8.8040000   4.1890000  -1.8490000  -9.2980000   2.9780000  -0.0860000
  -8.0300000   0.8030000  -5.4220000  -9.0300000   0.1360000  -5.7170000
  -7.4040000   1.5900000  -6.3080000  -6.5669276   2.0934217  -6.0511426
  -7.9460000   1.7870000  -7.6490000  -8.9795645   2.1276473  -7.5873314
  -7.1310000   2.8370000  -8.3930000  -6.1095165   2.4696283  -8.4915328
  -7.5664402   2.9684091  -9.3835672  -7.1220000   4.0830000  -7.7110000
  -6.6002241   4.7165648  -8.2089411  -7.9700000   0.4860000  -8.4340000
  -8.8390000   0.2910000  -9.2980000  -7.0200000  -0.4090000  -8.1480000
  -6.2722078  -0.1886202  -7.5058638  -7.0080000  -1.7080000  -8.8000000
  -7.0703956  -1.5854514  -9.8812899  -5.7150000  -2.4420000  -8.4670000
  -4.9384459  -1.8628900  -8.9666944  -5.5584732  -2.4045671  -7.3889470
  -5.6520000  -3.8860000  -8.9380000  -6.3689012  -4.4743541  -8.3652933
  -5.9820000  -3.9860000 -10.4160000  -5.2651981  -3.3982332 -10.9894318
  -5.9306425  -5.0283593 -10.7305635  -6.9875020  -3.6033281 -10.5910096
  -4.2850000  -4.4750000  -8.6580000  -4.0875625  -4.4430346  -7.5865075
  -4.2571064  -5.5091268  -9.0013728  -3.5251532  -3.8973222  -9.1843271
  -8.2110000  -2.5260000  -8.3820000  -8.8440000  -3.1870000  -9.2150000
  -8.5360000  -2.5020000  -7.0880000  -7.9955835  -1.9733239  -6.4182606
  -9.6670000  -3.2840000  -6.6010000  -9.5625924  -4.3237011  -6.9111932
  -9.7220000  -3.2330000  -5.0760000  -9.1527938  -2.3818456  -4.7023161
 -10.7542378  -3.1574093  -4.7341358  -9.0320000  -4.6910000  -4.2660000
  -9.2566398  -4.2781986  -3.0218014 -10.9580000  -2.7610000  -7.1920000
 -11.7500000  -3.5280000  -7.7660000 -11.1570000  -1.4520000  -7.1060000
 -10.4305560  -0.8747583  -6.7070382 -12.4010000  -0.8170000  -7.5020000
 -13.2531760  -1.4208426  -7.1901196 -12.5010000   0.5520000  -6.8310000
 -11.7159883   1.1794226  -7.2531335 -13.4752361   0.9690259  -7.0860558
 -12.3500000   0.5020000  -5.3040000 -11.5110253  -0.1641562  -5.1028577
 -12.1098367   1.5047987  -4.9507036 -13.5930000  -0.0150000  -4.5250000
 -14.7330000  -0.0400000  -5.0260000 -13.3590000  -0.4040000  -3.2720000
 -14.1184898  -0.7517785  -2.7042617 -12.4232436  -0.3492479  -2.8958836
 -12.5440000  -0.6740000  -9.0080000 -13.5650000  -0.1360000  -9.4630000
 -11.5510000  -1.1370000  -9.7810000 -10.7767288  -1.6554829  -9.3914120
 -11.5230000  -0.8180000 -11.2000000 -11.5124205   0.2640401 -11.3310589
 -10.2760000  -1.4040000 -11.8680000  -9.4072863  -1.2204450 -11.2357474
 -10.4333869  -2.4781717 -11.9653882 -10.0390000  -0.8020000 -13.2390000
 -10.8160000  -1.1760000 -14.3240000 -11.5917303  -1.9281232 -14.1802895
 -10.6220000  -0.6150000 -15.5680000 -11.2440340  -0.9207578 -16.4092418
  -9.6340000   0.3380000 -15.7480000  -9.4420000   0.9040000 -16.9890000
 -10.0466220   0.5653435 -17.6533370  -8.8420000   0.7230000 -14.6880000
  -8.0548188   1.4640656 -14.8268094  -9.0520000   0.1610000 -13.4390000
  -8.4398412   0.4708586 -12.5920352 -12.7930000  -1.2970000 -11.8790000
 -13.4420000  -0.5360000 -12.6050000 -13.1980000  -2.5380000 -11.6130000
 -12.6683739  -3.1666849 -11.0261858 -14.4240000  -3.0340000 -12.2280000
 -14.3278549  -3.0294648 -13.3137416 -14.6880000  -4.4490000 -11.7730000
 -15.0164391  -4.4627049 -10.7337507 -15.4466809  -4.9180596 -12.3994873
 -13.4850000  -5.1540000 -11.8910000 -13.6171991  -6.0619656 -11.6086498
 -15.6050000  -2.1450000 -11.8910000 -16.3980000  -1.7920000 -12.7720000
 -15.7450000  -1.7730000 -10.6190000 -15.1289102  -2.1056556  -9.8910763
 -16.8580000  -0.9150000 -10.2420000 -17.8013533  -1.3970321 -10.4985714
 -16.8380000  -0.6500000  -8.7320000 -16.9331351  -1.5834283  -8.1772386
 -15.9029134  -0.1601837  -8.4603512 -17.9580000   0.2560000  -8.2530000
 -19.3070000  -0.0580000  -8.5010000 -19.5463316  -0.9744698  -9.0403547
 -20.3350000   0.7870000  -8.0660000 -21.3736503   0.5383999  -8.2839547
 -20.0320000   1.9400000  -7.3580000 -20.8279991   2.5976007  -7.0086483
 -18.6970000   2.2570000  -7.0930000 -18.4583008   3.1623915  -6.5349775
 -17.6690000   1.4190000  -7.5400000 -16.6296045   1.6727309  -7.3317271
 -16.8080000   0.3820000 -11.0260000 -17.7620000   0.7400000 -11.7270000
 -15.6660000   1.0680000 -10.9640000 -14.8707421   0.6913982 -10.4681822
 -15.5470000   2.3940000 -11.5540000 -16.3241859   3.0526227 -11.1663179
 -14.1930000   2.9820000 -11.2020000 -13.4209737   2.2576686 -11.4616509
 -14.0406283   3.8960930 -11.7758614 -14.0740000   3.3070000  -9.7420000
 -15.0510000   3.6830000  -9.1080000 -12.8670000   3.1710000  -9.1920000
 -12.7357220   3.3776874  -8.2121295 -12.0895249   2.8619164  -9.7577743
 -15.7350000   2.3450000 -13.0550000 -16.3280000   3.2570000 -13.6410000
 -15.2290000   1.2880000 -13.6960000 -14.6582640   0.6029183 -13.2216344
 -15.4500000   1.1310000 -15.1260000 -15.0451114   1.9942776 -15.6541252
 -14.7660000  -0.1260000 -15.6510000 -15.1789698  -0.3664194 -16.6306702
 -13.6979223   0.0698473 -15.7456253 -14.9690000  -1.2160000 -14.7740000
 -14.5302338  -1.9946489 -15.1244139 -16.9290000   1.0810000 -15.4420000
 -17.3860000   1.7480000 -16.3740000 -17.6970000   0.3050000 -14.6710000
 -17.3067778  -0.2582136 -13.9289647 -19.1270000   0.1990000 -14.9410000
 -19.2875753  -0.1163978 -15.9719408 -19.7660000  -0.8280000 -14.0120000
 -19.6183071  -0.4846482 -12.9880881 -20.8326134  -0.8567866 -14.2347267
 -19.1770000  -2.2240000 -14.1690000 -19.0808579  -2.4452138 -15.2319779
 -18.1905317  -2.2349283 -13.7054669 -20.0320000  -3.3080000 -13.5210000
 -21.2690000  -3.2660000 -13.5910000 -19.3750000  -4.2890000 -12.8890000
 -19.8921033  -5.0326996 -12.4422154 -18.3653939  -4.2806830 -12.8620236
 -19.8120000   1.5530000 -14.8070000 -20.5340000   1.9860000 -15.7150000
 -19.5840000   2.2420000 -13.6820000 -19.0152047   1.8548702 -12.9426072
 -20.2180000   3.5390000 -13.4610000 -21.3018016   3.4249627 -13.4393466
 -19.7610000   4.1280000 -12.1230000 -20.0519060   3.4143214 -11.3521979
 -18.6737697   4.1928984 -12.1656429 -20.3440000   5.5110000 -11.7870000
 -19.8943564   5.8329025 -10.8476916 -20.0449155   6.1913565 -12.5843491
 -21.8750000   5.5220000 -11.6520000 -22.3016770   5.0231623 -12.5221762
 -22.1457781   4.9730724 -10.7500814 -22.4380000   6.8830000 -11.5640000
 -22.0490122   7.4982133 -10.8637854 -23.4100000   7.3470000 -12.3490000
 -23.9500000   6.5650000 -13.2770000 -23.6218698   5.6161178 -13.3867872
 -24.6862522   6.9228586 -13.8685822 -23.8510000   8.5870000 -12.2030000
 -23.4484401   9.1826542 -11.4936048 -24.5878973   8.9314305 -12.8017059
 -19.9230000   4.4910000 -14.6140000 -20.8380000   5.1250000 -15.1590000
 -18.6560000   4.5500000 -14.9990000 -17.9684042   3.9808930 -14.5263176
 -18.2120000   5.4100000 -16.0770000 -18.4486741   6.4516093 -15.8598948
 -16.7000000   5.2740000 -16.2230000 -16.2212130   5.6320253 -15.3115834
 -16.4198327   4.2349087 -16.3959035 -16.1200000   6.0670000 -17.3510000
 -16.2710000   5.6480000 -18.6540000 -16.8242268   4.7309880 -18.8568026
 -15.7340000   6.3710000 -19.6930000 -15.8663199   6.0327699 -20.7207123
 -15.0300000   7.5210000 -19.4340000 -14.6016591   8.0972968 -20.2540647
 -14.8660000   7.9450000 -18.1370000 -14.3082739   8.8577196 -17.9272748
 -15.4060000   7.2170000 -17.1040000 -15.2709304   7.5487473 -16.0745342
 -18.8970000   4.9990000 -17.3640000 -19.3360000   5.8380000 -18.1370000
 -18.9930000   3.6980000 -17.5930000 -18.5759365   3.0336091 -16.9568066
 -19.6510000   3.1910000 -18.7840000 -19.2108269   3.6501940 -19.6691484
 -19.4780000   1.6890000 -18.8810000 -19.9219470   1.2143457 -18.0059489
 -19.9713184   1.3233309 -19.7815683 -18.4160926   1.4471667 -18.9253681
 -21.1240000   3.5560000 -18.7690000 -21.6940000   3.9310000 -19.7880000
 -21.7360000   3.4290000 -17.5980000 -21.2196726   3.0972208 -16.7958604
 -23.1470000   3.7380000 -17.4300000 -23.7393204   3.1491896 -18.1303985
 -23.6010000   3.4110000 -16.0140000 -23.4329215   2.3460928 -15.8533092
 -22.9766707   3.9843122 -15.3287073 -25.0600000   3.7360000 -15.7600000
 -25.2311419   4.7723454 -16.0512035 -25.6609785   3.0786096 -16.3883008
 -25.4540000   3.5480000 -14.3130000 -24.6340000   3.8630000 -13.4270000
 -26.5850000   3.0890000 -14.0640000 -23.4130000   5.1990000 -17.7030000
 -24.3890000   5.5540000 -18.3510000 -22.5080000   6.0460000 -17.2370000
 -21.7185053   5.6962887 -16.7130731 -22.6410000   7.4820000 -17.4050000
 -23.5934300   7.8196098 -16.9963487 -21.5170000   8.1970000 -16.6720000
 -21.2801030   7.5556509 -15.8230888 -20.6618075   8.2364800 -17.3466756
 -21.8350000   9.5980000 -16.1750000 -21.7170619  10.3080281 -16.9935668
 -23.2610000   9.6470000 -15.6660000 -23.3795981   8.9375207 -14.8470540
 -23.4860612  10.6524866 -15.3104091 -23.9448275   9.3862979 -16.4737838
 -20.8650000   9.9820000 -15.0750000 -19.8467977   9.9589892 -15.4633736
 -21.0956334  10.9867540 -14.7209113 -20.9541641   9.2767380 -14.2487105
 -22.6440000   7.8610000 -18.8760000 -23.3850000   8.7370000 -19.2920000
 -21.7940000   7.2140000 -19.6580000 -21.1835068   6.5022870 -19.2826841
 -21.7250000   7.5000000 -21.0780000 -21.4998513   8.5556765 -21.2295074
 -20.6340000   6.6690000 -21.7430000 -20.7796195   5.6719133 -21.3274134
 -20.8749045   6.6577527 -22.8059857 -19.1800000   7.0900000 -21.5560000
 -18.9306531   7.0773286 -20.4949786 -18.2760000   6.1250000 -22.2990000
 -18.5244565   6.1374629 -23.3602318 -17.2364593   6.4247028 -22.1662063
 -18.4165029   5.1183512 -21.9052774 -18.9670000   8.5030000 -22.0650000
 -19.6082031   9.1894492 -21.5120574 -17.9242230   8.7872539 -21.9238720
 -19.2153023   8.5490744 -23.1253406 -23.0530000   7.1480000 -21.6910000
 -23.5650000   7.8550000 -22.5460000 -23.6090000   6.0090000 -21.3150000
 -23.1622015   5.3582821 -20.6848915 -24.9090000   5.6600000 -21.8560000
 -24.8880956   5.7179408 -22.9442578 -25.2790000   4.2380000 -21.4510000
 -25.5224672   4.2279553 -20.3885867 -26.1505646   3.9250531 -22.0259255
 -24.2090000   3.3490000 -21.6970000 -24.4638442   2.4612950 -21.4350189
 -25.9940000   6.6180000 -21.3730000 -26.8280000   7.0770000 -22.1450000
 -25.9810000   6.8930000 -20.0750000 -25.3021900   6.4366380 -19.4825053
 -26.9650000   7.7690000 -19.4510000 -27.9715425   7.5301224 -19.7943785
 -26.9080000   7.5790000 -17.9290000 -25.8697636   7.6467062 -17.6040673
 -27.7260000   8.6390000 -17.2260000 -28.7645175   8.5716132 -17.5500988
 -27.6715658   8.4853332 -16.1482604 -27.3323501   9.6251630 -17.4722171
 -27.4220000   6.2880000 -17.5960000 -27.3878489   6.1656861 -16.6444364
 -26.9840000   9.2810000 -19.6750000 -28.0210000   9.8340000 -20.0110000
 -25.8430000   9.9440000 -19.5340000 -24.9905564   9.4656409 -19.2798115
 -25.8140000  11.4030000 -19.6420000 -26.8258848  11.8039223 -19.5832657
 -24.9910000  11.9890000 -18.5010000 -24.0512318  11.4378044 -18.4675575
 -24.7917824  13.0309264 -18.7516028 -25.6670000  11.9160000 -17.1480000
 -26.0678206  10.9119691 -17.0088395 -24.9277594  12.1220519 -16.3739406
 -26.7930000  12.9270000 -17.0530000 -26.4085051  13.9007918 -17.3563022
 -27.5879265  12.6226921 -17.7338729 -27.3430000  13.0180000 -15.6430000
 -27.7778977  12.0546809 -15.3765778 -26.5217395  13.2457025 -14.9634546
 -28.3810000  14.0760000 -15.5370000 -29.1422882  13.8649685 -16.1662898
 -28.7280910  14.1133333 -14.5892479 -27.9781101  14.9687802 -15.7834189
 -25.3180000  11.9550000 -20.9580000 -25.7800000  12.9820000 -21.4330000
 -24.3540000  11.2660000 -21.5290000 -23.9678125  10.4729352 -21.0370581
 -23.7590000  11.6450000 -22.8000000 -24.0061788  12.6796795 -23.0375714
 -22.2410000  11.5130000 -22.7170000 -21.9388633  10.4771141 -22.5628793
 -21.7969301  11.8870392 -23.6394948 -21.6380000  12.3060000 -21.5990000
 -21.3520000  13.6400000 -21.7660000 -21.5575024  14.1125485 -22.7265033
 -20.8130000  14.3770000 -20.7390000 -20.5869208  15.4330198 -20.8866857
 -20.5590000  13.7830000 -19.5260000 -20.1310799  14.3648397 -18.7096380
 -20.8460000  12.4520000 -19.3440000 -20.6474924  11.9738615 -18.3847928
 -21.3860000  11.7220000 -20.3780000 -21.6200413  10.6669090 -20.2361985
 -24.3240000  10.8310000 -23.9480000 -23.6930000  10.6700000 -24.9830000
 -25.5190000  10.3040000 -23.7490000 -26.0119651  10.4517526 -22.8799465
 -26.1190000   9.4320000 -24.7400000 -25.5623733   8.4977237 -24.8134416
 -27.5580000   9.1130000 -24.3210000 -27.4723003   8.4895056 -23.4310508
 -28.0034838  10.0706263 -24.0515635 -28.4450000   8.4100000 -25.3530000
 -28.5822517   9.0681375 -26.2109731 -27.9554766   7.4909949 -25.6753327
 -29.8160000   8.0730000 -24.7410000 -29.6527401   7.6170774 -23.7644859
 -30.3745141   9.0010884 -24.6192897 -30.6140000   7.1090000 -25.6280000
 -30.9649318   7.6671000 -26.4960276 -29.9381604   6.3183779 -25.9539704
 -31.7830000   6.5040000 -24.9190000 -32.4095872   7.2364144 -24.6172430
 -32.2710854   5.8804512 -25.5459446 -31.4579992   5.9864513 -24.1148751
 -26.0560000  10.0580000 -26.1200000 -26.0440000   9.3370000 -27.1240000
 -25.9500000  11.3830000 -26.2010000 -25.8427275  11.9796780 -25.3931836
 -26.0430000  12.0080000 -27.5140000 -26.9686582  11.6999139 -28.0001471
 -26.0370000  13.5210000 -27.3970000 -26.0786523  13.8814418 -28.4248356
 -26.9410439  13.8245953 -26.8691416 -24.8380000  14.1050000 -26.7110000
 -24.8000000  14.1880000 -25.3340000 -25.6364040  13.7915702 -24.7583515
 -23.7510000  14.7480000 -24.7000000 -23.7442270  14.8164628 -23.6121724
 -22.7000000  15.2360000 -25.4210000 -21.6560000  15.7810000 -24.7060000
 -21.7959553  15.7519370 -23.7567016 -22.6950000  15.1720000 -26.8070000
 -21.8575668  15.5582217 -27.3880671 -23.7640000  14.6130000 -27.4410000
 -23.7853285  14.5596491 -28.5294847 -24.9260000  11.5900000 -28.4440000
 -25.0930000  11.6930000 -29.6690000 -23.7970000  11.1450000 -27.8750000
 -23.8057575  11.1159125 -26.8654572 -22.5760000  10.7520000 -28.5670000
 -22.6474154  10.9939754 -29.6273994 -21.3830000  11.5110000 -27.9700000
 -21.6224369  12.5736624 -28.0089590 -21.2874135  11.1985125 -26.9301371
 -20.0690000  11.2600000 -28.6980000 -19.7990098  10.2165825 -28.5352545
 -20.2464646  11.4273926 -29.7603503 -18.9260000  12.1630000 -28.2230000
 -19.1400443  13.1967342 -28.4944363 -18.8249113  12.0856209 -27.1404599
 -17.6650000  11.7700000 -28.8390000 -17.0545066  11.1441614 -28.3333092
 -17.2840000  12.1960000 -30.0350000 -18.0680000  13.0320000 -30.7070000
 -18.9429192  13.3340876 -30.3028224 -17.7854784  13.3615987 -31.6189462
 -16.1300000  11.7940000 -30.5570000 -15.5388348  11.1595217 -30.0392539
 -15.8493575  12.1247822 -31.4690974 -22.2970000   9.2570000 -28.5050000
 -21.8870000   8.6660000 -29.5110000 -22.5330000   8.6120000 -27.3610000
 -22.9223944   9.1183006 -26.5786120 -22.1360000   7.2160000 -27.1570000
 -21.4878477   6.8824311 -27.9673885 -21.3710000   7.0980000 -25.8400000
 -21.9821192   7.3785789 -24.9821492 -21.0745945   6.0531094 -25.7480894
 -20.1500000   7.9600000 -25.8850000 -19.1030000   7.6360000 -26.7270000
 -19.1727533   6.7290796 -27.3276075 -18.0010000   8.4250000 -26.8140000
 -17.1722215   8.1487463 -27.4658527 -17.9260000   9.5670000 -26.0540000
 -16.8150000  10.3590000 -26.1550000 -16.1678948  10.0198067 -26.7777378
 -18.9560000   9.9250000 -25.2230000 -18.8979142  10.8334635 -24.6234830
 -20.0680000   9.1260000 -25.1510000 -20.9016079   9.4088052 -24.5081787
 -23.3040000   6.2230000 -27.2240000 -23.2240000   5.1210000 -26.6760000
 -24.3740000   6.5640000 -27.9330000 -24.4878524   7.5138827 -28.2568208
 -25.4430000   5.6070000 -28.2050000 -25.4358004   4.8198972 -27.4509997
 -26.8000000   6.3020000 -28.1710000 -26.8225513   6.9081144 -27.2653422
 -26.8442542   6.9527681 -29.0442941 -27.9840000   5.3680000 -28.1800000
 -27.6647222   4.4224012 -28.6181841 -28.2981867   5.2025873 -27.1494543
 -29.1490000   5.9300000 -28.9810000 -28.8820000   6.7430000 -29.9000000
 -30.3230000   5.5690000 -28.6970000 -25.1700000   4.9430000 -29.5600000
 -25.1600000   5.6160000 -30.6040000 -24.9170000   3.6260000 -29.5370000
 -24.9238884   3.1393016 -28.6520274 -24.6310000   2.8630000 -30.7410000
 -24.9400692   1.8371588 -30.5404375 -25.2545760   3.2819731 -31.5307556
 -23.1840000   2.8620000 -31.2020000 -22.8570000   2.1660000 -32.1790000
 -22.3120000   3.6180000 -30.5400000 -22.6199616   4.1537658 -29.7411171
 -20.9320000   3.7480000 -30.9640000 -20.5909115   2.7923139 -31.3620225
 -20.7610000   4.8240000 -32.0530000 -19.7299604   5.1730100 -31.9960041
 -20.9256742   4.3340865 -33.0126703 -21.7090000   6.0140000 -31.9200000
 -22.7190291   5.6287167 -31.7803616 -21.4138973   6.5857041 -31.0401302
 -21.6750000   6.9260000 -33.1590000 -21.5049410   6.3218272 -34.0501533
 -22.6269421   7.4488521 -33.2513655 -20.5670000   7.9270000 -33.0150000
 -19.5914177   7.4617380 -33.1559642 -20.6818418   8.7499294 -33.7204769
 -20.6720000   8.4490000 -31.6210000 -20.5651819   7.6866775 -30.9671238
 -19.9461191   9.1330702 -31.4621137 -21.5757633   8.8805421 -31.4903005
 -20.0770000   4.0690000 -29.7540000 -20.5630000   4.5570000 -28.7280000
 -18.7840000   3.7730000 -29.8970000 -18.4759957   3.2965401 -30.7325948
 -17.8050000   4.0440000 -28.8580000 -17.8497128   5.0686890 -28.4890658
 -17.9740000   3.0620000 -27.6740000 -19.0126177   3.0889913 -27.3443865
 -17.6120000   1.6570000 -28.0770000 -16.5733121   1.6291200 -28.4063186
 -17.7404965   0.9895253 -27.2249044 -18.2597794   1.3338830 -28.8919088
 -17.1700000   3.5530000 -26.4850000 -16.1407515   3.6874119 -26.8176887
 -17.5829162   4.5160181 -26.1846737 -17.1980000   2.6410000 -25.3550000
 -16.7847808   1.6778394 -25.6544518 -16.6033185   3.0532958 -24.5398526
 -18.2269465   2.5064438 -25.0214381 -16.4200000   3.9640000 -29.4860000
 -16.2420000   3.4060000 -30.5850000 -15.4390000   4.5750000 -28.8100000
 -15.6371795   4.9918623 -27.9116404 -14.0850000   4.6730000 -29.3320000
 -14.0861853   4.7327041 -30.4203626 -13.3170000   5.8810000 -28.7750000
 -12.3105852   5.8559302 -29.1928528 -13.9770000   7.2160000 -29.1170000
 -14.9833518   7.2419991 -28.6990530 -13.3882905   8.0312461 -28.6964123
 -14.0308403   7.3284308 -30.1998486 -13.1810000   5.7430000 -27.3590000
 -12.7011875   6.4970696 -27.0086297 -13.3260000   3.4180000 -28.9730000
 -13.5990000   2.7820000 -27.9540000 -12.3680000   3.0730000 -29.8310000
 -12.2137881   3.5993580 -30.6790951 -11.5620000   1.8900000 -29.6000000
 -12.1977446   1.0054065 -29.5622876 -10.5530000   1.7180000 -30.7340000
  -9.8489975   2.5500032 -30.7181733 -10.0155273   0.7847024 -30.5661346
 -11.2160000   1.6610000 -32.1220000 -12.3290000   2.1340000 -32.3260000
 -10.5090000   1.0900000 -33.0780000 -10.8893903   1.0218237 -34.0111426
  -9.5905222   0.7235983 -32.8724540 -10.8620000   1.9760000 -28.2560000
 -10.8360000   1.0060000 -27.4920000 -10.3150000   3.1280000 -27.9230000
 -10.2827278   3.9545142 -28.5025966  -9.5960000   3.1440000 -26.6580000
  -9.0679541   2.1993246 -26.5281726  -8.5760000   4.2840000 -26.6170000
  -8.9580301   5.1424285 -27.1694968  -8.4375173   4.5580677 -25.5711465
  -7.2420000   3.8530000 -27.2090000  -6.4180000   2.9560000 -26.5270000
  -6.7380884   2.5808649 -25.5549318  -5.2000000   2.5380000 -27.0710000
  -4.5616972   1.8421636 -26.5264974  -4.8010000   3.0220000 -28.3120000
  -3.5990000   2.6190000 -28.8690000  -3.1166052   2.0018539 -28.3139995
  -5.6090000   3.9090000 -29.0080000  -5.2978917   4.2884702 -29.9813008
  -6.8180000   4.3130000 -28.4600000  -7.4603636   5.0035993 -29.0063898
 -10.5310000   3.1960000 -25.4620000 -10.1350000   2.7690000 -24.3760000
 -11.7780000   3.6560000 -25.6370000 -12.0736904   4.1153257 -26.4865213
 -12.7290000   3.5670000 -24.5300000 -12.2558782   3.9205685 -23.6138972
 -13.9600000   4.4150000 -24.7990000 -14.0964979   4.5420978 -25.8729245
 -14.8526255   3.9584719 -24.3713298 -13.8600000   5.7880000 -24.2150000
 -12.6640000   6.2300000 -23.6420000 -11.8063873   5.5574760 -23.6243395
 -12.5590000   7.4960000 -23.1040000 -11.6206849   7.8358926 -22.6656640
 -13.6530000   8.3330000 -23.1240000 -13.5804664   9.3362947 -22.7041923
 -14.8670000   7.8910000 -23.6880000 -15.7355114   8.5495113 -23.7002887
 -14.9540000   6.6370000 -24.2190000 -15.8927309   6.2929125 -24.6531522
 -13.1150000   2.1250000 -24.2630000 -13.0900000   1.6760000 -23.1090000
 -13.4410000   1.3820000 -25.3210000 -13.6318183   1.8074783 -26.2169110
 -13.5840000  -0.0620000 -25.1980000 -14.5180227  -0.2870839 -24.6831808
 -13.6020000  -0.7410000 -26.5530000 -14.3929486  -0.4268037 -27.2340147
 -12.6315713  -0.5469758 -27.0098619 -13.7200000  -2.2150000 -26.4160000
 -14.8810000  -2.8150000 -25.9860000 -15.7358736  -2.3232128 -25.7682009
 -14.6950000  -4.1160000 -25.9070000 -15.5113614  -4.7745653 -25.6104434
 -13.4470000  -4.3800000 -26.2320000 -12.8130000  -3.2070000 -26.5480000
 -11.7622110  -3.2162830 -26.8375795 -12.4750000  -0.6880000 -24.3520000
 -12.7430000  -1.2220000 -23.2710000 -11.2260000  -0.6660000 -24.8560000
 -11.0633318  -0.2227244 -25.7488299 -10.0880000  -1.2940000 -24.1730000
 -10.2194424  -2.3758989 -24.1551984  -8.7770000  -0.9710000 -24.9040000
  -8.7686827   0.1136798 -25.0112369  -7.9850774  -1.2739469 -24.2190315
  -8.5420000  -1.6290000 -26.2890000  -8.4953120  -2.7093403 -26.1519380
  -9.3850887  -1.3811953 -26.9339003  -7.2130000  -1.1290000 -26.9520000
  -7.3082054  -0.0549626 -27.1116202  -6.4018873  -1.3209191 -26.2496022
  -6.9020000  -1.8290000 -28.3070000  -5.9896063  -1.3636022 -28.6798851
  -6.7036727  -2.8729092 -28.0640618  -7.9790000  -1.7540000 -29.3720000
  -8.1626194  -0.7867856 -29.5975660  -7.6672280  -2.2396910 -30.2008561
  -8.8244009  -2.1855750 -29.0268342  -9.9690000  -0.8380000 -22.7210000
  -9.8730000  -1.6660000 -21.8050000  -9.9120000   0.4840000 -22.5040000
  -9.9045205   1.1210476 -23.2877179  -9.8240000   1.0430000 -21.1550000
  -8.8641147   0.8031698 -20.6976152  -9.9880000   2.5750000 -21.1810000
 -11.0353045   2.8132163 -21.3667592  -9.5560000   3.1880000 -19.8580000
  -8.5085983   2.9505845 -19.6717659  -9.6807828   4.2700049 -19.9003524
 -10.1685440   2.7833983 -19.0522780  -9.2260000   3.1680000 -22.2390000
  -9.3495735   4.1199459 -22.2276479 -10.8840000   0.4500000 -20.2250000
 -10.5760000   0.0700000 -19.0890000 -12.1510000   0.3820000 -20.6740000
 -12.3743412   0.6897530 -21.6096848 -13.2470000  -0.0930000 -19.8160000
 -13.0459399   0.1891157 -18.7825181 -14.5860000   0.5150000 -20.2370000
 -14.6999866   0.1670342 -21.2636577 -15.4156499   0.1453368 -19.6343972
 -14.5820000   2.0350000 -20.2150000 -13.6835441   2.3698762 -20.7333974
 -15.8230000   2.6550000 -20.8860000 -16.7218840   2.3209278 -20.3678281
 -15.7585072   3.7419662 -20.8365446 -15.8676506   2.3412714 -21.9289195
 -14.4000000   2.5170000 -18.7880000 -13.4534219   2.1447752 -18.3961607
 -14.3968100   3.6068420 -18.7696856 -15.2188244   2.1461663 -18.1714710
 -13.4170000  -1.6140000 -19.7970000 -13.8050000  -2.1660000 -18.7650000
 -13.1650000  -2.3040000 -20.9080000 -12.8367150  -1.7995221 -21.7190674
 -13.4000000  -3.7390000 -21.0340000 -14.2728893  -3.9785697 -20.4267357
 -13.7060000  -4.0960000 -22.4950000 -12.8378645  -3.8701905 -23.1142341
 -13.9379887  -5.1584508 -22.5690261 -14.5597734  -3.5132573 -22.8408052
 -12.2300000  -4.5930000 -20.5310000 -12.4450000  -5.5990000 -19.8500000
 -10.9810000  -4.2500000 -20.8660000 -10.7725387  -3.3265445 -21.2179572
  -9.8980000  -5.2190000 -20.7870000 -10.2787190  -6.1789695 -20.4382714
  -9.2700000  -5.4150000 -22.1760000  -8.8354622  -4.4836608 -22.5391586
  -8.4951171  -6.1795884 -22.1206728 -10.2410000  -5.8660000 -23.2140000
 -11.0150000  -6.9920000 -23.0560000 -10.9962880  -7.5849076 -22.2385586
 -11.7690000  -7.1670000 -24.1230000 -12.4430854  -8.0199487 -24.2016602
 -11.5280000  -6.1760000 -24.9570000 -10.5570000  -5.3600000 -24.4240000
 -10.2012774  -4.4968867 -24.9866694  -8.7740000  -4.8860000 -19.8050000
  -7.8820000  -5.7240000 -19.6250000  -8.7670000  -3.7230000 -19.1580000
  -9.4617660  -3.0135731 -19.3426970  -7.6480000  -3.3860000 -18.2740000
  -6.6836885  -3.5124510 -18.7661511  -7.7710000  -1.9310000 -17.8030000
  -8.7992765  -1.7237203 -17.5067202  -6.8480000  -1.7220000 -16.6110000
  -5.8194157  -1.9286585 -16.9066477  -6.9263044  -0.6908111 -16.2665898
  -7.1363186  -2.3966415 -15.8048779  -7.4350000  -0.9930000 -18.9450000
  -8.1248973  -1.1640732 -19.7713642  -7.5236152   0.0391905 -18.6061346
  -6.4144885  -1.1785416 -19.2800097  -7.5040000  -4.3910000 -17.1230000
  -6.3790000  -4.8380000 -16.8560000  -8.5700000  -4.7630000 -16.3950000
  -9.9440000  -4.2320000 -16.4400000 -10.5019872  -4.7258588 -17.2355212
  -9.9162364  -3.1587997 -16.6285984 -10.4640000  -4.5530000 -15.1020000
 -11.5510214  -4.6302437 -15.1247342 -10.1696766  -3.7859628 -14.3856698
  -9.8170000  -5.8930000 -14.7620000 -10.2977080  -6.7178038 -15.2880393
  -9.8067167  -6.1017918 -13.6922337  -8.3850000  -5.7140000 -15.2730000
  -7.7519273  -5.2219023 -14.5346525  -7.7600000  -7.0240000 -15.6760000
  -6.7770000  -7.4520000 -15.0450000  -8.2920000  -7.6710000 -16.7180000
  -9.1203197  -7.3248951 -17.1808144  -7.7320000  -8.9430000 -17.1620000
  -7.7731810  -9.6771481 -16.3573697  -8.5420000  -9.4670000 -18.3410000
  -9.5887584  -9.4741327 -18.0371163  -8.4078313  -8.7647162 -19.1637370
  -8.1370000 -10.8590000 -18.7930000  -7.0896843 -10.8104990 -19.0911248
  -8.2426339 -11.5397912 -17.9483320  -8.9750000 -11.3660000 -19.9620000
  -8.7220000 -12.5030000 -20.4340000  -9.8810000 -10.6180000 -20.4190000
  -6.2440000  -8.8250000 -17.5230000  -5.4740000  -9.7800000 -17.3520000
  -5.7930000  -7.6620000 -17.9780000  -6.4070244  -6.8859255 -18.1799452
  -4.3830000  -7.5310000 -18.3120000  -4.1070994  -8.4437074 -18.8401508
  -4.1710000  -6.3230000 -19.2340000  -4.6940087  -5.4607522 -18.8203686
  -2.7450000  -6.0200000 -19.3460000  -2.2213569  -6.8816757 -19.7600211
  -2.6059979  -5.1611049 -20.0025656  -2.3430670  -5.7910168 -18.3590270
  -4.6430000  -6.6570000 -20.6450000  -3.8277245  -7.1528512 -21.1718379
  -5.4931212  -7.3352337 -20.5715666  -5.0490000  -5.4280000 -21.3980000
  -4.1992071  -4.7494434 -21.4722487  -5.3791441  -5.7068496 -22.3986733
  -5.8646029  -4.9318244 -20.8719757  -3.5300000  -7.4650000 -17.0450000
  -2.5470000  -8.2020000 -16.9180000  -3.8960000  -6.6070000 -16.0780000
  -4.6458645  -5.9424928 -16.2054078  -3.1080000  -6.5390000 -14.8400000
  -2.0616870  -6.4150278 -15.1192116  -3.5480000  -5.3520000 -13.9480000
  -4.6370761  -5.3082643 -13.9379597  -3.0370000  -5.5140000 -12.5330000
  -1.9479008  -5.5573507 -12.5421842  -3.3612772  -4.6660563 -11.9297285
  -3.4331941  -6.4354573 -12.1063317  -2.9990000  -4.0220000 -14.4660000
  -2.5993257  -3.4791976 -13.6094215  -2.1900735  -4.2518361 -15.1594788
  -4.0380000  -3.1660000 -15.1670000  -4.8470752  -2.9353524 -14.4739641
  -3.5763253  -2.2390434 -15.5071575  -4.4378249  -3.7079922 -16.0240206
  -3.1630000  -7.8740000 -14.0930000  -2.1970000  -8.2620000 -13.4220000
  -4.2730000  -8.6150000 -14.2170000  -5.1314462  -8.2238595 -14.5778028
  -4.2750000 -10.0180000 -13.7850000  -4.1358621 -10.0684041 -12.7050929
  -5.6060000 -10.6990000 -14.1410000  -6.1238934 -10.0054177 -14.8034419
  -5.3377816 -11.5983643 -14.6953490  -6.5460000 -11.0820000 -12.9490000
  -5.9778025 -11.7337438 -12.2853115  -6.7994866 -10.1612184 -12.4236382
  -7.8570000 -11.8060000 -13.3920000  -7.7680000 -13.0080000 -13.7650000
  -8.9630000 -11.1810000 -13.3700000  -3.1220000 -10.7850000 -14.4250000
  -2.3580000 -11.4730000 -13.7420000  -2.9690000 -10.6490000 -15.7390000
  -3.4830761  -9.9403899 -16.2426832  -2.1020000 -11.5410000 -16.4950000
  -2.1697301 -12.5575050 -16.1074056  -2.5400000 -11.5460000 -17.9510000
  -3.6299679 -11.5421745 -17.9583806  -2.1708960 -10.6241270 -18.4004578
  -2.0510000 -12.6930000 -18.7190000  -1.3164726 -13.2411540 -18.1290020
  -2.8847528 -13.3513625 -18.9629612  -1.4130000 -12.2070000 -19.9830000
  -0.5011132 -11.6764852 -19.7089280  -1.1579420 -13.0819858 -20.5808668
  -2.2480000 -11.3180000 -20.7870000  -3.2390137 -11.2984159 -20.5930732
  -1.7750000 -10.5400000 -21.7600000  -0.4770000 -10.5420000 -22.0170000
   0.1408507 -11.1301676 -21.4762418  -0.1100806  -9.9553487 -22.7527378
  -2.5800000  -9.7620000 -22.4700000  -3.5709609  -9.7540866 -22.2749772
  -2.1986403  -9.1807610 -23.2026833  -0.6450000 -11.1320000 -16.3830000
   0.2230000 -11.9680000 -16.1290000  -0.3610000  -9.8460000 -16.5430000
  -1.1156393  -9.1774886 -16.6039206   0.9970000  -9.3620000 -16.6750000
   1.6952506 -10.1989141 -16.6640429   1.1570000  -8.6070000 -18.0020000
   0.5174191  -7.7250430 -17.9675429   2.1978864  -8.2969560 -18.0943488
   0.7780000  -9.4570000 -19.1910000   1.0890000 -10.6660000 -19.1870000
   0.1700000  -8.9120000 -20.1310000   1.4480000  -8.4450000 -15.5520000
   2.6080000  -8.0290000 -15.5570000   0.5740000  -8.0830000 -14.6190000
  -0.3856324  -8.3833847 -14.7137315   0.9290000  -7.2810000 -13.4760000
   0.1544138  -7.4367063 -12.7250866   1.8789195  -7.6629119 -13.1019737
   1.0650000  -5.8010000 -13.7420000   0.9490000  -5.0050000 -12.8030000
   1.3190000  -5.4070000 -14.9900000   1.4033335  -6.0854417 -15.7334407
   1.5200000  -4.0020000 -15.3120000   0.9083790  -3.3885288 -14.6504321
   2.9840000  -3.5950000 -15.1410000   3.3701349  -4.0110480 -14.2104608
   3.5672390  -3.9770643 -15.9788300   3.0820000  -2.1860000 -15.1030000
   4.0015357  -1.9319819 -14.9956277   1.0750000  -3.7310000 -16.7430000
   1.1160000  -4.6200000 -17.5970000   0.6360000  -2.5020000 -17.0040000
   0.4022051  -1.8813952 -16.2422330   0.3900000  -2.0490000 -18.3610000
   0.6155772  -2.8613013 -19.0519274  -1.0800000  -1.6080000 -18.5470000
  -1.3082805  -0.8345717 -17.8136535  -1.3150000  -1.0610000 -19.9530000
  -1.0873571  -1.8340622 -20.6869307  -2.3570314  -0.7583095 -20.0561979
  -0.6686134  -0.1995767 -20.1210281  -2.0100000  -2.7900000 -18.3200000
  -1.6573652  -3.6061846 -18.9505491  -1.9208766  -3.0765142 -17.2721135
  -3.4660000  -2.4940000 -18.6420000  -3.5559886  -2.2078432 -19.6899104
  -4.0679131  -3.3834563 -18.4558085  -3.8194993  -1.6781707 -18.0114759
   1.3490000  -0.9340000 -18.7510000   1.9010000  -0.9330000 -19.8570000
   1.5870000  -0.0060000 -17.8220000   1.1860650  -0.0997144 -16.8997375
   2.4160000   1.1520000 -18.0970000   1.9641527   1.6952450 -18.9269506
   2.4139397   1.7816389 -17.2072528   3.8430000   0.8090000 -18.4530000
   4.4580000   1.5010000 -19.2670000   4.3870000  -0.2590000 -17.8660000
   3.8662814  -0.8202973 -17.2072916   5.7810000  -0.6050000 -18.1190000
   6.3802391   0.2981830 -18.0037954   6.2640000  -1.6410000 -17.1130000
   5.6794132  -2.5544616 -17.2222987   7.3164557  -1.8600475 -17.2931541
   6.1423695  -1.2511495 -16.1023953   5.9910000  -1.1200000 -19.5310000
   7.0820000  -0.9810000 -20.0770000   4.9730000  -1.7000000 -20.1440000
   4.0877885  -1.7853814 -19.6652413   5.1060000  -2.3040000 -21.4610000
   6.1452006  -2.5632628 -21.6633463   4.2640000  -3.5870000 -21.4990000
   3.2172679  -3.3251962 -21.3443716   4.3598399  -4.1754095 -22.4115179
   4.6540000  -4.4900000 -20.3620000   4.1250000  -4.5090000 -19.1050000
   3.3139433  -3.8091502 -18.9037612   4.7670000  -5.4580000 -18.3290000
   4.5502780  -5.6834963 -17.3686446   5.7520000  -6.0430000 -19.0810000
   6.6650000  -7.0250000 -18.7480000   6.6495250  -7.4297994 -17.7360728
   7.5350000  -7.4280000 -19.7170000   8.2647769  -8.2047606 -19.4885955
   7.5170000  -6.8740000 -20.9920000   8.2138369  -7.2138879 -21.7581554
   6.6280000  -5.8890000 -21.3240000   6.6623085  -5.4814509 -22.3343600
   5.7140000  -5.4580000 -20.3610000   4.7230000  -1.3470000 -22.5870000
   4.5810000  -1.7740000 -23.7400000   4.6000000  -0.0580000 -22.2800000
   4.8168217   0.2592657 -21.3459603   4.1030000   0.9120000 -23.2380000
   3.2174023   0.5148631 -23.7340828   3.7230000   2.2120000 -22.5260000
   4.6017476   2.6265710 -22.0320024   3.3444934   2.9287588 -23.2547591
   2.9516817   2.0080437 -21.7833230   5.1490000   1.1710000 -24.3200000
   6.3040000   0.7950000 -24.2010000   4.7210000   1.8140000 -25.3980000
   3.7320010   1.9892155 -25.5042064   5.6180000   2.2680000 -26.4480000
   6.4278844   1.5487290 -26.5698019   4.8840000   2.4060000 -27.7790000
   5.6102453   2.5004245 -28.5863110   4.2673885   1.5230338 -27.9471102
   4.0530000   3.5680000 -27.7480000   3.5917590   3.6539677 -28.5855358
   6.2430000   3.6040000 -26.1300000   6.8280000   4.2370000 -27.0150000
   6.1150000   4.0700000 -24.9000000   5.5938503   3.5971683 -24.1754777
   6.6840000   5.3660000 -24.6010000   6.3308109   6.1093121 -25.3157334
   6.2600000   5.7920000 -23.2100000   5.1703749   5.7920566 -23.1814291
   6.6413497   5.0519859 -22.5064010   6.7620000   7.1300000 -22.8370000
   7.3892550   7.0171283 -21.9527421   7.3633379   7.5117955 -23.6620601
   5.6410000   8.1010000 -22.5390000   4.5430000   7.6570000 -22.1070000
   5.8640000   9.3140000 -22.7450000   8.2010000   5.3380000 -24.7470000
   8.8010000   6.3030000 -25.2250000   8.8410000   4.2230000 -24.4010000
   8.3582417   3.3821946 -24.1179980  10.2910000   4.2070000 -24.4290000
  10.6630598   5.0383689 -23.8302543  10.6402095   3.2671266 -24.0014603
  10.8260000   4.3360000 -25.8350000  11.6150000   5.2420000 -26.1490000
  10.3730000   3.4090000 -26.6890000   9.8286006   2.6266893 -26.3547567
  10.7000000   3.4670000 -28.1070000  11.7711700   3.3383792 -28.2624050
   9.9670000   2.3400000 -28.8180000  10.2220574   1.3952813 -28.3378422
   8.8952499   2.5160238 -28.7259821  10.3200000   2.2450000 -30.2990000
  11.4620000   1.9700000 -30.6500000   9.3240000   2.4690000 -31.1780000
   9.5086370   2.4174185 -32.1696392   8.3971526   2.6875030 -30.8413829
  10.3460000   4.8220000 -28.7260000  11.0720000   5.3060000 -29.5980000
   9.2190000   5.4360000 -28.3310000   8.5282633   5.0093089 -27.7302364
   8.9230000   6.7450000 -28.9050000   9.0328225   6.6751425 -29.9872006
   7.4820000   7.2610000 -28.5810000   7.3973939   7.1880957 -27.4967371
   7.4895843   8.3106970 -28.8745621   6.2310000   6.5230000 -29.2660000
   6.4910150   5.4647917 -29.2397664   5.4304473   6.7177005 -28.5523430
   5.7300000   6.9230000 -30.7680000   4.8660000   6.2400000 -31.3350000
   6.0910000   7.8820000 -31.4540000   9.9870000   7.7550000 -28.4730000
  10.4270000   8.5770000 -29.2810000  10.4770000   7.6760000 -27.2390000
  10.0900772   7.0935135 -26.5102343  11.5950000   8.5550000 -26.9030000
  11.3426275   9.5865995 -27.1483768  11.9030000   8.4710000 -25.4210000
  12.0188440   7.4320651 -25.1123033  12.8136139   9.0226144 -25.1873251
  10.8360000   9.0360000 -24.7460000  10.9995065   8.9988851 -23.8007551
  12.8310000   8.2230000 -27.7440000  13.7020000   9.0810000 -27.9620000
  12.9100000   6.9860000 -28.2320000  12.2408222   6.2796704 -27.9610778
  13.9510000   6.6210000 -29.1590000  14.9142227   6.8453412 -28.7007727
  13.8811394   5.5503198 -29.3509966  13.8460000   7.3610000 -30.4660000
  14.8550000   7.6830000 -31.0690000  12.6390000   7.6660000 -30.9160000
  11.7806135   7.3150175 -30.5158960  12.5580000   8.4690000 -32.1270000
  13.1468621   8.0057200 -32.9186516  11.1080000   8.5780000 -32.5970000
  10.5283353   9.1914387 -31.9072313  11.1464038   9.0651669 -33.5713170
  10.4130000   7.2320000 -32.7530000   9.5080000   6.9340000 -32.0080000
  10.7890000   6.4590000 -33.7410000  10.3472591   5.5600975 -33.8711506
  11.5189677   6.7653508 -34.3682138  13.2000000   9.8620000 -31.9400000
  13.8440000  10.3680000 -32.8680000  13.0870000  10.4700000 -30.7500000
  12.5386032  10.0642695 -30.0051892  13.7160000  11.7720000 -30.5190000
  13.3349525  12.4972724 -31.2379451  13.4100000  12.2770000 -29.1050000
  12.3266024  12.3235487 -28.9946277  13.8160429  11.5540559 -28.3974825
  14.0030000  13.6390000 -28.8290000  14.9763044  13.4621821 -28.3712722
  14.1397585  14.1158420 -29.7995776  13.1970000  14.5260000 -27.9510000
  13.1836688  15.5247751 -28.3873135  12.1800805  14.1362156 -27.9058094
  13.7640000  14.5930000 -26.5760000  13.2795895  13.8353885 -25.9599872
  14.8335050  14.3890867 -26.6277458  13.5450000  15.9300000 -25.9770000
  12.5540179  16.1189659 -25.9285644  13.9375217  15.9504556 -25.0466193
  13.9941494  16.6321214 -26.5474291  15.2160000  11.6810000 -30.7330000
  15.8290000  12.5750000 -31.3490000  15.8120000  10.5880000 -30.2230000
  15.2716183   9.9500623 -29.6563233  17.2220000  10.3050000 -30.4240000
  17.8180134  11.1612020 -30.1081117  17.6460000   9.0910000 -29.6110000
  16.9257003   8.3409955 -29.9377428  18.6437657   8.8050520 -29.9438624
  17.6260000   9.1850000 -28.0980000  16.6234439   9.4534851 -27.7649867
  18.0140000   7.8550000 -27.5020000  19.0166946   7.5860448 -27.8342131
  17.9988149   7.9253547 -26.4143786  17.3073035   7.0910188 -27.8260573
  18.5150000  10.2860000 -27.6040000  18.1765766  11.2380447 -28.0128763
  18.4760745  10.3243091 -26.5153685  19.5397698  10.0974580 -27.9239965
  17.5070000  10.0670000 -31.8880000  18.4550000  10.6400000 -32.4270000
  16.6920000   9.2370000 -32.5530000  15.9058235   8.7824592 -32.1109384
  16.9740000   8.9270000 -33.9490000  17.9220611   8.3945205 -34.0247957
  15.8820000   8.0550000 -34.5290000  15.8911862   7.0448003 -34.1197185
  14.9287435   8.5309595 -34.2990769  15.9420000   7.9150000 -36.0110000
  16.5150000   6.7980000 -36.5950000  16.9455945   6.0216022 -35.9626277
  16.5430000   6.6650000 -37.9570000  17.0016620   5.7892350 -38.4160921
  15.9860000   7.6480000 -38.7500000  16.0142281   7.5508219 -39.8352924
  15.3970000   8.7470000 -38.1740000  14.9563548   9.5196186 -38.8040734
  15.3630000   8.8720000 -36.8230000  14.8754297   9.7339236 -36.3675191
  17.1240000  10.1940000 -34.7730000  17.9530000  10.2560000 -35.6870000
  16.3490000  11.2250000 -34.4500000  15.6854074  11.1684099 -33.6906965
  16.4040000  12.4520000 -35.2270000  16.4193951  12.2220052 -36.2923472
  15.1780000  13.3030000 -34.9310000  15.0681623  13.3289019 -33.8468579
  15.3961496  14.3060392 -35.2976376  13.8970000  12.8080000 -35.5540000
  14.0417244  12.7742739 -36.6338233  13.7114535  11.8006891 -35.1811738
  12.6940000  13.7040000 -35.2270000  12.6161198  13.8663586 -34.1519775
  12.7810925  14.6651209 -35.7337159  11.4840000  13.0430000 -35.6870000
  10.8984458  12.5882550 -35.0011191  11.1140000  13.0030000 -36.9640000
  11.8540000  13.6170000 -37.8720000  12.6897660  14.1087010 -37.5894664
  11.5799466  13.5913710 -38.8437703  10.0120000  12.3610000 -37.3330000
   9.4453477  11.8961917 -36.6380479   9.7454047  12.3403751 -38.3069611
  17.6670000  13.2380000 -34.9400000  18.1100000  14.0200000 -35.7870000
  18.2450000  13.0560000 -33.7460000  17.8575988  12.3776902 -33.1057536
  19.4320000  13.8090000 -33.3270000  19.3453728  14.8464924 -33.6498071
  19.5700000  13.7810000 -31.8080000  18.5952621  14.0510858 -31.4017502
  19.8041321  12.7519041 -31.5355227  20.6360000  14.7140000 -31.2360000
  21.6218907  14.3405548 -31.5128736  20.4961290  15.7118811 -31.6516578
  20.5240000  14.7770000 -29.7050000  19.4776070  14.9435806 -29.4492432
  20.8474407  13.8169899 -29.3026742  21.3260000  15.8310000 -29.0990000
  22.0669041  16.2531501 -29.6402484  21.1220000  16.2620000 -27.8600000
  20.1410000  15.7160000 -27.1530000  19.5711168  14.9897113 -27.5626801
  19.9686189  16.0291648 -26.2083772  21.8840000  17.2260000 -27.3240000
  22.6295595  17.6369064 -27.8675044  21.7090504  17.5369643 -26.3791230
  20.6730000  13.2070000 -33.9310000  21.4200000  13.8450000 -34.6770000
  20.8930000  11.9540000 -33.6000000  20.3093925  11.5156022 -32.9019248
  21.9900000  11.1980000 -34.1450000  22.9468039  11.6135294 -33.8288341
  21.8830000   9.7730000 -33.6240000  20.9556149   9.3119201 -33.9637962
  22.7303919   9.1804845 -33.9688947  21.8810000   9.6880000 -32.1290000
  22.3040000  10.7610000 -31.3410000  22.6507492  11.6761180 -31.8210249
  22.2850000  10.6680000 -29.9570000  22.6003587  11.5158190 -29.3488449
  21.8650000   9.4970000 -29.3480000  21.8640855   9.4051513 -28.2618771
  21.4440000   8.4380000 -30.1320000  21.1019663   7.5191444 -29.6557463
  21.4550000   8.5390000 -31.5070000  21.1224817   7.6996805 -32.1177981
  22.0120000  11.2440000 -35.6630000  23.0870000  11.2490000 -36.2580000
  20.8620000  11.2990000 -36.3200000  19.9481223  11.2213898 -35.8970301
  20.9480000  11.3570000 -37.7760000  21.6723195  10.6273057 -38.1379485
  19.5790000  11.0370000 -38.3930000  19.3227682  10.0330490 -38.0545818
  18.8794558  11.7541920 -37.9636125  19.4980000  11.0960000 -39.9040000
  19.8015827  12.0928843 -40.2236248  20.1886945  10.3581076 -40.3121150
  18.0870000  10.8070000 -40.4110000  17.7159770   9.8739301 -39.9869465
  17.4137961  11.6208849 -40.1417653  18.1120000  10.6830000 -41.8590000
  18.7099785   9.9632705 -42.2391454  17.4070000  11.4260000 -42.6970000
  17.5210000  11.2350000 -44.0090000  18.1455880  10.5232148 -44.3602146
  16.9824148  11.8026969 -44.6475498  16.5840000  12.3420000 -42.2280000
  16.4947388  12.4731605 -41.2305385  16.0462604  12.9086895 -42.8681545
  21.5040000  12.7080000 -38.2360000  22.1800000  12.7790000 -39.2730000
  21.2830000  13.7740000 -37.4590000  20.6952104  13.7106810 -36.6401023
  21.8320000  15.0750000 -37.8160000  21.9179656  15.1516415 -38.8998981
  20.9220000  16.2080000 -37.3140000  20.7901665  16.0691430 -36.2409492
  21.4413481  17.1486831 -37.4970107  19.5460000  16.2410000 -37.9990000
  19.6915240  15.8653895 -39.0118378  18.9046407  15.5546188 -37.4461517
  18.8840000  17.6250000 -38.0570000  19.4609163  18.2522442 -38.7365817
  17.8724678  17.5046780 -38.4448463  18.8260000  18.2860000 -36.6790000
  18.1167555  17.7091172 -36.0854690  19.8218621  18.1929074 -36.2457661
  18.4110000  19.7470000 -36.6840000  17.4880597  19.8334320 -37.0850117
  18.4006696  20.0972746 -35.7367403  19.0683124  20.2817976 -37.2335734
  23.2550000  15.2970000 -37.2860000  24.0700000  15.9370000 -37.9710000
  23.5850000  14.7630000 -36.0950000  22.9662877  14.0864675 -35.6712097
  24.7840000  15.1590000 -35.3620000  25.4027647  15.8124658 -35.9769893
  24.3860000  15.9140000 -34.0950000  23.7070350  15.2801027 -33.5246668
  25.2895834  16.0940616 -33.5125784  23.7140000  17.2250000 -34.3950000
  24.4668629  17.9905892 -34.5825406  23.0767427  17.1200209 -35.2730572
  22.7010000  17.7210000 -32.9810000  23.5790000  16.9620000 -31.5710000
  24.5942399  17.3554464 -31.5201376  23.0523896  17.1961047 -30.6458096
  23.6151612  15.8807831 -31.7042802  25.7040000  14.0120000 -34.9650000
  26.6520000  14.2270000 -34.2080000  25.4410000  12.8100000 -35.3960000
  24.6233499  12.6123647 -35.9550062  26.3140000  11.7180000 -35.0540000
  27.3243976  12.0987811 -34.9049976  25.8660000  11.0220000 -33.7830000
  24.8535888  10.6399578 -33.9140214  26.5465994  10.1906139 -33.5994743
  25.8850000  11.9280000 -32.5910000  25.0940000  12.8690000 -32.4790000
  26.7840000  11.6430000 -31.6620000  26.8480555  12.2161975 -30.8328792
  27.4016863  10.8536761 -31.7866279  26.3390000  10.7280000 -36.1830000
  26.4080000   9.5260000 -35.9360000  26.2280000  11.1850000 -37.4250000
  26.0555897  12.1600199 -37.6242740  26.3110000  10.2520000 -38.5480000
  26.9977106   9.4541074 -38.2653428  24.9510000   9.6270000 -38.9040000
  24.2551978  10.4128465 -39.1979467  25.0773403   8.9267636 -39.7297163
  24.5555505   9.0979575 -38.0369169  26.8690000  10.9450000 -39.7860000
  26.7000000  12.1520000 -39.9870000  27.5310000  10.1620000 -40.6280000
  27.7786478   9.2095221 -40.4009412  27.9480000  10.6930000 -41.9090000
  28.5804407  11.5682170 -41.7602953  28.7390000   9.6470000 -42.6800000
  28.2234637   8.6905561 -42.5931867  28.7765784   9.9451196 -43.7277655
  30.1260000   9.5130000 -42.1520000  30.7140399  10.3706463 -42.4787305
  30.0900891   9.4914571 -41.0628038  30.7530000   8.2660000 -42.6500000
  30.5610401   8.1740261 -43.7190141  31.8281129   8.3152517 -42.4773558
  30.2260000   7.0860000 -41.9780000  29.5697842   7.2220000 -41.2223650
  30.5640000   5.8450000 -42.3080000  31.4140000   5.6530000 -43.3070000
  31.7929784   6.4468918 -43.8031967  31.6787050   4.7137117 -43.5673236
  30.0600000   4.8040000 -41.6490000  29.4128239   4.9567337 -40.8887793
  30.3270865   3.8661991 -41.9122356  26.7330000  11.1230000 -42.7100000
  25.6990000  10.4680000 -42.6950000  26.8430000  12.2280000 -43.4160000
  27.6934691  12.7725873 -43.4310456  25.6810000  12.7370000 -44.1430000
  24.7627282  12.3978112 -43.6635972  25.6940000  14.2540000 -44.1470000
  26.4987733  14.5791998 -44.8063059  24.7384288  14.5949736 -44.5453977
  25.9000000  14.8310000 -42.7920000  26.6121448  14.2054670 -42.2538001
  26.2964054  15.8429535 -42.8751560  24.6270000  14.8800000 -42.0160000
  24.0310000  15.9380000 -41.8210000  24.2000000  13.7220000 -41.5430000
  23.3440709  13.6831235 -41.0082333  24.7316142  12.8813565 -41.7185169
  25.6250000  12.1890000 -45.5660000  25.6500000  12.9340000 -46.5330000
  25.5250000  10.8700000 -45.6910000  25.5824515  10.2886049 -44.8671199
  25.3870000  10.2180000 -46.9900000  25.0182056  10.9383506 -47.7201951
  26.7390000   9.6650000 -47.4830000  27.4498845  10.4877295 -47.5595412
  27.1055928   8.9346744 -46.7616580  26.5950000   9.0460000 -48.7500000
  27.4457234   8.7085234 -49.0397915  24.3540000   9.0980000 -46.8920000
  24.1900000   8.4910000 -45.8310000  23.6410000   8.8260000 -47.9970000
  23.7091754   9.3911438 -48.8313045  22.7030000   7.6970000 -47.9960000
  21.9551699   7.8466528 -47.2172489  21.9890000   7.5720000 -49.3410000
  22.7016873   7.9023324 -50.0966828  21.7803275   6.5110038 -49.4782692
  20.7170000   8.3530000 -49.4790000  19.9363511   7.8401488 -48.9171533
  20.8756311   9.3452774 -49.0567159  20.2900000   8.4840000 -50.9400000
  20.9929478   9.1371858 -51.4570220  20.3040296   7.4971928 -51.4027246
  18.8730000   9.0760000 -51.0380000  18.1969541   8.2472515 -50.8276708
  18.8086567   9.8096200 -50.2344076  18.4820000   9.7250000 -52.3440000
  18.5411402   9.0452665 -53.0886909  17.5352695  10.0706113 -52.2780135
  19.1080538  10.4932328 -52.5388694  23.4240000   6.3900000 -47.6910000
  22.8640000   5.4650000 -47.0800000  24.6830000   6.3050000 -48.0890000
  25.1560117   7.0736127 -48.5424245  25.3930000   5.0540000 -47.9420000
  24.7699848   4.2189531 -48.2623873  26.6350000   5.0920000 -48.8090000
  26.4590054   5.6135769 -49.7497883  27.4783287   5.5502337 -48.2923583
  27.1530000   3.4650000 -49.2420000  28.2059647   3.8413605 -49.9620807
  25.7500000   4.7550000 -46.4940000  26.0840000   3.6100000 -46.1710000
  25.6730000   5.7370000 -45.6060000  25.3448596   6.6596109 -45.8534114
  26.1440000   5.5140000 -44.2490000  26.2900253   4.4472344 -44.0793331
  27.4840000   6.2370000 -44.0180000  27.3377188   7.3140302 -44.0998958
  27.8015408   5.9899745 -43.0049619  28.5480000   5.7960000 -45.0020000
  29.0580000   4.5000000 -44.9670000  28.6911546   3.8099624 -44.2071500
  30.0040000   4.0880000 -45.8660000  30.3951730   3.0717347 -45.8181430
  30.4650000   4.9620000 -46.8350000  31.4240000   4.5190000 -47.7320000
  31.6838945   3.6069061 -47.5832076  29.9710000   6.2550000 -46.9020000
  30.3280992   6.9488170 -47.6630510  29.0140000   6.6620000 -45.9890000
  28.6125595   7.6743388 -46.0349970  25.1750000   5.9270000 -43.1570000
  25.4620000   5.6730000 -41.9750000  24.0430000   6.5420000 -43.4940000
  23.7385152   6.6591964 -44.4498522  23.2660000   7.1740000 -42.4410000
  23.9194458   7.7647195 -41.7990044  22.2100000   8.1010000 -43.0500000
  21.9324522   8.7992631 -42.2603830  22.7121110   8.6415560 -43.8523614
  20.9390000   7.4200000 -43.6050000  21.2559892   6.6365701 -44.2933722
  20.3917942   6.9737556 -42.7746200  20.0240000   8.4170000 -44.3470000
  20.1090000   8.4460000 -45.6030000  19.2420000   9.1660000 -43.6840000
  22.6530000   6.1410000 -41.5060000  22.5950000   6.3560000 -40.2860000
  22.2160000   5.0000000 -42.0300000  22.2066050   4.7523892 -43.0091322
  21.6120000   4.0790000 -41.0800000  20.9883564   4.6338337 -40.3790525
  20.7460000   3.0530000 -41.7940000  21.3536702   2.6390657 -42.5986705
  20.5260054   2.2715306 -41.0666706  19.4350000   3.5960000 -42.3720000
  19.6496760   3.8930433 -43.3985380  18.7307120   2.7640909 -42.3747666
  18.7100000   4.9760000 -41.5010000  17.2870000   4.1230000 -40.9200000
  17.5951537   3.2844585 -40.2955095  16.6686996   4.8034396 -40.3345025
  16.7135316   3.7514296 -41.7692177  22.6790000   3.4090000 -40.2290000
  22.5340000   3.3050000 -39.0010000  23.7880000   3.0150000 -40.8610000
  23.9302105   3.2193499 -41.8398343  24.8160000   2.2520000 -40.1560000
  24.3901469   1.3357492 -39.7470589  25.9290000   1.8820000 -41.1180000
  25.4994262   1.2763696 -41.9159833  26.3329453   2.8028230 -41.5387294
  27.0350000   1.1110000 -40.4420000  27.2425568   1.6056179 -39.4931195
  26.7032753   0.0898780 -40.2539369  28.2720000   1.0860000 -41.2690000
  29.3760000   0.9920000 -40.6750000  28.1160000   1.1880000 -42.5140000
  25.3920000   3.0380000 -39.0050000  25.6870000   2.4860000 -37.9390000
  25.5850000   4.3270000 -39.2240000  25.4169192   4.7291974 -40.1350902
  26.1310000   5.1800000 -38.1860000  27.0042126   4.7146019 -37.7288309
  26.5550000   6.5090000 -38.8060000  25.7673404   6.8272251 -39.4889527
  26.6618386   7.2436184 -38.0078638  27.8870000   6.3900000 -39.5770000
  28.6400000   5.4070000 -39.2970000  28.1990000   7.2580000 -40.4490000
  25.1290000   5.3590000 -37.0590000  25.4490000   5.1140000 -35.8890000
  23.8930000   5.7400000 -37.4050000  23.6618526   5.9730131 -38.3601833
  22.8680000   5.9120000 -36.3850000  23.2053384   6.7095658 -35.7230402
  21.5260000   6.3240000 -37.0050000  21.2047443   5.5917489 -37.7457444
  20.5350000   6.3820000 -35.9070000  20.8553597   7.1144263 -35.1660395
  19.5640565   6.6725790 -36.3081648  20.4547959   5.4017638 -35.4371002
  21.6220000   7.6650000 -37.5930000  22.3864775   7.6677361 -38.3699612
  20.6615059   7.9411264 -38.0280920  21.8894320   8.3836700 -36.8183424
  22.7160000   4.6410000 -35.5500000  22.6740000   4.6910000 -34.3100000
  22.5940000   3.4910000 -36.2110000  22.6041392   3.4613647 -37.2205139
  22.3550000   2.2520000 -35.4870000  21.4263021   2.3048988 -34.9188266
  22.2400000   1.1280000 -36.5010000  21.3346455   1.3184371 -37.0773386
  23.1069386   1.1794056 -37.1596918  22.1620000  -0.2300000 -35.8870000
  23.0807156  -0.4454909 -35.3414487  20.9850000  -0.2580000 -34.9270000
  20.0658020  -0.0430389 -35.4719454  20.9127911  -1.2442537 -34.4685349
  21.1306811   0.4931747 -34.1507179  21.9880000  -1.2180000 -37.0250000
  22.8402438  -1.1482037 -37.7009500  21.9258629  -2.2291316 -36.6226904
  21.0726974  -0.9875481 -37.5701716  23.4560000   1.9970000 -34.4510000
  23.1830000   1.8310000 -33.2540000  24.7190000   2.0480000 -34.8910000
  24.8906007   2.1259739 -35.8832563  25.8680000   1.9230000 -33.9970000
  25.8613189   0.9541738 -33.4975699  27.1450000   2.0390000 -34.8160000
  27.1501578   1.2307605 -35.5473149  27.1260423   2.9974923 -35.3346841
  28.3920000   1.9530000 -33.9600000  28.3403032   2.7328244 -33.2001959
  28.4089774   0.9761369 -33.4767275  29.6270000   2.1280000 -34.7650000
  30.1142696   1.1603659 -34.8847981  29.3603823   2.5237634 -35.7449928
  30.5830000   3.0970000 -34.0670000  31.1447355   2.4870392 -33.3595386
  31.2524032   3.4541445 -34.8495895  29.9800000   4.2750000 -33.3460000
  29.3600124   3.9442754 -32.6205096  30.7160893   4.8296014 -32.9328537
  29.4597941   4.8405655 -34.0014545  25.8610000   2.9560000 -32.8580000
  25.9350000   2.5960000 -31.6760000  25.8210000   4.2480000 -33.1840000
  25.8199632   4.5788560 -34.1382707  25.8270000   5.2330000 -32.1120000
  26.7655376   5.1643727 -31.5619667  25.6870000   6.6430000 -32.6590000
  26.3158791   6.8495407 -33.5249973  24.6402963   6.7828790 -32.9290837
  26.0070000   7.6820000 -31.6430000  27.2180000   7.7170000 -30.9930000
  27.2230000   8.7100000 -30.1220000  28.1052725   8.9116295 -29.5145135
  26.0490000   9.3110000 -30.1700000  25.7620601  10.1060934 -29.6171963
  25.2640000   8.6750000 -31.1060000  24.2433269   9.0143699 -31.2825096
  24.7170000   4.9800000 -31.1070000  24.9650000   4.9760000 -29.8940000
  23.4840000   4.7700000 -31.5980000  23.3428616   4.7558026 -32.5979889
  22.3150000   4.6200000 -30.7300000  22.1861449   5.5057030 -30.1078860
  21.0600000   4.4440000 -31.6000000  21.1063321   5.1315595 -32.4445203
  21.0124729   3.4193087 -31.9685768  19.7570000   4.7100000 -30.9000000
  18.5610000   4.8540000 -31.5780000  17.5920000   5.0980000 -30.7110000
  16.5691243   5.2527711 -31.0543224  18.1090000   5.1050000 -29.4940000
  17.6074073   5.2650104 -28.6320828  19.4600000   4.8560000 -29.5870000
  20.0691890   4.8104174 -28.6842751  22.5100000   3.4420000 -29.7840000
  22.2960000   3.5530000 -28.5720000  22.9840000   2.3160000 -30.3220000
  23.0277314   2.2163638 -31.3261213  23.3880000   1.1780000 -29.4930000
  22.5210622   0.7443421 -28.9945434  24.0260000   0.1110000 -30.3780000
  23.4003389  -0.1629210 -31.2274791  24.9910259   0.4675044 -30.7381801
  24.2840000  -1.1120000 -29.6410000  25.4380000  -1.4480000 -29.0310000
  26.2578581  -0.7343251 -29.1122443  25.3170000  -2.6730000 -28.4140000
  26.0469526  -3.1441413 -27.8989324  24.0470000  -3.1490000 -28.6100000
  23.4500000  -4.3370000 -28.1780000  24.0432522  -5.0338046 -27.5858735
  22.1540000  -4.5490000 -28.5280000  21.6586507  -5.4679540 -28.2145473
  21.4400000  -3.6200000 -29.2790000  20.3996098  -3.8053708 -29.5460682
  22.0210000  -2.4390000 -29.7090000  21.4157593  -1.7447513 -30.2919264
  23.3570000  -2.1910000 -29.3760000  24.3500000   1.5900000 -28.3660000
  24.1920000   1.1720000 -27.2150000  25.3540000   2.4170000 -28.6820000
  25.5301174   2.6783882 -29.6415615  26.2730000   2.8970000 -27.6540000
  26.6835968   2.0564609 -27.0945329  27.4340000   3.6640000 -28.3120000
  26.9181129   4.3744864 -28.9578860  27.9659181   4.2050409 -27.5294158
  28.4440000   2.8450000 -29.1500000  27.8767108   2.2923300 -29.8988923
  29.4900000   3.7020000 -29.8390000  30.0580404   4.2546584 -29.0906701
  30.1653827   3.0638635 -30.4088603  28.9988947   4.4038625 -30.5130215
  29.0950000   1.8340000 -28.2670000  28.3360848   1.1703751 -27.8525737
  29.8095613   1.2503255 -28.8473684  29.6156748   2.3415744 -27.4549871
  25.5610000   3.7650000 -26.6110000  25.8770000   3.6930000 -25.4100000
  24.5930000   4.5890000 -27.0510000  24.4111228   4.6744297 -28.0408090
  23.8140000   5.4170000 -26.1280000  24.4916583   6.0108199 -25.5146026
  22.8780000   6.3680000 -26.8860000  23.4837538   6.8793098 -27.6341470
  22.0989010   5.7901257 -27.3831580  22.2410000   7.3890000 -25.9700000
  22.9310000   8.5150000 -25.6200000  23.9301094   8.6576091 -26.0317553
  22.3990000   9.4510000 -24.7760000  22.9806155  10.3412448 -24.5366480
  21.1530000   9.2810000 -24.2340000  20.7330000  10.2900000 -23.3900000
  21.3812978  10.9912144 -23.2919798  20.4020000   8.1500000 -24.5450000
  19.4105382   7.9871232 -24.1224186  20.9520000   7.2080000 -25.4260000
  20.3821043   6.3201099 -25.6998068  22.9950000   4.5690000 -25.1710000
  22.5870000   5.0520000 -24.1130000  22.7800000   3.3070000 -25.5020000
  23.1726245   2.9487330 -26.3608307  21.9490000   2.4200000 -24.7000000
  21.2776214   3.0272883 -24.0929161  21.1070000   1.5610000 -25.6520000
  21.7748459   0.9057138 -26.2111798  20.1170000   0.7390000 -24.9050000
  19.4484670   1.3936559 -24.3459035  19.5359836   0.1416465 -25.6076293
  20.6402593   0.0786570 -24.2134457  20.3530000   2.4360000 -26.5160000
  19.8207776   1.9105607 -27.1178747  22.7410000   1.5190000 -23.7480000
  22.1320000   0.8050000 -22.9530000  24.0720000   1.5210000 -23.7990000
  24.5369406   2.1086091 -24.4762334  24.8970000   0.6690000 -22.9340000
  24.5815053  -0.3712019 -23.0148844  26.3620000   0.7710000 -23.3670000
  26.5248177   0.0863569 -24.1993782  26.5552969   1.7925620 -23.6943338
  27.2440000   0.4400000 -22.3020000  28.1522419   0.5132339 -22.6042140
  24.7750000   1.0440000 -21.4530000  25.0080000   2.2000000 -21.0660000
  24.4520000   0.0530000 -20.6120000  24.2005378  -0.8660135 -20.9470826
  24.4040000   0.3030000 -19.1720000  23.8602116   1.2263479 -18.9724457
  23.6930000  -0.8440000 -18.4630000  23.6890786  -1.7064129 -19.1295792
  24.2533959  -1.0859786 -17.5599480  22.2830000  -0.4900000 -18.0960000
  22.3416759   0.0803363 -17.1689755  21.9106885   0.1522200 -18.8941477
  21.3490000  -1.6500000 -17.9110000  21.1976917  -2.1817703 -18.8503749
  21.7309649  -2.3415690 -17.1600442  20.0350000  -1.0740000 -17.4420000
  19.2396422  -1.7853469 -17.6644680  20.0861774  -0.9120007 -16.3653216
  19.7460000   0.2370000 -18.1350000  19.6981103   0.0870301 -19.1326549
  18.8640364   0.6039276 -17.8069689  20.4826612   0.8964270 -17.9286376
  25.8030000   0.4850000 -18.6200000  26.0240000   1.2870000 -17.6960000
  26.7580000  -0.2550000 -19.1970000  26.5055610  -0.9480202 -19.8869978
  28.1540000  -0.1510000 -18.8030000  28.2695349  -0.3610150 -17.7396823
  28.9650000  -1.1720000 -19.5920000  28.6836483  -2.1586162 -19.2238574
  28.6639062  -1.0745024 -20.6350421  30.4540000  -1.0030000 -19.4830000
  31.0920000  -1.0340000 -18.2450000  30.4984283  -1.1899317 -17.3441907
  32.4850000  -0.8670000 -18.1490000  32.9745221  -0.8848046 -17.1752686
  33.2390000  -0.6750000 -19.3040000  34.6190000  -0.5130000 -19.2310000
  34.9539911  -0.5499924 -18.3321050  32.6090000  -0.6480000 -20.5420000
  33.1945545  -0.4955887 -21.4486406  31.2350000  -0.8150000 -20.6240000
  30.7413338  -0.8011585 -21.5957007  28.6740000   1.2650000 -19.0000000
  29.2550000   1.8480000 -18.0840000  28.4610000   1.8470000 -20.1800000
  28.0367977   1.3570146 -20.9546394  28.8950000   3.2220000 -20.3870000
  29.9590813   3.3077415 -20.1668214  28.6600000   3.6520000 -21.8310000
  27.6103031   3.4086619 -21.9953847  28.7919630   4.7333286 -21.8686063
  29.5110000   2.9970000 -22.9190000  29.1384661   1.9820217 -23.0573417
  29.4740000   3.7380000 -24.2520000  29.8468488   4.7529818 -24.1145423
  30.1002091   3.2163516 -24.9757720  28.4484673   3.7748583 -24.6194568
  30.9280000   2.9130000 -22.3980000  30.9460914   2.3134593 -21.4878774
  31.5655263   2.4492221 -23.1507095  31.2952955   3.9156801 -22.1793095
  28.1700000   4.1610000 -19.4450000  28.7550000   5.1240000 -18.9440000
  26.8980000   3.8830000 -19.1750000  26.4433613   3.0670127 -19.5591454
  26.1070000   4.7960000 -18.3660000  26.2539082   5.8225795 -18.7016364
  24.6290000   4.4460000 -18.5010000  24.5580595   3.3617374 -18.4147366
  24.1218164   4.9111673 -17.6557283  23.9640000   4.9000000 -19.8100000
  23.8315884   5.9809634 -19.7643260  24.5849015   4.6465165 -20.6692610
  22.6100000   4.2550000 -19.9860000  21.9700000   3.9100000 -18.9860000
  22.1710000   4.0500000 -21.2520000  21.2699977   3.6209257 -21.4075359
  22.7468862   4.3272569 -22.0340391  26.5320000   4.7740000 -16.9060000
  26.4630000   5.8080000 -16.2300000  26.9510000   3.6070000 -16.4010000
  26.8627904   2.7612269 -16.9459645  27.4770000   3.5030000 -15.0370000
  26.6917898   3.7155279 -14.3114823  27.9990000   2.0680000 -14.7940000
  27.7513223   1.5152051 -15.7001858  29.0815698   2.1662025 -14.7133836
  27.4560000   1.3040000 -13.5580000  28.3120553   0.9861137 -12.9628374
  26.8496529   2.0001505 -12.9785004  26.6030000   0.0680000 -13.9360000
  26.1271126  -0.3107193 -13.0314549  25.8368179   0.3829141 -14.6444444
  27.4600000  -1.0430000 -14.5680000  28.2142617  -0.5550153 -15.1853013
  27.9482129  -1.5756452 -13.7518895  26.6800000  -2.0180000 -15.4070000
  26.2278816  -1.5247034 -16.1635363  27.3071402  -2.7132798 -15.7856570
  25.9813118  -2.4705985 -14.8350834  28.5810000   4.5410000 -14.7730000
  28.6850000   5.0870000 -13.6670000  29.3900000   4.8610000 -15.7790000
  29.3191817   4.4499594 -16.6988531  30.4690000   5.7960000 -15.5250000
  31.0268903   5.4872359 -14.6409625  31.4160000   5.8380000 -16.7040000
  30.8732885   5.8547586 -17.6491363  32.0475498   6.7235143 -16.6325201
  32.3270000   4.6710000 -16.7590000  33.0190000   4.2770000 -15.6320000
  32.8987436   4.8292124 -14.6999594  33.8520000   3.1990000 -15.6830000
  34.4012608   2.8980043 -14.7909154  34.0020000   2.4870000 -16.8620000
  34.6702411   1.6263628 -16.8912792  33.3170000   2.8590000 -17.9850000
  33.4287050   2.3045995 -18.9168059  32.4800000   3.9460000 -17.9290000
  31.9226828   4.2509134 -18.8147343  29.9430000   7.1820000 -15.2220000
  30.5310000   7.9040000 -14.4130000  28.8380000   7.5760000 -15.8480000
  28.3307242   6.9978673 -16.5026244  28.3950000   8.9520000 -15.6530000
  29.2544527   9.6214909 -15.6180412  27.5000000   9.3720000 -16.8030000
  26.5745716   8.8019050 -16.7213100  27.2846269  10.4331907 -16.6781450
  28.1210000   9.1380000 -18.1750000  28.6054085   8.1617837 -18.1537629
  27.3108002   9.1252120 -18.9040506  29.3290000  10.3890000 -18.6530000
  28.7040000  11.7830000 -17.7150000  28.7113269  11.5393322 -16.6526106
  29.3359137  12.6533222 -17.8919890  27.6841987  12.0051424 -18.0292601
  27.7050000   9.1540000 -14.3120000  27.4000000  10.2990000 -13.9540000
  27.4860000   8.0720000 -13.5590000  27.5219238   7.1691284 -14.0102557
  27.1530000   8.1230000 -12.1400000  26.8558136   9.1361988 -11.8694309
  26.0000000   7.1740000 -11.8190000  26.3720318   6.1520926 -11.8924639
  25.6431177   7.3582186 -10.8056893  24.8500000   7.3350000 -12.7690000
  24.7480000   6.6160000 -13.7690000  23.9770000   8.2990000 -12.4790000
  23.1821601   8.4545363 -13.0824384  24.1141263   8.8697350 -11.6570762
  28.3440000   7.7780000 -11.2550000  28.1540000   7.1640000 -10.1960000
  29.5650000   8.1380000 -11.6820000  29.6856307   8.5824013 -12.5809188
  30.7580000   7.8440000 -10.8880000  30.8204444   6.7673098 -10.7300819
  32.0150000   8.3030000 -11.6230000  31.9713692   9.3806923 -11.7804029
  32.8944909   8.0586562 -11.0272717  32.0778344   7.7978155 -12.5868152
  30.6760000   8.5020000  -9.5180000  30.9810000   7.8730000  -8.4950000
  30.2320000   9.7640000  -9.4820000  30.0834573  10.2194208 -10.3711717
  30.0020000  10.5360000  -8.2600000  30.9333248  10.6551224  -7.7063365
  29.4690000  11.9270000  -8.6280000  29.3725146  12.5210745  -7.7192287
  30.1268457  12.4406287  -9.3290882  28.1120000  11.8900000  -9.2620000
  27.8600000  11.2140000 -10.4400000  26.5800000  11.3290000 -10.7500000
  26.1809227  10.8631946 -11.6510336  25.9910000  12.0540000  -9.8150000
  25.0136353  12.3072682  -9.7882915  26.9260000  12.4150000  -8.8720000
  26.6296234  13.0177664  -8.0135509  29.0330000   9.8590000  -7.2820000
  28.8420000  10.3480000  -6.1590000  28.4050000   8.7560000  -7.7010000
  28.5429506   8.4517102  -8.6541404  27.4750000   8.0010000  -6.8590000
  27.3115312   8.5494135  -5.9313041  26.1240000   7.8370000  -7.5780000
  25.7111212   8.8198394  -7.8052817  26.2699683   7.2816908  -8.5045123
  25.1292172   7.0806258  -6.7092126  25.4507295   6.6885148  -5.5896948
  23.9165214   6.8761369  -7.2286133  23.2185882   6.3793635  -6.6936318
  23.7025351   7.2191408  -8.1541720  28.0610000   6.6240000  -6.4810000
  28.8820000   6.4920000  -5.5630000  27.7120332   5.6110182  -7.0831044
 -12.0680000  -5.8590000 -26.5720000   3.0280000   4.6770000 -35.3390000
   5.4130000   6.9780000 -33.1680000  12.1830000  10.4080000 -22.0700000
   1.4210000   0.6670000 -84.3170000   1.2080559   1.6063145 -84.6210461
   0.5932563   0.0973109 -84.4189564   2.2894127   0.3768345 -84.7433366
   1.6930000   0.7050000 -82.8620000   0.9947005   0.0612228 -82.3271843
   3.1210000   0.2030000 -82.6020000   3.8018449   0.8485024 -83.1568659
   3.3148932   0.3037696 -81.5341278   3.3390000  -1.2490000 -83.0240000
   2.8692507  -1.8818716 -82.2710657   2.8366137  -1.3898023 -83.9810187
   5.0850000  -1.7170000 -83.1920000   5.2930000  -0.8380000 -84.7680000
   5.0827527   0.2217964 -84.6240323   6.3172445  -0.9601051 -85.1202984
   4.6039897  -1.2474947 -85.5067016   1.6120000   2.1180000 -82.3810000
   2.5460000   2.8960000 -82.5660000   0.4850000   2.4870000 -81.7390000
  -0.2614609   1.8339235 -81.5482474   0.3370000   3.8390000 -81.2870000
   1.1586374   4.4272844 -81.6955740  -0.9910000   4.4880000 -81.7120000
  -0.9949123   5.5339902 -81.4054248  -1.0908853   4.4271769 -82.7957082
  -2.0780000   3.8110000 -81.0980000  -2.9033491   4.2207643 -81.3672432
   0.3710000   3.8420000 -79.7930000  -0.2090000   2.9690000 -79.1440000
   1.0580000   4.8450000 -79.2090000   1.4868328   5.5661365 -79.7712846
   1.1790000   4.9330000 -77.7820000   0.9037947   3.9698190 -77.3522982
   2.6010000   5.2910000 -77.3160000   3.1850167   4.4470171 -77.6830376
   2.9610544   6.2099221 -77.7786479   2.7520000   5.3930000 -75.7890000
   2.0451879   6.1344633 -75.4165088   2.4760000   4.0380000 -75.1150000
   3.1827675   3.2960838 -75.4866705   2.5897211   4.1386517 -74.0356310
   1.4596706   3.7178020 -75.3444521   4.1210000   5.9750000 -75.4010000
   4.2261631   6.9727632 -75.8270385   4.1966690   6.0342777 -74.3152461
   4.9121897   5.3311930 -75.7852270   0.2590000   6.0220000 -77.3150000
   0.1380000   7.0610000 -77.9670000  -0.4370000   5.8030000 -76.1810000
  -0.3353884   4.9495004 -75.6506106  -1.3430000   6.8050000 -75.6920000
  -1.0874741   7.7579199 -76.1554106  -2.8170000   6.4880000 -76.0000000
  -2.9118854   6.3978725 -77.0821151  -3.0486418   5.5300340 -75.5344431
  -3.7910000   7.5510000 -75.4900000  -4.8237831   7.2152568 -75.5834691
  -3.5844583   7.8040341 -74.4500883  -3.6070000   8.7980000 -76.3390000
  -2.8480000   8.7980000 -77.3060000  -4.3230000   9.8930000 -75.9690000
  -4.2394630  10.7495138 -76.4976843  -4.9352027   9.8449881 -75.1671247
  -1.2100000   6.9050000 -74.2040000  -0.9760000   5.9090000 -73.5190000
  -1.3500000   8.1320000 -73.6580000  -1.5361817   8.9384319 -74.2368810
  -1.2540000   8.3210000 -72.2380000  -0.4557273   7.6755371 -71.8716155
  -0.9580000   9.7660000 -71.8000000  -1.6940422  10.4058825 -72.2867150
  -1.0977659   9.8087988 -70.7198455   0.4490000  10.2500000 -72.1510000
   1.1559628   9.5395900 -71.7224884   0.5373511  10.2393149 -73.2373618
   0.8310000  11.9170000 -71.5370000   0.8440000  11.4360000 -69.7850000
   1.6084114  10.6762758 -69.6219250   1.0627566  12.3087260 -69.1696988
  -0.1313605  11.0340198 -69.5108011  -2.5610000   7.9420000 -71.6220000
  -3.6080000   8.0100000 -72.2650000  -2.5270000   7.5090000 -70.3440000
  -1.6656635   7.4519179 -69.8196523  -3.7470000   7.1270000 -69.6920000
  -4.6268590   7.4872856 -70.2250494  -3.8700000   5.6400000 -69.5120000
  -3.0305666   5.2693126 -68.9237469  -5.1860000   5.3330000 -68.7770000
  -6.0259776   5.7030061 -69.3649066  -5.2844146   4.2559317 -68.6415790
  -5.1814272   5.8222209 -67.8029653  -3.7590000   4.9710000 -70.8930000
  -2.7939869   5.2132670 -71.3381499  -3.8461708   3.8901984 -70.7817846
  -4.5580895   5.3348945 -71.5388619  -3.7860000   7.7540000 -68.3300000
  -2.7590000   7.8990000 -67.6680000  -4.9960000   8.1710000 -67.8990000
  -5.7893921   8.0666597 -68.5152317  -5.2150000   8.7390000 -66.5950000
  -4.2681505   9.1176211 -66.2100047  -6.2090000   9.8610000 -66.6100000
  -6.3394665  10.2526880 -65.6012090  -5.6840000  10.9770000 -67.5290000
  -5.5537156  10.5861601 -68.5381431  -6.3992114  11.7993218 -67.5479341
  -4.7264831  11.3375321 -67.1531295  -7.4610000   9.3910000 -67.0870000
  -8.0925745  10.1139549 -67.0940863  -5.7540000   7.6510000 -65.7160000
  -6.2070000   6.6160000 -66.2120000  -5.7250000   7.8490000 -64.3780000
  -5.3867170   8.7084043 -63.9692358  -6.1760000   6.8080000 -63.4980000
  -6.8076184   6.0807165 -64.0081138  -5.0350000   6.0770000 -62.8400000
  -4.4452603   6.7820696 -62.2541816  -5.5830000   4.9770000 -61.9170000
  -6.1725086   4.2712424 -62.5022238  -4.7530608   4.4519696 -61.4440893
  -6.2126249   5.4265646 -61.1491682  -4.1070000   5.5450000 -63.9460000
  -3.7277503   6.3797315 -64.5354871  -3.2713134   5.0107425 -63.4940082
  -4.6635950   4.8671149 -64.5931281  -7.0410000   7.4110000 -62.4260000
  -6.9570000   8.6050000 -62.1370000  -7.9000000   6.5770000 -61.8020000
  -7.8824985   5.5950154 -62.0375827  -8.8430000   7.0240000 -60.8130000
  -9.1855072   8.0269046 -61.0678930  -9.6946309   6.3439910 -60.7927066
  -8.2120000   7.0550000 -59.4560000  -6.9910000   7.0220000 -59.3000000
  -9.0790000   7.1010000 -58.4270000 -10.0621509   7.0378300 -58.6495380
  -8.7020000   7.2600000 -57.0530000  -8.1264798   8.1797139 -56.9481095
  -9.9230000   7.3350000 -56.1200000  -9.6035080   7.3131872 -55.0781035
 -10.4919091   8.2459508 -56.3060410 -10.8750000   6.1900000 -56.3010000
 -11.8190000   6.1320000 -57.3020000 -12.4820000   4.9580000 -57.1480000
 -13.2750159   4.7452712 -57.8649178 -12.0320000   4.2600000 -56.1220000
 -12.3214854   3.3613287 -55.7632690 -11.0190000   5.0390000 -55.5890000
 -10.4673868   4.6924360 -54.7150907  -7.8320000   6.1330000 -56.5890000
  -6.8660000   6.3710000 -55.8660000  -8.1360000   4.8770000 -56.9700000
  -8.8996317   4.6434802 -57.5884128  -7.3410000   3.8050000 -56.4330000
  -6.8581194   4.1497476 -55.5186288  -8.1790000   2.5580000 -56.1060000
  -7.5310246   1.7515809 -55.7626119  -8.9355850   2.7629837 -55.3485960
  -8.8770000   2.1110000 -57.3820000  -8.8120000   2.7870000 -58.4090000
  -9.5850000   0.9520000 -57.3150000 -10.0674140   0.6104452 -58.1339730
  -9.6252775   0.4379031 -56.4465629  -6.2570000   3.4070000 -57.3940000
  -6.0610000   2.2280000 -57.6830000  -5.4770000   4.4000000 -57.8540000
  -5.7043061   5.3345231 -57.5456205  -4.3640000   4.2290000 -58.7450000
  -4.6103646   3.6084709 -59.6065958  -3.7860000   5.5350000 -59.2170000
  -4.5398620   6.0965113 -59.7688129  -3.3390000   6.3460000 -57.9920000
  -2.5847487   5.7852937 -57.4399003  -2.9173845   7.2964829 -58.3189913
  -4.1971305   6.5326953 -57.3463561  -2.6770000   5.2870000 -60.2520000
  -1.8293576   4.8483259 -59.7255323  -3.0615017   4.5722877 -60.9796292
  -2.2270000   6.5540000 -60.9730000  -1.8419159   7.2690573 -60.2460178
  -1.4430672   6.3064150 -61.6887165  -3.0740611   6.9930205 -61.5001131
  -3.2710000   3.4660000 -58.0520000  -2.5120000   2.7300000 -58.6810000
  -3.1710000   3.6340000 -56.7210000  -3.9039439   4.1651092 -56.2728754
  -2.1030000   3.1210000 -55.9040000  -1.1707139   3.5813610 -56.2311230
  -2.3070000   3.4310000 -54.4090000  -3.2321422   2.9688869 -54.0645244
  -1.4682565   3.0338044 -53.8372961  -2.3651625   4.5099830 -54.2657796
  -1.9820000   1.6300000 -56.0360000  -0.8840000   1.0850000 -55.9320000
  -3.1000000   0.9210000 -56.2670000  -3.9683753   1.4097953 -56.4316290
  -3.1100000  -0.5150000 -56.3000000  -2.8063340  -0.8940013 -55.3241700
  -4.5000000  -1.0770000 -56.6340000  -4.7391549  -0.5806245 -57.5744869
  -4.4791421  -2.1558354 -56.7882053  -5.5730000  -0.7290000 -55.5820000
  -5.6519085   0.3557764 -55.5103443  -6.9410000  -1.3180000 -55.9680000
  -6.8629908  -2.4028573 -56.0394002  -7.6772891  -1.0564256 -55.2080276
  -7.2532289  -0.9125754 -56.9304159  -5.1310000  -1.1550000 -54.1720000
  -4.2074400  -0.6393411 -53.9088799  -5.9084899  -0.8961707 -53.4532386
  -4.9633394  -2.2318614 -54.1530690  -2.1640000  -1.0420000 -57.3470000
  -1.5370000  -2.0810000 -57.1410000  -2.0350000  -0.3600000 -58.5030000
  -2.5053060   0.5200256 -58.6594179  -1.2270000  -0.9010000 -59.5660000
  -1.4246977  -1.9628026 -59.7129358  -1.4150000  -0.1730000 -60.8650000
  -1.1982845   0.8870948 -60.7333422  -0.4470000  -0.7690000 -61.9010000
  -0.6634174  -1.8290451 -62.0335468  -0.5691830  -0.2519788 -62.8527674
   0.5785971  -0.6489636 -61.5519428  -2.8910000  -0.2440000 -61.2960000
  -3.0858912  -1.2659217 -61.6212603  -3.4971437  -0.0208741 -60.4179885
  -3.2490000   0.7250000 -62.4210000  -2.6435464   0.5021803 -63.2995654
  -4.3045088   0.6181148 -62.6711519  -3.0547965   1.7472284 -62.0962940
   0.2290000  -0.8420000 -59.2020000   0.7610000   0.2150000 -58.8670000
   0.9110000  -2.0090000 -59.2750000   0.4374835  -2.8404184 -59.5984577
   2.3080000  -2.1030000 -58.9510000   2.7467505  -1.1101719 -59.0504461
   2.5820000  -2.6210000 -57.5300000   3.6542961  -2.5442369 -57.3500340
   2.0498489  -1.9738856 -56.8327495   2.1330000  -4.0700000 -57.3250000
   1.0583743  -4.1704485 -57.4772844   2.6597588  -4.7435029 -58.0010333
   2.4600000  -4.4650000 -55.8930000   3.4650000  -4.0370000 -55.3310000
   1.5840000  -5.3100000 -55.2850000   1.7503568  -5.6062819 -54.3338723
   0.7712748  -5.6372105 -55.7875062   2.9330000  -3.0900000 -59.8880000
   2.2410000  -3.7980000 -60.6190000   4.2380000  -3.1520000 -59.8940000
   5.0700000  -1.9940000 -59.6270000   4.8385526  -1.5978686 -58.6382572
   4.8811420  -1.2272644 -60.3783642   6.4940000  -2.5630000 -59.7160000
   6.8124800  -2.9469226 -58.7468390   7.1913853  -1.7941760 -60.0486632
   6.3810000  -3.6940000 -60.7610000   7.0064599  -4.5371733 -60.4678144
   6.6573702  -3.3687064 -61.7639473   4.9040000  -4.1060000 -60.7330000
   4.5413098  -4.0080059 -61.7562064   4.6210000  -5.4900000 -60.2340000
   4.5750000  -5.6900000 -59.0220000   4.4430000  -6.4580000 -61.1570000
   4.5228031  -6.2403430 -62.1400342   4.1390000  -7.8090000 -60.7820000
   4.6530784  -8.4996651 -61.4504342   4.4636754  -7.9869425 -59.7568065
   2.6550000  -8.0500000 -60.8750000   2.1950000  -9.1620000 -60.6180000
   1.8650000  -7.0260000 -61.2620000   2.2774210  -6.1382636 -61.5108621
   0.4310000  -7.1580000 -61.3350000   0.0973920  -7.7045133 -60.4528843
  -0.3200000  -5.8150000 -61.3950000  -1.3981934  -5.9487209 -61.3071537
   0.0192968  -5.1005951 -60.6449311  -0.0750000  -5.1860000 -62.7250000
   1.1090000  -4.5470000 -63.0030000   1.8844034  -4.5023435 -62.2382417
   1.3210000  -3.9670000 -64.2320000   2.2668443  -3.4670503 -64.4406372
   0.3430000  -4.0170000 -65.1960000   0.5067345  -3.5590326 -66.1714777
  -0.8450000  -4.6480000 -64.9250000  -1.6252564  -4.6909364 -65.6849057
  -1.0510000  -5.2260000 -63.6950000  -1.9961639  -5.7237290 -63.4781337
   0.0720000  -7.9270000 -62.5740000   0.8990000  -8.1020000 -63.4680000
  -1.1800000  -8.4420000 -62.6380000  -1.8562821  -8.2694238 -61.9079594
  -1.5860000  -9.2270000 -63.7710000  -0.8467511  -9.1004822 -64.5619511
  -1.7130000 -10.7270000 -63.4520000  -2.4626106 -10.8627260 -62.6724093
  -2.0253342 -11.2569116 -64.3518561  -0.4670000 -11.2450000 -63.0060000
  -0.5606986 -12.1802794 -62.8108771  -2.9380000  -8.7830000 -64.2450000
  -3.7390000  -8.2360000 -63.4860000  -3.2030000  -8.9990000 -65.5500000
  -2.4875250  -9.4105040 -66.1321162  -4.4780000  -8.7030000 -66.1440000
  -5.1346884  -8.3214228 -65.3621699  -4.4120000  -7.6650000 -67.2820000
  -3.6292224  -8.0749141 -67.9202232  -5.3480606  -7.6209440 -67.8387312
  -4.0150000  -6.2430000 -66.8300000  -3.0305940  -6.2879604 -66.3641414
  -3.9740000  -5.2720000 -68.0210000  -4.9582404  -5.2261536 -68.4871198
  -3.6915453  -4.2790022 -67.6713209  -3.2431007  -5.6213502 -68.7502743
  -4.9220000  -5.7320000 -65.6970000  -4.8428205  -6.3990963 -64.8386221
  -4.6110192  -4.7284983 -65.4065235  -5.9556030  -5.7058931 -66.0420829
  -4.9880000  -9.9840000 -66.7400000  -4.2120000 -10.8040000 -67.2300000
  -6.3190000 -10.2050000 -66.6810000  -6.9274087  -9.5499113 -66.2111096
  -6.9040000 -11.3840000 -67.2600000  -6.1491030 -11.8774629 -67.8721472
  -7.4180000 -12.3850000 -66.2120000  -7.9665021 -13.1579403 -66.7503381
  -6.5427352 -12.8264235 -65.7353903  -8.3230000 -11.7680000 -65.1440000
  -7.7528247 -10.9884728 -64.6386898  -9.1766823 -11.3207927 -65.6532487
  -8.9210000 -12.9640000 -63.9130000  -7.2580000 -13.3830000 -63.3100000
  -6.7756024 -12.4865025 -62.9205339  -7.3351969 -14.1270189 -62.5171714
  -6.6646549 -13.7870672 -64.1302271  -8.0430000 -10.9500000 -68.1320000
  -8.7400000  -9.9860000 -67.8190000  -8.2580000 -11.6570000 -69.2620000
  -7.7287061 -12.4888115 -69.4811733  -9.2710000 -11.2310000 -70.1870000
  -9.7027133 -10.2948784 -69.8328825  -8.7090000 -11.0090000 -71.6030000
  -7.7917512 -10.4219973 -71.5562915  -8.5045268 -11.9636474 -72.0877052
  -9.7310000 -10.2490000 -72.4370000 -10.8940000 -10.1240000 -72.0630000
  -9.2820000  -9.7280000 -73.6090000  -9.9148139  -9.2133730 -74.2046554
  -8.3174875  -9.8577385 -73.8791563 -10.3480000 -12.2710000 -70.2870000
 -10.0770000 -13.4280000 -70.6100000 -11.6070000 -11.8780000 -69.9880000
 -11.7964003 -10.9310660 -69.6921235 -12.7160000 -12.7770000 -70.1450000
 -12.3272961 -13.7017222 -70.5714941 -13.4790000 -13.1150000 -68.8480000
 -13.6899495 -12.2191827 -68.2639530 -14.4105824 -13.6429089 -69.0518785
 -12.6640000 -14.0090000 -67.9780000 -12.6900000 -15.3710000 -68.1690000
 -13.3097071 -15.7840239 -68.9649110 -11.9470000 -16.2090000 -67.3710000
 -11.9757092 -17.2865851 -67.5325144 -11.1670000 -15.6850000 -66.3680000
 -10.5756347 -16.3421894 -65.7304350 -11.1350000 -14.3260000 -66.1710000
 -10.5169064 -13.9081118 -65.3763744 -11.8800000 -13.4930000 -66.9730000
 -11.8517580 -12.4149845 -66.8143026 -13.7330000 -12.1190000 -71.0290000
 -14.4210000 -11.1880000 -70.6160000 -13.8800000 -12.6350000 -72.2650000
 -13.2485307 -13.3715968 -72.5456616 -14.8480000 -12.1690000 -73.2170000
 -14.6913421 -12.6953648 -74.1585400 -16.2990000 -12.4030000 -72.7580000
 -16.4069610 -13.4176467 -72.3746779 -16.5652499 -11.6900960 -71.9776290
 -17.2220000 -12.2120000 -73.9570000 -16.7000000 -11.9260000 -75.0680000
 -18.4610000 -12.3470000 -73.7740000 -14.6740000 -10.7090000 -73.5060000
 -15.6510000  -9.9830000 -73.6760000 -13.4220000 -10.2270000 -73.5680000
 -12.6181312 -10.7934985 -73.3378398 -13.2030000  -8.8670000 -73.9720000
 -12.2539734  -8.7927227 -74.5029714 -14.0120820  -8.5469129 -74.6285287
 -13.1630000  -7.9700000 -72.7760000 -12.5740000  -6.8920000 -72.8380000
 -13.7940000  -8.3740000 -71.6550000 -14.2894711  -9.2507275 -71.5778212
 -13.7210000  -7.5280000 -70.4950000 -13.7691735  -6.4942410 -70.8372293
 -14.8340000  -7.7550000 -69.4600000 -14.8591383  -8.8249287 -69.2533120
 -14.5403243  -7.2180398 -68.5580419 -16.2210000  -7.2890000 -69.9010000
 -16.2538627  -6.2200436 -70.1116018 -16.5510114  -7.8423222 -70.7802207
 -17.1740000  -7.5880000 -68.7520000 -17.2610000  -8.7220000 -68.2820000
 -17.8940000  -6.5410000 -68.2690000 -18.5407596  -6.6856573 -67.5068466
 -17.7789553  -5.6231388 -68.6744589 -12.4310000  -7.8340000 -69.8060000
 -12.0890000  -8.9970000 -69.6050000 -11.6810000  -6.7830000 -69.4190000
 -12.0049757  -5.8397358 -69.5783479 -10.4080000  -6.9670000 -68.7780000
 -10.0001664  -7.9619394 -68.9565119  -9.3900000  -5.9480000 -69.2020000
  -9.7487728  -4.9469866 -68.9625142  -8.0740000  -6.2140000 -68.4510000
  -7.7143425  -7.2147261 -68.6903631  -7.3280246  -5.4786235 -68.7524008
  -8.2458707  -6.1373911 -67.3773645  -9.2540000  -6.0060000 -70.7350000
 -10.2172403  -5.7841150 -71.1943879  -8.5179312  -5.2720293 -71.0630082
  -8.9304414  -7.0029659 -71.0341147 -10.5790000  -6.8600000 -67.2920000
 -11.4270000  -6.1160000 -66.8020000  -9.7700000  -7.6330000 -66.5340000
  -9.1076239  -8.2559406 -66.9736615  -9.8220000  -7.5970000 -65.0990000
 -10.4074788  -6.7264422 -64.8032928 -10.4510000  -8.8500000 -64.4670000
 -10.0327293  -9.7785017 -64.8556302 -10.4010746  -8.8573266 -63.3781686
 -11.8990000  -8.8500000 -64.8280000 -12.3260000  -9.3900000 -66.0190000
 -11.5947518  -9.8215489 -66.7024775 -13.6610000  -9.3890000 -66.3510000
 -13.9852167  -9.8225883 -67.2970367 -14.5850000  -8.8430000 -65.4930000
 -15.6439187  -8.8385528 -65.7514014 -14.1660000  -8.3000000 -64.3020000
 -14.8936255  -7.8658919 -63.6162803 -12.8300000  -8.3040000 -63.9750000
 -12.4986654  -7.8713294 -63.0310120  -8.4150000  -7.4740000 -64.5910000
  -7.4580000  -7.7730000 -65.3060000  -8.2680000  -7.0200000 -63.3270000
  -9.0948553  -6.8795522 -62.7642531  -6.9860000  -6.7410000 -62.7370000
  -6.1904121  -6.9927232 -63.4382664  -6.8780000  -5.2420000 -62.3860000
  -6.8927887  -4.6077742 -63.2723623  -7.6971212  -4.9600805 -61.7244398
  -5.6160000  -4.9290000 -61.6590000  -4.4240000  -4.7950000 -62.3300000
  -4.3991035  -4.9293419 -63.4114029  -3.2690000  -4.4940000 -61.6480000
  -2.3273455  -4.3973448 -62.1884122  -3.3010000  -4.3150000 -60.2860000
  -2.3860212  -4.0792411 -59.7425559  -4.4910000  -4.4340000 -59.6090000
  -4.5230674  -4.2885533 -58.5292236  -5.6420000  -4.7370000 -60.2960000
  -6.5877730  -4.8274844 -59.7617473  -6.8350000  -7.5400000 -61.4760000
  -7.7910000  -7.7320000 -60.7250000  -5.6050000  -8.0370000 -61.2210000
  -4.8451344  -7.8267095 -61.8522539  -5.3250000  -8.8380000 -60.0600000
  -6.0618800  -8.6219942 -59.2864054  -5.3810000 -10.3430000 -60.3870000
  -6.3957144 -10.6950729 -60.5727381  -4.7528433 -10.5766770 -61.2466012
  -4.8550000 -11.1420000 -59.2450000  -5.6270000 -11.3910000 -58.1340000
  -6.6398854 -10.9913126 -58.0848777  -5.1310000 -12.1370000 -57.0910000
  -5.7506223 -12.3220367 -56.2135433  -3.8570000 -12.6490000 -57.1530000
  -3.4620637 -13.2404163 -56.3269540  -3.0810000 -12.4130000 -58.2610000
  -2.0701647 -12.8168682 -58.3175922  -3.5820000 -11.6650000 -59.3010000
  -2.9697234 -11.4797551 -60.1835540  -3.9350000  -8.5220000 -59.5830000
  -3.0700000  -8.1480000 -60.3760000  -3.6770000  -8.7150000 -58.2680000
  -4.4106845  -9.0274294 -57.6481659  -2.3660000  -8.4850000 -57.7140000
  -2.2097575  -9.1974808 -56.9040256  -1.6300876  -8.6605977 -58.4986641
  -2.1890000  -7.0930000 -57.1810000  -1.1490000  -6.4710000 -57.3920000
  -3.1880000  -6.5670000 -56.4470000  -4.0117267  -7.1095967 -56.2298305
  -3.0950000  -5.2300000 -55.9250000  -2.8876774  -4.5531358 -56.7538374
  -4.3700000  -4.7600000 -55.2160000  -4.2481044  -3.7070921 -54.9617844
  -5.2040500  -4.8717673 -55.9087978  -4.6530000  -5.5620000 -53.9440000
  -4.8794745  -6.6006426 -54.1848975  -3.8042055  -5.5246973 -53.2611687
  -5.8590000  -4.9500000 -53.2530000  -6.9680000  -4.9590000 -53.7830000
  -5.6350000  -4.3970000 -52.0310000  -6.3992985  -3.9747491 -51.5234043
  -4.7053409  -4.4110164 -51.6364891  -2.0040000  -5.1560000 -54.9030000
  -1.6500000  -6.1520000 -54.2720000  -1.4210000  -3.9500000 -54.7320000
  -1.6609791  -3.1460685 -55.2943198  -0.4030000  -3.8020000 -53.7350000
   0.2380082  -4.6819791 -53.7883328   0.4740000  -2.5450000 -53.8800000
   0.8363368  -2.4992833 -54.9069962  -0.1455885  -1.6720462 -53.6746667
   1.6670000  -2.5620000 -52.9180000   1.2862419  -2.2944673 -51.9323274
   2.0448028  -3.5841915 -52.8958280   2.8000000  -1.6080000 -53.3030000
   3.7379244  -2.1348083 -53.1273021   2.6958717  -1.3977090 -54.3674409
   2.8000000  -0.2940000 -52.5220000   1.9032155   0.2735596 -52.7705041
   2.8086821  -0.5092284 -51.4534961   3.9990000   0.4990000 -52.8750000
   3.9909266   0.6989102 -53.8649851   3.9940477   1.3657073 -52.3564502
   4.8300927  -0.0265609 -52.6444143  -1.0780000  -3.7620000 -52.4020000
  -2.1440000  -3.1690000 -52.2440000  -0.4740000  -4.4420000 -51.4090000
   0.3807228  -4.9491197 -51.5889386  -1.0140000  -4.4700000 -50.0820000
  -0.2579051  -4.7868860 -49.3636666  -1.3947333  -3.4886803 -49.7988865
  -2.1400000  -5.4510000 -50.0670000  -2.6120000  -5.8950000 -51.1130000
  -2.6230000  -5.7970000 -48.8590000  -2.2192023  -5.4278009 -48.0100366
  -3.7100000  -6.7250000 -48.7470000  -3.5416429  -7.5304973 -49.4617931
  -3.8660000  -7.3360000 -47.3470000  -3.8144647  -6.5458350 -46.5979455
  -4.8046484  -7.8791643 -47.2374015  -2.7630000  -8.3110000 -47.0220000
  -1.6060000  -8.1270000 -46.3230000  -1.4312441  -7.1355988 -45.9050480
  -0.8810000  -9.2950000 -46.3010000   0.0130059  -9.4302853 -45.8509435
  -1.5780000 -10.2560000 -47.0020000  -1.2830000 -11.5620000 -47.2700000
  -0.3476590 -11.9725340 -46.8896085  -2.1950000 -12.2810000 -48.0100000
  -1.9965146 -13.3275763 -48.2410442  -3.3620000 -11.7040000 -48.4690000
  -4.0753822 -12.2834137 -49.0550590  -3.6620000 -10.3870000 -48.2040000
  -4.5877085  -9.9551531 -48.5843588  -2.7580000  -9.6770000 -47.4660000
  -4.9680000  -6.0070000 -49.1080000  -5.0520000  -4.7820000 -49.0380000
  -5.9510000  -6.7580000 -49.5190000  -5.7040000  -8.0040000 -50.2290000
  -5.6071471  -8.8042900 -49.4953409  -4.7705807  -7.9048168 -50.7830669
  -6.9200000  -8.1950000 -51.1560000  -7.2424896  -9.2361351 -51.1442865
  -6.6650695  -7.9055893 -52.1754867  -8.0020000  -7.2640000 -50.5740000
  -8.6223508  -7.7594032 -49.8271134  -8.6377131  -6.8482612 -51.3557478
  -7.1890000  -6.1520000 -49.9180000  -6.9805621  -5.4277177 -50.7054434
  -7.8560000  -5.4650000 -48.7760000  -7.8070000  -5.9660000 -47.6540000
  -8.4830000  -4.3070000 -49.0560000  -8.4721116  -3.9532269 -50.0019521
  -9.1340000  -3.5290000 -48.0490000  -8.8631056  -3.9384532 -47.0758281
  -8.7570000  -2.0360000 -48.0770000  -9.5070047  -1.5084532 -47.4876897
  -7.7849656  -1.9452481 -47.5922183  -8.6870000  -1.4250000 -49.4770000
  -9.6385683  -1.6318320 -49.9667337  -8.5691223  -0.3484898 -49.3531748
  -7.5420000  -1.9680000 -50.3370000  -7.5651582  -3.0547477 -50.2561171
  -7.7460809  -1.6764299 -51.3672608  -6.1580000  -1.4550000 -49.9260000
  -5.4587052  -1.6224461 -50.7451759  -6.2220990  -0.3873041 -49.7162003
  -5.6820000  -2.1680000 -48.7170000  -5.6221228  -3.1573189 -48.9113258
  -4.7698986  -1.8199191 -48.4581355  -6.3296201  -2.0126194 -47.9576950
 -10.6120000  -3.6680000 -48.2170000 -11.0960000  -4.3780000 -49.0970000
 -11.3660000  -2.9750000 -47.3450000 -10.8994220  -2.3725836 -46.6820530
 -12.7970000  -3.0560000 -47.3000000 -13.0773252  -4.0987061 -47.1507316
 -13.4200000  -2.2140000 -46.1750000 -12.9365401  -1.2371580 -46.1870655
 -14.4803630  -2.0968087 -46.3985990 -13.2580000  -2.8450000 -44.7930000
 -12.1941641  -2.8718891 -44.5571377 -13.7738666  -2.2122444 -44.0707784
 -13.8300000  -4.2620000 -44.7290000 -13.2643659  -4.9473802 -45.3601981
 -13.8441898  -4.6386204 -43.7062316 -15.2320000  -4.1950000 -45.2330000
 -15.8187579  -3.3912688 -45.0602846 -15.7510000  -5.2400000 -45.9400000
 -15.0020000  -6.3610000 -46.1510000 -14.0631995  -6.4141567 -45.7823159
 -15.3897908  -7.1325159 -46.6749095 -17.0180000  -5.1640000 -46.4440000
 -17.5696801  -4.3317917 -46.2917551 -17.3976717  -5.9403418 -46.9667251
 -13.3710000  -2.5840000 -48.5910000 -14.4420000  -3.0370000 -48.9930000
 -12.7000000  -1.6360000 -49.2650000 -11.8258691  -1.2499614 -48.9379393
 -13.2390000  -1.1470000 -50.4990000 -14.2070285  -0.6874796 -50.2993477
 -12.3290000  -0.1040000 -51.1740000 -12.8217685   0.2726874 -52.0703175
 -12.1559557   0.7199091 -50.4816638 -11.0870000  -0.6920000 -51.5290000
 -10.5291384  -0.0328176 -51.9483671 -13.4100000  -2.3000000 -51.4450000
 -14.4370000  -2.4010000 -52.1130000 -12.4060000  -3.2000000 -51.5440000
 -11.5562810  -3.1141358 -51.0048300 -12.5500000  -4.3390000 -52.4160000
 -13.6120347  -4.5275142 -52.5729837 -11.8810000  -4.1250000 -53.7850000
 -12.3240299  -3.2767087 -54.3067524 -10.8089146  -3.9627616 -53.6735923
 -12.0620000  -5.5510000 -54.8970000 -11.3945894  -5.0179176 -55.9164530
 -11.8770000  -5.5180000 -51.7690000 -10.6620000  -5.6780000 -51.8640000
 -12.6430000  -6.3580000 -51.1200000 -13.8580000  -5.8840000 -50.4760000
 -14.6826825  -5.9956258 -51.1799451 -13.7269184  -4.8290764 -50.2350583
 -14.0310000  -6.7540000 -49.2220000 -15.0807581  -7.0121041 -49.0823961
 -13.6673322  -6.2245663 -48.3413485 -13.1780000  -8.0030000 -49.5030000
 -13.6782344  -8.8515624 -49.9696973 -12.7532061  -8.3125518 -48.5481034
 -12.0740000  -7.4830000 -50.4200000 -11.3247184  -7.0623700 -49.7493691
 -11.4480000  -8.5610000 -51.2550000 -10.5460000  -9.2350000 -50.7620000
 -11.9230000  -8.7800000 -52.4930000 -12.6548459  -8.1955810 -52.8710944
 -11.4100000  -9.8440000 -53.3110000 -11.3985342 -10.7670822 -52.7314424
 -12.2380000 -10.0620000 -54.5440000 -11.8898353 -10.9454793 -55.0791129
 -13.6990000 -10.2690000 -54.1090000 -14.0480359  -9.3856817 -53.5741894
 -14.3214379 -10.4297064 -54.9892521 -13.7641756 -11.1384881 -53.4549028
 -12.1480000  -8.9410000 -55.4110000 -12.6826402  -9.0974376 -56.1928487
 -10.0140000  -9.5400000 -53.7540000  -9.1670000 -10.4300000 -53.8180000
  -9.7330000  -8.2610000 -54.0670000 -10.4149858  -7.5270788 -53.9391159
  -8.4490000  -7.9100000 -54.5930000  -8.1856655  -6.8887679 -54.3176110
  -7.6826731  -8.5934610 -54.2273177  -8.5190000  -8.0100000 -56.0910000
  -7.4960000  -7.9140000 -56.7660000  -9.7310000  -8.2120000 -56.6560000
 -10.5683063  -8.2891360 -56.0964755  -9.8540000  -8.3180000 -58.0880000
  -8.8865597  -8.2186689 -58.5802315 -10.4900000  -9.6020000 -58.5350000
 -11.4599246  -9.7201823 -58.0519074 -10.6790000  -9.5620000 -60.0600000
  -9.7093892  -9.4442913 -60.5438393 -11.1406841 -10.4912201 -60.3939136
 -11.3211350  -8.7220820 -60.3251451  -9.6090000 -10.7680000 -58.0550000
  -9.5360767 -10.7452920 -56.9676782 -10.0527962 -11.7126754 -58.3692181
  -8.6129486 -10.6734481 -58.4874840 -10.7070000  -7.1870000 -58.5810000
 -11.7550000  -6.8890000 -58.0070000 -10.2840000  -6.5330000 -59.6860000
  -9.4991419  -6.8533765 -60.2350502 -11.0040000  -5.3740000 -60.1380000
 -11.9201755  -5.2872775 -59.5538760 -10.2020000  -4.0680000 -59.9920000
  -9.2436043  -4.1039094 -60.5099648 -10.7692570  -3.2039386 -60.3380021
  -9.9000000  -3.8310000 -58.5530000  -8.7980000  -4.4110000 -57.9690000
  -8.1493711  -5.0495366 -58.5687094  -8.5110000  -4.1920000 -56.6420000
  -7.6359013  -4.6587894 -56.1898821  -9.3270000  -3.3850000 -55.8860000
  -9.1044874  -3.2087838 -54.8336047 -10.4280000  -2.7990000 -56.4630000
 -11.0776796  -2.1570205 -55.8681228 -10.7100000  -3.0220000 -57.7890000
 -11.5828739  -2.5561762 -58.2463831 -11.3100000  -5.4680000 -61.5990000
 -10.5780000  -6.0810000 -62.3770000 -12.4350000  -4.8380000 -61.9980000
 -13.0456836  -4.4230559 -61.3088075 -12.7850000  -4.7080000 -63.3830000
 -12.5508445  -5.6463595 -63.8857443 -14.2730000  -4.3870000 -63.6090000
 -14.8791779  -5.2119069 -63.2345990 -14.5522190  -3.4682824 -63.0931562
 -14.6460000  -4.2000000 -65.0520000 -14.2350000  -5.0240000 -66.0740000
 -14.7870000  -4.5390000 -67.2150000 -14.5618212  -5.0775613 -68.1355135
 -15.5230000  -3.4650000 -66.9980000 -16.0511442  -2.8912364 -67.6398402
 -15.4330000  -3.2530000 -65.6340000 -15.9572775  -2.4136422 -65.1771490
 -11.9590000  -3.5580000 -63.8780000 -12.0730000  -2.4370000 -63.3790000
 -11.0830000  -3.8360000 -64.8640000 -11.1341433  -4.7558537 -65.2779479
 -10.1220000  -2.9040000 -65.3900000  -9.9907225  -2.0603647 -64.7123977
  -8.7650000  -3.6310000 -65.5430000  -8.4523370  -3.9561603 -64.5507239
  -8.8478976  -4.4973079 -66.1993069  -7.6580000  -2.7890000 -66.0850000
  -7.5620000  -2.5240000 -67.4320000  -8.3170798  -2.9245695 -68.1083863
  -6.5280000  -1.7630000 -67.9280000  -6.4714431  -1.5528272 -68.9960493
  -5.5670000  -1.2680000 -67.0780000  -4.7480259  -0.6610927 -67.4640633
  -5.6440000  -1.5430000 -65.7340000  -4.8831375  -1.1580308 -65.0550396
  -6.6810000  -2.3040000 -65.2450000  -6.7363061  -2.5298528 -64.1800908
 -10.5900000  -2.4670000 -66.7470000 -10.3450000  -3.1430000 -67.7440000
 -11.2600000  -1.3010000 -66.8340000 -11.4690672  -0.7361045 -66.0232699
 -11.7460000  -0.8630000 -68.1130000 -11.3053436  -1.4962446 -68.8830146
 -13.2810000  -0.9300000 -68.2390000 -13.5814052  -0.5091859 -69.1985684
 -13.6291831  -1.9605739 -68.1698192 -13.8940000  -0.1110000 -67.1120000
 -13.5650000  -0.4020000 -65.9310000 -14.7090000   0.8010000 -67.4140000
 -11.2930000   0.5360000 -68.3800000 -11.4530000   1.4260000 -67.5470000
 -10.6910000   0.7580000 -69.5690000 -10.5570001   0.0155774 -70.2405296
 -10.2500000   2.0770000 -69.9170000 -10.2402389   2.6804616 -69.0093447
  -8.8490000   2.1200000 -70.5510000  -8.1575548   1.6490305 -69.8522937
  -8.8870079   1.5378909 -71.4717630  -8.3700000   3.5370000 -70.8640000
  -9.0941685   3.9774625 -71.5493274  -8.3736246   4.0924361 -69.9261409
  -6.7130000   3.6280000 -71.6060000  -7.2110000   2.9190000 -73.2010000
  -7.9753155   3.5487388 -73.6563569  -6.3453154   2.8643936 -73.8610826
  -7.6118478   1.9175001 -73.0447305 -11.2130000   2.6100000 -70.9230000
 -11.4840000   1.9770000 -71.9420000 -11.7790000   3.7970000 -70.6310000
 -11.5237314   4.2998367 -69.7930904 -12.7010000   4.4110000 -71.5360000
 -12.8021741   3.7736903 -72.4144642 -14.0950000   4.6230000 -70.9190000
 -14.3899143   3.6800939 -70.4585080 -13.9930027   5.3869391 -70.1482253
 -15.1620000   5.0540000 -71.9250000 -16.0282325   5.3999524 -71.3610328
 -14.7539786   5.8806518 -72.5066076 -15.5850000   3.9280000 -72.8680000
 -16.0407210   3.1474291 -72.2587986 -16.3302259   4.3374943 -73.5499474
 -14.4280000   3.3350000 -73.6740000 -14.0642566   4.0785746 -74.3831461
 -13.6218406   3.0558028 -72.9955789 -14.8900000   2.1380000 -74.4090000
 -15.6367162   2.3965742 -75.0380104 -14.1221357   1.7511754 -74.9389539
 -15.2266974   1.4486932 -73.7520449 -12.1560000   5.7680000 -71.8360000
 -11.9210000   6.5680000 -70.9330000 -11.9540000   6.0690000 -73.1310000
 -12.1133597   5.3851332 -73.8569683 -11.4800000   7.3660000 -73.5120000
 -11.2524761   7.3626918 -74.5779836 -12.5210000   8.4640000 -73.2350000
 -12.7433342   8.4496878 -72.1680127 -12.0724396   9.4216146 -73.4993254
 -13.8170000   8.2710000 -74.0290000 -13.6557560   8.4237210 -75.0961352
 -14.2169348   7.2708717 -73.8619742 -14.8370000   9.2910000 -73.5400000
 -15.6130000   9.8360000 -74.3230000 -14.8460000   9.5470000 -72.2040000
 -15.5021128  10.2150034 -71.8253327 -14.1965306   9.0679165 -71.5967357
 -10.2180000   7.6990000 -72.7670000 -10.0970000   8.7770000 -72.1860000
  -9.2440000   6.7670000 -72.7710000  -9.4398010   5.8678075 -73.1871900
  -7.9460000   6.9810000 -72.1890000  -7.3495099   6.0790807 -72.3262603
  -7.1970000   8.1670000 -72.8220000  -7.8170791   9.0633674 -72.8332524
  -6.2712188   8.3729813 -72.2847841  -6.8540000   7.7950000 -74.2570000
  -6.4390000   6.6720000 -74.5380000  -7.0350000   8.7630000 -75.1950000
  -6.8228164   8.5695716 -76.1633302  -7.3807897   9.6709555 -74.9190523
  -8.0470000   7.2380000 -70.7180000  -7.1420000   7.8240000 -70.1250000
  -9.1380000   6.7790000 -70.0790000  -9.8611202   6.2811977 -70.5783890
  -9.2820000   6.9460000 -68.6610000  -8.3780233   7.4162503 -68.2739731
 -10.4930000   7.8170000 -68.2770000 -10.3687273   8.8151602 -68.6969188
 -11.4163135   7.3771560 -68.6540007 -10.6740000   7.9930000 -66.7980000
  -9.8470000   8.7510000 -66.0000000 -10.3410000   8.6720000 -64.7380000
  -9.8015840   9.2194285 -63.9650502 -11.4240000   7.9200000 -64.6710000
 -12.0058234   7.6775379 -63.8818273 -11.6320000   7.4940000 -65.9710000
 -12.4776405   6.8468300 -66.2037326  -9.5080000   5.5790000 -68.0950000
 -10.3870000   4.8510000 -68.5490000  -8.7070000   5.1940000 -67.0810000
  -8.0228658   5.8320852 -66.7003334  -8.8140000   3.8860000 -66.5010000
  -9.3877640   3.2524954 -67.1774362  -7.4480000   3.2270000 -66.2510000
  -7.1444650   2.9641944 -67.2643602  -6.7144996   3.9067002 -65.8173124
  -7.5340000   1.9520000 -65.3950000  -7.9233646   2.2239606 -64.4139121
  -8.4490000   0.8950000 -66.0340000  -8.0599963   0.6221786 -67.0149910
  -8.4824065   0.0103539 -65.3980864  -9.4543564   1.3018729 -66.1426892
  -6.1310000   1.4200000 -65.0620000  -5.5767910   2.1773823 -64.5076320
  -6.2181926   0.5181393 -64.4560743  -5.6016203   1.1866582 -65.9858007
  -9.4970000   3.9640000 -65.1740000  -9.1120000   4.7420000 -64.3030000
 -10.5520000   3.1430000 -64.9960000 -10.8690693   2.5263298 -65.7303598
 -11.2170000   3.0880000 -63.7290000 -10.7171305   3.7875927 -63.0590748
 -12.7130000   3.4410000 -63.7810000 -13.1684210   2.7949015 -64.5314983
 -13.1307474   3.2094481 -62.8012190 -13.0010000   4.9030000 -64.1250000
 -12.6872049   5.5116154 -63.2769311 -12.4031579   5.1624453 -64.9987134
 -14.4780000   5.1660000 -64.4220000 -15.0446928   4.8839261 -63.5346486
 -14.5899466   6.2356684 -64.5991353 -15.0050000   4.3920000 -65.6300000
 -14.5463641   4.7863172 -66.5367897 -14.7471189   3.3385120 -65.5215586
 -16.4770000   4.5330000 -65.7200000 -16.7161475   5.5090753 -65.8209217
 -16.8161341   4.0187628 -66.5204050 -16.9022026   4.1672845 -64.8800274
 -11.1360000   1.6720000 -63.2540000 -11.4600000   0.7410000 -63.9900000
 -10.6810000   1.4780000 -62.0000000 -10.4138826   2.2608038 -61.4203744
 -10.6070000   0.1600000 -61.4390000 -10.6391938  -0.5613015 -62.2555702
  -9.3270000  -0.0870000 -60.6130000  -9.3190037   0.7666322 -59.9352483
  -9.3962545  -1.0085342 -60.0350046  -8.0280000  -0.0970000 -61.4410000
  -7.9246541   0.8683886 -61.9364244  -6.8000000  -0.3500000 -60.5510000
  -6.9024122  -1.3154823 -60.0555664  -5.8995143  -0.3510762 -61.1651866
  -6.7262878   0.4369481 -59.8004138  -8.1150000  -1.0970000 -62.6060000
  -8.9411739  -0.8211844 -63.2613334  -7.1827712  -1.0798853 -63.1705864
  -8.2828097  -2.0997484 -62.2130185 -11.7750000   0.0440000 -60.5120000
 -11.9220000   0.8460000 -59.5910000 -12.6440000  -0.9620000 -60.7420000
 -12.4758615  -1.6373841 -61.4739051 -13.8130000  -1.1210000 -59.9250000
 -13.8191239  -0.3397474 -59.1649302 -15.1160000  -1.0270000 -60.7370000
 -14.9533377  -0.2899055 -61.5233408 -15.2870543  -2.0052015 -61.1864022
 -16.3360000  -0.6270000 -59.9090000 -17.2236859  -0.7894266 -60.5203364
 -16.3743891  -1.2758232 -59.0339819 -16.2880000   0.8350000 -59.4580000
 -15.9357104   1.4234762 -60.3051639 -17.3073600   1.1305953 -59.2097501
 -15.3790000   1.0810000 -58.2540000 -15.8177857   0.6119827 -57.3733239
 -14.4006314   0.6420029 -58.4493857 -15.2290000   2.5310000 -58.0160000
 -16.1354159   2.9379023 -57.8345051 -14.6269889   2.6808275 -57.2189841
 -14.8220317   2.9657250 -58.8317757 -13.7440000  -2.4950000 -59.3240000
 -13.2260000  -3.4230000 -59.9430000 -14.2480000  -2.6660000 -58.1310000
 -14.3690000  -1.5720000 -57.1840000 -15.0197782  -0.8047632 -57.6034469
 -13.3822168  -1.1483470 -56.9972487 -14.9680000  -2.2350000 -55.9340000
 -16.0571046  -2.2226927 -55.9764119 -14.6342898  -1.7242937 -55.0307183
 -14.4190000  -3.6740000 -55.9870000 -15.1060208  -4.4189532 -55.5855699
 -13.4781015  -3.7151652 -55.4382605 -14.1690000  -3.9440000 -57.4740000
 -13.1348159  -4.2812915 -57.5432525 -15.0730000  -4.9830000 -58.0640000
 -16.1430000  -4.6430000 -58.5690000 -14.6430000  -6.2620000 -58.0030000
 -13.7465453  -6.4391877 -57.5727990 -15.4080000  -7.3840000 -58.4690000
 -16.3914323  -7.0871162 -58.8334449 -14.7040000  -8.2020000 -59.5650000
 -13.7213767  -8.5142781 -59.2113986 -15.3010690  -9.0826144 -59.8019116
 -14.5899640  -7.5895965 -60.4594590 -15.5820000  -8.2860000 -57.2820000
 -14.7700000  -8.2660000 -56.3600000 -16.6470000  -9.1150000 -57.2790000
 -17.2405000  -9.1916474 -58.0926229 -16.9470000  -9.9360000 -56.1360000
 -16.2503489  -9.7483253 -55.3189599 -18.3530000  -9.7770000 -55.6400000
 -18.5283117 -10.4271114 -54.7828411 -18.5380000  -8.3110000 -55.2170000
 -18.3632928  -7.6602620 -56.0738069 -19.5538941  -8.1634712 -54.8505370
 -17.8281980  -8.0681243 -54.4262461 -19.3580000 -10.2490000 -56.7060000
 -19.3501205  -9.5154831 -57.5122206 -19.0075671 -11.2088806 -57.0853750
 -20.7810000 -10.4020000 -56.1710000 -21.1323120  -9.4423525 -55.7918478
 -21.4375195 -10.7372015 -56.9739454 -20.7897580 -11.1357489 -55.3650001
 -16.7930000 -11.3770000 -56.5120000 -16.7450000 -11.7240000 -57.6910000
 -16.6790000 -12.2570000 -55.4910000 -16.7285125 -11.9494835 -54.5302287
 -16.4920000 -13.6580000 -55.7490000 -16.2776384 -13.7606317 -56.8127740
 -15.3670000 -14.3470000 -54.9510000 -15.4561873 -14.0739423 -53.8995323
 -15.3466001 -15.4328863 -55.0433839 -14.0360000 -13.8550000 -55.4080000
 -13.6900000 -13.9110000 -56.7380000 -14.4075045 -14.3076417 -57.4563053
 -12.4580000 -13.4750000 -57.1660000 -12.2052648 -13.5099149 -58.2257201
 -11.5450000 -12.9950000 -56.2570000 -10.5689104 -12.6399786 -56.5876187
 -11.8710000 -12.9650000 -54.9230000 -11.1461718 -12.5952402 -54.1977401
 -13.1060000 -13.3990000 -54.5010000 -13.3557566 -13.3838746 -53.4401076
 -17.7350000 -14.4210000 -55.4170000 -18.6930000 -13.8960000 -54.8490000
 -17.7360000 -15.7080000 -55.8230000 -16.8894574 -16.0656283 -56.2420071
 -18.8150000 -16.6230000 -55.5820000 -19.7465200 -16.1323344 -55.8641648
 -18.6960000 -17.9380000 -56.3660000 -17.8249389 -18.4850419 -56.0053104
 -19.5938148 -18.5319800 -56.1950722 -18.5540000 -17.6860000 -57.7520000
 -18.4813640 -18.5193806 -58.2229571 -18.7150000 -17.0520000 -54.1560000
 -17.7110000 -16.8180000 -53.4850000 -19.7780000 -17.7040000 -53.6540000
 -20.5931107 -17.8859666 -54.2219631 -19.7750000 -18.1730000 -52.3000000
 -19.5663886 -17.3313780 -51.6395056 -21.1160000 -18.8020000 -51.8860000
 -21.3431129 -19.5895030 -52.6045805 -20.9796226 -19.2409823 -50.8976702
 -22.2730000 -17.8010000 -51.8440000 -22.1001769 -17.1406056 -50.9942281
 -22.2351411 -17.2222257 -52.7668700 -23.6500000 -18.4560000 -51.7090000
 -23.6069819 -19.1265162 -50.8507131 -24.3690769 -17.6607634 -51.5124634
 -24.0850000 -19.2420000 -52.9490000 -25.1656765 -19.3822782 -52.9253170
 -23.8112337 -18.6829321 -53.8437593 -23.4170000 -20.5620000 -52.9690000
 -23.6708881 -21.0803753 -52.1401891 -23.7085087 -21.0744301 -53.7890841
 -22.4156210 -20.4322374 -52.9913781 -18.7160000 -19.2270000 -52.1530000
 -18.0070000 -19.2740000 -51.1480000 -18.5950000 -20.0990000 -53.1700000
 -19.2332955 -19.9784214 -53.9433944 -17.6990000 -21.2250000 -53.1940000
 -17.7358583 -21.7091005 -52.2180967 -18.0420000 -22.2690000 -54.2750000
 -17.3162358 -23.0796763 -54.2104285 -19.0445451 -22.6660237 -54.1157033
 -17.9640000 -21.6280000 -55.6510000 -18.7080000 -20.6400000 -55.8860000
 -17.1760000 -22.1360000 -56.4920000 -16.2600000 -20.8150000 -53.3530000
 -15.3580000 -21.6380000 -53.2050000 -15.9850000 -19.5550000 -53.7170000
 -16.7081797 -18.8574959 -53.8199489 -14.6290000 -19.1840000 -54.0300000
 -14.1811628 -19.9725046 -54.6348153 -14.5420000 -17.8590000 -54.8070000
 -14.9865754 -17.0627119 -54.2100267 -13.4954182 -17.6250838 -55.0020638
 -15.2390000 -17.9720000 -56.0390000 -15.1799672 -17.1417653 -56.5173569
 -13.7310000 -19.0560000 -52.8310000 -14.1630000 -18.8510000 -51.6980000
 -12.4160000 -19.2260000 -53.0950000 -12.1716654 -19.4680340 -54.0446418
 -11.3580000 -19.0300000 -52.1510000 -11.7408682 -19.2726864 -51.1597309
 -10.1110000 -19.8910000 -52.4210000  -9.7545675 -19.7520345 -53.4416584
  -9.3110294 -19.6491546 -51.7212445 -10.4230000 -21.6730000 -52.2340000
  -9.1861306 -22.0624645 -52.5295837 -10.9490000 -17.6020000 -52.3130000
 -11.1380000 -17.0210000 -53.3810000 -10.3940000 -16.9830000 -51.2530000
 -10.2577250 -17.4328537 -50.3590425  -9.9560000 -15.6260000 -51.4050000
 -10.3791752 -15.2363895 -52.3308648 -10.3710000 -14.7020000 -50.2480000
 -10.1411610 -15.1647535 -49.2882435  -9.8506390 -13.7472764 -50.3243374
 -11.8410000 -14.4760000 -50.3510000 -12.7360000 -15.4170000 -49.8970000
 -12.3654869 -16.3418601 -49.4548990 -14.0910000 -15.1970000 -49.9980000
 -14.7915558 -15.9502322 -49.6374938 -14.5610000 -14.0310000 -50.5520000
 -15.9490000 -13.8040000 -50.6550000 -16.4743712 -14.5285410 -50.3076888
 -13.6730000 -13.0850000 -51.0060000 -14.0390287 -12.1578390 -51.4470170
 -12.3220000 -13.3100000 -50.9030000 -11.6158621 -12.5606098 -51.2606083
  -8.4650000 -15.6570000 -51.4550000  -7.7930000 -15.6210000 -50.4250000
  -7.9150000 -15.6850000 -52.6800000  -8.4972545 -15.6388268 -53.5039824
  -6.4990000 -15.7820000 -52.8550000  -6.1301657 -16.5537669 -52.1793993
  -6.0610000 -16.1330000 -54.2890000  -4.9787494 -16.2049110 -54.1810105
  -6.4586991 -17.0966959 -54.6071599  -6.4020000 -15.0620000 -55.3460000
  -5.9085197 -14.1294701 -55.0722007  -5.9320000 -15.4990000 -56.7410000
  -6.4254359 -16.4312861 -57.0157044  -6.1840120 -14.7271454 -57.4682078
  -4.8524488 -15.6492137 -56.7307319  -7.8950000 -14.6840000 -55.3240000
  -8.1556495 -14.2880128 -54.3424933  -8.0899980 -13.9273517 -56.0839739
  -8.4974072 -15.5687558 -55.5299412  -5.8780000 -14.4640000 -52.5050000
  -6.5010000 -13.4090000 -52.6080000  -4.6540000 -14.5210000 -52.0540000
  -4.1320000 -15.7010000 -51.3870000  -4.1640596 -16.5444700 -52.0766599
  -4.7490246 -15.9210154 -50.5158095  -2.6970000 -15.3060000 -51.0040000
  -2.0011088 -15.5547722 -51.8052159  -2.3899148 -15.8095402 -50.0873500
  -2.7880000 -13.7850000 -50.7910000  -1.8498206 -13.3291653 -51.1074382
  -3.0053745 -13.4921278 -49.7638321  -3.9230000 -13.3340000 -51.7140000
  -4.5727469 -12.6501973 -51.1677939  -3.4410000 -12.6710000 -52.9630000
  -3.3590000 -13.3420000 -53.9900000  -3.1330000 -11.4040000 -52.9200000
  -3.8520000 -10.4700000 -52.0690000  -3.3616413 -10.4429551 -51.0959033
  -4.8743588 -10.8288573 -51.9502444  -3.7860000  -9.1180000 -52.8020000
  -3.5924673  -8.3143305 -52.0915357  -4.7252877  -8.9255540 -53.3204636
  -2.6270000  -9.2740000 -53.8040000  -1.6981539  -8.9911674 -53.3086721
  -2.7289843  -8.7117444 -54.7322066  -2.6220000 -10.7710000 -54.1000000
  -3.2890570 -10.9488764 -54.9435005  -1.2830000 -11.3600000 -54.3930000
  -0.5310000 -11.6130000 -53.4530000  -0.9650000 -11.5900000 -55.6820000
  -1.5692249 -11.3094609 -56.4411504   0.2760000 -12.2350000 -56.0030000
   0.8667332 -12.3313116 -55.0920349   0.0750000 -13.6350000 -56.6090000
  -0.6360206 -13.4509223 -57.4143970   1.0035478 -14.0241715 -57.0266657
  -0.5170000 -14.6640000 -55.6270000  -1.4867623 -14.3019348 -55.2855754
  -0.6900000 -16.0360000 -56.2980000   0.2794752 -16.3989496 -56.6392980
  -1.1095522 -16.7414800 -55.5808008  -1.3627796 -15.9419024 -57.1504163
   0.3230000 -14.7550000 -54.3420000   0.3458142 -13.7813599 -53.8525065
  -0.1199291 -15.4891501 -53.6689928   1.3393231 -15.0590786 -54.5924446
   1.0220000 -11.4210000 -57.0160000   0.4470000 -10.9340000 -57.9890000
   2.3450000 -11.2720000 -56.8060000   2.7801330 -11.7124038 -56.0080006
   3.1780000 -10.5410000 -57.7180000   2.5364937  -9.9344525 -58.3572723
   4.1890000  -9.6160000 -57.0160000   4.7564013 -10.2290692 -56.3157849
   4.8587114  -9.2272924 -57.7831330   3.5430000  -8.4500000 -56.2650000
   2.9767927  -7.8660913 -56.9906451   2.8605422  -8.8727607 -55.5276895
   4.5570000  -7.5440000 -55.5610000   5.3493983  -7.2314481 -56.2410847
   4.0749292  -6.6633838 -55.1364740   5.1630000  -8.3370000 -54.4540000
   4.7270950  -9.1819919 -54.1133024   6.3330000  -7.9290000 -53.8780000
   6.9610000  -6.8040000 -54.3280000   6.5583297  -6.2742350 -55.0878064
   7.8256217  -6.5062266 -53.8992111   6.8740000  -8.6450000 -52.8500000
   6.4070509  -9.4763725 -52.5170159   7.7389436  -8.3403652 -52.4267166
   3.9750000 -11.5490000 -58.4900000   4.4770000 -12.5220000 -57.9320000
   4.1060000 -11.3260000 -59.8100000   3.6428919 -10.5256526 -60.2162933
   4.8380000 -12.2060000 -60.6820000   4.6649790 -11.9010324 -61.7140648
   6.3530000 -12.1810000 -60.4090000   6.5641774 -12.4648787 -59.3780217
   6.8802862 -12.8533871 -61.0857310   6.8100000 -10.7850000 -60.6420000
   7.0280000 -10.3240000 -61.9190000   6.8649051 -10.9920403 -62.7647078
   7.4480000  -9.0330000 -62.1340000   7.6146994  -8.6756519 -63.1501769
   7.6560000  -8.1920000 -61.0670000   8.0880000  -6.8670000 -61.2830000
   8.2054996  -6.6575865 -62.2124835   7.4430000  -8.6480000 -59.7870000
   7.6091086  -7.9847477 -58.9381155   7.0210000  -9.9390000 -59.5780000
   6.8510331 -10.2993180 -58.5634152   4.3930000 -13.6500000 -60.6100000
   5.2660000 -14.5090000 -60.4950000   3.1290000 -14.0260000 -60.6680000
   2.0130000 -13.2640000 -60.1270000   1.8928920 -12.3583575 -60.7215469
   2.2464137 -12.9936470 -59.0971814   0.7990000 -14.2000000 -60.2260000
   0.2855560 -14.0730594 -61.1790794   0.0995534 -14.0181406 -59.4100325
   1.4260000 -15.5950000 -60.1090000   0.8350137 -16.2752769 -60.7222353
   1.5018943 -15.9920916 -59.0967461   2.8210000 -15.4320000 -60.7110000
   3.5506159 -15.9912744 -60.1253626   2.8720000 -15.8860000 -62.1340000
   2.9610000 -15.0470000 -63.0290000   2.8320000 -17.2110000 -62.3680000
   2.8136678 -17.8871289 -61.6179247   2.7660000 -17.6900000 -63.7150000
   3.2548216 -17.0193477 -64.4216669   3.3450000 -19.1020000 -63.8970000
   2.8588045 -19.7869465 -63.2023330   3.1707594 -19.4377213 -64.9192679
   4.4166538 -19.0841656 -63.6986586   1.3050000 -17.7460000 -64.0420000
   0.5240000 -18.3670000 -63.3220000   0.8950000 -17.0860000 -65.1430000
   1.5530017 -16.6244043 -65.7546065  -0.4980000 -17.0390000 -65.4830000
  -1.0739248 -17.5687204 -64.7241811  -1.0320000 -15.6430000 -65.6020000
  -0.8340448 -15.0904581 -64.6835168  -0.3300000 -14.9460000 -66.7810000
  -0.5278943 -15.4977469 -67.6999738  -0.7085787 -13.9286568 -66.8799446
   0.7443606 -14.9172581 -66.5992758  -2.4380000 -15.6680000 -65.8050000
  -2.7665903 -14.7690612 -65.8794159  -0.6880000 -17.7050000 -66.8090000
   0.2030000 -17.6880000 -67.6570000  -1.8640000 -18.3370000 -67.0120000
  -2.5972533 -18.3421370 -66.3174407  -2.1000000 -19.0140000 -68.2560000
  -1.5585612 -18.4918313 -69.0448492  -1.6410000 -20.4800000 -68.2330000
  -0.5693795 -20.5519812 -68.0471304  -2.1797841 -21.0472023 -67.4739919
  -1.9380000 -21.3370000 -69.8080000  -1.4408949 -22.5093950 -69.4242361
  -3.5700000 -19.0080000 -68.5430000  -4.3930000 -18.8820000 -67.6380000
  -3.9330000 -19.1510000 -69.8380000  -3.2289355 -19.2722161 -70.5519321
  -5.3130000 -19.1760000 -70.2320000  -5.9081495 -18.8009839 -69.3993781
  -5.6240000 -18.3300000 -71.4790000  -4.9690964 -18.6412617 -72.2928284
  -6.6627926 -18.4900035 -71.7678058  -5.4160000 -16.9520000 -71.2050000
  -5.6133685 -16.4362636 -71.9902780  -5.6500000 -20.5920000 -70.5720000
  -4.8680000 -21.2960000 -71.2070000  -6.8550000 -21.0360000 -70.1700000
  -7.5421294 -20.3922369 -69.8045940  -7.2350000 -22.4070000 -70.3480000
  -6.3873706 -22.9752318 -70.7310617  -7.6810000 -23.0290000 -69.0130000
  -6.9975491 -22.6738423 -68.2417302  -8.6963042 -22.7151877 -68.7705557
  -7.6240000 -24.5140000 -69.0800000  -8.3950000 -25.2340000 -69.9590000
  -9.0645335 -24.7055965 -70.6376855  -8.3290000 -26.6070000 -69.9890000
  -8.9391691 -27.1629226 -70.7008606  -7.4940000 -27.2780000 -69.1290000
  -7.4260000 -28.6870000 -69.1590000  -8.0048939 -29.0765229 -69.8183583
  -6.7320000 -26.5650000 -68.2390000  -6.0700051 -27.0905338 -67.5507577
  -6.8010000 -25.1930000 -68.2130000  -6.1990277 -24.6304619 -67.4993612
  -8.4420000 -22.3830000 -71.2290000  -9.2870000 -21.4970000 -71.1070000
  -8.5530000 -23.3520000 -72.1600000  -7.8827271 -24.1010919 -72.2584624
  -9.6940000 -23.3440000 -73.0250000 -10.0355553 -22.3154319 -73.1411326
  -9.3910000 -23.9220000 -74.4190000  -8.9878454 -24.9240630 -74.2725921
 -10.3380401 -23.9866417 -74.9547580  -8.3990000 -23.0870000 -75.2350000
  -7.4721807 -23.0371790 -74.6634891  -8.2209100 -23.6192888 -76.1693739
  -8.8860000 -21.6690000 -75.5410000  -9.8220554 -21.7556088 -76.0927229
  -9.0710091 -21.1729942 -74.5881887  -7.8870000 -20.8470000 -76.3580000
  -6.9888690 -20.6774360 -75.7641067  -7.6252076 -21.3943635 -77.2635149
  -8.4880000 -19.5460000 -76.7250000  -8.7302608 -19.0384584 -75.8860656
  -7.8240306 -19.0084697 -77.2638003  -9.3200065 -19.7028904 -77.2756811
 -10.7360000 -24.2090000 -72.4030000 -11.4870000 -24.8800000 -73.1060000
 -10.7900000 -24.2130000 -71.0590000 -10.0846216 -23.7021448 -70.5475632
 -11.8000000 -24.9070000 -70.3150000 -11.5173528 -24.9408402 -69.2628286
 -12.7509895 -24.3845175 -70.4185873 -11.9550000 -26.3040000 -70.8220000
 -10.9920000 -26.9750000 -71.1880000 -13.2250000 -26.7520000 -70.8490000
 -13.9410907 -26.1153737 -70.5295936 -13.6240000 -28.0490000 -71.3040000
 -12.7496600 -28.6998615 -71.3011416 -14.7170000 -28.6890000 -70.4270000
 -14.3934845 -28.6656019 -69.3863802 -15.6370292 -28.1143583 -70.5339262
 -14.9510000 -30.0350000 -70.8200000 -15.6337687 -30.4167400 -70.2634918
 -14.1640000 -27.8740000 -72.6900000 -13.5560000 -27.1980000 -73.5190000
 -15.3220000 -28.5120000 -72.9640000 -15.7441985 -29.0319533 -72.2080262
 -15.9920000 -28.4920000 -74.2340000 -15.4695330 -29.0996769 -74.9728208
 -17.4270000 -28.9250000 -74.1550000 -17.5014143 -29.9047948 -73.6832319
 -18.1850000 -27.8890000 -73.3070000 -18.1114216 -26.9089700 -73.7784108
 -19.2334102 -28.1775175 -73.2315386 -17.7479639 -27.8454757 -72.3094008
 -18.0120000 -29.1270000 -75.5620000 -18.1128855 -28.1422820 -76.0183478
 -17.2958566 -29.7192288 -76.1316518 -19.3690000 -29.8300000 -75.5630000
 -20.0858378 -29.2380912 -74.9938889 -19.7215655 -29.9389768 -76.5886319
 -19.2688091 -30.8150377 -75.1071905 -15.9850000 -27.1050000 -74.7790000
 -16.1700000 -26.1310000 -74.0490000 -15.7440000 -26.9900000 -76.0990000
 -15.5772871 -27.8012427 -76.6770929 -15.6820000 -25.6990000 -76.7090000
 -14.8606365 -25.1473644 -76.2516605 -15.4590000 -25.7400000 -78.2350000
 -15.4211483 -24.7207885 -78.6195443 -14.5189493 -26.2459483 -78.4550479
 -16.6090000 -26.4920000 -78.9000000 -17.2340000 -27.3520000 -78.2250000
 -16.8720000 -26.2150000 -80.1010000 -16.9540000 -24.9810000 -76.4200000
 -18.0380000 -25.3820000 -76.8380000 -16.8280000 -23.8840000 -75.6560000
 -15.9019478 -23.5956440 -75.3742598 -17.9360000 -23.0670000 -75.2770000
 -18.4712165 -22.7813981 -76.1825794 -18.9220000 -23.7590000 -74.3210000
 -19.7730362 -23.1005113 -74.1471342 -19.2683944 -24.6873101 -74.7752591
 -18.2860000 -24.0460000 -73.0850000 -18.9099871 -24.4773480 -72.4966304
 -17.3320000 -21.9280000 -74.5360000 -16.1210000 -21.7220000 -74.5910000
 -18.1600000 -21.1350000 -73.8360000 -19.1609233 -21.2594016 -73.7833104
 -17.5690000 -20.0730000 -73.0850000 -16.7791435 -19.6236106 -73.6868929
 -18.5740000 -18.9740000 -72.6920000 -19.4571855 -19.4142475 -72.2291125
 -18.1108806 -18.2738023 -71.9967708 -18.9810000 -18.2350000 -73.9610000
 -18.4020000 -18.5530000 -75.0340000 -19.8730000 -17.3500000 -73.8790000
 -17.0560000 -20.6950000 -71.8290000 -17.4910000 -20.3560000 -70.7290000
 -16.1030000 -21.6380000 -71.9750000 -15.7464712 -21.8611915 -72.8932440
 -15.5290000 -22.3000000 -70.8460000 -16.1073393 -22.0370632 -69.9602872
 -15.5150000 -23.8310000 -70.9870000 -16.4789866 -24.1305573 -71.3982111
 -14.7243012 -24.0874485 -71.6920742 -15.2760000 -24.5610000 -69.6670000
 -15.1117015 -25.6146368 -69.8927350 -14.3780511 -24.1431668 -69.2118020
 -16.4500000 -24.4250000 -68.6960000 -16.5234667 -23.3721786 -68.4234770
 -17.3498942 -24.7243435 -69.2332925 -16.3080000 -25.2700000 -67.4300000
 -16.2358534 -26.3216874 -67.7072165 -15.4037001 -24.9717582 -66.8995355
 -17.4830000 -25.0710000 -66.5520000 -18.3210070 -25.3477045 -67.0432013
 -17.3798886 -25.6329008 -65.7190922 -17.5497877 -24.0966202 -66.2946626
 -14.1090000 -21.8520000 -70.7830000 -13.1850000 -22.6350000 -70.9930000
 -13.8910000 -20.5700000 -70.4490000 -14.6446928 -19.9512800 -70.1858803
 -12.5540000 -20.0600000 -70.4230000 -11.9029745 -20.7557001 -70.9524020
 -12.4370000 -18.6750000 -71.0860000 -12.8745631 -18.6913911 -72.0841829
 -12.9574666 -17.9385426 -70.4737541 -11.0280000 -18.1840000 -71.2430000
 -10.6960000 -16.9880000 -71.8390000  -9.3430000 -16.8970000 -71.8080000
  -8.9014124 -16.0000141 -72.2421839  -8.7840000 -17.9490000 -71.2370000
  -7.8114274 -18.1655722 -71.0717764  -9.8490000 -18.7580000 -70.8810000
  -9.6674026 -19.7094806 -70.3811917 -12.1720000 -19.9130000 -68.9900000
 -12.9930000 -19.5320000 -68.1550000 -10.9060000 -20.2400000 -68.6620000
 -10.2258409 -20.4947862 -69.3638311 -10.4730000 -20.1450000 -67.2990000
 -11.1526474 -19.4807303 -66.7652168 -10.4480000 -21.5030000 -66.5800000
  -9.7563156 -22.1432069 -67.1275464 -10.0621803 -21.3272726 -65.5758272
 -11.8110000 -22.1870000 -66.4890000 -12.5242679 -21.5866307 -65.9242820
 -12.2184182 -22.4001541 -67.4772701 -11.5970000 -23.5020000 -65.7580000
 -12.3360000 -23.8400000 -64.8320000 -10.5580000 -24.2700000 -66.1820000
 -10.3705611 -25.1541074 -65.7310873  -9.9783981 -23.9528701 -66.9459317
  -9.0520000 -19.6730000 -67.3000000  -8.3700000 -19.7160000 -68.3240000
  -8.5770000 -19.2060000 -66.1270000  -9.1836657 -19.1777923 -65.3199930
  -7.2230000 -18.7520000 -65.9770000  -6.7190367 -18.9078786 -66.9308459
  -7.0680000 -17.2720000 -65.5740000  -7.8575880 -16.9941719 -64.8758155
  -6.0973473 -17.1334394 -65.0978337  -7.1530000 -16.4110000 -66.7880000
  -8.3560000 -16.0700000 -67.3600000  -9.2855860 -16.4367554 -66.9247301
  -8.3890000 -15.2680000 -68.4790000  -9.3474990 -15.0054177 -68.9266964
  -7.2210000 -14.8000000 -69.0320000  -7.2560000 -13.9780000 -70.1790000
  -8.1476482 -13.8075762 -70.4912801  -6.0190000 -15.1340000 -68.4640000
  -5.0875173 -14.7669998 -68.8949887  -5.9910000 -15.9340000 -67.3480000
  -5.0374011 -16.2002726 -66.8920964  -6.5630000 -19.5550000 -64.9070000
  -7.2020000 -20.0070000 -63.9580000  -5.2400000 -19.7560000 -65.0560000
  -4.7488151 -19.3270413 -65.8272530  -4.4860000 -20.5330000 -64.1190000
  -5.1085335 -20.9484821 -63.3265823  -3.7400000 -21.6400000 -64.8000000
  -3.0958779 -21.2296201 -65.5776859  -2.8800000 -22.3700000 -63.7550000
  -3.5235106 -22.7810791 -62.9771769  -2.3308571 -23.1790267 -64.2366831
  -2.1751543 -21.6680918 -63.3093357  -4.7370000 -22.5530000 -65.5360000
  -5.2186597 -23.1794694 -64.7852398  -5.4820868 -21.9094856 -66.0037974
  -4.0910000 -23.4380000 -66.5980000  -3.3460735 -24.0821708 -66.1308508
  -4.8553116 -24.0527229 -67.0734395  -3.6094983 -22.8121865 -67.3494077
  -3.4810000 -19.6200000 -63.4910000  -2.7860000 -18.8770000 -64.1820000
  -3.4060000 -19.6310000 -62.1450000  -4.0050701 -20.2336147 -61.5990423
  -2.4510000 -18.8130000 -61.4530000  -1.8019017 -18.2814985 -62.1488999
  -3.1090000 -17.8290000 -60.5330000  -3.7476809 -18.3539365 -59.8226277
  -2.0150000 -17.0640000 -59.7700000  -1.3761535 -16.5383978 -60.4797311
  -2.4777829 -16.3434046 -59.0957041  -1.4144279 -17.7671208 -59.1929095
  -4.0430000 -16.9130000 -61.3440000  -3.4128568 -16.2233410 -61.9055966
  -4.5956537 -17.5464586 -62.0378325  -5.0260000 -16.1200000 -60.4860000
  -4.4740429 -15.4859159 -59.7921840  -5.6498634 -15.4981367 -61.1280122
  -5.6568387 -16.8090341 -59.9244180  -1.6110000 -19.7400000 -60.6290000
  -2.1320000 -20.4960000 -59.8110000  -0.2780000 -19.7160000 -60.8410000
   0.1351571 -19.0776241 -61.5057381   0.5940000 -20.5830000 -60.0960000
   0.0318428 -21.0150087 -59.2680828   1.1690000 -21.7270000 -60.9500000
   0.3671596 -22.3503070 -61.3457774   1.7407729 -21.3037054 -61.7758314
   2.1000000 -22.6440000 -60.2080000   3.4410000 -22.3880000 -60.0270000
   3.9510000 -23.4380000 -59.3340000   5.0149684 -23.4027683 -59.0998442
   3.0320000 -24.3470000 -59.0580000   3.1065107 -25.2242953 -58.5631253
   1.8670000 -23.8430000 -59.6090000   0.9364180 -24.4040538 -59.5233435
   1.7610000 -19.7860000 -59.5930000   2.3830000 -19.0390000 -60.3480000
   2.0780000 -19.9390000 -58.2880000   1.4805920 -20.5180345 -57.7153552
   3.2240000 -19.3190000 -57.6710000   3.4570460 -19.8416445 -56.7432978
   4.0749712 -19.3860457 -58.3488291   2.9570000 -17.8750000 -57.3640000
   1.8130000 -17.4490000 -57.2160000   4.0490000 -17.0850000 -57.2430000
   4.9616870 -17.5085883 -57.3306057   3.9750000 -15.6730000 -56.9960000
   4.6816281 -15.1601855 -57.6485314   2.9643717 -15.3265315 -57.2120772
   4.3070000 -15.3510000 -55.5670000   4.4070000 -16.2300000 -54.7120000
   4.4890000 -14.0360000 -55.3000000   4.2678332 -13.4025086 -56.0548995
   4.8320000 -13.4770000 -54.0180000   5.3399074 -14.2409755 -53.4293823
   5.7540000 -12.2480000 -54.1300000   5.2391838 -11.5525075 -54.7928376
   5.8035332 -11.8240776 -53.1270363   7.1710000 -12.4930000 -54.6500000
   7.0787195 -13.1159129 -55.5396992   7.5788504 -11.5212136 -54.9281930
   8.1050000 -13.1690000 -53.6510000   8.0851377 -12.5891514 -52.7282432
   7.7212193 -14.1708360 -53.4582917   9.5430000 -13.2640000 -54.1620000
   9.5946164 -14.0139252 -54.9513342   9.8469267 -12.2961198 -54.5606673
  10.4480000 -13.6480000 -53.0580000  10.1668086 -14.5450341 -52.6887293
  11.3948355 -13.7082991 -53.4043619  10.4006423 -12.9530123 -52.3266667
   3.5790000 -12.9140000 -53.4210000   2.7480000 -12.3400000 -54.1250000
   3.4150000 -13.0670000 -52.0920000   4.1002287 -13.5740588 -51.5502875
   2.2860000 -12.5060000 -51.4070000   1.4704899 -12.3761964 -52.1184728
   1.8010000 -13.3610000 -50.2720000   0.9359289 -12.8957146 -49.7994942
   1.4010000 -14.7380000 -50.8310000   2.2657360 -15.2041311 -51.3032849
   1.0461086 -15.3715603 -50.0181331   0.6074574 -14.6149401 -51.5680529
   2.8250000 -13.5120000 -49.2980000   2.5036340 -14.0598402 -48.5781422
   2.7200000 -11.1870000 -50.8460000   3.8910000 -10.8190000 -50.9300000
   1.8000000 -10.4580000 -50.2730000   0.4100000 -10.5130000 -50.6960000
  -0.0752704 -11.3403312 -50.1781815   0.3836377 -10.6922621 -51.7708345
  -0.1860000  -9.1450000 -50.3140000  -1.1766224  -9.2742454 -49.8780392
  -0.2575917  -8.5065006 -51.1945081   0.8080000  -8.5610000 -49.2900000
   0.5361406  -8.8827702 -48.2846864   0.8861468  -7.4740780 -49.3143566
   2.1400000  -9.1880000 -49.6930000   2.5904705  -8.5496108 -50.4530222
   3.1160000  -9.3950000 -48.5720000   3.8100000  -8.4510000 -48.1980000
   3.1390000 -10.6170000 -48.0090000   2.4654696 -11.2715600 -48.3804933
   4.0120000 -11.0610000 -46.9540000   4.0439958 -10.2925799 -46.1815973
   3.5500000 -12.3830000 -46.3140000   3.3790339 -13.1407203 -47.0786763
   4.2791774 -12.7529925 -45.5932324   2.2370000 -12.1200000 -45.5870000
   1.8900000 -10.9770000 -45.2960000   1.4900000 -13.2130000 -45.2760000
   0.6099012 -13.0988315 -44.7938263   1.8186649 -14.1340188 -45.5285955
   5.4000000 -11.2780000 -47.4930000   6.3640000 -11.3350000 -46.7320000
   5.5430000 -11.4130000 -48.8260000   4.7264076 -11.3030287 -49.4101083
   6.7940000 -11.7550000 -49.4570000   6.7020451 -11.5187427 -50.5171066
   8.0280000 -11.0240000 -48.8950000   7.8889883 -10.8108134 -47.8351290
   8.9320647 -11.6177235 -49.0301280   8.1960000  -9.7050000 -49.6390000
   7.2660000  -8.9070000 -49.7500000   9.4240000  -9.4750000 -50.1770000
   9.5980618  -8.6180821 -50.6824640  10.1562130 -10.1621759 -50.0685832
   7.0350000 -13.2290000 -49.3480000   8.1420000 -13.7090000 -49.5950000
   5.9850000 -13.9950000 -49.0000000   5.0921513 -13.5887489 -48.7594161
   6.1040000 -15.4230000 -48.9990000   7.1286742 -15.6819647 -48.7323929
   5.1490000 -16.1140000 -48.0100000   4.1360680 -15.7912558 -48.2506329
   5.2341325 -17.1892573 -48.1670806   5.4540000 -15.7870000 -46.5470000
   6.4627049 -16.1127111 -46.2929772   5.3658664 -14.7138244 -46.3778087
   4.4490000 -16.5220000 -45.6730000   3.7140000 -17.3890000 -46.2170000
   4.4040000 -16.2260000 -44.4500000   5.7430000 -15.8850000 -50.3800000
   5.0360000 -15.1940000 -51.1110000   6.2420000 -17.0730000 -50.7800000
   6.8152715 -17.6198902 -50.1536054   5.9380000 -17.6170000 -52.0760000
   5.6268324 -16.8023692 -52.7299500   7.1350000 -18.3350000 -52.7210000
   7.4193604 -19.0562905 -51.9548549   6.8548482 -18.8644544 -53.6316553
   8.3250000 -17.4030000 -53.0150000   8.6546841 -16.9569176 -52.0766932
   9.4940000 -18.1680000 -53.6570000   9.1651869 -18.6140059 -54.5956477
  10.3165477 -17.4795900 -53.8509269   9.8301908 -18.9535133 -52.9802099
   7.8880000 -16.1930000 -53.8560000   7.1296031 -15.6280262 -53.3140238
   8.7492534 -15.5529966 -54.0476754   7.4747919 -16.5386530 -54.8035664
   4.8620000 -18.6370000 -51.8680000   4.9220000 -19.4210000 -50.9220000
   3.8410000 -18.6620000 -52.7500000   3.7999251 -18.0626767 -53.5619260
   2.7710000 -19.6000000 -52.5400000   2.8280912 -19.9480134 -51.5086288
   1.3660000 -19.0220000 -52.7870000   0.6203102 -19.7155684 -52.3984016
   1.2763926 -18.0662076 -52.2707332   1.1540000 -18.8300000 -54.1780000
   0.2758009 -18.4695930 -54.3210836   2.9290000 -20.7470000 -53.4900000
   3.2140000 -20.5660000 -54.6730000   2.8100000 -21.9700000 -52.9410000
   2.6886863 -21.9972148 -51.9386818   2.8550000 -23.2160000 -53.6560000
   3.6419410 -23.1546136 -54.4077013   3.1370000 -24.4260000 -52.7460000
   3.2060470 -25.3354419 -53.3428644   4.0755231 -24.2687553 -52.2144471
   2.0020000 -24.5640000 -51.7410000   1.7380000 -23.5780000 -51.0010000
   1.3770000 -25.6570000 -51.7050000   1.5530000 -23.4800000 -54.3600000
   1.5030000 -24.2360000 -55.3290000   0.4580000 -22.8820000 -53.8560000
   0.5892046 -22.2061978 -53.1169627  -0.8820000 -23.1520000 -54.3030000
  -1.0709666 -24.2226729 -54.2252159  -1.9370000 -22.4050000 -53.4700000
  -1.7715963 -21.3366617 -53.6092630  -2.9179432 -22.6743378 -53.8615453
  -1.8740000 -22.7400000 -51.9800000  -0.8835241 -22.4547194 -51.6254958
  -2.6275717 -22.1321645 -51.4792328  -2.1210000 -24.2170000 -51.6680000
  -3.1219178 -24.4626069 -52.0228799  -1.3857115 -24.7960175 -52.2267387
  -2.0110000 -24.5540000 -50.1800000  -2.6401449 -23.8718206 -49.6082408
  -2.3449521 -25.5786376 -50.0166203  -0.6060000 -24.4170000 -49.7370000
  -0.2964941 -23.4675092 -49.8879072  -0.5395299 -24.6406266 -48.7543134
  -0.0229155 -25.0493467 -50.2663857  -1.0840000 -22.7460000 -55.7300000
  -0.2680000 -22.0430000 -56.3240000  -2.1790000 -23.2670000 -56.3280000
  -2.7446275 -23.9099187 -55.7924439  -2.6050000 -22.9300000 -57.6570000
  -2.0554925 -22.0734957 -58.0475651  -2.5140000 -24.0690000 -58.6310000
  -1.4890112 -24.4358273 -58.6851864  -3.4350000 -25.1950000 -58.1380000
  -4.4603075 -24.8290374 -58.0839937  -3.3856216 -26.0350461 -58.8308096
  -3.1135950 -25.5211247 -57.1488384  -2.8240000 -23.5830000 -60.0560000
  -3.8844192 -23.3336472 -60.0938827  -2.2333663 -22.6838500 -60.2314441
  -2.5060000 -24.6190000 -61.1330000  -3.0966432 -25.5183230 -60.9584761
  -2.7485759 -24.2103029 -62.1139296  -1.4455900 -24.8685277 -61.0960359
  -4.0520000 -22.5460000 -57.5510000  -4.8080000 -23.1660000 -56.8040000
  -4.4820000 -21.5040000 -58.2970000  -3.8759307 -21.0546001 -58.9684306
  -5.8440000 -21.0530000 -58.1990000  -6.3742834 -21.7177170 -57.5170542
  -5.9820000 -19.6070000 -57.6840000  -5.4740292 -18.9252872 -58.3661529
  -7.0395914 -19.3481354 -57.6331120  -5.3760000 -19.4930000 -56.3240000
  -4.0330000 -19.2240000 -56.1840000  -3.4208390 -19.0994757 -57.0772257
  -3.4620000 -19.1120000 -54.9380000  -2.3968729 -18.9010484 -54.8425768
  -4.2350000 -19.2670000 -53.8130000  -3.6500000 -19.1510000 -52.5330000
  -2.7091427 -18.9631578 -52.5662049  -5.5770000 -19.5340000 -53.9400000
  -6.1940485 -19.6578841 -53.0500538  -6.1420000 -19.6450000 -55.1900000
  -7.2068099 -19.8553964 -55.2900663  -6.4270000 -21.0500000 -59.5820000
  -5.7050000 -20.9150000 -60.5680000  -7.7650000 -21.2190000 -59.6780000
  -8.3154418 -21.2870193 -58.8339108  -8.4510000 -21.2230000 -60.9410000
  -7.7607207 -21.1163463 -61.7778026  -9.2990000 -22.4490000 -61.1440000
  -9.9668558 -22.5924017 -60.2945855 -10.1310000 -22.2390000 -62.4200000
  -9.4637861 -22.0959805 -63.2699833 -10.7576596 -23.1137467 -62.5938297
 -10.7621593 -21.3582010 -62.3019735  -8.4460000 -23.7290000 -61.1710000
  -7.8648039 -23.7486882 -60.2490866  -9.1337076 -24.5745627 -61.1844742
  -7.5030000 -23.8210000 -62.3690000  -6.8146402 -22.9759614 -62.3559463
  -6.9369006 -24.7509506 -62.3158731  -8.0835443 -23.8018336 -63.2913345
  -9.4060000 -20.0660000 -60.9340000 -10.2000000 -19.9130000 -60.0060000
  -9.3520000 -19.2140000 -61.9770000  -8.7038093 -19.3592845 -62.7378158
 -10.2440000 -18.0920000 -62.0480000 -10.7924932 -18.0359865 -61.1077251
  -9.5370000 -16.7480000 -62.2850000  -8.8838240 -16.8707938 -63.1489341
 -10.3063243 -16.0104855 -62.5137196  -8.7140000 -16.2710000 -61.0880000
  -7.9902038 -17.0521463 -60.8555557  -8.1868038 -15.3667118 -61.3920215
  -9.7060000 -15.9150000 -59.6060000 -10.7330000 -14.6580000 -60.4190000
 -11.2627254 -15.1082719 -61.2584911 -11.4549078 -14.2608039 -59.7054279
 -10.0988654 -13.8491305 -60.7819114 -11.1550000 -18.3220000 -63.2100000
 -10.7070000 -18.5410000 -64.3350000 -12.4760000 -18.2820000 -62.9520000
 -12.8129101 -18.0919672 -62.0190056 -13.4380000 -18.4940000 -63.9910000
 -12.9763509 -18.2497158 -64.9477155 -13.9470000 -19.9440000 -64.0470000
 -14.6958620 -20.0319158 -64.8341313 -13.1119618 -20.6099138 -64.2646465
 -14.5260000 -20.3030000 -62.8010000 -14.8411686 -21.2087823 -62.8437436
 -14.6020000 -17.5980000 -63.7170000 -14.8000000 -17.1530000 -62.5880000
 -15.4090000 -17.3040000 -64.7570000 -15.2730871 -17.7096914 -65.6718997
 -16.5170000 -16.4120000 -64.5660000 -16.3201800 -15.6653559 -63.7966602
 -16.9220000 -15.7050000 -65.8290000 -17.1743107 -16.4351895 -66.5979355
 -18.1490000 -14.8300000 -65.5320000 -17.8973098 -14.0992096 -64.7634310
 -18.4540325 -14.3106546 -66.4404801 -18.9676089 -15.4583308 -65.1810279
 -15.7100000 -14.9250000 -66.3710000 -14.8954382 -15.6182215 -66.5808455
 -15.9910715 -14.4071881 -67.2880438 -15.3843332 -14.1966701 -65.6283173
 -17.6890000 -17.2200000 -64.1100000 -18.1660000 -18.0980000 -64.8290000
 -18.1230000 -16.9840000 -62.8540000 -17.6213146 -16.3267114 -62.2740148
 -19.2690000 -17.6490000 -62.2960000 -19.1631524 -18.7145053 -62.4999461
 -19.3850000 -17.4490000 -60.7770000 -19.5007342 -16.3876117 -60.5575450
 -20.2523219 -17.9933920 -60.4035161 -18.4843522 -17.8239120 -60.2908171
 -20.5480000 -17.1630000 -62.9090000 -21.3890000 -17.9670000 -63.3080000
 -20.7290000 -15.8270000 -63.0100000 -20.0097999 -15.1628994 -62.7613619
 -21.9770000 -15.3230000 -63.5140000 -22.3617830 -16.0283287 -64.2505818
 -23.0400000 -15.1290000 -62.4160000 -23.2740752 -16.0742242 -61.9262456
 -22.7058863 -14.4071920 -61.6707072 -24.6150000 -14.4930000 -63.0630000
 -25.2429637 -14.4586049 -61.8910884 -21.7320000 -13.9820000 -64.1330000
 -20.7550000 -13.3080000 -63.8120000 -22.6150000 -13.5720000 -65.0670000
 -23.4148809 -14.1348798 -65.3189051 -22.4640000 -12.2870000 -65.6890000
 -21.8317619 -11.6566422 -65.0636815 -21.8180000 -12.4050000 -67.0800000
 -20.9246857 -13.0174681 -66.9576413 -22.5339560 -12.9299094 -67.7124374
 -21.4390000 -11.0770000 -67.7340000 -22.3584778 -10.5766120 -68.0377651
 -20.9243430 -10.4696409 -66.9894564 -20.5340000 -11.2640000 -68.9530000
 -19.6398320 -11.7857553 -68.6119224 -21.0739893 -11.8936999 -69.6600990
 -20.1310000  -9.9570000 -69.6390000 -21.0266420  -9.4374264 -69.9795426
 -19.5943261  -9.3276907 -68.9290351 -19.2580000 -10.2470000 -70.7990000
 -19.7552568 -10.8297671 -71.4571929 -18.9953883  -9.3809944 -71.2475191
 -18.4278199 -10.7280688 -70.4836069 -23.8330000 -11.7170000 -65.8790000
 -24.3700000 -11.7260000 -66.9850000 -24.4290000 -11.1590000 -64.8110000
 -23.9881656 -11.0753006 -63.9061471 -25.7480000 -10.6310000 -64.9740000
 -26.1252278 -10.9506970 -65.9453867 -26.7360000 -11.0910000 -63.8870000
 -26.6685252 -12.1667968 -63.7251120 -26.5403473 -10.5700826 -62.9497353
 -28.1510000 -10.7550000 -64.3450000 -28.4330000  -9.6410000 -64.7850000
 -29.0700000 -11.7520000 -64.2470000 -30.0234390 -11.5859902 -64.5359543
 -28.7951851 -12.6542335 -63.8856798 -25.6410000  -9.1460000 -64.8870000
 -24.9550000  -8.6100000 -64.0190000 -26.3310000  -8.4440000 -65.8000000
 -26.8670587  -8.9218291 -66.5102252 -26.3190000  -7.0120000 -65.8070000
 -26.9268968  -6.6620231 -66.6413122 -26.8740000  -6.4060000 -64.5060000
 -26.3612579  -6.7960222 -63.6267518 -26.7909168  -5.3192915 -64.5221815
 -28.3470000  -6.7800000 -64.4160000 -29.1100000  -6.5840000 -65.3600000
 -28.7580000  -7.3490000 -63.2510000 -29.7251242  -7.6169245 -63.1370395
 -28.0942310  -7.5010512 -62.5050832 -24.9140000  -6.5330000 -65.9920000
 -24.5110000  -5.5170000 -65.4300000 -24.1270000  -7.2710000 -66.7960000
 -24.4634051  -8.1630551 -67.1294196 -22.7950000  -6.8730000 -67.1460000
 -22.3278145  -7.6759727 -67.7161506 -22.7650000  -5.5870000 -67.9920000
 -23.2583237  -4.7967935 -67.4260453 -21.7228142  -5.3159538 -68.1607682
 -23.4710000  -5.7660000 -69.3410000 -22.8401048  -6.4164489 -69.9467956
 -24.4193156  -6.2645838 -69.1404664 -23.7310000  -4.4610000 -70.0960000
 -24.7718389  -4.4729467 -70.4194356 -23.5787740  -3.6416578 -69.3934296
 -22.8220000  -4.2660000 -71.3110000 -22.8451442  -3.2193338 -71.6144054
 -21.8019205  -4.5446431 -71.0466233 -23.2910000  -5.1150000 -72.4310000
 -24.2360592  -4.8566723 -72.6764172 -22.6874114  -4.9821123 -73.2298251
 -23.2692256  -6.0849388 -72.1502090 -21.9630000  -6.6930000 -65.9160000
 -20.9720000  -5.9630000 -65.9260000 -22.3370000  -7.3810000 -64.8210000
 -23.1697492  -7.9523837 -64.8331968 -21.5380000  -7.3690000 -63.6300000
 -20.7523530  -6.6243865 -63.7580964 -22.3260000  -7.0370000 -62.3520000
 -22.8742414  -6.1121162 -62.5312220 -23.0317576  -7.8490492 -62.1771220
 -21.4290000  -6.8680000 -61.1240000 -21.1108681  -7.8644080 -60.8173016
 -20.5595449  -6.2897666 -61.4367237 -22.1110000  -6.1670000 -59.9490000
 -22.4324278  -5.1837962 -60.2926473 -22.9841866  -6.7583935 -59.6735037
 -21.1980000  -6.0080000 -58.7310000 -21.0539673  -6.9810171 -58.2613268
 -20.2341023  -5.6149017 -59.0542245 -21.8090000  -5.0760000 -57.7570000
 -22.7019853  -5.4402820 -57.4570406 -21.1997817  -4.9775618 -56.9574608
 -21.9421553  -4.1741977 -58.1918808 -21.0460000  -8.7730000 -63.5220000
 -21.8000000  -9.7110000 -63.7730000 -19.7670000  -8.9730000 -63.1570000
 -19.1398798  -8.2380964 -62.8624896 -19.2700000 -10.3170000 -63.1920000
 -20.0177156 -11.0231210 -63.5531284 -18.0310000 -10.4570000 -64.0330000
 -17.2604154  -9.7770415 -63.6697439 -17.5230000 -11.9050000 -63.9370000
 -18.2929217 -12.5855592 -64.3005391 -16.6244111 -12.0163282 -64.5438316
 -17.2910183 -12.1411078 -62.8984726 -18.3600000 -10.0070000 -65.4660000
 -18.6860261  -8.9669581 -65.4549586 -17.4715427 -10.1021096 -66.0902574
 -19.1559933 -10.6324747 -65.8700754 -18.9250000 -10.7910000 -61.8200000
 -18.3940000 -10.0490000 -60.9930000 -19.2460000 -12.0740000 -61.5590000
 -19.7003768 -12.6157438 -62.2802175 -18.9120000 -12.7270000 -60.3270000
 -18.5323499 -11.9831444 -59.6265403 -20.0740000 -13.4350000 -59.6920000
 -20.4394311 -14.2174666 -60.3570612 -19.6060000 -14.0640000 -58.3700000
 -19.2408350 -13.2820399 -57.7041978 -20.4408386 -14.5818972 -57.8978494
 -18.8039574 -14.7747688 -58.5690877 -21.1310000 -12.5190000 -59.4470000
 -21.8678574 -12.9817347 -59.0413916 -17.9070000 -13.7700000 -60.7100000
 -18.0870000 -14.4760000 -61.7010000 -16.8100000 -13.8900000 -59.9380000
 -16.7010700 -13.3566383 -59.0872598 -15.7740000 -14.8160000 -60.2980000
 -15.9504388 -15.1388925 -61.3240161 -14.3530000 -14.2300000 -60.2040000
 -14.2016583 -13.6581557 -59.2884734 -13.5817902 -14.9960138 -60.2849842
 -14.1370000 -13.2860000 -61.3370000 -13.6230000 -13.7430000 -62.5290000
 -13.3794530 -14.8003668 -62.6327308 -13.4160000 -12.8840000 -63.5810000
 -13.0082064 -13.2571376 -64.5204538 -13.7240000 -11.5530000 -63.4470000
 -13.5613739 -10.8657396 -64.2772565 -14.2390000 -11.0880000 -62.2610000
 -14.4851737 -10.0316113 -62.1535686 -14.4440000 -11.9520000 -61.2110000
 -14.8523808 -11.5804002 -60.2711922 -15.7940000 -15.9840000 -59.3720000
 -16.3420000 -15.9210000 -58.2720000 -15.2130000 -17.1070000 -59.8370000
 -14.7982920 -17.1193348 -60.7578499 -15.1050000 -18.2820000 -59.0290000
 -15.6314670 -18.1100303 -58.0901933 -15.7040000 -19.5270000 -59.7080000
 -16.6667596 -19.2332654 -60.1262261 -15.0284930 -19.8091265 -60.5155859
 -15.8990000 -20.7180000 -58.7670000 -14.9249467 -20.9757227 -58.3511876
 -16.5641067 -20.4011663 -57.9636622 -16.4940000 -21.9420000 -59.4690000
 -15.7831156 -22.3829820 -60.1677684 -16.8111258 -22.6967529 -58.7493621
 -17.6870000 -21.4780000 -60.2310000 -17.6062138 -21.2040190 -61.1997659
 -18.9150000 -21.4200000 -59.6380000 -19.0680000 -21.7860000 -58.3330000
 -18.2681581 -22.1015193 -57.8030939 -19.9804511 -21.7398621 -57.9024144
 -19.9970000 -20.9880000 -60.3480000 -19.8862533 -20.7115046 -61.3130832
 -20.9038822 -20.9466277 -59.9053356 -13.6390000 -18.5350000 -58.8600000
 -12.9090000 -18.6900000 -59.8400000 -13.1610000 -18.5580000 -57.6010000
 -13.7646696 -18.4189394 -56.8032879 -11.7710000 -18.8250000 -57.3640000
 -11.2567673 -18.8609577 -58.3244015 -11.0940000 -17.7590000 -56.4830000
 -11.1367528 -16.7768673 -56.9538363 -11.5603189 -17.7102269 -55.4989939
  -9.3340000 -18.1010000 -56.1900000  -9.1076406 -17.0288440 -55.4362486
 -11.7090000 -20.1300000 -56.6320000 -12.1120000 -20.2210000 -55.4760000
 -11.2010000 -21.1880000 -57.2890000 -10.8445477 -21.1131232 -58.2310375
 -11.1300000 -22.4630000 -56.6340000 -11.5297438 -22.3670173 -55.6244994
 -11.8910000 -23.5410000 -57.3510000 -11.8144634 -24.4778559 -56.7991455
 -13.3670000 -23.1230000 -57.4480000 -13.4443830 -22.1863967 -58.0001647
 -13.9312376 -23.8978324 -57.9670086 -13.7735331 -22.9879339 -56.4457083
 -11.3530000 -23.7400000 -58.6510000 -11.8467481 -24.4304792 -59.0993879
  -9.6970000 -22.8890000 -56.5910000  -8.9480000 -22.6970000 -57.5460000
  -9.2790000 -23.4630000 -55.4470000  -9.9335315 -23.5967507 -54.6895050
  -7.9330000 -23.9310000 -55.2740000  -7.2530958 -23.2537946 -55.7909355
  -7.5280000 -23.9970000 -53.7910000  -7.6397610 -22.9911008 -53.3863080
  -8.2333439 -24.6665502 -53.2987678  -6.1030000 -24.4890000 -53.5450000
  -5.9540096 -25.4716833 -53.9924776  -5.3783755 -23.7880321 -53.9593218
  -5.9120000 -24.5840000 -52.0370000  -6.8060000 -24.0950000 -51.2950000
  -4.8710000 -25.1460000 -51.6050000  -7.8390000 -25.3210000 -55.8210000
  -8.7220000 -26.1460000 -55.5950000  -6.7490000 -25.6190000 -56.5560000
  -6.0389543 -24.9270484 -56.7487109  -6.5690000 -26.9440000 -57.0810000
  -7.4868888 -27.5019494 -56.8958736  -6.2550000 -26.9990000 -58.5880000
  -5.6469477 -26.1285914 -58.8344964  -5.6822739 -27.9069545 -58.7769537
  -7.5130000 -27.0020000 -59.4530000  -8.0806537 -26.0966419 -59.2380654
  -7.2106392 -27.0006148 -60.5002240  -8.3850000 -28.2280000 -59.1760000
  -7.8111308 -29.1030769 -59.4809812  -8.5544871 -28.2623002 -58.0998044
  -9.7290000 -28.2220000 -59.9030000 -10.3019176 -27.3458643 -59.5992694
  -9.5592455 -28.1892854 -60.9792028 -10.4840000 -29.4480000 -59.5600000
 -10.6417778 -29.4782912 -58.5628599 -11.3719027 -29.4423017 -60.0413484
  -9.9534853 -30.2599550 -59.8417486  -5.4250000 -27.5810000 -56.3680000
  -4.3260000 -27.0340000 -56.3110000  -5.6670000 -28.7680000 -55.7860000
  -6.5814234 -29.1956173 -55.8187513  -4.6190000 -29.4580000 -55.0950000
  -4.0381862 -28.7308840 -54.5274996  -5.1470000 -30.5260000 -54.1280000
  -5.8349047 -31.2083982 -54.6272185  -4.3204792 -31.0930111 -53.6996756
  -5.8820000 -29.7860000 -53.0200000  -5.4830000 -28.6300000 -52.7130000
  -6.8600000 -30.3600000 -52.4710000  -3.7580000 -30.1180000 -56.1240000
  -4.2340000 -30.4910000 -57.1960000  -2.4500000 -30.2670000 -55.8190000
  -2.0798896 -29.9862999 -54.9221583  -1.5520000 -30.8610000 -56.7710000
  -2.1346774 -31.3554369 -57.5482506  -0.6360000 -29.8150000 -57.4330000
  -1.3636767 -29.1219353 -57.8551934  -0.0201523 -29.2929124 -56.7007048
   0.2590000 -30.3650000 -58.5560000   0.8145076 -31.2207318 -58.1722876
  -0.5800000 -30.8010000 -59.7690000  -1.1354741 -29.9456351 -60.1535754
   0.0786629 -31.1856852 -60.5476406  -1.2786531 -31.5811219 -59.4666854
   1.3680000 -29.3670000 -58.9260000   1.9892790 -29.1728298 -58.0516947
   1.9831988 -29.7855240 -59.7225359   0.9190452 -28.4339462 -59.2665132
  -0.6800000 -31.8430000 -56.0430000  -0.1290000 -31.5290000 -54.9890000
  -0.5230000 -33.0670000 -56.5930000  -0.9552891 -33.2982478 -57.4760345
   0.2850000 -34.0650000 -55.9480000   0.8872182 -33.6396372 -55.1451931
  -0.5100000 -35.2130000 -55.3950000  -1.2940809 -34.8401574 -54.7359820
  -1.1470000 -35.9750000 -56.5690000  -0.3634637 -36.3485686 -57.2282560
  -1.7289308 -36.8132140 -56.1857844  -1.8007704 -35.3041097 -57.1263079
   0.4140000 -36.0770000 -54.5170000   0.8086468 -35.4730839 -53.6999068
  -0.1510767 -36.9149289 -54.1087560   1.2394255 -36.4554455 -55.1199532
   1.2330000 -34.6340000 -56.9570000   0.9980000 -34.5610000 -58.1620000
   2.3540000 -35.2090000 -56.4780000   2.5371442 -35.2651159 -55.4863304
   3.3220000 -35.7600000 -57.3800000   3.5450337 -36.7993183 -57.1388101
   2.9865223 -35.6916351 -58.4148335   4.5620000 -34.9470000 -57.2170000
   4.9730000 -34.6450000 -56.0980000   5.2110000 -34.5980000 -58.3450000
   4.8838559 -34.8772465 -59.2588367   6.3760000 -33.7710000 -58.2650000
   6.8527564 -33.9441120 -57.3002022   7.4030000 -34.0480000 -59.3780000
   6.9077386 -34.0801262 -60.3484552   8.1700066 -33.2735909 -59.3875624
   8.0480000 -35.3970000 -59.0930000   8.0160000 -35.8260000 -57.9090000
   8.5820000 -36.0160000 -60.0520000   5.9010000 -32.3640000 -58.4290000
   5.9680000 -31.7970000 -59.5180000   5.4110000 -31.7590000 -57.3300000
   5.4052255 -32.2252840 -56.4340953   4.9070000 -30.4210000 -57.4020000
   4.3241721 -30.2540369 -58.3078334   4.0690000 -30.0400000 -56.2150000
   3.7378396 -29.0058783 -56.3099970   2.8430000 -30.9680000 -56.1630000
   3.1733756 -32.0023302 -56.0675329   2.2232975 -30.7044851 -55.3058949
   2.2624874 -30.8555957 -57.0786812   4.9480000 -30.0950000 -54.9540000
   5.7794293 -29.3980582 -55.0593539   4.3526204 -29.8205335 -54.0832010
   5.3357535 -31.1054412 -54.8245529   6.0800000 -29.4950000 -57.4430000
   7.0830000 -29.7130000 -56.7620000   5.9910000 -28.4650000 -58.2420000
   5.1870000 -28.4750000 -59.4490000   4.1433471 -28.6451795 -59.1845615
   5.5307014 -29.2759969 -60.1035016   5.4230000 -27.0820000 -60.0540000
   4.6986902 -26.3664238 -59.6648663   5.3493564 -27.1181351 -61.1409095
   6.8570000 -26.7290000 -59.6110000   6.9337045 -25.6606738 -59.4087757
   7.6087581 -27.0138162 -60.3470972   7.0670000 -27.5200000 -58.3170000
   8.0110871 -28.0544774 -58.4225068   7.1000000 -26.6930000 -57.0730000
   6.0440000 -26.3520000 -56.5440000   8.3070000 -26.3320000 -56.6050000
   9.1443212 -26.5839001 -57.1105086   8.4440000 -25.5610000 -55.4050000
   7.9181344 -26.0788308 -54.6028680   9.9060000 -25.3500000 -54.9780000
   9.9024621 -24.7500260 -54.0679902  10.3340215 -26.3295716 -54.7650747
  10.7450000 -24.6490000 -56.0470000  10.7629402 -25.2487041 -56.9570186
  10.3293594 -23.6659888 -56.2684295  12.1630000 -24.4920000 -55.5150000
  12.3550000 -24.6720000 -54.2840000  13.0720000 -24.1860000 -56.3320000
   7.8530000 -24.2150000 -55.6780000   7.6600000 -23.8400000 -56.8330000
   7.5360000 -23.4830000 -54.6400000   7.2080000 -24.0710000 -53.3510000
   8.1361489 -24.2599671 -52.8116194   6.6901499 -25.0144678 -53.5236232
   6.3160000 -23.0320000 -52.6470000   6.5932096 -22.9502061 -51.5960178
   5.2684928 -23.3232923 -52.7243228   6.5780000 -21.7130000 -53.4030000
   7.4152012 -21.1699893 -52.9644426   5.7050337 -21.0616292 -53.4447802
   6.9440000 -22.1840000 -54.8080000   6.0084250 -22.2851243 -55.3580651
   7.8720000 -21.2900000 -55.5650000   9.0670000 -21.2870000 -55.2700000
   7.3380000 -20.5070000 -56.5270000   6.3407162 -20.3651370 -56.6004795
   8.1990000 -19.7490000 -57.3910000   9.1378542 -19.5505233 -56.8740290
   8.5060000 -20.4990000 -58.6950000   7.5851019 -20.5108758 -59.2780137
   9.2625544 -19.9189997 -59.2235121   9.0050000 -21.9310000 -58.5020000
  10.0738137 -21.8911838 -58.2918746   8.4826735 -22.3586149 -57.6461831
   8.7600000 -22.8030000 -59.7370000   7.6955186 -22.8711481 -59.9613528
   9.2890442 -22.4081783 -60.6043682   9.2740000 -24.1680000 -59.4460000
   8.8945954 -24.7293124 -58.6969473  10.2920000 -24.6830000 -60.1940000
  10.8240000 -23.9490000 -61.2140000  10.4617011 -23.0270382 -61.4110432
  11.5776659 -24.3309909 -61.7673265  10.7670000 -25.9350000 -59.9280000
  10.3625278 -26.4763145 -59.1773463  11.5207496 -26.3143049 -60.4830568
   7.4810000 -18.5240000 -57.8560000   6.2860000 -18.3620000 -57.6250000
   8.2370000 -17.6080000 -58.4980000   9.2391757 -17.7334147 -58.5017832
   7.6920000 -16.4610000 -59.1680000   6.6663347 -16.7035385 -59.4460019
   7.6840000 -15.1580000 -58.3430000   7.1727120 -14.3870903 -58.9195258
   7.1531161 -15.3217593 -57.4052126   9.0780000 -14.7190000 -58.0540000
   9.7780000 -15.2660000 -57.0030000   9.3048926 -16.0298199 -56.3858712
  11.0620000 -14.8580000 -56.7280000  11.6096469 -15.2985850 -55.8948916
  11.6540000 -13.8920000 -57.5050000  12.9710000 -13.4720000 -57.2220000
  13.3557189 -13.9258386 -56.4685934  10.9640000 -13.3380000 -58.5560000
  11.4312672 -12.5733645 -59.1765597   9.6800000 -13.7510000 -58.8240000
   9.1278861 -13.3104636 -59.6541796   8.5360000 -16.2480000 -60.3940000
   9.6080000 -16.8370000 -60.5230000   8.0480000 -15.4420000 -61.3590000
   7.1200867 -15.0495675 -61.2877749   8.8390000 -15.1190000 -62.5190000
   8.3517894 -14.3211624 -63.0795177   9.8283266 -14.7883557 -62.2027618
   8.9860000 -16.3190000 -63.4060000  10.0020000 -16.4630000 -64.0860000
   7.9700000 -17.2050000 -63.4360000   7.1270542 -17.0494620 -62.9018187
   8.0640000 -18.4010000 -64.2280000   8.9798444 -18.3562319 -64.8173420
   8.0890000 -19.6830000 -63.3770000   8.0153453 -20.5681187 -64.0088537
   9.0098346 -19.7279429 -62.7954986   6.9580000 -19.7610000 -62.3960000
   6.9280000 -19.0690000 -61.2060000   5.7630000 -19.3970000 -60.5930000
   5.5711410 -18.9335289 -59.6252792   5.0460000 -20.2480000 -61.3030000
   4.1480926 -20.6682237 -61.1099346   5.8010000 -20.4760000 -62.4400000
   5.4342347 -21.1536852 -63.2109262   6.8810000 -18.4710000 -65.1460000
   5.8970000 -17.7530000 -64.9730000   6.9580000 -19.3640000 -66.1560000
   7.7510432 -19.9853255 -66.2276697   5.9320000 -19.4520000 -67.1560000
   5.2376501 -18.6233932 -67.0167587   6.4890000 -19.3910000 -68.5880000
   5.6629318 -19.4479627 -69.2968483   7.0212471 -18.4498458 -68.7259921
   7.3800000 -20.4760000 -68.8110000   7.7225189 -20.4298826 -69.7066304
   5.1700000 -20.7360000 -67.0250000   5.6840000 -21.7430000 -66.5400000
   3.8730000 -20.6920000 -67.4060000   3.4606905 -19.8109639 -67.6778007
   3.0480000 -21.8690000 -67.4370000   3.6344024 -22.7788671 -67.5649582
   2.1590000 -22.0110000 -66.2310000   2.7572824 -21.9547713 -65.3216063
   1.1290000 -20.8690000 -66.2380000   0.5299895 -20.9248494 -67.1469378
   0.4782254 -20.9606353 -65.3684047   1.6477203 -19.9109567 -66.2036275
   1.5420000 -23.4180000 -66.1830000   0.8108118 -23.4820409 -66.9888309
   2.3444556 -24.1332446 -66.3635262   0.8630000 -23.7400000 -64.8530000
   0.0600718 -23.0254069 -64.6719952   0.4500391 -24.7480653 -64.8899713
   1.5937156 -23.6766082 -64.0466899   2.1840000 -21.7770000 -68.6640000
   1.5910000 -20.7330000 -68.9380000   2.1040000 -22.8700000 -69.4540000
   2.5727657 -23.7303142 -69.2086072   1.3150000 -22.8420000 -70.6580000
   0.5839254 -22.0384781 -70.5686598   2.1470000 -22.6110000 -71.9340000
   2.9639849 -23.3317824 -71.9672803   1.5197566 -22.7325211 -72.8171186
   2.7170000 -21.1990000 -71.9070000   3.4340000 -20.8620000 -70.9280000
   2.4340000 -20.4330000 -72.8650000   0.6370000 -24.1720000 -70.8220000
   1.0590000 -25.1740000 -70.2460000  -0.4520000 -24.2040000 -71.6230000
  -0.7644927 -23.3620055 -72.0850529  -1.1720000 -25.4250000 -71.8700000
  -0.8276193 -26.2374847 -71.2301800  -2.6620000 -25.2810000 -71.7050000
  -3.0308119 -24.4904637 -72.3585513  -3.3360000 -26.6120000 -72.0800000
  -2.9680081 -27.4029852 -71.4265282  -4.4157569 -26.5184611 -71.9639140
  -3.1024826 -26.8589912 -73.1156479  -2.9630000 -24.8180000 -70.2690000
  -2.4783596 -23.8588089 -70.0868511  -4.0399514 -24.7107501 -70.1394906
  -2.5842382 -25.5559524 -69.5618461  -0.9220000 -25.8270000 -73.2940000
  -1.0290000 -25.0140000 -74.2110000  -0.5870000 -27.1160000 -73.5140000
  -0.5609447 -27.7767733 -72.7505872  -0.2970000 -27.5930000 -74.8380000
  -0.3478256 -26.7934249 -75.5770505   1.0370000 -28.2700000 -74.9550000
   1.1724115 -28.6499718 -75.9676127   2.1390000 -27.2450000 -74.6410000
   2.0045144 -26.8648960 -73.6283127   3.1149286 -27.7236005 -74.7222732
   2.0799699 -26.4187564 -75.3494763   1.0440000 -29.5020000 -74.0340000
   0.2523576 -30.1872804 -74.3369772   2.0077937 -30.0057803 -74.1075308
   0.8768124 -29.1871920 -73.0039296  -1.3280000 -28.6130000 -75.2040000
  -1.9710000 -29.2020000 -74.3350000  -1.5370000 -28.8090000 -76.5250000
  -1.0213921 -28.2794782 -77.2133709  -2.4800000 -29.7880000 -76.9860000
  -2.8808542 -30.3127735 -76.1188046  -3.6510000 -29.1830000 -77.7790000
  -3.2873039 -28.5301338 -78.5724671  -4.2604520 -29.9759826 -78.2124132
  -4.4740000 -28.3910000 -76.8230000  -4.0790000 -27.1350000 -76.4220000
  -3.1503846 -26.7171489 -76.8108102  -4.8440000 -26.4080000 -75.5390000
  -4.5199118 -25.4160079 -75.2243251  -6.0170000 -26.9340000 -75.0530000
  -6.8060000 -26.1940000 -74.1480000  -6.4309933 -25.3354672 -73.9384982
  -6.4200000 -28.1830000 -75.4520000  -7.3505067 -28.6024682 -75.0695027
  -5.6510000 -28.9060000 -76.3340000  -5.9730565 -29.8976339 -76.6518709
  -1.7670000 -30.7350000 -77.8980000  -1.1040000 -30.3170000 -78.8480000
  -1.8730000 -32.0480000 -77.6110000  -2.3989891 -32.3618466 -76.8079214
  -1.2720000 -33.0350000 -78.4570000  -1.1733329 -32.6166411 -79.4586685
   0.1190000 -33.4840000 -77.9720000   0.7816382 -32.6192410 -77.9373345
   0.0283622 -33.9118852 -76.9736017   0.6560000 -34.4560000 -78.8560000
   1.5221644 -34.7282920 -78.5442049  -2.1490000 -34.2510000 -78.4560000
  -2.4890000 -34.7910000 -77.4040000  -2.5270000 -34.7160000 -79.6620000
  -2.2869520 -34.1724957 -80.4787493  -3.2970000 -35.9150000 -79.8440000
  -3.5923230 -35.9861521 -80.8908146  -2.5130000 -37.1840000 -79.4670000
  -2.2504452 -37.1148425 -78.4113573  -3.1677712 -38.0414167 -79.6225996
  -1.2410000 -37.3570000 -80.2980000  -1.5462434 -37.3941472 -81.3437282
  -0.6279692 -36.4714796 -80.1302235  -0.4310000 -38.6090000 -79.9590000
  -0.2217849 -38.6722520 -78.8911390  -0.9425742 -39.5153924 -80.2827965
   0.8610000 -38.5020000 -80.6930000   1.0953751 -37.6790641 -81.2296044
   1.7580000 -39.5290000 -80.6510000   1.4460000 -40.6830000 -79.9930000
   0.5492389 -40.7742891 -79.5373840   2.1132272 -41.4406920 -79.9645325
   2.9700000 -39.4000000 -81.2680000   3.1975775 -38.5440004 -81.7533589
   3.6330582 -40.1612039 -81.2360446  -4.5680000 -35.8850000 -79.0490000
  -4.9310000 -36.8780000 -78.4220000  -5.2810000 -34.7400000 -79.0470000
  -4.9216759 -33.9012815 -79.4800552  -6.5750000 -34.6850000 -78.4260000
  -7.0811159 -33.7695831 -78.7325252  -7.1615825 -35.5473776 -78.7427415
  -6.4550000 -34.6990000 -76.9350000  -7.4210000 -35.0240000 -76.2440000
  -5.2740000 -34.3560000 -76.3890000  -4.4712922 -34.1064071 -76.9488776
  -5.1340000 -34.3550000 -74.9590000  -6.1166374 -34.5318422 -74.5216789
  -4.1610000 -35.4230000 -74.4300000  -3.2278184 -35.3300823 -74.9855517
  -3.9777307 -35.2158847 -73.3756681  -4.7060000 -36.8450000 -74.5830000
  -5.5529930 -36.9399655 -73.9035258  -5.0524761 -36.9480459 -75.6113180
  -3.6830000 -37.9400000 -74.2780000  -2.8735534 -37.8455924 -75.0018662
  -3.2958914 -37.7592230 -73.2752208  -4.2700000 -39.3510000 -74.3510000
  -5.1010212 -39.4308497 -73.6501945  -4.6293890 -39.5384511 -75.3628304
  -3.2340000 -40.3490000 -74.0030000  -2.9011562 -40.1757437 -73.0652916
  -3.6298274 -41.2768194 -74.0537127  -2.4640568 -40.2754647 -74.6525223
  -4.6340000 -33.0080000 -74.5340000  -4.0770000 -32.2640000 -75.3400000
  -4.8470000 -32.6540000 -73.2460000  -5.2747794 -33.2998689 -72.5979587
  -4.4280000 -31.3690000 -72.7520000  -4.0279714 -30.7935804 -73.5868464
  -5.5680000 -30.5650000 -72.1020000  -5.9756124 -31.1347946 -71.2669638
  -5.1728761 -29.6173333 -71.7360697  -6.5940000 -30.3150000 -73.0490000
  -7.2986532 -29.8134618 -72.6324389  -3.3990000 -31.5830000 -71.6800000
  -3.5130000 -32.5040000 -70.8740000  -2.3480000 -30.7310000 -71.6550000
  -2.2367873 -30.0014547 -72.3445612  -1.3430000 -30.8650000 -70.6370000
  -1.8187829 -31.2519204 -69.7358771  -0.1950000 -31.8070000 -71.0290000
  -0.6402080 -32.7282999 -71.4046269   0.3676381 -31.3239311 -71.8278635
   0.7450000 -32.1320000 -69.8690000   1.5802230 -32.7030219 -70.2745089
   1.1117941 -31.1863022 -69.4699763  -0.0360000 -33.0840000 -68.5290000
  -0.4410000 -34.5270000 -69.5520000   0.4752948 -34.9492214 -69.9645916
  -0.9429600 -35.2770071 -68.9407503  -1.0989582 -34.2227854 -70.3660305
  -0.7640000 -29.5100000 -70.3420000  -0.6680000 -28.6600000 -71.2270000
  -0.3430000 -29.2810000 -69.0770000  -0.3924842 -30.0076528 -68.3772669
   0.1860000 -27.9990000 -68.6930000  -0.0231818 -27.2592074 -69.4656895
  -0.2580453 -27.6757499 -67.7514946   1.6690000 -28.1150000 -68.5180000
   2.1700000 -29.1000000 -67.9760000   2.4080000 -27.0750000 -68.9640000
   1.9424130 -26.2650895 -69.3478919   3.8420000 -27.0610000 -68.8820000
   4.2332652 -27.9633763 -68.4121834   4.5050000 -26.8900000 -70.2200000
   4.1928226 -25.9460529 -70.6667756   6.0300000 -26.8860000 -70.0280000
   6.3430053 -27.8298803 -69.5816608   6.5181118 -26.7622891 -70.9947177
   6.3118818 -26.0629892 -69.3712676   3.9990000 -27.9990000 -71.1550000
   2.9171354 -27.9195564 -71.2615826   4.4686761 -27.8928832 -72.1328769
   4.2516638 -28.9725270 -70.7348725   4.2370000 -25.8890000 -68.0330000
   3.6280000 -24.8250000 -68.1090000   5.2670000 -26.0680000 -67.1810000
   5.7373248 -26.9611106 -67.1456820   5.7090000 -25.0300000 -66.2920000
   5.3634184 -24.0620540 -66.6549780   5.1440000 -25.2550000 -64.8700000
   4.0673402 -25.2341642 -65.0387268   5.4420940 -26.2539582 -64.5516880
   5.5120000 -24.2350000 -63.7730000   5.3217968 -23.2275595 -64.1431178
   4.6690000 -24.4850000 -62.5130000   4.8590284 -25.4921506 -62.1420070
   4.9375346 -23.7589919 -61.7456004   3.6115468 -24.3814649 -62.7562561
   7.0150000 -24.2690000 -63.4320000   7.5958288 -24.0331250 -64.3236840
   7.2285502 -23.5348081 -62.6551732   7.2848593 -25.2631417 -63.0756895
   7.2090000 -25.0370000 -66.2690000   7.8290000 -26.0730000 -66.0380000
   7.8460000 -23.8680000 -66.5140000   7.3638501 -22.9951461 -66.6744896
   9.2830000 -23.8720000 -66.5630000   9.6595612 -24.7191381 -65.9897131
   9.8020000 -23.9870000 -68.0110000   9.5423301 -24.9337201 -68.4847000
   9.4298337 -23.1627538 -68.6194492  11.2900000 -23.8940000 -68.0310000
  12.0700000 -24.9510000 -67.6210000  11.5938463 -25.8662305 -67.2692462
  13.4420000 -24.8580000 -67.6530000  14.0494912 -25.6991148 -67.3189624
  14.0470000 -23.7100000 -68.1040000  15.1341145 -23.6343850 -68.1277584
  13.2760000 -22.6550000 -68.5260000  13.7490141 -21.7419185 -68.8874416
  11.9040000 -22.7520000 -68.4920000  11.2900839 -21.9182599 -68.8327116
   9.8570000 -22.6180000 -65.9660000   9.2770000 -21.5390000 -66.0570000
  11.0190000 -22.7710000 -65.2920000  11.3140675 -23.7189579 -65.1064998
  11.8530000 -21.6930000 -64.8270000  12.8319842 -22.1071005 -64.5857328
  11.9537091 -20.9731664 -65.6392787  11.3100000 -20.9940000 -63.6220000
  10.3130000 -21.4030000 -63.0310000  12.0080000 -19.9040000 -63.2190000
  12.8741501 -19.6497689 -63.6720451  11.5380000 -19.0830000 -62.1410000
  11.2545685 -18.1074273 -62.5359985  10.6678344 -19.5575274 -61.6874198
  12.5940000 -18.8970000 -61.0930000  13.7800000 -19.1330000 -61.3200000
  12.1490000 -18.4320000 -59.9020000  11.1620673 -18.2600633 -59.7735437
  13.0320000 -18.1830000 -58.7990000  13.9107797 -18.8191558 -58.9045999
  13.4920000 -16.7180000 -58.7260000  12.6019490 -16.0918428 -58.6640676
  14.0831561 -16.5990911 -57.8179828  14.3270000 -16.2980000 -59.9360000
  15.1996740 -16.9505274 -59.9633653  13.7157023 -16.4723470 -60.8214492
  14.7830000 -14.8380000 -59.9110000  13.9356316 -14.1530148 -59.9403431
  15.3926144 -14.6236051 -59.0332161  15.6120000 -14.6250000 -61.1320000
  15.8176935 -15.3926041 -61.7553567  16.1070000 -13.3890000 -61.4350000
  15.8310000 -12.3210000 -60.6320000  15.2578315 -12.4460301 -59.8098410
  16.2010945 -11.4101693 -60.8633377  16.8850000 -13.2240000 -62.5460000
  17.0900688 -14.0166404 -63.1374119  17.2515598 -12.3101289 -62.7708827
  12.3120000 -18.4990000 -57.5240000  11.0820000 -18.5610000 -57.4820000
  13.0900000 -18.7430000 -56.4480000  14.0936282 -18.6926444 -56.5494601
  12.5510000 -19.0280000 -55.1490000  11.6689861 -18.4046894 -55.0019134
  12.1500000 -20.5000000 -54.9570000  11.6759856 -20.6183121 -53.9826223
  11.4468285 -20.7850513 -55.7395571  13.2990000 -21.3310000 -55.0280000
  13.0391982 -22.2472428 -54.9071611  13.6280000 -18.7370000 -54.1480000
  14.7240000 -18.3060000 -54.5000000  13.3100000 -18.9430000 -52.8530000
  12.3765820 -19.2629196 -52.6374041  14.2370000 -18.7660000 -51.7690000
  14.8855498 -17.9280750 -52.0246638  13.5890000 -18.4870000 -50.3990000
  12.8247891 -19.2439235 -50.2225125  14.3348241 -18.5325020 -49.6054157
  12.9570000 -17.1360000 -50.4100000  13.7360000 -16.0030000 -50.3330000
  14.8191420 -16.1079652 -50.2706691  13.1650000 -14.7510000 -50.3340000
  13.7929160 -13.8616888 -50.2796971  11.7980000 -14.6240000 -50.4030000
  11.2020000 -13.3440000 -50.4060000  11.8434241 -12.6314488 -50.3565479
  11.0120000 -15.7510000 -50.4700000   9.9279387 -15.6519094 -50.5256109
  11.5890000 -16.9990000 -50.4670000  10.9618703 -17.8894834 -50.5099851
  15.0020000 -20.0460000 -51.6290000  14.5750000 -21.0900000 -52.1160000
  16.1880000 -19.9830000 -50.9970000  16.5133133 -19.1016156 -50.6262815
  17.0150000 -21.1440000 -50.8180000  17.3174945 -21.5068511 -51.8003112
  18.2780000 -20.8650000 -49.9870000  17.9572416 -20.5353744 -48.9987894
  18.8275453 -21.8019476 -49.8962850  19.1840000 -19.8010000 -50.6100000
  18.5845030 -18.8977604 -50.7234121  19.9910505 -19.6142244 -49.9015605
  19.8950000 -20.2520000 -52.2200000  20.8060000 -18.6940000 -52.4180000
  21.5105214 -18.5772815 -51.5945164  21.3505735 -18.7083929 -53.3621044
  20.1045949 -17.8596562 -52.4164165  16.2160000 -22.1900000 -50.0970000
  15.1860000 -21.9050000 -49.4870000  16.6630000 -23.4170000 -50.2100000
  17.4080000 -23.8370000 -51.3820000  18.3084782 -23.2292947 -51.4710704
  16.7887159 -23.7000482 -52.2684708  17.7190000 -25.3150000 -51.1080000
  18.6590422 -25.4151824 -50.5654291  17.7777748 -25.8739609 -52.0419216
  16.5260000 -25.7890000 -50.2580000  16.8517452 -26.5154089 -49.5134739
  15.7345912 -26.2246147 -50.8679274  16.0140000 -24.5260000 -49.5630000
  14.9421482 -24.4684511 -49.7525260  16.2610000 -24.4930000 -48.0900000
  17.2660000 -23.9340000 -47.6590000  15.3850000 -25.1410000 -47.3050000
  14.6635709 -25.7129717 -47.7203164  15.4390000 -25.0470000 -45.8760000
  15.2682622 -24.0101119 -45.5864990  14.3870000 -25.9290000 -45.1860000
  14.5256699 -26.9639127 -45.4987709  14.5112601 -25.8567664 -44.1055178
  13.0810000 -25.4980000 -45.5420000  12.4307485 -26.0541794 -45.1067561
  16.7810000 -25.4770000 -45.3730000  17.2740000 -24.9310000 -44.3860000
  17.4150000 -26.4710000 -46.0140000  17.0602976 -26.9107025 -46.8512259
  18.6710000 -26.9210000 -45.4900000  18.5457561 -27.2280276 -44.4516613
  19.2240000 -28.0770000 -46.2680000  19.4041064 -27.7755189 -47.2998775
  20.5490000 -28.5200000 -45.6250000  20.3696031 -28.8220894 -44.5931772
  20.9608880 -29.3609670 -46.1828726  21.2569130 -27.6913562 -45.6425863
  18.2970000 -29.1520000 -46.2670000  18.6590551 -29.8871976 -46.7670009
  19.6900000 -25.8160000 -45.5540000  20.3360000 -25.5060000 -44.5550000
  19.8600000 -25.2160000 -46.7490000  19.2667828 -25.5369371 -47.5007926
  20.8390000 -24.2030000 -47.0380000  21.7837754 -24.4795239 -46.5699901
  21.0700000 -24.0340000 -48.5490000  20.1166657 -23.7645247 -49.0035724
  21.7813063 -23.2198898 -48.6881690  21.6110000 -25.3030000 -49.2130000
  22.5741087 -25.5798350 -48.7841821  20.9119679 -26.1316948 -49.1002123
  21.8010000 -25.0260000 -50.6960000  21.3830000 -25.8110000 -51.5490000
  22.4550000 -23.8790000 -51.0170000  22.6096183 -23.6439991 -51.9870357
  22.7835557 -23.2665955 -50.2841199  20.4990000 -22.8460000 -46.4800000
  21.3860000 -22.1000000 -46.0670000  19.2040000 -22.4810000 -46.4580000
  18.5026380 -23.1665512 -46.6992680  18.7710000 -21.1460000 -46.1340000
  19.1555109 -20.4514817 -46.8809236  17.2360000 -21.0410000 -46.1090000
  16.8735418 -21.6032093 -46.9696068  16.9075160 -21.5298188 -45.1918007
  16.6760000 -19.6190000 -46.1570000  17.0651809 -19.0736023 -45.2972440
  17.0279912 -19.1482538 -47.0749337  15.1460000 -19.5950000 -46.1260000
  14.7296674 -20.2636852 -46.8794098  14.7709067 -19.8781423 -45.1425190
  14.7020000 -18.2050000 -46.4240000  15.3528176 -17.4340527 -46.4706481
  13.3780000 -17.9540000 -46.6430000  12.4690000 -18.9680000 -46.5560000
  12.7792008 -19.9021308 -46.3295599  11.4900650 -18.7798515 -46.7184376
  12.9640000 -16.6900000 -46.9480000  13.6397314 -15.9419923 -47.0110204
  11.9837025 -16.5081221 -47.1093566  19.3010000 -20.7070000 -44.7990000
  19.3360000 -21.4780000 -43.8420000  19.7470000 -19.4290000 -44.7210000
  19.7077952 -18.8364477 -45.5379725  20.2460000 -18.8670000 -43.4940000
  20.0324598 -19.5589822 -42.6793465  21.7200000 -18.5840000 -43.5090000
  22.0411997 -18.2328084 -42.5283903  22.4650000 -19.8840000 -43.8570000
  22.1446430 -20.2355753 -44.8377476  23.5384426 -19.6953359 -43.8720340
  22.2405779 -20.6435936 -43.1081657  22.0210000 -17.5770000 -44.4630000
  22.9657960 -17.4068288 -44.4613702  19.5460000 -17.5540000 -43.2930000
  19.1330000 -16.8970000 -44.2470000  19.4070000 -17.1300000 -42.0250000
  19.8161104 -17.6665601 -41.2734474  18.6810000 -15.9390000 -41.6930000
  17.6756258 -15.9956854 -42.1102633  18.5740000 -15.7330000 -40.2110000
  17.9987161 -14.8315309 -40.0000446  17.8590000 -16.9520000 -39.6010000
  18.4339728 -17.8538529 -39.8111602  17.7716497 -16.8205080 -38.5224923
  16.8643385 -17.0460881 -40.0367711  19.8640000 -15.5830000 -39.6380000
  19.7800930 -15.4521397 -38.6906693  19.3480000 -14.7350000 -42.2780000
  18.6800000 -13.8230000 -42.7600000  20.6900000 -14.7000000 -42.2620000
  21.2300936 -15.5036201 -41.9746101  21.3930000 -13.5380000 -42.7240000
  21.1603427 -12.6889936 -42.0812264  22.9130000 -13.7730000 -42.6970000
  23.1271912 -14.6133853 -43.3572832  23.3912458 -12.8743688 -43.0866703
  23.4550000 -14.0730000 -41.2980000  23.5075522 -13.1520667 -40.7172928
  22.8115749 -14.7885342 -40.7860292  24.8520000 -14.6610000 -41.4440000
  25.6820000 -14.0460000 -42.1650000  25.1060000 -15.7380000 -40.8420000
  21.0170000 -13.3020000 -44.1580000  20.7260000 -12.1790000 -44.5640000
  21.0680000 -14.3910000 -44.9430000  21.3925471 -15.1920203 -44.4203769
  20.7940000 -14.5570000 -46.3440000  21.1050987 -13.6552482 -46.8714092
  21.5320000 -15.7590000 -46.9500000  21.1631167 -16.6697135 -46.4781682
  21.3234783 -15.7942861 -48.0192865  23.0390000 -15.6460000 -46.7290000
  23.2300775 -15.7597173 -45.6619205  23.5187533 -16.4601205 -47.2722740
  23.6060000 -14.3110000 -47.2080000  23.5688671 -14.3133025 -48.2973644
  22.9560095 -13.5245368 -46.8244803  25.0410000 -14.0550000 -46.7480000
  25.0806084 -14.0893404 -45.6592611  25.6928219 -14.8257740 -47.1592600
  25.4930000 -12.7260000 -47.2160000  24.8893970 -12.0116059 -46.8346811
  26.4413225 -12.5652057 -46.9078935  25.4567803 -12.6941148 -48.2248461
  19.3260000 -14.7110000 -46.6430000  18.9630000 -14.9450000 -47.7930000
  18.4430000 -14.6090000 -45.6340000  18.7799260 -14.2279298 -44.7614373
  17.0730000 -15.0540000 -45.7020000  17.0433249 -16.1435288 -45.7140644
  16.2710000 -14.5540000 -44.4890000  16.8456538 -14.7419106 -43.5820481
  16.0847776 -13.4843635 -44.5854310  14.9270000 -15.2100000 -44.2920000
  13.6780000 -14.8110000 -44.6680000  13.5991805 -13.8704065 -45.2131341
  12.7470000 -15.7360000 -44.2520000  11.7490067 -15.6804008 -44.3969748
  13.4060000 -16.7570000 -43.5990000  12.9360000 -17.8970000 -43.0100000
  11.8632372 -18.0893920 -43.0262483  13.8610000 -18.7370000 -42.4280000
  13.5244106 -19.6566517 -41.9494101  15.2070000 -18.4420000 -42.4360000
  15.9280127 -19.1144202 -41.9711438  15.6830000 -17.2930000 -43.0290000
  16.7527971 -17.0842859 -43.0204366  14.7680000 -16.4610000 -43.6060000
  16.3700000 -14.6140000 -46.9670000  15.5730000 -15.3750000 -47.5130000
  16.5970000 -13.3830000 -47.4500000  17.2268905 -12.7822710 -46.9376896
  15.9640000 -12.8580000 -48.6370000  14.8990508 -13.0880539 -48.6044799
  16.1340000 -11.3360000 -48.7520000  17.1779039 -11.0341456 -48.6668657
  15.7259663 -10.9693695 -49.6939079  15.3520000 -10.7100000 -47.6070000
  14.1460000 -10.9170000 -47.4780000  16.0570000  -9.9330000 -46.7420000
  15.5861767  -9.4934678 -45.9640304  17.0483096  -9.7988917 -46.8813590
  16.4800000 -13.4660000 -49.9170000  15.7660000 -13.4580000 -50.9190000
  17.7290000 -13.9800000 -49.9410000  18.2516977 -14.0346598 -49.0785044
  18.3670000 -14.4240000 -51.1570000  18.5696084 -13.5497312 -51.7756300
  19.6900000 -15.1750000 -50.9180000  19.5050274 -16.0219837 -50.2573163
  20.0725506 -15.5362563 -51.8725936  20.6460000 -14.3100000 -50.3220000
  21.4653366 -14.7891825 -50.1782244  17.4800000 -15.3280000 -51.9590000
  16.7010000 -16.1150000 -51.4220000  17.5890000 -15.2070000 -53.3030000
  18.2729995 -14.5697104 -53.6852382  16.7930000 -15.9780000 -54.2150000
  16.2157107 -16.7432743 -53.6961632  15.8540000 -15.1420000 -55.0340000
  15.3223384 -15.7715645 -55.7475010  14.8420000 -14.4710000 -54.0890000
  15.3729199 -13.8408629 -53.3754509  14.1518905 -13.8592220 -54.6700138
  14.2832496 -15.2368914 -53.5511245  16.6820000 -14.1450000 -55.8620000
  17.3604069 -14.6913473 -56.5172639  16.0140151 -13.5287996 -56.4638246
  17.2592641 -13.5072219 -55.1925928  17.7140000 -16.6620000 -55.1730000
  18.8320000 -16.2070000 -55.4130000  17.2650000 -17.8060000 -55.7290000
  16.3456313 -18.1626087 -55.5106178  18.0670000 -18.5270000 -56.6740000
  18.7921177 -17.8712182 -57.1559271  18.8160000 -19.7220000 -56.0620000
  18.1021346 -20.3924994 -55.5835371  19.3479006 -20.2589501 -56.8474086
  19.5297556 -19.3630036 -55.3205327  17.1410000 -19.0680000 -57.7120000
  15.9470000 -19.2370000 -57.4690000  17.6770000 -19.3390000 -58.9180000
  18.6604562 -19.1954873 -59.0977701  16.8610000 -19.8550000 -59.9770000
  15.9620829 -19.2417931 -60.0404393  17.5520000 -19.8590000 -61.3530000
  18.5575356 -20.2702796 -61.2644195  16.9740894 -20.4613416 -62.0539308
  17.6330000 -18.4270000 -61.8620000  16.6990000 -17.6380000 -61.5570000
  18.6300000 -18.1030000 -62.5590000  16.5050000 -21.2710000 -59.6600000
  17.2940000 -22.0130000 -59.0800000  15.2830000 -21.6780000 -60.0490000
  14.6575101 -21.0440163 -60.5253679  14.8420000 -23.0220000 -59.8180000
  15.1000761 -23.2949831 -58.7947815  13.3280000 -23.2140000 -60.0110000
  13.0094086 -22.8611139 -60.9918518  13.0467856 -24.2604633 -59.8929620
  12.3420000 -22.2870000 -58.7970000  11.1556583 -22.6776180 -59.2540658
  15.5390000 -23.9030000 -60.8010000  16.1270000 -23.4310000 -61.7730000
  15.5190000 -25.2250000 -60.5410000  15.0674822 -25.5925052 -59.7156692
  16.1180000 -26.1490000 -61.4550000  17.1500582 -25.8420091 -61.6244453
  16.1140000 -27.6030000 -60.9490000  15.0645761 -27.7578869 -60.6983635
  16.4113111 -28.3129948 -61.7207600  16.9800000 -27.8190000 -59.6910000
  16.6021192 -27.1789605 -58.8937194  16.9380000 -29.2870000 -59.2330000
  17.3161905 -29.9276518 -60.0296405  17.5575410 -29.4088130 -58.3445006
  15.9104662 -29.5661619 -58.9998836  18.4130000 -27.3050000 -59.9060000
  18.3872206 -26.2386957 -60.1305664  18.9986858 -27.4713120 -59.0018907
  18.8704530 -27.8400771 -60.7381828  15.2900000 -26.0820000 -62.7030000
  14.0660000 -25.9940000 -62.6720000  15.9760000 -26.1630000 -63.7980000
  17.3780000 -25.7740000 -63.7740000  17.9750230 -26.6656305 -63.5825348
  17.5194021 -25.0613107 -62.9614864  17.6640000 -25.1580000 -65.1480000
  18.6610179 -25.4355734 -65.4900633  17.5854729 -24.0717981 -65.1021717
  16.5760000 -25.7480000 -66.0550000  16.8651532 -26.6815192 -66.5377331
  16.2966004 -25.0180420 -66.8147347  15.4000000 -25.9940000 -65.1110000
  14.8042200 -25.0817714 -65.0796390  14.5420000 -27.1350000 -65.5700000
  14.5230000 -27.4010000 -66.7730000  13.9070000 -27.8820000 -64.6490000
  13.9868204 -27.6825822 -63.6621056  13.1020000 -29.0010000 -65.0550000
  13.6272655 -29.5479136 -65.8379948  12.8130000 -29.9630000 -63.8940000
  12.2046061 -29.4947746 -63.1202293  12.3088000 -30.8572133 -64.2604219
  14.0730000 -30.4240000 -63.2280000  14.1200000 -31.0620000 -62.0090000
  15.4280000 -31.2990000 -61.7410000  15.6528746 -31.8043137 -60.8017511
  16.2230000 -30.8590000 -62.7010000  17.2290627 -30.8902195 -62.7844454
  15.3660000 -30.3090000 -63.6370000  15.7665724 -29.8660592 -64.5488368
  11.7840000 -28.5360000 -65.6050000  11.1810000 -27.5820000 -65.1120000
  11.3100000 -29.2080000 -66.6750000  11.8521865 -29.9593663 -67.0769725
  10.0280000 -28.9120000 -67.2480000   9.7803726 -27.8529548 -67.1758670
   9.9170000 -29.3340000 -68.6850000  10.1129713 -30.4028447 -68.7702375
   8.4960000 -29.0320000 -69.1890000   8.2994501 -27.9632022 -69.1044997
   8.4076666 -29.3357921 -70.2320763   7.7721576 -29.5826252 -68.5881958
  11.0260000 -28.6300000 -69.4870000  11.9998574 -28.9158439 -69.0895115
  10.9608049 -28.9249574 -70.5343058  10.9038792 -27.5498963 -69.4059850
   9.0280000 -29.6940000 -66.4540000   9.2830000 -30.8380000 -66.0800000
   7.8600000 -29.0900000 -66.1570000   7.6348709 -28.1656342 -66.4960635
   6.8790000 -29.7850000 -65.3750000   7.3008497 -30.7462033 -65.0813501
   6.4410000 -29.0310000 -64.1050000   6.2594203 -27.9713408 -64.2845838
   5.5505188 -29.4827066 -63.6678452   7.5120000 -29.1110000 -63.0700000
   8.6210000 -28.2990000 -63.1260000   8.7256639 -27.5866201 -63.9443277
   9.5950000 -28.3820000 -62.1570000  10.4710538 -27.7359257 -62.2137320
   9.4660000 -29.2750000 -61.1210000  10.2384455 -29.3432697 -60.3549927
   8.3590000 -30.0830000 -61.0530000   8.2475884 -30.7922504 -60.2328467
   7.3880000 -29.9960000 -62.0240000   6.5054820 -30.6335278 -61.9708956
   5.6420000 -29.9590000 -66.1910000   5.1040000 -28.9980000 -66.7390000
   5.1620000 -31.2110000 -66.2900000   5.6521340 -31.9998497 -65.8930313
   3.9120000 -31.4480000 -66.9420000   3.7180946 -30.6105351 -67.6121884
   3.8660000 -32.7500000 -67.7570000   4.2102256 -33.4887557 -67.0332265
   2.8614241 -33.0098073 -68.0908076   4.8200000 -32.7330000 -68.9660000
   5.8434527 -32.6547599 -68.5992251   4.6750000 -34.0090000 -69.8110000
   3.6518560 -34.0876950 -70.1785355   5.3618299 -33.9656420 -70.6562724
   4.9083556 -34.8796925 -69.1981867   4.6500000 -31.4470000 -69.7910000
   4.8675010 -30.5816531 -69.1649269   5.3366304 -31.4642457 -70.6373702
   3.6251617 -31.3819902 -70.1564848   2.9210000 -31.5470000 -65.8280000
   3.1380000 -32.2810000 -64.8640000   1.8250000 -30.7650000 -65.9180000
   1.6608846 -30.1989956 -66.7382466   0.8450000 -30.7460000 -64.8720000
   1.0281405 -31.5150600 -64.1215964   0.7700000 -29.4010000 -64.2030000
   0.5715247 -28.6275839 -64.9449808  -0.3720000 -29.4280000 -63.1730000
  -0.1739877 -30.2009153 -62.4303737  -0.4392762 -28.4587827 -62.6788417
  -1.3131779 -29.6434646 -63.6788245   2.1400000 -29.0430000 -63.6000000
   2.2823480 -29.6757200 -62.7239274   2.8949876 -29.2841923 -64.3482777
   2.2750000 -27.5740000 -63.1950000   1.5205855 -27.3321671 -62.4463509
   3.2675166 -27.4010074 -62.7789667   2.1332228 -26.9406391 -64.0707014
  -0.4900000 -31.0220000 -65.4910000  -0.9250000 -30.3070000 -66.3920000
  -1.1850000 -32.0730000 -65.0140000  -0.8367007 -32.6404808 -64.2545577
  -2.4680000 -32.3940000 -65.5700000  -2.5367971 -31.9312567 -66.5544972
  -2.7190000 -33.9030000 -65.7180000  -1.8576136 -34.3878816 -66.1773502
  -2.9094170 -34.3500154 -64.7422856  -3.9400000 -34.0890000 -66.6080000
  -4.4710000 -33.0610000 -67.1060000  -4.3570000 -35.2610000 -66.8040000
  -3.5020000 -31.8540000 -64.6360000  -3.5920000 -32.2600000 -63.4780000
  -4.3090000 -30.9020000 -65.1310000  -4.2042451 -30.6104164 -66.0923037
  -5.3010000 -30.2510000 -64.3280000  -4.8331980 -29.9106309 -63.4041984
  -5.9360000 -29.0420000 -65.0310000  -6.4002783 -29.3010361 -65.9825488
  -6.6435351 -28.4772494 -64.4239160  -4.8090000 -28.1170000 -65.3440000
  -4.0230000 -27.6090000 -64.3370000  -4.2294841 -27.8903570 -63.3043808
  -2.9850000 -26.7540000 -64.6220000  -2.3630875 -26.3653658 -63.8155950
  -2.7310000 -26.3890000 -65.9230000  -1.9078099 -25.7128744 -66.1538942
  -3.5210000 -26.8810000 -66.9350000  -3.3297581 -26.5922063 -67.9685013
  -4.5540000 -27.7390000 -66.6410000  -5.1832658 -28.1287432 -67.4411404
  -6.3840000 -31.2170000 -63.9610000  -6.9360000 -31.1460000 -62.8650000
  -6.7450000 -32.1340000 -64.8770000  -6.2788927 -32.2456567 -65.7660310
  -7.8320000 -33.0170000 -64.5630000  -8.7203588 -32.4133922 -64.3770551
  -8.1470000 -34.0230000 -65.6820000  -7.2085579 -34.5106986 -65.9457721
  -8.8338041 -34.7593805 -65.2646945  -8.7660000 -33.4010000 -66.9320000
  -9.7012060 -32.8988550 -66.6843287  -8.0797061 -32.6863342 -67.3862605
  -9.0420000 -34.5320000 -67.9120000  -9.8280000 -35.4480000 -67.5480000
  -8.4710000 -34.4980000 -69.0340000  -7.5070000 -33.8390000 -63.3500000
  -8.3100000 -33.9200000 -62.4210000  -6.3340000 -34.5050000 -63.3540000
  -5.7570278 -34.4506778 -64.1811949  -5.9150000 -35.3750000 -62.2850000
  -6.7891507 -35.8979471 -61.8970747  -4.8820000 -36.4160000 -62.7390000
  -4.0361763 -35.9980995 -63.2849311  -4.5156009 -37.0674422 -61.9456056
  -5.6200000 -37.2850000 -63.6970000  -6.6060000 -38.1270000 -63.2380000
  -6.8366833 -38.1505737 -62.1729510  -7.2980000 -38.9340000 -64.1090000
  -8.0780187 -39.5961497 -63.7331951  -7.0080000 -38.9070000 -65.4510000
  -7.5561897 -39.5427568 -66.1462706  -6.0200000 -38.0720000 -65.9160000
  -5.7827174 -38.0488726 -66.9796081  -5.3310000 -37.2660000 -65.0400000
  -4.5475709 -36.6042500 -65.4093585  -5.3880000 -34.6600000 -61.0710000
  -5.6630000 -35.0730000 -59.9450000  -4.6150000 -33.5680000 -61.2480000
  -4.4251797 -33.1858191 -62.1634263  -4.0360000 -32.9170000 -60.1040000
  -3.9321843 -31.8496833 -60.2993372  -4.6730766 -33.0660037 -59.2322027
  -2.6760000 -33.4980000 -59.8220000  -2.2160000 -33.4710000 -58.6810000
  -1.9970000 -34.0570000 -60.8500000  -2.3914606 -34.0841796 -61.7793877
  -0.6810000 -34.6130000 -60.6490000  -0.4264992 -34.5155282 -59.5936196
  -0.5730000 -36.0960000 -61.0460000   0.4175012 -36.4928010 -60.8233891
  -1.3271441 -36.6964541 -60.5372549  -0.8340000 -36.3610000 -62.8260000
  -0.6748002 -37.6810693 -62.7948423   0.3030000 -33.8570000 -61.4990000
  -0.0720000 -33.2130000 -62.4780000   1.6060000 -33.9080000 -61.1250000
   1.8898946 -34.4500015 -60.3214221   2.6210000 -33.2120000 -61.8720000
   2.2259762 -32.9230332 -62.8459372   3.1480000 -31.9530000 -61.1620000
   3.5551754 -32.2275847 -60.1889062   3.9307449 -31.4950148 -61.7666985
   2.3319871 -31.2431393 -61.0266486   3.7970000 -34.1250000 -62.0710000
   4.1560000 -34.8970000 -61.1830000   4.4360000 -34.0470000 -63.2610000
   4.1360755 -33.3904505 -63.9674611   5.5730000 -34.8810000 -63.5440000
   5.8270216 -35.4394369 -62.6430447   5.3290000 -35.8550000 -64.6590000
   5.1335157 -35.3177741 -65.5870487   6.5840000 -36.7280000 -64.8270000
   6.7798667 -37.2659277 -63.8994389   6.4245646 -37.4428527 -65.6342577
   7.4382819 -36.0948134 -65.0665364   4.2100000 -36.6750000 -64.3560000
   4.0627464 -37.2938416 -65.0749936   6.7110000 -33.9960000 -63.9600000
   6.5300000 -33.0520000 -64.7270000   7.9360000 -34.3020000 -63.4740000
   8.0745895 -35.1226442 -62.9017803   9.0730000 -33.4700000 -63.7590000
   8.7195613 -32.5434064 -64.2113324   9.8940000 -33.1230000 -62.5050000
  10.7206011 -32.4707360 -62.7867473   9.2538556 -32.6084950 -61.7883413
  10.4070000 -34.3090000 -61.9150000  10.9174019 -34.0829470 -61.1339816
   9.9840000 -34.1790000 -64.7160000  10.1820000 -35.3890000 -64.6200000
  10.5570000 -33.4250000 -65.6820000  10.4109324 -32.4258584 -65.7039033
  11.4290000 -34.0080000 -66.6650000  11.5956387 -35.0538402 -66.4070289
  10.8510000 -33.9390000 -68.0890000  10.6202763 -32.9045388 -68.3434715
  11.5677682 -34.3379874 -68.8067412   9.6020000 -34.7510000 -68.1310000
   8.3900000 -34.1790000 -67.8150000   8.3535358 -33.1270579 -67.5318259
   7.2330000 -34.9210000 -67.8540000   6.2786130 -34.4566280 -67.6057945
   7.2800000 -36.2480000 -68.2080000   6.0950000 -37.0120000 -68.2490000
   5.3142681 -36.5063172 -68.0116348   8.4870000 -36.8280000 -68.5200000
   8.5288066 -37.8806001 -68.7999746   9.6410000 -36.0810000 -68.4790000
  10.5978033 -36.5422995 -68.7236025  12.7140000 -33.2330000 -66.7040000
  12.7080000 -32.0080000 -66.8050000  13.8610000 -33.9420000 -66.6530000
  13.8315122 -34.9484217 -66.5733431  15.1460000 -33.3010000 -66.7200000
  15.0826120 -32.2253989 -66.5551870  16.1600000 -33.8930000 -65.7800000
  15.8028394 -33.8180039 -64.7529108  16.3620000 -35.3720000 -66.1450000
  16.7196223 -35.4477841 -67.1718708  17.0952430 -35.8160534 -65.4717452
  15.4146193 -35.9027234 -66.0506518  17.4500000 -33.0570000 -65.7770000
  17.9391274 -33.2055352 -66.7397006  17.1623355 -32.0107220 -65.6737968
  18.4140000 -33.4330000 -64.6530000  18.7024942 -34.4790882 -64.7558127
  19.3025598 -32.8042804 -64.7102039  17.9257010 -33.2842770 -63.6899084
  15.6490000 -33.4670000 -68.1220000  15.6350000 -34.5710000 -68.6660000
  16.0820000 -32.3550000 -68.7540000  16.1271492 -31.4675409 -68.2739195
  16.5380000 -32.4170000 -70.1190000  16.4868769 -33.4505233 -70.4615130
  15.6880000 -31.5450000 -71.0590000  15.8387934 -30.5543745 -70.6300225
  16.0425122 -31.5518361 -72.0897155  14.1870000 -31.8940000 -71.0300000
  13.8168855 -31.7562939 -70.0140506  13.3900000 -30.9980000 -71.9910000
  13.7592601 -31.1355120 -73.0072855  12.3346756 -31.2674710 -71.9488498
  13.5099510 -29.9545816 -71.6994693  13.9480000 -33.3960000 -71.2620000
  14.4484348 -33.9689024 -70.4813289  12.8781332 -33.6027060 -71.2344521
  14.3478633 -33.6820533 -72.2348216  17.9380000 -31.8800000 -70.1810000
  18.2970000 -30.9530000 -69.4580000  18.7510000 -32.4720000 -71.0150000
  18.6280000 -33.8940000 -71.2910000  17.9604234 -34.0209911 -72.1432412
  18.1942368 -34.3767331 -70.4152619  20.0560000 -34.3820000 -71.5820000
  20.0501044 -35.1004462 -72.4016947  20.4840960 -34.8477804 -70.6943718
  20.8280000 -33.1060000 -71.9590000  20.7833003 -32.8993157 -73.0282907
  21.8698151 -33.1575517 -71.6426722  20.1030000 -32.0060000 -71.1870000
  20.5647096 -31.9362226 -70.2020870  20.1620000 -30.6720000 -71.8600000
  21.1280000 -29.9380000 -71.6530000  19.1450000 -30.3460000 -72.6760000
  18.3603526 -30.9768619 -72.7562556  19.1190000 -29.1300000 -73.4330000
  20.0364456 -29.0620302 -74.0176135  17.9170000 -29.0550000 -74.3930000
  17.0204558 -29.2193234 -73.7952496  17.8991913 -28.0455309 -74.8037979
  17.9600000 -30.0710000 -75.5380000  17.3540020 -29.7145351 -76.3709466
  18.9902786 -30.2020109 -75.8688495  17.4110000 -31.4060000 -75.0450000
  17.1050000 -31.5170000 -73.8280000  17.2870000 -32.3350000 -75.8870000
  19.0210000 -27.9600000 -72.5040000  19.5970000 -26.9060000 -72.7740000
  18.2720000 -28.1060000 -71.3900000  17.8548800 -28.9943029 -71.1511941
  18.0720000 -26.9980000 -70.4980000  18.2610225 -26.0681851 -71.0344830
  16.6370000 -26.9630000 -69.9440000  16.5415874 -27.9394893 -69.4691691
  16.4866266 -26.1812635 -69.1994358  15.5770000 -26.8260000 -71.0530000
  15.6748057 -27.6744452 -71.7302559  14.1530000 -26.7950000 -70.4730000
  14.0542820 -25.9464933 -69.7959550  13.4316922 -26.6975825 -71.2843727
  13.9623180 -27.7189219 -69.9270063  15.8740000 -25.6180000 -71.9570000
  16.8512559 -25.7438800 -72.4230736  15.1096171 -25.5458943 -72.7307059
  15.8719483 -24.7067463 -71.3589102  19.0060000 -27.1370000 -69.3310000
  18.6600000 -27.7360000 -68.3130000  20.2390000 -26.6210000 -69.4860000
  20.4656753 -26.2142224 -70.3822420  21.2590000 -26.6500000 -68.4730000
  21.2220846 -27.6116262 -67.9611295  22.6660000 -26.4600000 -69.0600000
  22.6614083 -25.5428203 -69.6489478  23.3633629 -26.3540758 -68.2289975
  23.1000000 -27.6300000 -69.9430000  22.3196823 -27.9045267 -70.6528170
  24.0163769 -27.3946678 -70.4842709  23.3660000 -28.8170000 -69.0300000
  24.4030000 -28.8850000 -68.3720000  22.4060000 -29.7780000 -68.9820000
  22.5345348 -30.5868071 -68.3908897  21.5684190 -29.6789764 -69.5376562
  21.0890000 -25.6120000 -67.3940000  21.2730000 -25.9120000 -66.2150000
  20.7320000 -24.3590000 -67.7610000  20.4391307 -24.1470949 -68.7040923
  20.7670000 -23.2840000 -66.7970000  21.3079254 -23.6295678 -65.9160450
  21.4530000 -22.0120000 -67.3280000  21.0258277 -21.7417908 -68.2937174
  21.3101928 -21.1908478 -66.6255649  22.9420000 -22.2870000 -67.4910000
  23.4250000 -23.3070000 -66.9310000  23.6170000 -21.4740000 -68.1770000
  19.3900000 -22.8760000 -66.3720000  18.3960000 -23.1790000 -67.0290000
  19.3210000 -22.1740000 -65.2150000  20.1735856 -21.9885279 -64.7062789
  18.0850000 -21.6790000 -64.6760000  17.2958297 -22.4228758 -64.7853536
  18.2021124 -21.4265375 -63.6221277  17.7000000 -20.4450000 -65.4330000
  18.5570000 -19.6920000 -65.8950000  16.3800000 -20.1890000 -65.5540000
  15.6730434 -20.7558617 -65.1079288  15.9570000 -19.0580000 -66.3250000
  16.7349007 -18.2949218 -66.2988972  15.6900000 -19.4380000 -67.7920000
  16.6383936 -19.8926925 -68.0781879  14.8931324 -20.1768312 -67.8770330
  15.3900000 -18.2530000 -68.7210000  14.5575558 -17.6842806 -68.3066382
  16.6180000 -17.3380000 -68.8570000  17.4507775 -17.9059382 -69.2717609
  16.3802582 -16.5061108 -69.5199780  16.8948227 -16.9523180 -67.8758176
  14.8500000 -18.7340000 -70.0780000  13.9294184 -19.2970539 -69.9243792
  14.6466810 -17.8728997 -70.7146073  15.5905673 -19.3734973 -70.5583148
  14.6790000 -18.5270000 -65.7490000  13.8090000 -19.2930000 -65.3370000
  14.5390000 -17.1840000 -65.7060000  15.2787748 -16.5812599 -66.0369638
  13.3420000 -16.5760000 -65.1970000  12.5180515 -17.2803444 -65.3114858
  13.4540000 -16.1880000 -63.7140000  12.5433615 -15.6743558 -63.4057691
  13.5831300 -17.0889238 -63.1141986  14.5680000 -15.3300000 -63.5240000
  14.6332174 -15.0908972 -62.5965431  13.0710000 -15.3270000 -65.9900000
  13.9450000 -14.8150000 -66.6880000  11.8300000 -14.8050000 -65.8850000
  11.1497293 -15.3057510 -65.3313038  11.4150000 -13.5930000 -66.5450000
  10.3662754 -13.4078767 -66.3126096  12.2400000 -12.3700000 -66.1040000
  13.3127942 -12.5105631 -66.2361131  11.9328706 -11.4438980 -66.5899080
  12.0110000 -12.1810000 -64.6410000  10.8900000 -11.5290000 -64.1810000
  10.1612212 -11.1465788 -64.8956575  10.6850000 -11.3580000 -62.8310000
   9.7921387 -10.8408920 -62.4795761  11.6020000 -11.8370000 -61.9270000
  11.4429681 -11.7029166 -60.8570325  12.7260000 -12.4890000 -62.3790000
  13.4570077 -12.8731078 -61.6675303  12.9270000 -12.6560000 -63.7290000
  13.8192056 -13.1691599 -64.0877979  11.5250000 -13.7180000 -68.0390000
  11.8300000 -12.7450000 -68.7280000  11.2750000 -14.9270000 -68.5750000
  11.0395447 -15.6840921 -67.9493231  11.3030000 -15.1940000 -69.9890000
  11.9471660 -14.4601592 -70.4733831  11.8330000 -16.5980000 -70.3080000
  11.6503094 -16.8406891 -71.3548168  12.8981776 -16.6884784 -70.0951377
  11.1420000 -17.6530000 -69.4960000  11.5560000 -18.0480000 -68.2430000
  10.6830000 -18.9980000 -67.8240000  10.8615273 -19.4292789 -66.8389997
   9.7400000 -19.2380000 -68.7170000   8.9617368 -19.8811815 -68.6900954
  10.0320000 -18.3890000 -69.7700000   9.3987114 -18.3831922 -70.6571376
   9.9020000 -15.1090000 -70.5370000   8.9350000 -14.9840000 -69.7890000
   9.7710000 -15.1480000 -71.8840000  10.5946221 -15.2362410 -72.4618922
   8.4840000 -15.1030000 -72.5310000   7.6932226 -14.7840479 -71.8520009
   8.4640000 -14.2140000 -73.7430000   9.1918736 -14.5681324 -74.4729928
   7.0570000 -14.2510000 -74.3630000   6.3285859 -13.8965441 -73.6337025
   7.0304663 -13.6092621 -75.2436639   6.8133629 -15.2734561 -74.6516626
   8.9290000 -12.8090000 -73.3300000   9.9406114 -12.8641055 -72.9278708
   8.9196420 -12.1522887 -74.1999094   8.2570908 -12.4124715 -72.5688141
   8.1520000 -16.4930000 -72.9950000   9.0380000 -17.2550000 -73.3800000
   6.8510000 -16.8690000 -72.9420000   6.1327034 -16.2337207 -72.6248730
   6.4580000 -18.1880000 -73.3630000   7.3269606 -18.6801648 -73.7997842
   5.9200000 -19.0650000 -72.2170000   5.7469746 -20.0752259 -72.5879516
   6.6541458 -19.0949167 -71.4118696   4.7010000 -18.5260000 -71.7260000
   4.3717610 -19.0773877 -71.0124363   5.3560000 -18.0710000 -74.3730000
   4.3810000 -17.3510000 -74.1650000   5.4880000 -18.7940000 -75.5040000
   6.2919176 -19.3911154 -75.6354117   4.4820000 -18.7710000 -76.5290000
   3.6175449 -18.1892618 -76.2090044   4.9980000 -18.2260000 -77.8320000
   5.8155331 -18.8464314 -78.1991580   3.8470000 -18.2390000 -78.8520000
   3.0292231 -17.6183673 -78.4857262   4.2012203 -17.8468447 -79.8053325
   3.4936532 -19.2610139 -78.9888677   5.5870000 -16.8200000 -77.6190000
   4.7532169 -16.1435414 -77.4310899   6.2238928 -16.8650016 -76.7355738
   6.4000000 -16.3080000 -78.8070000   5.7636128 -16.2622817 -79.6907540
   6.7829192 -15.3121966 -78.5837340   7.2342879 -16.9837437 -78.9952392
   4.0730000 -20.1950000 -76.7520000   4.9220000 -21.0670000 -76.9340000
   2.7520000 -20.4760000 -76.7390000   2.0364564 -19.7710214 -76.6336349
   2.3430000 -21.8440000 -76.8870000   3.2312314 -22.4623594 -77.0165218
   1.5430000 -22.3780000 -75.6860000   0.6457023 -21.7744748 -75.5492000
   1.2588104 -23.4141180 -75.8698370   2.1569632 -22.3242283 -74.7869688
   1.4720000 -21.9870000 -78.0900000   0.5470000 -21.2060000 -78.3110000
   1.7800000 -23.0040000 -78.9180000   2.5916582 -23.5773165 -78.7373943
   0.9750000 -23.3090000 -80.0600000  -0.0306329 -22.9253033 -79.8880159
   1.5200000 -22.6940000 -81.3600000   1.6404335 -21.6254573 -81.1816420
   2.4961525 -23.1438708 -81.5412252   0.6250000 -22.9090000 -82.5820000
   0.7778579 -23.9297586 -82.9324101  -0.4101535 -22.7859062 -82.2635549
   0.9290000 -21.9290000 -83.7180000   0.7659567 -20.8995258 -83.3990977
   1.9554144 -22.0425277 -84.0668330   0.0050000 -22.2310000 -84.8470000
  -0.9713674 -21.9735231 -84.8243776   0.4790000 -22.8910000 -85.9430000
   1.7990000 -23.2340000 -86.0050000   2.4154794 -22.9975865 -85.2406952
   2.1531401 -23.7226254 -86.8148948  -0.3560000 -23.1930000 -86.9810000
  -1.3290858 -22.9261385 -86.9364010   0.0034200 -23.6818109 -87.7884527
   0.9790000 -24.7980000 -80.1810000   2.0340000 -25.4170000 -80.3150000
  -0.2140000 -25.4210000 -80.1160000  -1.0764800 -24.9243546 -79.9440381
  -0.2670000 -26.8460000 -80.2560000  -1.3044823 -27.1613641 -80.1452067
   0.2590000 -27.3520000 -81.6120000   1.2269954 -26.9054084 -81.8392445
   0.3490851 -28.4382185 -81.6226774  -0.7350000 -26.9350000 -82.6900000
  -1.9140000 -26.7210000 -82.4150000  -0.2490000 -26.8250000 -83.9550000
  -0.8649595 -26.5518166 -84.7073726   0.7258076 -27.0169617 -84.1366638
   0.5340000 -27.4770000 -79.1550000   0.4520000 -27.0900000 -77.9910000
   1.2950000 -28.5210000 -79.5300000   1.2101290 -28.7384964 -80.5126452
   2.1250000 -29.3670000 -78.7130000   1.5827617 -29.6056492 -77.7980555
   2.5140000 -30.6830000 -79.4120000   3.1125216 -31.2886316 -78.7314991
   1.6153799 -31.2327076 -79.6920061   3.3270000 -30.3700000 -80.6610000
   3.3550000 -29.1800000 -81.0710000   3.9270000 -31.3230000 -81.2260000
   3.3900000 -28.6940000 -78.2420000   4.1380000 -29.2920000 -77.4670000
   3.7290000 -27.4920000 -78.7490000   3.1308251 -26.9708965 -79.3740899
   5.0070000 -26.9240000 -78.3930000   5.5410593 -27.6160065 -77.7418419
   5.8610000 -26.6390000 -79.5930000   6.8076427 -26.2011958 -79.2763055
   6.1300000 -27.9570000 -80.3380000   5.1837838 -28.3951907 -80.6554327
   6.7503562 -27.7605977 -81.2124618   6.6468113 -28.6508096 -79.6749503
   5.1950000 -25.7210000 -80.4470000   5.7440965 -25.5409210 -81.2135930
   4.8820000 -25.6280000 -77.6430000   3.8660000 -24.9380000 -77.7110000
   5.9420000 -25.2990000 -76.8630000   6.7038992 -25.9577988 -76.7882129
   6.0490000 -24.0510000 -76.1590000   5.3169166 -23.3300554 -76.5228570
   5.8940000 -24.1830000 -74.6710000   6.0734360 -23.2211156 -74.1907081
   4.4590000 -24.6460000 -74.3700000   4.2789577 -25.6081109 -74.8496127
   4.3278423 -24.7474528 -73.2926860   3.7514791 -23.9111234 -74.7540210
   6.9690000 -25.1460000 -74.1430000   7.9577010 -24.7512359 -74.3769524
   6.8659217 -25.2494771 -73.0628301   6.8469215 -26.1212799 -74.6141972
   7.4250000 -23.5130000 -76.4290000   8.4160000 -24.2330000 -76.3190000
   7.5160000 -22.2150000 -76.7890000   6.6860439 -21.6395709 -76.8013896
   8.7750000 -21.6010000 -77.1060000   9.4836567 -22.3898595 -77.3582014
   8.7030000 -20.6090000 -78.2830000   7.9584376 -19.8436032 -78.0641535
   9.6735572 -20.1374619 -78.4371769   8.3080000 -21.3480000 -79.5170000
   9.2370000 -22.0500000 -80.2520000  10.2764699 -22.0692382 -79.9245375
   8.8620000 -22.7240000 -81.3920000   9.6042682 -23.2806002 -81.9641328
   7.5520000 -22.7000000 -81.8060000   7.1640000 -23.3890000 -82.9750000
   7.8942954 -23.8411482 -83.4037544   6.6200000 -21.9980000 -81.0810000
   5.5799243 -21.9726097 -81.4061127   7.0010000 -21.3270000 -79.9440000
   6.2633287 -20.7685880 -79.3677040   9.2010000 -20.8050000 -75.9110000
   8.3840000 -20.1430000 -75.2720000  10.5020000 -20.8780000 -75.5660000
  11.1450529 -21.4434275 -76.1016062  11.0140000 -20.1420000 -74.4450000
  10.2148701 -19.6414505 -73.8982452  11.8060000 -20.9990000 -73.5000000
  12.5993894 -21.5139002 -74.0417670  12.4250000 -20.0970000 -72.4210000
  11.6321479 -19.5820827 -71.8784631  13.0039647 -20.7055174 -71.7263006
  13.0786164 -19.3626289 -72.8917269  10.9080000 -22.1110000 -72.9300000
  10.5917181 -22.7369213 -73.7644394  11.5138098 -22.7015420 -72.2427198
   9.6780000 -21.5810000 -72.1970000   9.0714187 -20.9907003 -72.8838080
   9.0897058 -22.4180643 -71.8210578   9.9935107 -20.9553188 -71.3620893
  11.9210000 -19.0810000 -74.9950000  12.8680000 -19.3750000 -75.7220000
  11.6370000 -17.8030000 -74.6580000  10.9104758 -17.6103807 -73.9833448
  12.3810000 -16.6940000 -75.1950000  13.1406876 -17.0800186 -75.8746790
  11.4920000 -15.6960000 -75.9650000  10.6389040 -15.5549894 -75.3013416
  12.0244361 -14.7515244 -76.0771505  10.9970000 -16.1720000 -77.3420000
  10.5559190 -17.1624552 -77.2299876   9.9500000 -15.2080000 -77.9200000
  10.3905140 -14.2173761 -78.0327408   9.6192810 -15.5709008 -78.8931540
   9.0962056 -15.1507033 -77.2448314  12.1760000 -16.3500000 -78.3120000
  12.8679716 -17.0908838 -77.9115428  11.8035752 -16.6869490 -79.2794019
  12.6937134 -15.3985729 -78.4338945  13.0110000 -15.8850000 -74.0980000
  12.4170000 -15.6530000 -73.0460000  14.2640000 -15.4460000 -74.3350000
  14.7377068 -15.7876987 -75.1589801  14.9610000 -14.5210000 -73.4820000
  15.9624282 -14.3609633 -73.8815359  14.4189091 -13.5754102 -73.4721609
  15.0720000 -15.0330000 -72.0810000  15.3850000 -16.1990000 -71.8430000
  14.8220000 -14.1340000 -71.1040000  14.5597874 -13.1873741 -71.3390387
  14.9190000 -14.4880000 -69.7190000  14.1476424 -13.9738590 -69.1456191
  14.8034907 -15.5651171 -69.5982704  16.2640000 -14.0810000 -69.2010000
  17.1200000 -13.6050000 -69.9460000  16.4560000 -14.2520000 -67.8740000
  15.7086065 -14.6491464 -67.3228403  17.6780000 -13.8980000 -67.2090000
  18.4503783 -13.7126265 -67.9554366  17.5140000 -12.6320000 -66.3450000
  17.1934309 -11.7995242 -66.9713535  16.7623893 -12.8195238 -65.5781778
  18.7530000 -12.1790000 -65.6300000  18.8830000 -12.1730000 -64.2590000
  20.1230000 -11.6970000 -63.9850000  20.3990664 -11.6222828 -62.9331903
  20.7970000 -11.3990000 -65.0810000  21.7306998 -11.0312862 -65.1954162
  19.9320000 -11.7030000 -66.1160000  20.2426986 -11.5481435 -67.1492411
  18.0630000 -15.0500000 -66.3270000  17.2190000 -15.6320000 -65.6490000
  19.3630000 -15.4190000 -66.3410000  20.0290633 -14.9130298 -66.9070858
  19.8440000 -16.5000000 -65.5260000  18.9859466 -17.0591530 -65.1529162
  20.7670000 -17.4660000 -66.2860000  20.2182787 -17.8955125 -67.1241665
  21.6279287 -16.9127764 -66.6612938  21.2110000 -18.5070000 -65.4280000
  21.7855439 -19.1010706 -65.9164457  20.6480000 -15.8740000 -64.4310000
  21.6170000 -15.1670000 -64.6890000  20.2600000 -16.1320000 -63.1670000
  19.5009295 -16.7732255 -62.9860548  20.8950000 -15.4950000 -62.0470000
  20.8643297 -14.4171717 -62.2065137  20.2280000 -15.8120000 -60.6930000
  20.0585446 -16.8874246 -60.7463492  20.8990956 -15.5911898 -59.8629557
  18.8880000 -15.0930000 -60.4730000  18.1993524 -15.3893532 -61.2642270
  18.2830000 -15.4530000 -59.1060000  18.9709215 -15.1565066 -58.3141954
  17.3354741 -14.9295759 -58.9782397  18.1131214 -16.5284791 -59.0551444
  19.0520000 -13.5740000 -60.6490000  19.4048606 -13.3606190 -61.6579883
  18.0918631 -13.0834243 -60.4890820  19.7756763 -13.1998430 -59.9248466
  22.3350000 -15.8800000 -61.9010000  23.1820000 -15.0190000 -61.6650000
  22.6670000 -17.1760000 -62.0310000  22.0144615 -17.8924312 -62.3156387
  24.0230000 -17.5610000 -61.7540000  24.2813458 -17.2520420 -60.7411320
  24.2390000 -19.0800000 -61.8750000  23.9931185 -19.4030363 -62.8865779
  25.2811870 -19.3174560 -61.6615493  23.5958899 -19.5968420 -61.1626918
  24.9620000 -16.8990000 -62.7170000  25.9640000 -16.3110000 -62.3110000
  24.6490000 -16.9770000 -64.0220000  23.7828267 -17.4223129 -64.2894689
  25.4760000 -16.4200000 -65.0560000  26.5123686 -16.7032674 -64.8721553
  25.0710000 -16.9180000 -66.4530000  24.0391315 -16.6293761 -66.6531071
  25.7250451 -16.4674954 -67.1995726  25.1870000 -18.3320000 -66.5140000
  24.9328642 -18.6364862 -67.3882443  25.3250000 -14.9310000 -65.0720000
  26.2700000 -14.2090000 -65.3900000  24.1320000 -14.4380000 -64.6910000
  23.4203817 -15.0698357 -64.3526476  23.8250000 -13.0370000 -64.7520000
  22.8226553 -12.8830955 -64.3523530  24.8140000 -12.1710000 -63.9480000
  24.9426777 -12.5717895 -62.9425603  25.7822350 -12.1236723 -64.4463785
  24.2520000 -10.7590000 -63.8410000  23.2360000 -10.4310000 -64.4520000
  24.9360000  -9.8950000 -63.0430000  24.6089423  -8.9455629 -62.9348229
  25.7677422 -10.2069412 -62.5623770  23.8680000 -12.5950000 -66.1840000
  24.3250000 -11.4930000 -66.4870000  23.3720000 -13.4420000 -67.1100000
  22.9610420 -14.3289110 -66.8558313  23.3940000 -13.0750000 -68.4970000
  23.6959944 -12.0351919 -68.6222904  24.2820000 -13.9570000 -69.3260000
  23.9747421 -14.9981472 -69.2274837  24.1530000 -13.5220000 -70.7940000
  24.4605451 -12.4810209 -70.8933944  24.7903495 -14.1496679 -71.4168318
  23.1164633 -13.6262831 -71.1146493  25.7270000 -13.9050000 -68.8020000
  26.1273720 -12.9201345 -69.0425059  25.6873994 -14.0260906 -67.7194713
  26.6300000 -14.9820000 -69.4020000  26.6704680 -14.8612621 -70.4845362
  27.6340315 -14.8868012 -68.9885303  26.2304938 -15.9672187 -69.1615033
  22.0090000 -13.2070000 -69.0480000  21.2090000 -14.0170000 -68.5820000
  21.6740000 -12.3640000 -70.0450000  22.3021669 -11.6446802 -70.3737624
  20.3900000 -12.4830000 -70.6710000  19.7579245 -13.1173871 -70.0496042
  19.6890000 -11.1270000 -70.8620000  20.3902782 -10.4457419 -71.3438668
  18.8260203 -11.2778793 -71.5105380  19.2280000 -10.5270000 -69.5310000
  18.4498223 -11.1837263 -69.1420901  20.0879656 -10.5473869 -68.8615632
  18.6890000  -9.0980000 -69.6250000  19.4831679  -8.3863086 -69.8505917
  17.9043155  -9.0164674 -70.3771450  18.1110000  -8.7620000 -68.2940000
  17.1198279  -8.8554244 -68.1238558  18.9070000  -8.3130000 -67.2790000
  20.2470000  -8.1570000 -67.4780000  20.6493966  -8.3745145 -68.3784801
  20.8310823  -7.8246438 -66.7240194  18.3620000  -8.0280000 -66.0620000
  17.3702175  -8.1500817 -65.9151546  18.9525426  -7.6960948 -65.3128691
  20.6380000 -13.1080000 -72.0090000  20.9800000 -12.4420000 -72.9840000
  20.4650000 -14.4010000 -72.0510000  19.7040000 -15.1190000 -71.0430000
  18.7988092 -14.5538226 -70.8209542  20.3104728 -15.2017338 -70.1410882
  19.4050000 -16.4880000 -71.6760000  18.4094726 -16.4944771 -72.1198268
  19.4738485 -17.2777143 -70.9278606  20.5000000 -16.6490000 -72.7480000
  20.1615607 -17.2513584 -73.5910434  21.4178015 -17.0751522 -72.3428650
  20.7490000 -15.2130000 -73.2030000  21.7997994 -15.0670782 -73.4532513
  19.9010000 -14.8830000 -74.3960000  18.7080000 -14.6290000 -74.2650000
  20.5480000 -14.9060000 -75.5660000  21.5310552 -15.0870041 -75.4212958
  20.0830000 -14.7150000 -76.9070000  19.4561841 -13.8235227 -76.9286606
  21.2300000 -14.5330000 -77.9120000  21.8613378 -15.4215379 -77.9083986
  20.8187649 -14.3841649 -78.9104158  21.8251004 -13.6639460 -77.6314651
  19.2660000 -15.8930000 -77.3630000  18.7950000 -15.9070000 -78.4940000
  19.2450000 -16.9910000 -76.5890000  19.6908928 -16.9741454 -75.6829123
  18.6660000 -18.2330000 -77.0440000  18.9333691 -18.3858199 -78.0895903
  19.1610000 -19.4370000 -76.2300000  18.9543103 -19.3238209 -75.1657777
  18.7087385 -20.3606261 -76.5912124  20.6660000 -19.5240000 -76.4260000
  21.1770000 -19.3020000 -77.5220000  21.4010000 -19.8420000 -75.3280000
  22.4058699 -19.9136419 -75.4001364  20.9390613 -20.0052578 -74.4447898
  17.1590000 -18.3160000 -77.0640000  16.4400000 -17.5800000 -76.3880000
  16.6720000 -19.2600000 -77.9120000  17.3866217 -19.7471536 -78.4336287
  15.2980000 -19.6480000 -78.1090000  14.6767625 -19.1054577 -77.3963915
  14.7920000 -19.3470000 -79.5320000  14.8042048 -18.2571211 -79.5426912
  15.4794032 -19.7249761 -80.2887767  13.3680000 -19.8470000 -79.8370000
  13.3602727 -20.9325873 -79.7393205  12.3270000 -19.2400000 -78.8840000
  12.3338165 -18.1543873 -78.9814549  11.3372454 -19.6206994 -79.1361004
  12.5703209 -19.5136467 -77.8573487  13.0120000 -19.6180000 -81.3150000
  13.7162553 -20.1590825 -81.9469443  12.0014950 -19.9792218 -81.5060490
  13.0654945 -18.5531084 -81.5413696  15.2470000 -21.1380000 -77.9030000
  16.1190000 -21.8590000 -78.3860000  14.2360000 -21.6420000 -77.1580000
  13.4861422 -21.0500824 -76.8302101  14.1520000 -23.0560000 -76.9000000
  14.9598762 -23.5547729 -77.4354071  14.2660000 -23.4020000 -75.4040000
  13.4499157 -22.9208773 -74.8649020  14.2003910 -24.4821019 -75.2729453
  15.5700000 -22.9150000 -74.8690000  16.6940000 -23.7070000 -74.9090000
  16.6307664 -24.7053978 -75.3417849  17.8900000 -23.2490000 -74.4090000
  18.7746256 -23.8847256 -74.4463147  17.9700000 -21.9920000 -73.8600000
  19.1950000 -21.5170000 -73.3450000  19.9089988 -22.1532426 -73.4286709
  16.8540000 -21.1940000 -73.8150000  16.9113750 -20.1952414 -73.3822301
  15.6610000 -21.6580000 -74.3180000  14.7726420 -21.0273731 -74.2829316
  12.7840000 -23.5210000 -77.2940000  11.7790000 -22.9000000 -76.9500000
  12.7120000 -24.6510000 -78.0250000  13.5422941 -25.1601801 -78.2922952
  11.4330000 -25.1940000 -78.3900000  10.6729528 -24.4354261 -78.2029357
  11.3480000 -25.6210000 -79.8620000  11.5583625 -24.7398494 -80.4681522
  12.1231032 -26.3691402 -80.0281363   9.9890000 -26.1990000 -80.2580000
   9.8587639 -27.1434393 -79.7296310   9.2192629 -25.4959895 -79.9395930
   9.8700000 -26.4370000 -81.7630000   8.8811997 -26.8518025 -81.9587343
   9.9643182 -25.4727664 -82.2624567  10.9390000 -27.3940000 -82.2960000
  11.9197919 -27.0557455 -81.9617370  10.7484086 -28.3944228 -81.9075050
  10.9060000 -27.4250000 -83.7740000  11.0830107 -26.4981642 -84.1341975
  11.6150518 -28.0591903 -84.1133350   9.9973984 -27.7388176 -84.0839368
  11.2450000 -26.4340000 -77.5700000  12.1430000 -27.2710000 -77.4820000
  10.0710000 -26.5670000 -76.9220000   9.3655267 -25.8455745 -76.9661816
   9.7890000 -27.7470000 -76.1600000  10.5820587 -28.4866404 -76.2699509
   9.5480000 -27.4840000 -74.6980000   8.8319980 -26.6708473 -74.5787342
   8.9820000 -28.7620000 -74.0600000   9.6976942 -29.5755403 -74.1784678
   8.8009948 -28.5896223 -72.9990458   8.0452049 -29.0287766 -74.5492283
  10.8370000 -26.9760000 -74.0270000  11.5492242 -27.8011265 -74.0250769
  11.2247102 -26.1634915 -74.6415000  10.6300000 -26.4780000 -72.5950000
  10.2427138 -27.2901428 -71.9797494  11.5814234 -26.1361031 -72.1875699
   9.9181975 -25.6525088 -72.5961725   8.5500000 -28.3540000 -76.7340000
   7.5120000 -27.7010000 -76.8410000   8.6410000 -29.6400000 -77.1250000
   9.5053674 -30.1487225 -77.0059634   7.5290000 -30.3200000 -77.7200000
   6.7082166 -29.6141065 -77.8469968   7.8830000 -30.9170000 -79.0970000
   8.2826635 -30.0987630 -79.6960463   8.6658707 -31.6551426 -78.9227615
   6.7200000 -31.5740000 -79.8430000   6.5182250 -32.5329686 -79.3657506
   5.8495578 -30.9263404 -79.7382647   7.0150000 -31.7960000 -81.3300000
   8.0174398 -32.1979757 -81.4770678   6.2848089 -32.4683305 -81.7804356
   6.9270000 -30.4690000 -82.0100000   6.1643792 -29.8375934 -81.8104141
   7.8750000 -30.0810000 -82.9140000   8.9620000 -30.8740000 -83.1490000
   9.0626210 -31.7477683 -82.6525079   9.6602949 -30.5830643 -83.8182088
   7.7390000 -28.9010000 -83.5860000   6.9349520 -28.3147136 -83.4131555
   8.4430051 -28.6192828 -84.2531664   7.1300000 -31.4200000 -76.7870000
   7.9790000 -32.1090000 -76.2210000   5.8070000 -31.5880000 -76.5780000
   5.1300122 -31.0178257 -77.0645061   5.3250000 -32.6030000 -75.6830000
   6.1403228 -33.1959210 -75.2685213   4.5050000 -32.0550000 -74.5490000
   3.6496551 -31.5066374 -74.9436933   4.0080000 -33.2250000 -73.6820000
   4.8628451 -33.7735968 -73.2865479   3.4115815 -32.8379412 -72.8558215
   3.3970023 -33.8934607 -74.2885836   5.3610000 -31.0330000 -73.7810000
   5.6544712 -30.2262915 -74.4527128   4.7827594 -30.6232849 -72.9528267
   6.2530889 -31.5243337 -73.3925807   4.4420000 -33.5180000 -76.4730000
   3.5930000 -33.0710000 -77.2430000   4.6340000 -34.8410000 -76.2910000
   5.3136767 -35.1569453 -75.6140085   3.8800000 -35.8290000 -77.0110000
   3.3396525 -35.3405864 -77.8219106   4.7810000 -36.9250000 -77.6100000
   5.6390716 -36.4724169 -78.1069718   5.1283762 -37.5803939 -76.8113206
   3.9810000 -37.7350000 -78.6180000   2.7660000 -37.4480000 -78.7810000
   4.5810000 -38.6480000 -79.2460000   2.9420000 -36.4800000 -76.0400000
   3.3460000 -36.8440000 -74.9350000   1.6530000 -36.6240000 -76.4230000
   1.3291945 -36.3310656 -77.3337353   0.7070000 -37.2260000 -75.5250000
   1.2130195 -37.4598751 -74.5883326  -0.4870000 -36.3070000 -75.2220000
  -0.8800481 -36.1068603 -76.2187731  -1.2587243 -36.7820958 -74.6163387
  -0.0610000 -34.9820000 -74.5630000   0.6094518 -34.4582639 -75.2443925
  -1.2730000 -34.0900000 -74.2510000  -1.9437259 -34.6129140 -73.5692475
  -0.9334323 -33.1640824 -73.7868113  -1.8026600 -33.8594653 -75.1753454
   0.8320000 -35.2320000 -73.3380000   1.7282930 -35.7709740 -73.6450266
   1.1164917 -34.2778935 -72.8943261   0.2856495 -35.8247462 -72.6043433
   0.1590000 -38.4800000 -76.1440000  -0.8740000 -38.4740000 -76.8120000
   0.8640000 -39.5540000 -75.9260000   2.3130000 -39.4540000 -75.8950000
   2.6042377 -38.9387429 -74.9796908   2.6378124 -38.8724489 -76.7577829
   2.8170000 -40.9000000 -75.9420000   2.9432688 -41.2989461 -74.9355223
   3.7638200 -40.9623423 -76.4784202   1.7060000 -41.6390000 -76.7030000
   1.6380449 -42.6417445 -76.2811178   1.8373436 -41.7078424 -77.7828654
   0.4340000 -40.8520000 -76.3810000  -0.1811968 -40.7524885 -77.2752755
  -0.3710000 -41.4830000 -75.2910000  -0.5660000 -40.8600000 -74.2490000
  -0.8390000 -42.7240000 -75.5100000  -0.6516935 -43.1902354 -76.3861507
  -1.5890000 -43.4270000 -74.5140000  -2.4629565 -42.8316455 -74.2497043
  -2.0620000 -44.8070000 -74.9930000  -1.1281667 -45.2707000 -75.3108630
  -2.5154570 -45.4077801 -74.2046219  -3.0250000 -44.7210000 -76.1900000
  -2.5026850 -44.2441671 -77.0194084  -3.5120000 -46.1130000 -76.6240000
  -4.0348533 -46.5903008 -75.7952014  -4.1901050 -46.0133318 -77.4715498
  -2.6568397 -46.7237707 -76.9134140  -4.1750000 -43.7420000 -75.9070000
  -3.7685888 -42.7489123 -75.7154117  -4.8393629 -43.7018097 -76.7701964
  -4.7339894 -44.0798120 -75.0343529  -0.6980000 -43.6330000 -73.3290000
  -1.1530000 -43.5810000 -72.1860000   0.6070000 -43.8700000 -73.5760000
   0.9514043 -43.8720885 -74.5254634   1.5390000 -44.1240000 -72.5130000
   1.0531578 -44.6866116 -71.7158020   2.3908727 -44.6902483 -72.8895304
   2.0260000 -42.8200000 -71.9620000   1.4530000 -41.7620000 -72.2210000
   3.1190000 -42.8770000 -71.1720000   3.5835710 -43.7606796 -71.0190832
   3.6560000 -41.7070000 -70.5370000   2.8696127 -41.2301143 -69.9519580
   4.8160000 -42.0040000 -69.6300000   5.1545761 -41.0861904 -69.1492796
   4.3600000 -43.0070000 -68.5560000   4.0216939 -43.9253010 -69.0359708
   5.1934797 -43.2313210 -67.8903494   3.5413266 -42.5759308 -67.9797589
   5.8940000 -42.5480000 -70.3750000   6.6287480 -42.7336205 -69.7856862
   4.1320000 -40.7700000 -71.6040000   4.6580000 -41.1790000 -72.6380000
   3.9230000 -39.5050000 -71.3550000   2.7390000 -39.1150000 -70.6040000
   3.0170004 -39.0211477 -69.5542344   1.9921207 -39.9014299 -70.7126207
   2.2790000 -37.7820000 -71.2140000   1.9383392 -37.1035777 -70.4318284
   1.4712034 -37.9490995 -71.9264912   3.5320000 -37.2390000 -71.9220000
   4.1399639 -36.6226724 -71.2597167   3.2762100 -36.6687376 -72.8150128
   4.3020000 -38.4980000 -72.3110000   3.9522413 -38.8161324 -73.2931196
   5.7810000 -38.2830000 -72.3550000   6.4560000 -38.5480000 -71.3610000
   6.3000000 -37.7980000 -73.5020000   5.7004693 -37.5705832 -74.2823486
   7.7070000 -37.5620000 -73.6350000   8.2205256 -37.7705455 -72.6964376
   8.3670000 -38.3900000 -74.7510000   7.8694539 -38.1850028 -75.6989051
   9.4205450 -38.1214806 -74.8287207   8.2792978 -39.4510165 -74.5172232
   7.9000000 -36.1200000 -73.9850000   7.0750000 -35.5180000 -74.6730000
   9.0030000 -35.5220000 -73.4890000   9.6611265 -36.0455945 -72.9296989
   9.2890000 -34.1440000 -73.7630000   8.5348810 -33.6896173 -74.4056042
   9.4170000 -33.3180000 -72.5150000  10.1531424 -33.7698103 -71.8501232
   9.8720000 -31.8980000 -72.8940000   9.1360779 -31.4453404 -73.5585442
   9.9667630 -31.2934008 -71.9920132  10.8359731 -31.9477998 -73.4003374
   8.0720000 -33.3590000 -71.7690000   7.8300630 -34.3901340 -71.5114513
   8.1428921 -32.7645850 -70.8580967   7.2888261 -32.9513709 -72.4082011
  10.6020000 -34.0850000 -74.4830000  11.5740000 -34.7170000 -74.0750000
  10.6510000 -33.3190000 -75.5940000   9.8338073 -32.7988145 -75.8798366
  11.8550000 -33.1740000 -76.3650000  12.6598867 -33.6975708 -75.8491219
  11.7340000 -33.7410000 -77.7910000  11.3609194 -34.7648118 -77.7641770
  11.0684423 -33.1281244 -78.3988786  13.1160000 -33.7430000 -78.4330000
  14.1350000 -33.7360000 -77.7450000  13.1540000 -33.7470000 -79.7930000
  14.0441200 -33.7484774 -80.2702671  12.2919182 -33.7484753 -80.3192258
  12.1140000 -31.7040000 -76.5010000  11.1850000 -30.9220000 -76.7020000
  13.3930000 -31.2870000 -76.3860000  14.1501206 -31.9421500 -76.2531612
  13.7100000 -29.8890000 -76.4750000  12.7876777 -29.3363826 -76.6539825
  14.3750000 -29.3370000 -75.2000000  13.7137143 -29.4407016 -74.3397405
  15.3156978 -29.8493734 -74.9983535  14.7790000 -27.5680000 -75.3150000
  15.3053736 -27.4661977 -74.0978454  14.6770000 -29.6900000 -77.6020000
  15.5030000 -30.5570000 -77.8870000  14.5720000 -28.5370000 -78.2940000
  13.8858611 -27.8383694 -78.0465570  15.4760000 -28.2510000 -79.3700000
  16.3495079 -28.8972445 -79.2836803  14.8500000 -28.4680000 -80.7170000
  14.0225172 -27.7723851 -80.8566149  15.9120000 -28.2250000 -81.8020000
  16.7396444 -28.9206067 -81.6633071  15.4690297 -28.3796909 -82.7858430
  16.2812625 -27.2021914 -81.7271113  14.3560000 -29.7950000 -80.8160000
  13.9578075 -29.9245871 -81.6798578  15.8340000 -26.7990000 -79.2830000
  14.9730000 -25.9500000 -79.0570000  17.1320000 -26.4720000 -79.4480000
  17.8385410 -27.1749173 -79.6117269  17.5320000 -25.0950000 -79.4400000
  16.8702738 -24.4843082 -78.8257743  18.9450000 -24.8860000 -78.9770000
  19.2017354 -23.8281705 -79.0334174  19.0600000 -25.3640000 -77.5200000
  18.8038448 -26.4219318 -77.4628524  20.0816152 -25.2185823 -77.1689208
  18.3761706 -24.7907962 -76.8939677  19.8900000 -25.6090000 -79.9500000
  19.7631384 -25.1995952 -80.9521955  20.9216899 -25.4672629 -79.6280898
  19.6562760 -26.6735935 -79.9607087  17.4530000 -24.6170000 -80.8570000
  17.8040000 -25.3490000 -81.7800000  16.9510000 -23.3820000 -81.0680000
  16.6353779 -22.8054243 -80.3011607  16.8960000 -22.8380000 -82.3970000
  17.4118845 -23.5292963 -83.0633871  15.4700000 -22.6130000 -82.9300000
  15.0398604 -21.9903684 -82.1455199  15.4562411 -22.0682556 -83.8740149
  14.6430000 -23.9050000 -83.0710000  15.2193972 -24.6226267 -83.6548485
  14.3100000 -24.5110000 -81.7000000  13.7331717 -23.7940805 -81.1157104
  13.7259973 -25.4211493 -81.8366374  15.2341103 -24.7485601 -81.1730411
  13.3990000 -23.6810000 -83.9450000  13.7064243 -23.3569234 -84.9392656
  12.8375906 -24.6119335 -84.0242689  12.7693724 -22.9150354 -83.4922679
  17.5570000 -21.4970000 -82.3360000  17.2250000 -20.6660000 -81.4920000
  18.4770000 -21.2590000 -83.2250000  19.3010000 -22.3530000 -83.7130000
  18.8473011 -22.7409287 -84.6250137  19.3145174 -23.1347821 -82.9535706
  20.6930000 -21.7490000 -83.9570000  21.1259221 -22.1507230 -84.8731311
  21.3534963 -21.9667874 -83.1177058  20.4340000 -20.2370000 -84.0740000
  20.2189961 -19.9404119 -85.1006001  21.2701236 -19.6498151 -83.6942491
  19.2010000 -20.0140000 -83.2000000  19.5432250 -19.8398023 -82.1798846
  18.3560000 -18.8630000 -83.6450000  17.2870000 -19.0900000 -84.2070000
  18.8260000 -17.6200000 -83.4070000  19.7151376 -17.4809871 -82.9485144
  18.0750000 -16.4630000 -83.7990000  18.7447603 -15.6211295 -83.9744263
  17.5088336 -16.6714905 -84.7067922  17.1230000 -16.1070000 -82.7030000
  16.0070000 -15.6570000 -82.9580000  17.5410000 -16.3120000 -81.4400000
  18.4605215 -16.6800775 -81.2422666  16.6780000 -16.0080000 -80.3350000
  15.6373314 -16.1396532 -80.6312694  16.9030546 -16.6681453 -79.4973497
  16.8870000 -14.5870000 -79.9060000  17.9640000 -14.0180000 -80.0710000
  15.8510000 -14.0070000 -79.2720000  15.0239013 -14.5633006 -79.1090988
  15.8730000 -12.6630000 -78.7790000  16.4674456 -12.0096988 -79.4176949
  14.4920000 -12.0910000 -78.6250000  13.9074570 -12.7007017 -77.9360343
  14.6240000 -10.6680000 -78.0630000  15.2080700 -10.0575350 -78.7516910
  13.6327226 -10.2311080 -77.9421891  15.1250356 -10.7038721 -77.0956450
  13.7290000 -12.1480000 -79.9590000  14.1635329 -11.3978732 -80.6197508
  13.8829477 -13.1394898 -80.3848493  12.2300000 -11.8860000 -79.8070000
  12.0752386 -10.8944401 -79.3816088  11.7501819 -11.9404991 -80.7841917
  11.7946537 -12.6360559 -79.1467050  16.4980000 -12.6730000 -77.4170000
  16.4370000 -13.6750000 -76.7040000  17.1910000 -11.5710000 -77.0580000
  17.2950109 -10.7926393 -77.6931659  17.7470000 -11.4530000 -75.7410000
  17.6919013 -12.4256003 -75.2520091  19.2130000 -10.9900000 -75.7500000
  19.8292857 -11.7607810 -76.2128042  19.2937592 -10.0673124 -76.3246526
  19.6600000 -10.7610000 -74.4230000  20.5754990 -10.4725483 -74.4390312
  16.9610000 -10.3940000 -75.0280000  17.1730000  -9.2030000 -75.2510000
  16.0210000 -10.8020000 -74.1470000  15.8380330 -11.7821010 -73.9856792
  15.2590000  -9.8380000 -73.4090000  15.8840282  -9.0202613 -73.0501933
  14.1150000  -9.2600000 -74.1910000  14.4915424  -8.7505646 -75.0780122
  13.1810000 -10.4060000 -74.6160000  12.8036682 -10.9156515 -73.7294466
  12.3443568 -10.0013152 -75.1855252  13.7322161 -11.1142299 -75.2346056
  13.4240000  -8.1850000 -73.3350000  14.1389481  -7.3993168 -73.0907600
  12.5904989  -7.7567990 -73.8917939  13.0521789  -8.6359981 -72.4149725
  14.6910000 -10.5080000 -72.1940000  14.2710000 -11.6630000 -72.2420000
  14.6580000  -9.7740000 -71.0630000  15.0024840  -8.8245688 -71.0597607
  14.1060000 -10.3000000 -69.8510000  13.8088703 -11.3331106 -70.0312655
  15.0860000 -10.2700000 -68.6650000  14.6222492 -10.7536236 -67.8052659
  15.9941779 -10.8076228 -68.9375337  15.4120000  -8.9280000 -68.3340000
  16.0232238  -8.9204430 -67.5937648  12.9350000  -9.4340000 -69.4870000
  12.9380000  -8.2290000 -69.7340000  11.8970000 -10.0520000 -68.8860000
  11.9498902 -11.0545746 -68.7757908  10.7110000  -9.3760000 -68.4260000
  10.0526407 -10.1063028 -67.9555534  11.0190000  -8.2640000 -67.4080000
  11.7030753  -7.5452825 -67.8592045  10.0911697  -7.7605828 -67.1363346
  11.6150000  -8.8180000 -66.2440000  11.8029452  -8.1166413 -65.6160092
   9.9380000  -8.7580000 -69.5560000   9.1990000  -7.7980000 -69.3440000
  10.0370000  -9.3120000 -70.7780000  10.6128724 -10.1242811 -70.9473215
   9.3140000  -8.7460000 -71.8850000   9.4283529  -7.6621493 -71.8679634
   9.7800000  -9.2680000 -73.2550000   9.6629765 -10.3511124 -73.2906791
   9.1789739  -8.8120234 -74.0417358  10.8287027  -9.0112536 -73.4046771
   7.8580000  -9.0780000 -71.7420000   7.4750000  -9.9760000 -70.9920000
   7.0010000  -8.3240000 -72.4630000   7.3678872  -7.6157100 -73.0825308
   5.5780000  -8.5190000 -72.4180000   5.3072183  -9.2625463 -71.6683898
   4.8110000  -7.2520000 -72.1660000   5.0778602  -6.4970548 -72.9055565
   3.3120000  -7.5720000 -72.2790000   3.0442730  -8.3265878 -71.5393919
   2.7321515  -6.6665834 -72.0998433   3.0949658  -7.9500984 -73.2780180
   5.2030000  -6.6420000 -70.8110000   4.8073771  -7.2924240 -70.0309155
   6.2916450  -6.6320927 -70.7575834   4.6710000  -5.2250000 -70.6100000
   3.5823196  -5.2341810 -70.6628266   4.9837681  -4.8539598 -69.6339854
   5.0665861  -4.5738498 -71.3894966   5.1660000  -9.0260000 -73.7650000
   5.7090000  -8.6070000 -74.7880000   4.2080000  -9.9780000 -73.7970000
   3.7529804 -10.2855382 -72.9493699   3.7970000 -10.5640000 -75.0410000
   4.3541727 -10.0949649 -75.8519648   4.0470000 -12.0810000 -75.0860000
   5.1319319 -12.1273200 -74.9917854   3.5873466 -12.6048749 -74.2479225
   3.6180000 -12.7480000 -76.4050000   2.5589653 -12.5474138 -76.5672081
   4.4290000 -12.2080000 -77.5930000   5.4881649 -12.4086418 -77.4317195
   4.1022350 -12.6988258 -78.5097418   4.2727665 -11.1328943 -77.6815396
   3.6620000 -14.2810000 -76.2940000   2.9862051 -14.6081344 -75.5038204
   3.3537174 -14.7233907 -77.2412875   4.6773123 -14.5997294 -76.0580942
   2.3250000 -10.3560000 -75.2430000   1.5370000 -10.4650000 -74.3050000
   1.9260000 -10.0390000 -76.4940000   2.6115237  -9.9347820 -77.2283672
   0.5380000  -9.8580000 -76.8260000  -0.0838388 -10.3056694 -76.0507531
   0.1470000  -8.4170000 -76.9820000   0.4020248  -7.8675475 -76.0758187
   0.9060000  -7.8150000 -78.1770000   0.6511095  -8.3636771 -79.0836884
   0.6263322  -6.7681950 -78.2956774   1.9791162  -7.8859743 -77.9995600
  -1.2550000  -8.3050000 -77.1780000  -1.4914621  -7.3797750 -77.2762079
   0.2880000 -10.5470000 -78.1360000   1.2200000 -10.7820000 -78.9050000
  -0.9850000 -10.9040000 -78.4200000  -1.7405195 -10.7131550 -77.7774521
  -1.2920000 -11.5780000 -79.6520000  -0.3580930 -11.8503793 -80.1436568
  -2.1270000 -12.8560000 -79.4380000  -1.5567947 -13.5000490 -78.7685480
  -3.0526409 -12.5528837 -78.9487051  -2.4560000 -13.6200000 -80.7230000
  -3.1705028 -13.0616000 -81.3277942  -1.5613629 -13.8215740 -81.3121472
  -3.0880000 -14.9500000 -80.3260000  -3.0410000 -15.3490000 -79.1640000
  -3.6840000 -15.6640000 -81.3190000  -4.1173677 -16.5516532 -81.1083686
  -3.6904007 -15.3031806 -82.2623291  -2.0660000 -10.6350000 -80.5240000
  -3.1830000 -10.2390000 -80.1910000  -1.4500000 -10.1990000 -81.6470000
  -0.4976206 -10.4763170 -81.8371790  -2.0980000  -9.3080000 -82.5710000
  -2.6040643  -8.5193851 -82.0141476  -1.1410000  -8.6740000 -83.5380000
  -1.6826959  -8.0173998 -84.2188392  -0.1100000  -7.8520000 -82.7450000
   0.4324495  -8.5080492 -82.0642301   0.5922561  -7.3853363 -83.4357680
  -0.6233013  -7.0794772 -82.1724349  -0.4830000  -9.6700000 -84.3050000
   0.1252949  -9.2515017 -84.9185444  -3.1580000 -10.0190000 -83.3530000
  -4.2880000  -9.5470000 -83.4660000  -2.8130000 -11.1940000 -83.9110000
  -1.8947955 -11.5835265 -83.7520382  -3.7440000 -11.9480000 -84.6970000
  -4.7542558 -11.6825933 -84.3854850  -3.6100000 -11.6850000 -86.2090000
  -3.4186006 -10.6293592 -86.4015825  -2.7969466 -12.2823148 -86.6216248
  -4.9070000 -12.0800000 -86.9060000  -5.7570000 -12.7650000 -86.3400000
  -5.0690000 -11.6250000 -88.1780000  -5.9086393 -11.8547687 -88.6901640
  -4.3488883 -11.0595201 -88.6043476  -3.3860000 -13.3700000 -84.4350000
  -2.3950000 -13.6480000 -83.7620000  -4.1870000 -14.3230000 -84.9360000
  -5.0182391 -14.1356906 -85.4782694  -3.8450000 -15.6840000 -84.6690000
  -3.7173320 -15.7987484 -83.5926019  -4.9060000 -16.6920000 -85.1490000
  -4.6005018 -17.7114460 -84.9134157  -5.8724205 -16.4872313 -84.6883468
  -5.0500000 -16.5640000 -86.6590000  -4.9360000 -15.4750000 -87.2170000
  -5.3120000 -17.7130000 -87.3380000  -5.4178529 -17.6896191 -88.3421655
  -5.3995271 -18.5844543 -86.8350018  -2.5550000 -15.9810000 -85.3600000
  -2.3240000 -15.5560000 -86.4910000  -1.6760000 -16.7280000 -84.6630000
  -1.9105599 -16.9804879 -83.7136155  -0.4180000 -17.1690000 -85.1930000
   0.0187434 -17.9223619 -84.5374085  -0.6180000 -17.7870000 -86.5870000
  -1.4491331 -18.4910355 -86.5463657  -0.8472653 -16.9958316 -87.3008558
   0.6390000 -18.5140000 -87.0250000   1.2050000 -19.2900000 -86.2120000
   1.0480000 -18.2900000 -88.1950000   0.5780000 -16.0440000 -85.3120000
   1.6650000 -16.2530000 -85.8500000   0.2760000 -14.8350000 -84.7890000
  -0.6231780 -14.6245766 -84.3799765   1.2730000 -13.7930000 -84.8220000
   2.2445463 -14.2695438 -84.9527781   1.0810000 -12.7510000 -85.9410000
   1.9252931 -12.0644915 -85.8779558   1.1244507 -13.2937807 -86.8852464
  -0.2250000 -11.9600000 -85.8680000  -1.0815845 -12.6114953 -86.0409674
  -0.3229891 -11.4830590 -84.8927951  -0.1730000 -10.8920000 -86.9520000
   0.9050000 -10.2550000 -87.1000000  -1.2050000 -10.7010000 -87.6510000
   1.2270000 -13.0770000 -83.5040000   0.1500000 -12.7600000 -83.0010000
   2.4110000 -12.8010000 -82.9100000   3.2792500 -12.9799457 -83.3939625
   2.4670000 -12.1610000 -81.6230000   1.4691007 -11.7953840 -81.3808821
   2.9390000 -13.0920000 -80.4890000   3.9480844 -13.4665909 -80.6608415
   2.8973878 -12.5923584 -79.5211536   2.0510000 -14.2870000 -80.3910000
   2.3140000 -15.4050000 -81.1500000   3.1721033 -15.4012622 -81.8221196
   1.5100000 -16.5170000 -81.0680000   1.7310567 -17.3954717 -81.6742360
   0.4280000 -16.5210000 -80.2220000  -0.2150758 -17.3985103 -80.1547009
   0.1580000 -15.4110000 -79.4580000  -0.6981062 -15.4104821 -78.7833281
   0.9670000 -14.3010000 -79.5440000   0.7516457 -13.4213375 -78.9374390
   3.5110000 -11.0810000 -81.6850000   4.3860000 -11.0960000 -82.5500000
   3.4340000 -10.1010000 -80.7550000   2.6986940 -10.1116132 -80.0626765
   4.4110000  -9.0470000 -80.6960000   5.2036585  -9.1824661 -81.4318265
   3.8180000  -7.6800000 -80.8760000   3.0506446  -7.5063345 -80.1216094
   4.9340000  -6.6350000 -80.7210000   5.7015544  -6.8077486 -81.4753998
   4.5173906  -5.6359777 -80.8494192   5.3757664  -6.7189978 -79.7280808
   3.0980000  -7.6310000 -82.2340000   2.3089101  -8.3826695 -82.2547902
   2.6616101  -6.6427510 -82.3790082   3.8124293  -7.8328033 -83.0321021
   5.0350000  -9.0780000 -79.3280000   4.3460000  -9.2890000 -78.3300000
   6.3730000  -8.8870000 -79.2530000   6.9101679  -8.7319746 -80.0941404
   7.0610000  -8.8560000 -77.9880000   6.3536335  -9.0301811 -77.1772023
   8.2210000  -9.8140000 -77.8580000   8.8951130  -9.7173572 -78.7090771
   8.9710000  -9.4500000 -76.5670000   8.2976151  -9.5468604 -75.7153713
   9.8192103 -10.1221418 -76.4371329   9.3288889  -8.4224531 -76.6315138
   7.7750000 -11.2870000 -77.8910000   8.5724980 -11.8661346 -77.4254886
   6.8739109 -11.3550567 -77.2814869   7.4900000 -11.8420000 -79.2830000
   8.3908212 -11.7747012 -79.8929934   7.1830055 -12.8848175 -79.2030924
   6.6922351 -11.2636213 -79.7489927   7.6390000  -7.4810000 -77.8210000
   8.4320000  -7.0300000 -78.6460000   7.2610000  -6.7820000 -76.7300000
   6.6626347  -7.1927396 -76.0276103   7.7400000  -5.4430000 -76.5190000
   8.6113901  -5.2194548 -77.1344723   6.6920000  -4.3960000 -76.7720000
   7.1057608  -3.4042499 -76.5894267   6.2390000  -4.5000000 -78.2370000
   5.8246693  -5.4913923 -78.4202272   5.4776711  -3.7459815 -78.4368370
   7.0929406  -4.3364883 -78.8943819   5.5530000  -4.5770000 -75.7540000
   5.9471819  -4.4675361 -74.7436830   4.7861208  -3.8222041 -75.9280087
   5.1174903  -5.5696963 -75.8679567   8.1500000  -5.2870000 -75.0850000
   7.7090000  -6.0280000 -74.2080000   9.0490000  -4.3170000 -74.8230000
   9.4741604  -3.7985817 -75.5783677   9.4280000  -3.9920000 -73.4760000
   9.8468515  -2.9859598 -73.4526417   8.5478289  -4.0335423 -72.8343829
  10.4470000  -4.9540000 -72.9650000  10.9880000  -5.7760000 -73.7020000
  10.7260000  -4.8530000 -71.6500000  10.2614619  -4.1497806 -71.0934156
  11.6690000  -5.7170000 -71.0040000  11.3721192  -5.8880149 -69.9692464
  11.7228058  -6.6710366 -71.5284221  13.0180000  -5.0750000 -71.0230000
  13.1690000  -3.9220000 -71.4250000  14.0450000  -5.8290000 -70.5730000
  13.9262809  -6.8037044 -70.3364489  15.3560000  -5.2580000 -70.4650000
  15.3317057  -4.2456981 -70.8684275  15.8550000  -5.1960000 -69.0120000
  15.9006278  -6.2010740 -68.5926628  16.8458574  -4.7431146 -68.9774095
  14.9030000  -4.3690000 -68.2170000  15.0240000  -2.9990000 -68.1670000
  15.8272886  -2.5101579 -68.7182353  14.1400000  -2.2470000 -67.4280000
  14.2448992  -1.1626002 -67.3937202  13.1260000  -2.8620000 -66.7320000
  12.2190000  -2.0910000 -65.9750000  12.4017860  -1.1494513 -66.0159273
  12.9990000  -4.2290000 -66.7780000  12.1967434  -4.7216640 -66.2286667
  13.8840000  -4.9750000 -67.5170000  13.7842739  -6.0597934 -67.5541231
  16.3580000  -6.0980000 -71.2030000  16.3260000  -7.3260000 -71.1340000
  17.2150000  -5.4340000 -72.0110000  17.0562982  -4.4454969 -72.1443216
  18.3390000  -6.0390000 -72.6720000  18.0367269  -7.0083761 -73.0682830
  18.8650000  -5.1760000 -73.8320000  19.1314694  -4.2008499 -73.4243535
  19.7580974  -5.6607509 -74.2263267  17.8420000  -4.9960000 -74.9590000
  17.5667513  -5.9566744 -75.3942512  16.9473348  -4.4963037 -74.5875436
  18.4670000  -4.1310000 -76.0450000  17.8140000  -3.7820000 -77.0270000
  19.7650000  -3.7670000 -75.8680000  20.2243720  -3.1933068 -76.5607878
  20.2640038  -4.0719325 -75.0445240  19.4580000  -6.2030000 -71.6830000
  20.1590000  -7.2120000 -71.6690000  19.6600000  -5.1740000 -70.8390000
  19.0253495  -4.3887527 -70.8655480  20.7160000  -5.1640000 -69.8640000
  21.0823759  -6.1827637 -69.7375546  21.8960000  -4.2640000 -70.2700000
  21.4051270  -3.3110232 -70.4674287  22.6180448  -4.1398617 -69.4629430
  22.6240000  -4.7390000 -71.5410000  21.9089498  -4.7574182 -72.3634748
  23.7920000  -3.8070000 -71.8990000  24.5077457  -3.7884241 -71.0771351
  24.2844565  -4.1707004 -72.8008367  23.4135292  -2.7997941 -72.0733459
  23.0610000  -6.2090000 -71.4160000  22.1837838  -6.8376028 -71.2628670
  23.5721426  -6.5154988 -72.3286297  23.7370867  -6.3167362 -70.5678262
  20.1220000  -4.5990000 -68.6170000  19.0020000  -4.0920000 -68.6370000
  20.8510000  -4.6690000 -67.4850000  21.7888650  -5.0416721 -67.4446998
  20.2750000  -4.1470000 -66.2810000  19.3621281  -4.7028081 -66.0668941
  21.2110000  -4.2520000 -65.0650000  21.4486407  -5.3058641 -64.9200982
  22.1229628  -3.7035223 -65.3007881  20.5940000  -3.6880000 -63.7840000
  21.3596045  -3.5699128 -63.0171845  20.1311882  -2.7221105 -63.9863903
  19.5340000  -4.6660000 -63.2960000  19.9240000  -5.7220000 -62.7290000
  18.3210000  -4.3740000 -63.4790000  20.0040000  -2.6920000 -66.5020000
  18.9310000  -2.1890000 -66.1710000  20.9980000  -1.9770000 -67.0560000
  21.8740786  -2.4500546 -67.2257203  20.9160000  -0.5730000 -67.3430000
  20.3647249  -0.0834509 -66.5401696  22.3000000   0.0890000 -67.4640000
  22.1946509   1.1399941 -67.7330953  22.8485362   0.0079778 -66.5255740
  23.0940000  -0.6140000 -68.5530000  23.2680000  -1.8320000 -68.5190000
  23.5950000   0.1690000 -69.5460000  24.1299916  -0.2493948 -70.2935491
  23.4297682   1.1652851 -69.5313312  20.1230000  -0.2700000 -68.5820000
  19.5470000   0.8110000 -68.6730000  20.0810000  -1.1790000 -69.5830000
  20.4780531  -2.1053837 -69.5177202  19.4810000  -0.7800000 -70.8290000
  19.2320610   0.2800626 -70.7800532  20.4230000  -1.0090000 -72.0230000
  21.3882180  -0.5805269 -71.7530661  20.5259098  -2.0873201 -72.1443889
  19.9420000  -0.3930000 -73.3350000  18.9927342  -0.8264198 -73.6498690
  19.8376054   0.6889315 -73.2535866  20.9920000  -0.7020000 -74.3920000
  21.9020000  -1.4990000 -74.1640000  20.8670000  -0.0530000 -75.5800000
  21.5370580  -0.2211834 -76.3167755  20.1046363   0.5944294 -75.7204923
  18.1900000  -1.4990000 -71.0980000  18.1090000  -2.7260000 -71.0370000
  17.1340000  -0.7190000 -71.4260000  17.2559272   0.2825842 -71.4714104
  15.8370000  -1.2610000 -71.7200000  15.7013819  -2.1485643 -71.1019898
  14.6640000  -0.2980000 -71.4620000  14.8684364   0.6193268 -72.0141019
  13.7639909  -0.7675022 -71.8590534  14.4560000   0.0330000 -69.9830000
  14.2316157  -0.9010292 -69.4678864  15.3937345   0.4398447 -69.6045380
  13.3280000   1.0360000 -69.7340000  12.3970981   0.5586909 -70.0400991
  13.2999084   1.2319254 -68.6621215  13.4960000   2.3540000 -70.4880000
  12.9188666   3.1308629 -69.9865006  14.5498739   2.6322149 -70.4947348
  13.0170000   2.2050000 -71.8790000  12.0403630   1.9476214 -71.8729891
  13.1315382   3.0801274 -72.3700530  13.5519419   1.4854840 -72.3440085
  15.7880000  -1.6330000 -73.1710000  16.5100000  -1.0710000 -73.9910000
  14.9200000  -2.6080000 -73.5200000  14.3124322  -3.0320496 -72.8336016
  14.8190000  -3.0490000 -74.8850000  15.7829836  -2.8984076 -75.3709596
  14.4330000  -4.5330000 -75.0080000  15.1980092  -5.1090792 -74.4874302
  13.4760229  -4.6599810 -74.5018670  14.3160000  -5.0280000 -76.4510000
  13.6675515  -4.3351233 -76.9872251  15.3131722  -5.0057457 -76.8906072
  13.7450000  -6.4440000 -76.5540000  14.4035166  -7.1655018 -76.0703782
  12.7541183  -6.4980065 -76.1030718  13.6320000  -6.7940000 -77.9990000
  12.7804906  -6.6212843 -78.5139761  14.6890000  -7.3530000 -78.6570000
  15.8600000  -7.5860000 -77.9950000  15.9410562  -7.3434995 -77.0179005
  16.6400283  -7.9998329 -78.4853038  14.5740000  -7.6850000 -79.9760000
  13.7051377  -7.5156643 -80.4623165  15.3582838  -8.0985073 -80.4597451
  13.7430000  -2.2430000 -75.5460000  12.5500000  -2.4880000 -75.3700000
  14.1670000  -1.2160000 -76.3060000  15.1628216  -1.0551851 -76.3567666
  13.2960000  -0.3140000 -77.0030000  12.4800585  -0.0286715 -76.3389772
  14.0200000   0.9580000 -77.4650000  14.7632898   0.6779896 -78.2114675
  13.2862813   1.6258709 -77.9163373  14.7110000   1.6720000 -76.3000000
  15.5931918   1.0872363 -76.0394431  15.0195808   2.6537316 -76.6592814
  13.6710000   1.8760000 -74.8220000  12.3970000   2.8860000 -75.6260000
  11.9497417   2.3230709 -76.4452496  11.6260661   3.1447291 -74.9001758
  12.8484642   3.7980491 -76.0164457  12.6560000  -0.9560000 -78.2020000
  11.5210000  -0.6350000 -78.5490000  13.3840000  -1.8650000 -78.8800000
  14.2924991  -2.1310801 -78.5279629  12.9270000  -2.4600000 -80.1100000
  12.5096143  -1.7140349 -80.7863316  13.9980000  -3.2210000 -80.8370000
  13.5818127  -3.6923446 -81.7273492  15.1020000  -2.2330000 -81.2490000
  15.5190148  -1.7615669 -80.3590840  15.8898681  -2.7681166 -81.7791081
  14.6807711  -1.4679994 -81.9012590  14.4900000  -4.3610000 -79.9300000
  13.6575332  -5.0243626 -79.6953702  15.2690911  -4.9242303 -80.4437006
  14.8926399  -3.9436824 -79.0070548  11.7940000  -3.4010000 -79.8470000
  11.5640000  -3.8190000 -78.7150000  11.0110000  -3.7040000 -80.9060000
  11.2000000  -3.2988302 -81.8116576   9.9090000  -4.6160000 -80.7850000
   9.9064666  -5.0198209 -79.7725666   8.5450000  -3.9610000 -81.0560000
   8.5251742  -3.4709158 -82.0294083   7.7356849  -4.6889740 -80.9997600
   8.1500000  -2.6720000 -79.8340000   6.9696865  -2.3455695 -80.3528463
  10.0970000  -5.7080000 -81.7960000  10.6720000  -5.4870000 -82.8610000
   9.6060000  -6.9260000 -81.4830000   9.0863350  -7.0814763 -80.6310172
   9.8000000  -8.0340000 -82.3730000  10.2768737  -7.6694058 -83.2828141
  10.6780000  -9.1410000 -81.7680000  10.2093331  -9.5124848 -80.8567099
  10.7725323  -9.9560079 -82.4855833  11.9670000  -8.6280000 -81.4620000
  12.5078776  -9.3257914 -81.0849875   8.4670000  -8.6420000 -82.6900000
   7.5340000  -8.5830000 -81.8900000   8.3560000  -9.2300000 -83.9010000
   9.1517122  -9.2458079 -84.5228452   7.1430000  -9.8710000 -84.3300000
   6.3795194  -9.7098479 -83.5689306   6.6180000  -9.3350000 -85.6750000
   6.4125581  -8.2924590 -85.4320985   7.3654792  -9.3825270 -86.4669066
   5.3210000 -10.0160000 -86.1520000   5.5043717 -11.0871567 -86.2362551
   4.1600000  -9.7700000 -85.1710000   3.9757218  -8.6990134 -85.0865721
   3.2613626 -10.2648435 -85.5393498   4.4198613 -10.1717487 -84.1916275
   4.9780000  -9.6160000 -87.5950000   5.7899149  -9.9146131 -88.2581168
   4.0577316 -10.1132881 -87.9014506   4.8426340  -8.5358771 -87.6507624
   7.4440000 -11.3260000 -84.5140000   8.4660000 -11.6910000 -85.0940000
   6.5560000 -12.2050000 -84.0030000   5.7186319 -11.9098399 -83.5215495
   6.7950000 -13.6100000 -84.1510000   7.7309146 -13.8026267 -84.6754598
   6.8100000 -14.3620000 -82.8500000   6.9140229 -15.4302916 -83.0398197
   8.0030000 -13.8720000 -82.0130000   7.8994367 -12.8038075 -81.8223684
   8.0272792 -14.4090847 -81.0648170   8.9292571 -14.0552309 -82.5575878
   5.4480000 -14.1740000 -82.1620000   4.6584859 -14.5612270 -82.8060689
   5.4411229 -14.7137465 -81.2150438   5.2773990 -13.1135482 -81.9764248
   5.7070000 -14.1930000 -84.9920000   4.5200000 -13.9480000 -84.7710000
   6.1120000 -14.9860000 -86.0030000   7.0986344 -15.1533761 -86.1395181
   5.1840000 -15.6530000 -86.8670000   4.1794535 -15.3045350 -86.6270881
   5.4500000 -15.3960000 -88.3610000   6.4640193 -15.7124614 -88.6053690
   4.7381129 -15.9675348 -88.9565374   5.3040000 -14.0130000 -88.6480000
   5.4712655 -13.8604017 -89.5809179   5.3930000 -17.1050000 -86.6130000
   6.5270000 -17.5720000 -86.5190000   4.2940000 -17.8660000 -86.4840000
   3.3581893 -17.5071726 -86.6089025   4.4520000 -19.2510000 -86.1620000
   5.5029722 -19.4373672 -85.9410387   3.6110000 -19.6870000 -84.9520000
   2.6041170 -19.4040687 -85.2589783   3.6481742 -20.7621530 -84.7766028
   3.9800000 -18.9430000 -83.6560000   3.8312411 -17.8749075 -83.8145874
   3.1130000 -19.4110000 -82.4770000   3.2615840 -20.4789797 -82.3174976
   3.3983755 -18.8665636 -81.5768608   2.0631007 -19.2199364 -82.6990507
   5.4850000 -19.0400000 -83.3620000   6.0458309 -18.5979635 -84.1855119
   5.7109407 -18.5039837 -82.4401873   5.7673923 -20.0869625 -83.2514415
   4.0240000 -20.0710000 -87.3290000   3.1490000 -19.7030000 -88.1050000
   4.6870000 -21.2190000 -87.4890000   5.4543270 -21.4121808 -86.8613139
   4.3740000 -22.1850000 -88.4930000   3.4594137 -21.9582289 -89.0409105
   5.1872890 -22.3540388 -89.1987522   4.1650000 -23.4160000 -87.6940000
   4.5610000 -23.4550000 -86.5300000   3.5420000 -24.4510000 -88.2830000
   3.2488963 -24.4556438 -89.2495237   3.3090000 -25.6240000 -87.4980000
   2.6802034 -25.3524001 -86.6500923   2.6150000 -26.7510000 -88.2840000
   3.1532675 -26.9356195 -89.2136682   2.5873839 -27.6663436 -87.6928287
   1.1910000 -26.3080000 -88.6010000   0.8760000 -25.1090000 -88.3820000
   0.3940000 -27.1690000 -89.0600000   4.6500000 -26.1220000 -87.0620000
   4.8510000 -26.4710000 -85.9000000   5.5900000 -26.2070000 -88.0150000
   5.3065508 -26.0256359 -88.9672935   6.9470000 -26.5990000 -87.7730000
   6.9718531 -27.2690163 -86.9136050   7.5710000 -27.3200000 -88.9750000
   7.4005384 -26.7734227 -89.9025210   8.6402605 -27.4848095 -88.8422605
   6.8790000 -28.6720000 -89.0730000   6.3420000 -29.1780000 -88.0890000
   6.8970000 -29.2740000 -90.2900000   6.4527589 -30.1728119 -90.4120115
   7.3545478 -28.8202519 -91.0677297   7.8660000 -25.4660000 -87.3950000
   8.8600000 -25.7030000 -86.7100000   7.6100000 -24.2140000 -87.8410000
   6.7555002 -23.9354192 -88.3017844   8.6510000 -23.2270000 -87.6740000
   9.4840582 -23.6482354 -87.1112621   9.1680000 -22.7200000 -88.9890000
   9.4994838 -23.5562245 -89.6045869   8.0330000 -21.9720000 -89.7090000
   7.7012848 -21.1352996 -89.0941853   8.3942310 -21.5976163 -90.6668352
   7.1980662 -22.6522902 -89.8769028  10.2840000 -21.8660000 -88.7890000
  10.6020554 -21.5509129 -89.6382121   8.2130000 -22.0310000 -86.8750000
   7.0360000 -21.8470000 -86.5860000   9.1980000 -21.2050000 -86.4470000
  10.1559460 -21.4379612 -86.6664716   8.9410000 -19.9920000 -85.7160000
   7.9034901 -19.6678935 -85.7974088   9.3230000 -20.0900000 -84.2640000
   8.7603903 -20.8903187 -83.7833123  10.8250000 -20.3970000 -84.1770000
  11.3883285 -19.5968363 -84.6571037  11.1210637 -20.4718536 -83.1306521
  11.0333317 -21.3405454 -84.6813997   8.8910000 -18.8280000 -83.4980000
   9.5128236 -18.0040025 -83.8479492   7.8498598 -18.6306879 -83.7533322
   9.0270000 -18.9600000 -81.9820000  10.0680223 -19.1568734 -81.7258490
   8.7050847 -18.0338775 -81.5057996   8.4050598 -19.7835607 -81.6312322
   9.7740000 -18.9030000 -86.3330000  10.9560000 -19.1060000 -86.6140000
   9.1810000 -17.7090000 -86.5620000   8.2225768 -17.5269522 -86.3004987
   9.9350000 -16.6470000 -87.1690000  10.9554861 -17.0014405 -87.3141872
   9.3830000 -16.1740000 -88.5210000   9.3802255 -17.0208899 -89.2071989
   8.3614563 -15.8239981 -88.3725171  10.2280000 -15.0440000 -89.1100000
  10.2268858 -14.1898194 -88.4328922  11.2529322 -15.3784908 -89.2704029
   9.6160000 -14.6380000 -90.4360000   8.6900000 -15.3510000 -90.9010000
  10.0750000 -13.6110000 -91.0030000   9.9190000 -15.4440000 -86.2770000
   8.8750000 -15.0420000 -85.7650000  11.1040000 -14.8310000 -86.0780000
  11.9443663 -15.1871343 -86.5104953  11.2030000 -13.6490000 -85.2700000
  10.2259699 -13.3385151 -84.8997157  12.1500000 -13.8070000 -84.1130000
  13.1190545 -14.1576746 -84.4680508  12.3180000 -12.4370000 -83.4350000
  11.3493693 -12.0858616 -83.0792514  13.0023384 -12.5298479 -82.5916964
  12.7215399 -11.7228408 -84.1527962  11.6400000 -14.9060000 -83.1630000
  10.7601712 -14.5107492 -82.6552807  11.3512378 -15.7570679 -83.7797652
  12.6680000 -15.3550000 -82.1250000  12.9569179 -14.5045082 -81.5075132
  12.2333020 -16.1303438 -81.4941444  13.5479860 -15.7508250 -82.6319982
  11.7220000 -12.5610000 -86.1560000  12.7970000 -12.6840000 -86.7400000
  10.9650000 -11.4530000 -86.2840000  10.0821738 -11.3330033 -85.8082710
  11.4060000 -10.4160000 -87.1700000  12.4560598 -10.5811892 -87.4112180
  10.6010000 -10.3840000 -88.4780000  10.8467071  -9.4773466 -89.0309076
  10.8556779 -11.2562926 -89.0799508   9.2120000 -10.3990000 -88.1880000
   8.7136280 -10.3789014 -89.0082568  11.3060000  -9.0870000 -86.4930000
  10.3980000  -8.8340000 -85.7020000  12.2690000  -8.1910000 -86.7900000
  13.0357661  -8.3982642 -87.4138675  12.2280000  -6.9010000 -86.1700000
  11.9391728  -7.0507755 -85.1296898  13.5450000  -6.1090000 -86.2050000
  14.3186457  -6.7025139 -85.7178524  13.8193241  -5.9397444 -87.2462487
  13.4080000  -4.7640000 -85.4890000  12.8665108  -4.0658662 -86.1273568
  12.8668066  -4.8931876 -84.5517063  14.7950000  -4.2150000 -85.2010000
  15.6530000  -5.0050000 -84.7260000  15.0120000  -2.9980000 -85.4460000
  11.1760000  -6.0880000 -86.8430000  10.9190000  -6.2360000 -88.0360000
  10.5230000  -5.2080000 -86.0610000  10.7563376  -5.1164563 -85.0825969
   9.4930000  -4.3700000 -86.5940000   9.4896803  -4.4859697 -87.6778077
   8.0880000  -4.6940000 -86.0610000   7.3857836  -4.0469930 -86.5867122
   7.8795886  -5.7343359 -86.3107317   7.9360000  -4.4920000 -84.5540000
   8.6068011  -5.1957546 -84.0611957   8.2497451  -3.4728548 -84.3281482
   6.2450000  -4.7470000 -83.9380000   6.2180000  -6.5340000 -84.2670000
   7.0122527  -7.0202830 -83.7006162   5.2541769  -6.9447961 -83.9663468
   6.3713529  -6.7103110 -85.3316589   9.8220000  -2.9670000 -86.2040000
  10.7410000  -2.7250000 -85.4230000   9.0850000  -1.9890000 -86.7650000
   8.3499312  -2.1770902 -87.4316298   9.4040000  -0.6230000 -86.4730000
  10.4845686  -0.5070810 -86.5568659   8.7260000   0.4000000 -87.4020000
   9.0460415   1.3875407 -87.0696809   9.1068165   0.2140685 -88.4062451
   7.1990000   0.3380000 -87.4170000   6.8572539  -0.6383870 -87.7604805
   6.7935733   0.5358718 -86.4247424   6.7200000   1.4120000 -88.3840000
   7.5930000   2.1010000 -88.9790000   5.4780000   1.5600000 -88.5400000
   9.0620000  -0.3170000 -85.0530000   8.0250000  -0.7300000 -84.5340000
   9.9540000   0.4420000 -84.3880000  10.7726737   0.8014352 -84.8577648
   9.7680000   0.7650000 -83.0070000   9.4285134  -0.1275343 -82.4814236
  11.0080000   1.2760000 -82.3330000  10.8153873   1.4372352 -81.2723380
  12.1220000   0.2280000 -82.4980000  12.3155062   0.0665632 -83.5584684
  13.0311290   0.5839902 -82.0133820  11.8098118  -0.7101724 -82.0392280
  11.4090000   2.5110000 -82.9100000  12.2020532   2.8268490 -82.4707889
   8.7250000   1.8320000 -82.9080000   8.4490000   2.5650000 -83.8560000
   8.1190000   1.8890000 -81.7550000   7.8750000   0.6580000 -81.0200000
   8.6632479   0.5440816 -80.2758306   7.9178589  -0.1730236 -81.7240326
   6.4850000   0.8180000 -80.3870000   6.4687075   0.3819276 -79.3881634
   5.7273592   0.3367032 -81.0054134   6.2690000   2.3380000 -80.3390000
   6.6552927   2.7462330 -79.4050713   5.2236876   2.6242176 -80.4551941
   7.0880000   2.8670000 -81.5150000   6.4520896   2.9256422 -82.3983331
   7.6730000   4.2150000 -81.2320000   8.8720000   4.3060000 -80.9780000
   6.8380000   5.2730000 -81.2710000   5.8552794   5.1362816 -81.4598588
   7.3010000   6.6060000 -81.0040000   8.3034453   6.7183692 -81.4170082
   6.3900000   7.6830000 -81.6230000   6.2226939   7.4669000 -82.6781818
   5.4342513   7.6946770 -81.0990648   7.0610000   9.0420000 -81.4840000
   8.2700000   9.0760000 -81.1330000   6.3710000  10.0660000 -81.7340000
   7.2740000   6.7970000 -79.5190000   6.3310000   7.3630000 -78.9660000
   8.3420000   6.3490000 -78.8310000   9.1502397   5.9776503 -79.3094844
   8.3770000   6.4300000 -77.3990000   7.4320866   6.0453424 -77.0152340
   9.5290000   5.6350000 -76.7570000  10.4735472   6.0299960 -77.1310428
   9.4952001   5.7413836 -75.6727306   9.5360000   4.1510000 -77.0460000
  10.4420000   3.4300000 -77.7690000  11.2758327   3.9802460 -78.2049497
  10.0830000   2.1050000 -77.7870000  10.5883608   1.3593084 -78.2437866
   8.9100000   1.9600000 -77.0790000   8.1500000   0.8550000 -76.8200000
   8.4776502  -0.1076352 -77.2125270   7.0080000   1.0330000 -76.0720000
   6.3773189   0.1740401 -75.8428075   6.6400000   2.2770000 -75.6030000
   5.7320356   2.4039462 -75.0134368   7.4040000   3.3940000 -75.8630000
   7.0889899   4.3656844 -75.4826071   8.5380000   3.2170000 -76.6030000
   8.5910000   7.8600000 -77.0130000   9.2150000   8.6280000 -77.7430000
   8.0460000   8.2580000 -75.8450000   7.5198951   7.6177699 -75.2675761
   8.2290000   9.6010000 -75.3780000   8.2464014  10.2655653 -76.2417994
   7.1630000  10.0710000 -74.4330000   7.3009722  11.1292446 -74.2112291
   5.7940000   9.8620000 -75.1020000   5.6551030   8.8038545 -75.3236648
   5.0051161  10.1983554 -74.4292249   5.7501657  10.4354562 -76.0279196
   7.2230000   9.3420000 -73.2160000   6.5359196   9.6534187 -72.6222499
   9.5270000   9.6310000 -74.6380000  10.1400000   8.5960000 -74.3840000
   9.9800000  10.8420000 -74.2750000   9.4218858  11.6640271 -74.4563267
  11.2410000  11.0090000 -73.6150000  12.0215449  10.5563222 -74.2264996
  11.5910000  12.4890000 -73.3880000  11.6391854  12.9973149 -74.3510127
  10.8178565  12.9495085 -72.7729544  12.8450000  12.5990000 -72.7320000
  13.0542454  13.5258501 -72.5950142  11.1850000  10.3460000 -72.2730000
  12.2020000   9.8600000 -71.7790000   9.9950000  10.3040000 -71.6470000
   9.1538206  10.6204651 -72.1078322   9.8800000   9.7430000 -70.3330000
  10.5072556  10.3144585 -69.6488328   8.4330000   9.7700000 -69.8120000
   7.7742324   9.2341859 -70.4953943   8.3884060   9.3061333 -68.8266376
   7.9860000  11.2200000 -69.7100000   8.7850000  12.1100000 -70.0980000
   6.8380000  11.4550000 -69.2500000  10.2660000   8.2990000 -70.3880000
  11.0840000   7.8300000 -69.5970000   9.6980000   7.5580000 -71.3570000
   9.0676271   7.9744757 -72.0272816   9.9560000   6.1530000 -71.4500000
   9.7892370   5.6567880 -70.4939336   9.1420000   5.4730000 -72.5160000
   9.1808618   6.0443194 -73.4434612   9.7420000   4.0770000 -72.7490000
   9.7030619   3.5048853 -71.8220322   9.1703735   3.5592055 -73.5192160
  10.7786084   4.1756472 -73.0711972   7.6520000   5.4420000 -72.1250000
   7.1441621   4.8162484 -72.8589185   7.5911055   4.9721008 -71.1433758
   6.9820000   6.8130000 -72.0750000   7.0420919   7.2833518 -73.0564571
   5.9358644   6.6966258 -71.7918806   7.4890373   7.4392052 -71.3409155
  11.4020000   5.9160000 -71.7480000  12.0290000   5.0490000 -71.1400000
  11.9880000   6.6960000 -72.6720000  11.5095907   7.4523971 -73.1400676
  13.3380000   6.4030000 -73.0580000  13.3811564   5.3675981 -73.3959047
  13.8620000   7.3110000 -74.1860000  13.6167829   8.3416715 -73.9297111
  14.9449438   7.1969396 -74.2341978  13.2520000   6.9650000 -75.5460000
  13.6290803   5.9803122 -75.8222268  12.1721967   6.9139215 -75.4062935
  13.5750000   7.9640000 -76.6570000  14.6020343   8.2954862 -76.5039758
  13.5039919   7.4278617 -77.6033683  12.6470000   9.1790000 -76.6890000
  11.6207810   8.8446730 -76.8413176  12.7180555   9.7117427 -75.7407197
  13.0400000  10.0830000 -77.7930000  12.9738141   9.5896695 -78.6718311
  12.4236178  10.8829542 -77.8086947  13.9907441  10.3932482 -77.6518234
  14.2640000   6.5050000 -71.8860000  15.1260000   5.6490000 -71.6960000
  14.1210000   7.5660000 -71.0790000  13.4271602   8.2601906 -71.3172961
  14.9810000   7.8200000 -69.9570000  16.0033221   7.5548974 -70.2265875
  14.9530000   9.2950000 -69.5290000  13.9523032   9.6731121 -69.3198673
  15.5861188   9.4405878 -68.6537487  15.5190000  10.1580000 -70.6160000
  14.7830000  10.6500000 -71.6710000  15.6420000  11.3440000 -72.4580000
  15.2221746  11.8070953 -73.3509661  16.8760000  11.3340000 -71.9850000
  17.7201715  11.7562914 -72.3443664  16.7950000  10.5850000 -70.8230000
  17.6876364  10.4145349 -70.2211336  14.7100000   6.9430000 -68.7700000
  15.6240000   6.6820000 -67.9910000  13.4610000   6.4740000 -68.5660000
  12.7056757   6.6183636 -69.2207853  13.1800000   5.7620000 -67.3450000
  13.4288827   6.4217618 -66.5138135  11.7190000   5.3010000 -67.1870000
  11.5354950   5.0586875 -66.1402384  11.0571084   6.1110414 -67.4933208
  11.4680000   4.1570000 -67.9880000  10.5544357   3.8834026 -67.8777977
  14.0380000   4.5430000 -67.2270000  14.3380000   3.8660000 -68.2090000
  14.5080000   4.2710000 -65.9910000  14.3273101   4.8872956 -65.2114936
  15.2990000   3.0990000 -65.7610000  16.0411043   3.0402835 -66.5571990
  16.0280000   3.0680000 -64.4060000  16.6821708   3.9377329 -64.3449719
  15.2836117   3.1174297 -63.6113033  16.8610000   1.7900000 -64.2470000
  16.1546081   0.9828689 -64.0529621  17.3519464   1.6199391 -65.2052030
  17.9110000   1.8260000 -63.1360000  18.5848459   2.6581183 -63.3399849
  17.3935162   2.0010242 -62.1927733  18.7180000   0.5270000 -63.0420000
  18.0474354  -0.2888355 -62.7720813  19.1703896   0.3190974 -64.0116491
  19.7790000   0.6510000 -62.0200000  19.3599891   0.8432216 -61.1213452
  20.3011116  -0.2121527 -61.9703324  20.4007163   1.4066416 -62.2701471
  14.4350000   1.8790000 -65.8260000  14.8390000   0.8640000 -66.3920000
  13.2130000   1.9430000 -65.2550000  12.8178620   2.7938039 -64.8807034
  12.4230000   0.7460000 -65.2040000  12.8648547  -0.0475947 -65.8065538
  12.1970000   0.2470000 -63.8100000  11.5912687  -0.6590345 -63.8270720
  13.5700000  -0.0660000 -63.1900000  14.1761735   0.8397241 -63.1721600
  13.4347201  -0.4321407 -62.1722864  14.0731320  -0.8276284 -63.7857176
  11.3720000   1.2640000 -63.0060000  12.0165980   2.1190687 -62.8024029
  10.5393747   1.5789498 -63.6350002  10.8330000   0.7080000 -61.6890000
  11.6651226   0.3932491 -61.0592352  10.2608817   1.4803782 -61.1749847
  10.1879008  -0.1468718 -61.8918327  11.0680000   0.9910000 -65.7770000
  10.5570000   2.1100000 -65.7720000  10.4760000  -0.0830000 -66.3400000
  11.0086584  -0.9307797 -66.4728307   9.1310000  -0.0460000 -66.8200000
   8.5804488   0.6683633 -66.2078907   8.9870000   0.3600000 -68.3010000
   7.9535126   0.1773831 -68.5953707   9.2170525   1.4185606 -68.4219351
   9.8550000  -0.3860000 -69.2860000  10.7570000  -1.3890000 -69.0840000
  10.8796734  -1.7491222 -68.0625486  11.3410000  -1.7400000 -70.2790000
  12.0458061  -2.4517082 -70.4086891  10.8050000  -0.9530000 -71.2760000
  11.0520000  -0.9130000 -72.6190000  11.7918966  -1.5988703 -73.0315938
  10.3440000  -0.0010000 -73.3700000  10.5112633   0.0581186 -74.4454664
   9.4220000   0.8450000 -72.7890000   8.8676348   1.5639440 -73.3922397
   9.1730000   0.8090000 -71.4340000   8.4420860   1.4923341 -71.0016576
   9.8730000  -0.0970000 -70.6920000   8.5430000  -1.4010000 -66.5860000
   9.2650000  -2.3840000 -66.4310000   7.2000000  -1.4740000 -66.4960000
   6.6329849  -0.6428121 -66.5838630   6.5400000  -2.7260000 -66.2700000
   7.1435897  -3.5150334 -66.7185589   6.3300000  -3.0540000 -64.7790000
   5.7670526  -3.9770488 -64.6405432   7.2625457  -3.1100740 -64.2174714
   5.5230000  -1.9650000 -64.1580000   6.1230000  -0.7890000 -63.7690000
   7.1941002  -0.6617355 -63.9259967   5.3890000   0.2180000 -63.1890000
   5.8769313   1.1444656 -62.8862042   4.0390000   0.0560000 -62.9910000
   3.4498362   0.8517568 -62.5351962   3.4320000  -1.1170000 -63.3710000
   2.3618766  -1.2506305 -63.2126366   4.1720000  -2.1210000 -63.9500000
   3.6888061  -3.0512111 -64.2488825   5.2040000  -2.6530000 -66.9360000
   4.7510000  -1.5750000 -67.3160000   4.5450000  -3.8150000 -67.1190000
   4.9181877  -4.7073131 -66.8281261   3.2590000  -3.7900000 -67.7530000
   2.5383156  -3.2732923 -67.1191811   3.3250904  -3.2826074 -68.7154366
   2.7940000  -5.1940000 -67.9740000   3.4820000  -6.1570000 -67.6360000
   1.5780000  -5.3320000 -68.5450000   1.0489692  -4.5112970 -68.8032099
   1.0220000  -6.6210000 -68.8420000   1.8465610  -7.3240702 -68.9598587
   0.0690000  -7.1580000 -67.7610000  -0.2011432  -8.1861116 -68.0020571
   0.5739204  -7.1324314 -66.7953387  -1.1050000  -6.3620000 -67.7020000
  -1.6914601  -6.7064955 -67.0245140   0.2150000  -6.4730000 -70.0960000
   0.0300000  -5.3680000 -70.6000000  -0.2870000  -7.6030000 -70.6340000
  -0.1554546  -8.4891554 -70.1676056  -1.0360000  -7.5830000 -71.8590000
  -0.7161518  -6.7249198 -72.4501808  -0.8380000  -8.8590000 -72.6970000
   0.2194530  -9.0076474 -72.9156239  -1.2268419  -9.7330615 -72.1745839
  -1.5890000  -8.7040000 -74.0110000  -2.1890000  -7.6640000 -74.2810000
  -1.5650000  -9.7710000 -74.8530000  -2.0473008  -9.7221424 -75.7390579
  -1.0649746 -10.6078020 -74.5887318  -2.5010000  -7.4860000 -71.5420000
  -3.0280000  -8.2560000 -70.7410000  -3.1760000  -6.4780000 -72.1410000
  -2.6392587  -5.8189163 -72.6865427  -4.5950000  -6.2660000 -72.0170000
  -4.8617778  -6.3385460 -70.9626443  -5.0570000  -4.8980000 -72.5480000
  -4.7055129  -4.8016265 -73.5752625  -6.1468343  -4.8844679 -72.5346548
  -4.5220000  -3.7300000 -71.7140000  -4.7758171  -3.9379034 -70.6745512
  -3.4380935  -3.7262895 -71.8290431  -5.1770000  -2.0990000 -72.1740000
  -6.8370000  -2.4130000 -71.5070000  -6.7667692  -2.6210939 -70.4393561
  -7.4645782  -1.5359461 -71.6651855  -7.2772505  -3.2706644 -72.0156182
  -5.3310000  -7.3470000 -72.7520000  -6.4060000  -7.7710000 -72.3310000
  -4.7790000  -7.8070000 -73.8940000  -3.9364220  -7.3944785 -74.2681492
  -5.3780000  -8.8990000 -74.6090000  -4.6555989  -9.7138470 -74.6565412
  -6.2589238  -9.2268539 -74.0571083  -5.7870000  -8.5260000 -76.0060000
  -5.5630000  -9.3080000 -76.9290000  -6.3700000  -7.3340000 -76.2350000
  -6.4961563  -6.6077479 -75.5445350  -6.8020000  -7.0770000 -77.5800000
  -7.1060295  -8.0195812 -78.0351988  -7.9840000  -6.0950000 -77.6470000
  -7.7311512  -5.1505050 -77.1652367  -8.2786046  -5.9081078 -78.6796565
  -9.1620000  -6.7170000 -76.9100000  -9.0690000  -7.8240000 -76.3820000
 -10.3080000  -5.9860000 -76.8730000 -11.1208675  -6.3507146 -76.3972590
 -10.3411826  -5.0816133 -77.3214244  -5.6670000  -6.4480000 -78.3170000
  -5.8320000  -5.4130000 -78.9600000  -4.4790000  -7.0790000 -78.2530000
  -4.3658405  -7.9115273 -77.6924712  -3.3440000  -6.5880000 -78.9770000
  -2.5076555  -7.2792536 -78.8730987  -3.5940281  -6.4769990 -80.0321133
  -2.9450000  -5.2560000 -78.4290000  -2.2880000  -4.4790000 -79.1210000
  -3.3370000  -4.9470000 -77.1770000  -3.8699277  -5.5942050 -76.6137832
  -2.9850000  -3.6780000 -76.6060000  -2.3222314  -3.1530796 -77.2939648
  -4.1730000  -2.8080000 -76.3280000  -3.8481511  -1.8562425 -75.9076061
  -4.9130000  -2.5570000 -77.6530000  -5.2385823  -3.5083314 -78.0737901
  -5.7818837  -1.9247129 -77.4703711  -4.2436391  -2.0598465 -78.3550648
  -5.0390000  -3.4420000 -75.4000000  -5.7954453  -2.8759026 -75.2299278
  -2.2890000  -3.9430000 -75.3050000  -2.6740000  -4.8400000 -74.5560000
  -1.2510000  -3.1350000 -75.0000000  -1.0839504  -2.3296386 -75.5861628
  -0.4220000  -3.3170000 -73.8390000  -0.6601328  -4.2389528 -73.3085332
   1.0450000  -3.2960000 -74.1740000   1.3043208  -2.3701306 -74.6874384
   1.8260000  -3.3850000 -72.8530000   1.5675353  -4.3108954 -72.3391768
   2.8958443  -3.3720938 -73.0612481   1.5692077  -2.5352109 -72.2205323
   1.4190000  -4.4010000 -75.1760000   0.7456908  -4.3022327 -76.0274696
   2.4422103  -4.2079033 -75.4982638   1.3220000  -5.8150000 -74.6130000
   0.2989002  -6.0090060 -74.2909311   1.6022534  -6.5333850 -75.3833767
   1.9954185  -5.9146757 -73.7617232  -0.6320000  -2.1570000 -72.9100000
  -0.8230000  -1.0230000 -73.3460000  -0.6210000  -2.4310000 -71.5870000
  -0.4757906  -3.3849250 -71.2886033  -0.7720000  -1.4170000 -70.5790000
  -1.1470852  -0.4989235 -71.0312675  -1.7720000  -1.8780000 -69.4960000
  -2.7372056  -2.1627723 -69.9147865  -1.3487645  -2.7228374 -68.9526570
  -2.0420000  -0.8140000 -68.4870000  -2.8410000   0.2630000 -68.7980000
  -3.2689579   0.3394179 -69.7975560  -3.1010000   1.2360000 -67.8630000
  -3.7278694   2.0887273 -68.1237518  -2.5710000   1.1340000 -66.6000000
  -2.7705586   1.9057689 -65.8565963  -1.7860000   0.0530000 -66.2750000
  -1.3690655  -0.0349939 -65.2717439  -1.5270000  -0.9160000 -67.2140000
  -0.9088551  -1.7753460 -66.9541515   0.5910000  -1.2500000 -69.9660000
   1.1390000  -2.1980000 -69.4050000   1.1840000  -0.0370000 -70.0520000
   0.7138731   0.7617841 -70.4532780   2.5290000   0.1350000 -69.5670000
   2.8900259  -0.8418972 -69.2453926   3.5200000   0.7120000 -70.5940000
   2.9610608   1.5538025 -71.0027233   4.4289598   1.0776720 -70.1163222
   3.8920000  -0.2560000 -71.7300000   2.9969877  -0.4727837 -72.3131454
   4.9640000   0.3580000 -72.6460000   5.8595414   0.5746428 -72.0636167
   5.2097610  -0.3459139 -73.4411148   4.5835517   1.2810600 -73.0834010
   4.3020000  -1.6300000 -71.1760000   3.4725822  -2.0573508 -70.6124959
   4.5594580  -2.2932057 -72.0018177   5.1651021  -1.5151261 -70.5202883
   2.5710000   1.0600000 -68.3970000   1.6740000   1.8760000 -68.1860000
   3.6470000   0.9360000 -67.5910000   4.3625576   0.2468478 -67.7730601
   3.7990000   1.7880000 -66.4480000   3.2483961   2.7166326 -66.5982530
   3.4264194   1.2856727 -65.5552793   5.2500000   2.1070000 -66.2580000
   6.1190000   1.2550000 -66.4320000   5.5320000   3.3750000 -65.8870000
   4.7632477   4.0177128 -65.7603525   6.8650000   3.8470000 -65.6270000
   7.5667139   3.0294738 -65.4616285   7.3840000   4.7390000 -66.7200000
   8.3610998   5.1365344 -66.4455136   7.5130000   3.9050000 -68.0060000
   6.5361469   3.5074855 -68.2813922   7.8886934   4.5351237 -68.8121633
   8.2057017   3.0805510 -67.8370405   6.4880000   5.9840000 -66.8680000
   5.5257132   5.6457215 -67.2522819   6.3530528   6.4052472 -65.8717874
   7.0610000   7.0520000 -67.7990000   7.1957991   6.6315972 -68.7955894
   6.3733133   7.8960708 -67.8512569   8.0231404   7.3911213 -67.4150958
   6.8060000   4.6570000 -64.3640000   5.8070000   5.3220000 -64.0970000
   7.8360000   4.6050000 -63.5580000   9.1720000   4.2780000 -64.0270000
   9.2911794   4.6665163 -65.0384107   9.2813659   3.1935750 -64.0396708
  10.1210000   4.9520000 -63.0190000  10.4672202   5.9109711 -63.4044934
  10.9791386   4.3109651 -62.8170749   9.2590000   5.1320000 -61.7540000
   9.6009698   6.0395294 -61.2564599   9.2453400   4.3093917 -61.0389975
   7.8600000   5.3490000 -62.3250000   7.0763677   4.9876549 -61.6590807
   7.6260000   6.7970000 -62.6310000   8.2650000   7.3230000 -63.5420000
   6.7210000   7.4580000 -61.8820000   6.2354509   6.9777498 -61.1378890
   6.4190000   8.8420000 -62.1090000   6.7390444   9.1327505 -63.1095673
   5.3467048   9.0096004 -62.0080423   7.1390000   9.6820000 -61.1050000
   7.9290000   9.1910000 -60.2990000   6.8670000  11.0030000 -61.1460000
   6.2233052  11.3629329 -61.8360758   7.4580000  11.9240000 -60.2240000
   8.4764051  11.5960603 -60.0156597   7.5050000  13.3710000 -60.7530000
   7.9955168  14.0125536 -60.0209470   8.0544961  13.4077745 -61.6936390
   6.0790000  13.8570000 -60.9790000   5.2060000  13.0200000 -61.3340000
   5.8450000  15.0820000 -60.8030000   6.6470000  11.9260000 -58.9780000
   5.4500000  11.6420000 -59.0010000   7.3020000  12.2240000 -57.8410000
   8.2944702  12.4113529 -57.8420243   6.5870000  12.3610000 -56.6090000
   5.5209811  12.2893703 -56.8248054   6.9490000  11.2950000 -55.5620000
   8.0294625  11.2001109 -55.4538520   6.5079449  11.5413812 -54.5961497
   6.3880000   9.9600000 -56.0260000   5.1930000   9.8320000 -56.2880000
   7.2750000   8.9360000 -56.1390000   6.9563274   8.0271566 -56.4432223
   8.2486787   9.0886709 -55.9182236   7.0150000  13.6710000 -56.0450000
   8.0790000  13.7690000 -55.4360000   6.2080000  14.7290000 -56.2410000
   5.3291485  14.6893413 -56.7371316   6.6240000  15.9850000 -55.6980000
   7.6283028  16.1991267 -56.0635473   5.7010000  17.1570000 -56.0800000
   6.1399642  18.0621363 -55.6603121   5.7005742  17.2247194 -57.1678943
   4.2660000  17.0080000 -55.5790000   3.7762308  16.2584577 -56.2006215
   4.3117233  16.6521350 -54.5497422   3.4700000  18.3130000 -55.6320000
   2.4884228  18.1130253 -55.2023313   3.9956924  19.0400894 -55.0130590
   3.3030000  18.8730000 -57.0450000   2.9729303  18.0748852 -57.7099566
   2.5548247  19.6655351 -57.0301351   4.5900000  19.4190000 -57.5310000
   5.2833024  18.6846784 -57.5452590   4.4690694  19.7860289 -58.4641482
   4.8958131  20.1588552 -56.9152145   6.6150000  15.8530000 -54.2150000
   7.5780000  16.1980000 -53.5340000   5.5100000  15.3020000 -53.6870000
   4.7909701  14.9577091 -54.3071283   5.3410000  15.1100000 -52.2810000
   6.2990775  15.2956729 -51.7954979   4.2830000  16.0340000 -51.6510000
   3.4056166  15.9931422 -52.2964675   4.0367516  15.6115201 -50.6768478
   4.7220000  17.4900000 -51.4790000   5.4475869  17.7852180 -52.2369385
   3.8623188  18.1588755 -51.5196926   5.3720000  17.6160000 -50.1080000
   6.3300000  18.3640000 -49.9240000   4.8260000  16.8700000 -49.1100000
   5.2163603  16.9137699 -48.1795139   4.0327192  16.2757225 -49.3040132
   4.8310000  13.7220000 -52.1330000   4.8220000  12.9460000 -53.0880000
   4.4020000  13.3660000 -50.9130000   4.4004911  14.0015423 -50.1280267
   3.8680000  12.0560000 -50.7240000   4.5676254  11.2612826 -50.9829358
   3.3580000  11.8150000 -49.2920000   2.6493509  12.5978077 -49.0215771
   2.8640428  10.8447328 -49.2401527   4.1989049  11.8315390 -48.5986713
   2.6960000  11.9780000 -51.6420000   2.4760000  10.9660000 -52.3060000
   1.9230000  13.0780000 -51.7220000   2.1359137  13.9271135 -51.2182408
   0.7890000  13.0730000 -52.5940000   0.3354171  12.0823462 -52.5629075
  -0.2770000  14.1140000 -52.2110000  -0.5941021  13.8913017 -51.1922012
   0.2035266  15.0920483 -52.2358155  -1.4980000  14.1220000 -53.1350000
  -1.1349572  14.3194589 -54.1436183  -1.9357642  13.1245410 -53.0957556
  -2.7690000  15.3500000 -52.7060000  -3.3090000  14.5150000 -51.1880000
  -2.4692641  14.4364641 -50.4975113  -4.1095315  15.0894108 -50.7218430
  -3.6730172  13.5168672 -51.4315645   1.2780000  13.4430000 -53.9570000
   1.3910000  14.6230000 -54.2900000   1.5990000  12.4230000 -54.7730000
   1.5084487  11.4763813 -54.4326871   2.0040000  12.6200000 -56.1330000
   1.4218414  13.4451398 -56.5432863   3.4960000  12.9430000 -56.2970000
   3.7287550  13.8572254 -55.7509998   4.0887243  12.1204694 -55.8967233
   3.8030000  13.1220000 -57.6720000   4.7367016  13.3235593 -57.7677859
   1.7550000  11.3010000 -56.7820000   1.8970000  10.2640000 -56.1360000
   1.3720000  11.2880000 -58.0740000   1.2710625  12.1197420 -58.6380179
   1.0940000  10.0190000 -58.6790000   0.3771138   9.4857373 -58.0546570
   0.5120000  10.1470000 -60.0950000  -0.3526822  10.8071304 -60.0267963
   1.2775019  10.6146079 -60.7142332   0.0910000   8.8210000 -60.7220000
   0.9565170   8.1673465 -60.8302511  -0.6692904   8.3200514 -60.1227436
  -0.4760000   9.1410000 -62.0940000   0.3040000   9.6230000 -62.9590000
  -1.7010000   8.9230000 -62.2910000   2.3820000   9.2680000 -58.7540000
   3.3830000   9.7710000 -59.2600000   2.3790000   8.0290000 -58.2270000
   1.5227318   7.6583935 -57.8402767   3.5540000   7.2090000 -58.1860000
   4.3567222   7.7820984 -57.7220017   3.3430000   5.9160000 -57.3790000
   2.5482425   5.3270012 -57.8367565   4.2661875   5.3365345 -57.3723068
   3.0648869   6.1672165 -56.3554559   3.9790000   6.8090000 -59.5640000
   5.1680000   6.8450000 -59.8710000   3.0280000   6.4240000 -60.4410000
   2.0381907   6.4779626 -60.2474412   3.4450000   5.9380000 -61.7270000
   4.5077735   6.1508672 -61.8423220   3.2220000   4.4270000 -61.9210000
   2.2075093   4.1242363 -61.6616892   3.4536468   4.0912663 -62.9318030
   4.1350000   3.6860000 -61.0060000   5.4510000   3.4710000 -61.3520000
   5.8239686   3.8497033 -62.3036187   6.2920000   2.7850000 -60.5080000
   7.3317733   2.6222586 -60.7917031   5.8240000   2.3050000 -59.3090000
   6.4891808   1.7625363 -58.6371611   4.5120000   2.5110000 -58.9580000
   4.1343799   2.1303690 -58.0089882   3.6750000   3.1980000 -59.8050000
   2.6335741   3.3614748 -59.5278576   2.6610000   6.6130000 -62.8090000
   1.5830000   7.1550000 -62.5730000   3.2170000   6.5880000 -64.0410000
   4.1235549   6.1568113 -64.1520582   2.5740000   7.1310000 -65.2050000
   1.6666797   7.6357183 -64.8731440   3.4250000   8.1290000 -66.0130000
   4.4489958   7.7660941 -66.1014943   2.9979826   8.2563974 -67.0077492
   3.4220000   9.4380000 -65.3000000   4.2790000   9.6900000 -64.2540000
   4.9779565   8.9165720 -63.9356159   4.2590000  10.9060000 -63.6110000
   4.9426338  11.0928728 -62.7828544   3.3810000  11.8840000 -64.0110000
   3.3570000  13.1320000 -63.3520000   3.9958829  13.1914742 -62.6379334
   2.5240000  11.6440000 -65.0550000   1.8246823  12.4149471 -65.3785672
   2.5490000  10.4260000 -65.6940000   1.8709140  10.2326042 -66.5252024
   2.2600000   5.9790000 -66.1000000   3.1060000   5.1200000 -66.3480000
   1.0140000   5.9300000 -66.6140000   0.3406652   6.6695841 -66.4735189
   0.6190000   4.7900000 -67.3840000   1.4290298   4.0608790 -67.3657359
  -0.6570000   4.1200000 -66.8500000  -1.5036582   4.8033371 -66.7842764
  -0.9518410   3.2293271 -67.4048609  -0.3580000   3.6760000 -65.4580000
   0.4090000   2.5580000 -65.2240000   0.7999193   1.9931337 -66.0702908
   0.6840000   2.1510000 -63.9400000   1.2963342   1.2654727 -63.7697390
   0.1880000   2.8590000 -62.8720000   0.4041562   2.5409742 -61.8520804
  -0.5840000   3.9730000 -63.0950000  -0.9825103   4.5374370 -62.2519694
  -0.8540000   4.3760000 -64.3810000  -1.4674588   5.2594582 -64.5578326
   0.3580000   5.1870000 -68.8010000  -0.0850000   6.2990000 -69.0880000
   0.6550000   4.2550000 -69.7300000   0.9806373   3.3493214 -69.4237225
   0.4480000   4.4640000 -71.1330000  -0.1636088   5.3581628 -71.2534441
   1.7470000   4.6440000 -71.9400000   2.4026381   3.7891562 -71.7742290
   1.4857856   4.7013653 -72.9966817   2.4500000   5.8960000 -71.5330000
   3.2900000   5.9130000 -70.4430000   3.4345062   4.9987101 -69.8674209
   3.9440000   7.0670000 -70.0770000   4.6025213   7.0679837 -69.2084089
   3.7650000   8.2190000 -70.8050000   4.4370000   9.4020000 -70.4320000
   4.9921584   9.2895738 -69.6569135   2.9310000   8.2110000 -71.8980000
   2.7850025   9.1215420 -72.4791183   2.2810000   7.0540000 -72.2580000
   1.6225908   7.0464599 -73.1266430  -0.1800000   3.2210000 -71.6780000
  -0.1600000   2.1700000 -71.0380000  -0.7990000   3.3330000 -72.8710000
  -0.8523991   4.2304523 -73.3312470  -1.3560000   2.1930000 -73.5380000
  -1.1030023   1.2933358 -72.9770226  -2.8470000   2.2550000 -73.6980000
  -3.2008890   1.3614321 -74.2121976  -3.4930000   2.3340000 -72.3050000
  -3.1399227   3.2276219 -71.7903390  -4.5770974   2.3795276 -72.4087269
  -3.2205969   1.4509354 -71.7269913  -3.2120000   3.3870000 -74.4770000
  -4.1668512   3.4155776 -74.5720936  -0.7610000   2.1710000 -74.9120000
  -0.6890000   3.1990000 -75.5830000  -0.2940000   0.9890000 -75.3530000
  -0.3391368   0.1787279 -74.7517338   0.2740000   0.8340000 -76.6630000
   0.2710606   1.7995344 -77.1688003   1.7280000   0.3110000 -76.6050000
   2.2388925   1.0813204 -76.0273371   1.7261726  -0.6227967 -76.0427541
   2.4630000   0.1020000 -77.9470000   2.3670840   1.0048530 -78.5501230
   3.9510000  -0.1930000 -77.7000000   4.0477391  -1.0960384 -77.0972878
   4.4565255  -0.3381163 -78.6547177   4.4055299   0.6456427 -77.1725710
   1.8310000  -1.0200000 -78.7920000   0.7931946  -0.7694322 -79.0117163
   2.3836177  -1.1278581 -79.7253175   1.8682953  -1.9578592 -78.2378085
  -0.5960000  -0.1510000 -77.3790000  -0.8020000  -1.2640000 -76.9000000
  -1.1190000   0.2330000 -78.5630000  -0.8575687   1.1173839 -78.9748471
  -2.0250000  -0.6160000 -79.2890000  -2.3278749  -1.4360099 -78.6378858
  -3.2860000   0.1210000 -79.7700000  -2.9646614   0.9176043 -80.4410158
  -3.8941932  -0.5953448 -80.3223144  -4.1120000   0.7180000 -78.6290000
  -4.3976982  -0.1019789 -77.9701282  -3.4671944   1.4104497 -78.0878520
  -5.3680000   1.4540000 -79.1010000  -5.1148496   2.2896140 -79.7535052
  -6.0487672   0.7804659 -79.6215836  -6.0550000   1.9850000 -77.8900000
  -5.8902321   1.5911645 -76.9746615  -6.9350000   3.0220000 -78.0040000
  -7.2080000   3.5530000 -79.2310000  -6.7571699   3.1762910 -80.0525489
  -7.8596709   4.3203598 -79.3121395  -7.5370000   3.5330000 -76.8910000
  -7.3292536   3.1414857 -75.9834439  -8.1875987   4.3004212 -76.9797956
  -1.3140000  -1.1070000 -80.5070000  -0.3570000  -0.4860000 -80.9690000
  -1.7390000  -2.2680000 -81.0490000  -2.5048248  -2.8195931 -80.6893381
  -1.0500000  -2.7400000 -82.2120000  -0.4882858  -1.9086398 -82.6379303
  -0.0760000  -3.8930000 -81.9210000  -0.5781971  -4.7139273 -81.4091645
   0.3821357  -4.2633258 -82.8380990   1.2960000  -3.3890000 -80.8400000
   1.8945025  -4.5764008 -80.8122082  -2.0170000  -3.2410000 -83.2310000
  -2.6450000  -4.2860000 -83.0600000  -2.1430000  -2.4960000 -84.3440000
  -1.6275422  -1.6327783 -84.4401822  -2.9470000  -2.9320000 -85.4440000
  -3.4080969  -3.8817948 -85.1731150  -4.0570000  -1.9390000 -85.8300000
  -4.6640933  -2.3713637 -86.6253607  -4.6837706  -1.7457700 -84.9594135
  -3.4850000  -0.7200000 -86.2810000  -4.1844797  -0.1072141 -86.5193724
  -1.9910000  -3.0040000 -86.5810000  -1.2440000  -2.0560000 -86.8210000
  -1.9580000  -4.1320000 -87.3130000  -2.5659374  -4.9308136 -87.2016072
  -0.9670000  -4.1730000 -88.3420000  -0.7001836  -3.1493321 -88.6047017
   0.3100000  -4.9220000 -87.9240000   0.7121169  -4.4143275 -87.0472618
   0.0176752  -5.9366247 -87.6534766   1.3790000  -4.9740000 -89.0180000
   2.1721130  -5.6684585 -88.7408717   0.9334246  -5.2898402 -89.9612956
   1.9610000  -3.5760000 -89.1750000   1.1600000  -2.6070000 -89.2480000
   3.2140000  -3.4610000 -89.2200000  -1.4870000  -4.8670000 -89.5520000
  -2.1590000  -5.8950000 -89.4720000  -1.1920000  -4.2700000 -90.7180000
  -0.7046239  -3.3855401 -90.7008339  -1.4630000  -4.8700000 -91.9870000
  -1.6406705  -5.9334885 -91.8272357  -2.6800000  -4.2720000 -92.7120000
  -3.5455394  -4.4022544 -92.0624043  -2.4883482  -3.2081683 -92.8521130
  -2.9580000  -4.9220000 -94.0670000  -2.1034673  -4.7951800 -94.7316739
  -3.1591890  -5.9849182 -93.9334822  -4.1780000  -4.2480000 -94.6760000
  -4.8170000  -3.4260000 -93.9660000  -4.4850000  -4.5410000 -95.8630000
  -0.2650000  -4.5400000 -92.8120000  -0.1050000  -3.4020000 -93.2550000
   0.6280000  -5.5170000 -93.0390000   0.5302004  -6.4732666 -92.7290183
   1.7870000  -5.1660000 -93.7990000   1.5915187  -4.2266539 -94.3162187
   3.0470000  -4.9960000 -92.9290000   2.8135727  -4.3630988 -92.0728183
   3.3818742  -5.9721093 -92.5780443   4.1530000  -4.3460000 -93.7550000
   4.1170000  -4.4550000 -95.0110000   5.0560000  -3.7280000 -93.1320000
   2.0640000  -6.2590000 -94.7720000   3.1400000  -6.8550000 -94.7530000
   1.1000000  -6.5580000 -95.6600000   0.1954404  -6.1092455 -95.6821503
   1.3920000  -7.5430000 -96.6530000   2.3713943  -7.9697093 -96.4366552
   0.3550000  -8.6870000 -96.7020000   0.3408553  -9.0058125 -95.6597631
  -0.6259878  -8.2988266 -96.9760154   0.7030000  -9.8960000 -97.6070000
   1.6371875 -10.3396024 -97.2625999  -0.4160000 -10.9500000 -97.5510000
  -1.3504675 -10.5072357 -97.8957160  -0.1551964 -11.7919743 -98.1922187
  -0.5363853 -11.2987138 -96.5253263   1.0320000  -9.5000000 -99.0550000
   1.8904032  -8.8282945 -99.0624282   1.2660807 -10.3942849 -99.6325483
   0.1731965  -8.9961515 -99.4984999   1.3460000  -6.8000000 -97.9440000
   0.2720000  -6.5220000 -98.4730000   2.5250000  -6.4450000 -98.4870000
   3.4185623  -6.6714981 -98.0742720   2.5120000  -5.7360000 -99.7300000
   1.5712515  -5.9539021-100.2355790   2.6450000  -4.2120000 -99.5750000
   1.8180004  -3.8401386 -98.9701116   3.5884944  -3.9835455 -99.0792914
   2.6170000  -3.5870000-100.8500000   2.7006060  -2.6367157-100.7424375
   3.6770000  -6.1900000-100.5410000   4.7970000  -6.3010000-100.0450000
   3.4150000  -6.4790000-101.8260000   2.4665032  -6.4147523-102.1670651
   4.4450000  -6.8330000-102.7510000   5.3852936  -6.4266695-102.3783841
   4.6120000  -8.3490000-102.9580000   4.7329681  -8.8043831-101.9751001
   3.6976756  -8.7211080-103.4202193   5.8100000  -8.7090000-103.8370000
   5.6514831  -8.3408220-104.8506164   6.7226174  -8.2726084-103.4310554
   5.9410000 -10.2250000-103.8630000   5.1120000 -10.9010000-103.1970000
   6.8740000 -10.7270000-104.5450000   4.0010000  -6.2350000-104.0400000
   2.8020000  -6.1310000-104.2930000   4.9420000  -5.7980000-104.8950000
   5.9396835  -5.8710131-104.7557303   4.4680000  -5.1770000-106.0940000
   3.4311405  -5.4720964-106.2550582   4.5380000  -3.6440000-106.0320000
   4.1279789  -3.3428607-105.0679994   5.5915791  -3.3687586-106.0800954
   3.7760000  -2.9380000-107.1520000   4.2958157  -3.0642667-108.1017100
   2.7617914  -3.3277830-107.2388869   3.7220000  -1.4580000-106.7960000
   4.3040000  -1.0860000-105.7420000   3.0950000  -0.6810000-107.5650000
   5.2970000  -5.6330000-107.2470000   6.4670000  -5.9830000-107.0930000
   4.6820000  -5.6570000-108.4450000   3.7174571  -5.3696918-108.5299140
   5.3850000  -6.0320000-109.6330000   6.4049013  -6.2931763-109.3507104
   4.7640000  -7.2200000-110.3850000   5.4359378  -7.4758547-111.2042297
   4.7079650  -8.0555498-109.6872775   3.3700000  -6.9270000-110.9420000
   2.6690036  -6.6828468-110.1438182   3.4048788  -6.1058823-111.6579967
   2.8760000  -8.1760000-111.6580000   1.8870000  -8.7860000-111.2570000
   3.5800000  -8.5660000-112.7540000   3.2955470  -9.3882994-113.2668465
   4.3842063  -8.0316322-113.0503184   5.3100000  -4.8570000-110.5480000
   4.3740000  -4.0610000-110.4720000   6.3140000  -4.6990000-111.4260000
   7.0855157  -5.3478065-111.4885540   6.2890000  -3.5860000-112.3250000
   5.3917873  -3.0039052-112.1145854   7.5120000  -2.6610000-112.2140000
   7.5543188  -2.2889829-111.1903244   8.3996898  -3.2591829-112.4196310
   7.4580000  -1.4790000-113.1840000   7.6594885  -1.8686013-114.1818547
   6.4455825  -1.0766285-113.1492135   8.4580000  -0.3700000-112.8590000
   9.3848703  -0.8481890-112.5422262   8.6342749   0.1905126-113.7770698
   7.9770000   0.5830000-111.7650000   8.6499263   1.4388937-111.7128780
   6.9708015   0.9266574-112.0049236   7.9620000  -0.1130000-110.4580000
   8.8943548  -0.4311441-110.2352925   7.6432340   0.5233421-109.7413712
   7.3381819  -0.9058748-110.5059543   6.2660000  -4.1160000-113.7160000
   6.6240000  -5.2660000-113.9650000   5.8110000  -3.2760000-114.6630000
   5.5296314  -2.3330805-114.4353296   5.7890000  -3.6770000-116.0340000
   5.9847424  -4.7437589-116.1426717   4.5100000  -3.3300000-116.7350000
   4.2886204  -2.2700039-116.6105024   4.6840000  -3.6450000-118.2310000
   4.9049606  -4.7049847-118.3563378   3.7649457  -3.4005152-118.7636040
   5.5055319  -3.0529660-118.6343365   3.3210000  -4.0530000-116.0830000
   3.3981955  -5.1089866-116.3419092   3.4187301  -3.9359765-115.0037161
   1.9630000  -3.5170000-116.5320000   1.8643428  -3.6341160-117.6111897
   1.1693133  -4.0727356-116.0326818   1.8848784  -2.4611046-116.2729984
   6.8640000  -2.8960000-116.7040000   6.8310000  -1.6670000-116.7260000
   7.8660000  -3.5970000-117.2620000   7.9012046  -4.6063646-117.2685697
   8.9190000  -2.8780000-117.9080000   8.8717213  -1.8106223-117.6922019
  10.2870000  -3.3800000-117.5480000  10.3569772  -4.4478704-117.7550149
  11.3260000  -2.6250000-118.3940000  11.2569376  -1.5570334-118.1871701
  12.3259458  -2.9791629-118.1434456  11.1325443  -2.8029425-119.4518341
  10.4830000  -3.2190000-116.0310000   9.7243886  -3.7965806-115.5027847
  11.4730907  -3.5793525-115.7517757  10.3906174  -2.1668046-115.7618326
   8.7450000  -3.0630000-119.3760000   8.7230000  -4.1850000-119.8770000
   8.5950000  -1.9400000-120.1040000   8.5998294  -1.0267457-119.6726734
   8.4780000  -2.0170000-121.5270000   8.8637530  -2.9856080-121.8449503
   7.0390000  -1.8670000-122.0460000   6.4216197  -2.6603423-121.6246346
   6.6458242  -0.8984605-121.7370599   7.0200000  -1.9550000-123.4630000
   6.1179082  -1.8602672-123.7774136   9.2610000  -0.8670000-122.0580000
   9.3810000   0.1690000-121.4040000   9.8380000  -1.0270000-123.2610000
   9.7367872  -1.8677015-123.8115237  10.6030000   0.0530000-123.8060000
  10.6392142   0.8517777-123.0652289  12.0430000  -0.3360000-124.1800000
  12.0678715  -1.2224163-124.8138350  12.5476710   0.4866065-124.6866811
  12.7870000  -0.6410000-122.8880000  12.7500000   0.1380000-121.9380000
  13.4740000  -1.8130000-122.8490000  13.9862915  -2.0670658-122.0164691
  13.4691655  -2.4246423-123.6527233   9.9240000   0.4880000-125.0570000
   9.4930000  -0.3350000-125.8630000   9.7950000   1.8150000-125.2350000
  10.1486961   2.4805437-124.5626534   9.1740000   2.3150000-126.4210000
   8.3188441   1.6793646-126.6507286   8.6870000   3.7690000-126.2990000
   7.9524137   3.8353344-125.4964528   9.5352997   4.4135083-126.0685730
   8.0930000   4.1870000-127.5200000   7.7921090   5.0946749-127.4352016
  10.2100000   2.2760000-127.4930000  11.4070000   2.2160000-127.2130000
   9.7680000   2.2820000-128.7650000   8.7852631   2.3258371-128.9939233
  10.7130000   2.2570000-129.8370000  11.7150687   2.1995167-129.4119668
  10.5150000   1.0670000-130.7920000  10.5953696   0.1588005-130.1946612
   9.5067954   1.1457093-131.1987288  11.5240000   1.0130000-131.9390000
  11.4487531   1.8991477-132.5692230  12.5430839   0.9202878-131.5635342
  11.2030000  -0.2130000-132.7830000  10.2050000  -0.8950000-132.5550000
  12.0730000  -0.5050000-133.7870000  11.9072380  -1.3076545-134.3772289
  12.8808547   0.0821478-133.9377636  10.5040000   3.5120000-130.6130000
   9.3800000   4.0000000-130.7320000  11.5980000   4.0860000-131.1460000
  12.5148815   3.6718791-131.0569407  11.4710000   5.3000000-131.8960000
  10.4270002   5.6133062-131.8943385  12.3100000   6.4240000-131.3610000
  12.1065770   6.5663281-130.2996508  13.7940000   6.0660000-131.5550000
  13.9983025   5.9239650-132.6162192  14.4164714   6.8740268-131.1706550
  14.0198703   5.1460661-131.0157367  12.0030000   7.6330000-132.0360000
  12.5458973   8.3424608-131.6845340  11.9420000   5.0180000-133.2790000
  12.8020000   4.1640000-133.4940000  11.3620000   5.7160000-134.2720000
  10.6619923   6.4203631-134.0877143  11.7610000   5.4960000-135.6250000
  12.7386188   5.0139870-135.6200769  10.7800000   4.6110000-136.4160000
  10.7030635   3.6397537-135.9272662   9.8005022   5.0890214-136.4294027
  11.2390000   4.4350000-137.7490000  10.6191877   3.8821800-138.2304796
  11.8020000   6.8190000-136.3110000  11.2520000   7.8050000-135.8200000
  12.4870000   6.8710000-137.4680000  12.9363753   6.0443860-137.8352472
  12.5540000   8.0770000-138.2350000  12.0558578   8.8775976-137.6881937
  13.9570000   8.5100000-138.5470000  14.5434911   8.5596847-137.6295797
  14.5860000   7.4820000-139.5020000  14.0002806   7.4320916-140.4199007
  15.6067101   7.7822861-139.7388084  14.5975155   6.5018746-139.0252168
  13.9540000   9.7990000-139.1390000  14.8560076  10.0639298-139.3334089
  11.8820000   7.7700000-139.5300000  11.9850000   6.6530000-140.0360000
  11.1510000   8.7460000-140.0990000  11.0622131   9.6796090-139.7240461
  10.4690000   8.4370000-141.3180000  10.7996494   7.4562093-141.6597891
   8.9390000   8.4140000-141.1650000   8.6306299   9.3739428-140.7508539
   8.5062046   8.2913410-142.1578459   8.4520000   7.2860000-140.2540000
   9.0057187   7.2886019-139.3151232   7.3874762   7.3970344-140.0477000
   8.6930000   5.9710000-140.9810000   8.9050000   6.0130000-142.2220000
   8.6690000   4.9070000-140.3050000  10.7980000   9.4720000-142.3400000
  10.8540000  10.6660000-142.0460000  11.0530000   9.0130000-143.5780000
  11.0341177   8.0202761-143.7630462  11.3090000   9.9020000-144.6700000
  11.1539092  10.9219087-144.3181018  12.7290000   9.7920000-145.2460000
  12.9791085   8.7448031-145.4160696  12.8042905  10.3401454-146.1851315
  13.6980000  10.3870000-144.2320000  13.2170000  10.9940000-143.2370000
  14.9320000  10.2490000-144.4440000  10.3610000   9.5110000-145.7530000
  10.1280000   8.3280000-145.9980000   9.7750000  10.4830000-146.3880000
   9.4450000  11.7340000-145.7310000  10.3640925  12.2249269-145.4110624
   8.8213055  11.5290478-144.8608858   8.6980000  12.5280000-146.8130000
   9.3964269  13.1103699-147.4139528   7.9635554  13.1952333-146.3618988
   8.0070000  11.4370000-147.6530000   8.0216718  11.7520367-148.6963770
   6.9820560  11.2159570-147.3551252   8.8840000  10.1930000-147.4720000
   8.2386116   9.3539025-147.2122165   9.7010000   9.8390000-148.6670000
  10.8740000  10.2070000-148.7120000   9.1190000   9.1120000-149.6370000
   8.1621968   8.7939780-149.5779321   9.8760000   8.7710000-150.8010000
  10.9075969   9.1130485-150.7178743   9.8635963   7.6961628-150.9817498
   9.2270000   9.4630000-151.9490000   8.0040000   9.4540000-152.0820000
  10.0410000  10.0920000-152.8150000  11.0473011  10.0728471-152.7307943
   9.4670000  10.7830000-153.9270000   8.3844701  10.6601277-153.8933768
   9.7910000  12.2850000-153.9240000  10.8661110  12.4382044-153.8303837
   9.4363360  12.7535192-154.8420432   9.0840000  12.9100000-152.7300000
   7.9050000  12.5450000-152.4820000   9.7130000  13.7640000-152.0510000
  10.0560000  10.2060000-155.1710000  11.0190000  10.7380000-155.7150000
   9.4930000   9.0820000-155.6500000   8.7108944   8.6305030-155.1977163
   9.9940000   8.5150000-156.8650000  10.3253357   9.3299283-157.5085898
  11.1680000   7.5440000-156.6580000  11.9897794   8.0730908-156.1754643
  10.8437842   6.7201988-156.0221261  11.6040000   7.0330000-157.9080000
  12.3364871   6.4283318-157.7685767   8.8820000   7.7390000-157.4840000
   7.9690000   7.2890000-156.7960000   8.9240000   7.5820000-158.8210000
   9.6718938   7.9657377-159.3809104   7.9080000   6.8180000-159.4780000
   7.3165066   6.2994290-158.7234677   6.9860000   7.6400000-160.3280000
   6.5716249   8.4589141-159.7399752   7.7840000   8.2120000-161.5120000
   8.1983242   7.3936146-162.1007957   7.1248012   8.8125008-162.1388612
   8.5951859   8.8358096-161.1365808   5.9130000   6.8390000-160.8020000
   5.3293601   7.3744208-161.3444844   8.5940000   5.8540000-160.3870000
   9.6360000   6.1490000-160.9680000   8.0350000   4.6820000-160.4860000
   7.3820000   4.0670000-159.3440000   6.5080949   4.6585479-159.0711241
   8.0784120   4.0406839-158.5058969   7.0110000   2.6610000-159.8420000
   6.0241891   2.6643710-160.3049168   7.0234829   1.9458294-159.0195181
   8.1110000   2.3380000-160.8670000   7.6643641   1.7642515-161.6790517
   8.9597581   1.7891261-160.4590212   8.5720000   3.7020000-161.3860000
   9.6613582   3.7269684-161.3581863   8.1030000   4.0210000-162.7660000
   7.0930000   4.7090000-162.9040000   8.8200000   3.5440000-163.8010000
   9.6400868   2.9702177-163.6656085   8.3980000   3.8200000-165.1420000
   7.6161541   4.5787808-165.1093214   9.5390000   4.3280000-166.0410000
   9.9405728   5.2887867-165.7189326  10.3516474   3.6073198-166.1322381
   8.9940000   4.5320000-167.4130000   8.3170000   5.6840000-167.7380000
   8.1762178   6.4564668-166.9819740   7.8190000   5.8650000-169.0070000
   7.2825694   6.7813737-169.2531750   7.9960000   4.8950000-169.9630000
   7.6012263   5.0367769-170.9690581   8.6740000   3.7420000-169.6470000
   8.8195345   2.9681897-170.4007490   9.1690000   3.5660000-168.3770000
   9.7075273   2.6528149-168.1236597   7.9040000   2.5460000-165.7350000
   8.6280000   1.5530000-165.7950000   6.6330000   2.5380000-166.1800000
   6.0394960   3.3533090-166.1241113   6.1110000   1.3600000-166.8040000
   6.9387235   0.6724132-166.9777740   5.0390000   0.6380000-165.9670000
   4.2831436   1.3768051-165.7006406   4.5913473  -0.1261882-166.6023923
   5.5850000  -0.0120000-164.6970000   6.3335107  -0.7609940-164.9555354
   6.0321286   0.7373903-164.0438619   4.4220000  -0.6840000-163.9770000
   3.7170000  -1.5010000-164.6280000   4.2200000  -0.3820000-162.7700000
   5.4460000   1.7900000-168.0660000   4.5390000   2.6210000-168.0490000
   5.9020000   1.2470000-169.2080000   6.6749515   0.5969892-169.2194582
   5.2660000   1.5680000-170.4510000   4.1928430   1.4192630-170.3313732
   5.5130000   3.0130000-170.9200000   5.3383738   3.7182853-170.1074869
   6.5364145   3.1199137-171.2795725   4.5430000   3.3000000-172.0580000
   3.8720000   2.3380000-172.5180000   4.4530000   4.4850000-172.4780000
   5.8390000   0.6550000-171.4790000   7.0490000   0.6340000-171.6900000
   4.9860000  -0.1460000-172.1410000   3.9890332  -0.1421791-171.9793154
   5.5080000  -1.0280000-173.1400000   6.5740531  -0.8277295-173.2473392
   5.3190000  -2.5160000-172.8090000   5.8247590  -2.7397209-171.8697152
   4.2543998  -2.7264961-172.7069319   5.8640000  -3.3230000-173.8440000
   5.7400165  -4.2496832-173.6260868   4.7780000  -0.7610000-174.4110000
   3.5630000  -0.5730000-174.4130000   5.5150000  -0.7190000-175.5370000
   6.5117684  -0.8819270-175.5343875   4.8670000  -0.4960000-176.7940000
   3.7984611  -0.6617907-176.6567512   5.0760000   0.9180000-177.3640000
   4.6885680   1.6298914-176.6351610   6.1482600   1.0710951-177.4861489
   4.3740000   1.1310000-178.7080000   4.6750880   0.3580453-179.4150982
   3.2929938   1.0974592-178.5723539   4.7750000   2.4960000-179.2480000
   5.5410000   3.2110000-178.5480000   4.3210000   2.8410000-180.3710000
   5.4620000  -1.4270000-177.7970000   6.6800000  -1.5820000-177.8750000
   4.5950000  -2.0960000-178.5790000   3.5992726  -2.0150188-178.4304461
   5.0560000  -2.9240000-179.6520000   5.9012815  -2.4202582-180.1208737
   5.4990000  -4.3350000-179.2260000   4.6874863  -4.7778250-178.6485481
   5.6611744  -4.9198232-180.1314178   6.7790000  -4.3300000-178.3860000
   7.5796436  -3.8183048-178.9200775   6.5944871  -3.8246829-177.4379975
   7.1870000  -5.7710000-178.1210000   6.5930000  -6.6810000-178.7560000
   8.1050000  -5.9800000-177.2830000   3.9010000  -3.0590000-180.5850000
   2.7600000  -3.2100000-180.1480000   4.1570000  -2.9890000-181.9050000
   5.0820860  -2.8850703-182.2968085   3.0480000  -3.0960000-182.8030000
   2.2692324  -3.6944288-182.3302388   2.4580000  -1.7260000-183.1730000
   2.3317071  -1.0664067-182.3144629   3.0524332  -1.2208394-183.9342897
   1.1040000  -1.9300000-183.7560000   0.0320000  -2.1650000-182.9270000
   0.1947663  -2.2010459-181.8498242  -1.2300000  -2.3530000-183.4380000
  -2.0697560  -2.5443810-182.7699552  -1.4310000  -2.2990000-184.7960000
  -2.4280718  -2.4459605-185.2111510  -0.3660000  -2.0580000-185.6330000
  -0.5236671  -2.0146187-186.7106638   0.8950000  -1.8720000-185.1140000
   1.7353564  -1.6773590-185.7803452   3.5500000  -3.7390000-184.0540000
   4.7480000  -3.7200000-184.3360000   2.6380000  -4.3510000-184.8320000
   1.6591910  -4.3541545-184.5829573   3.0290000  -4.9810000-186.0580000
   4.1084373  -4.8756192-186.1666699   2.6720000  -6.4760000-186.1230000
   3.1735132  -7.0360478-185.3337407   1.5952880  -6.6281265-186.0478415
   3.1820000  -7.2460000-187.6900000   2.7351024  -8.4642120-187.3982117
   2.2850000  -4.3030000-187.1610000   1.1340000  -3.9040000-186.9930000
   2.9340000  -4.1410000-188.3290000   3.8682312  -4.4932746-188.4813612
   2.2680000  -3.4900000-189.4170000   1.2687465  -3.2050976-189.0877245
   3.0000000  -2.2310000-189.9120000   3.1986602  -1.5121276-189.1171064
   3.9287677  -2.4599734-190.4345531   2.1150000  -1.5450000-190.8960000
   1.1530000  -0.6630000-190.4610000   1.0476956  -0.4749661-189.3925178
   0.3300000  -0.0220000-191.3560000  -0.4291315   0.6737466-190.9985692
   0.4650000  -0.2590000-192.7020000  -0.1843327   0.2458271-193.4172738
   1.4250000  -1.1380000-193.1460000   1.5356164  -1.3280515-194.2135882
   2.2450000  -1.7770000-192.2450000   3.0051652  -2.4735323-192.5986828
   2.2440000  -4.4620000-190.5510000   3.1440000  -5.2890000-190.6910000
   1.1850000  -4.4040000-191.3820000   0.4434168  -3.7274538-191.2704705
   1.1170000  -5.3100000-192.4900000   2.0750357  -5.8230024-192.5742335
   0.0050000  -6.3650000-192.3460000   0.1839830  -6.9520671-191.4452134
  -0.9577997  -5.8604791-192.2649101  -0.0050000  -7.2240000-193.4760000
  -0.7014917  -7.8769779-193.3754062   0.8110000  -4.5140000-193.7160000
   0.0350000  -3.5610000-193.6750000   1.4530000  -4.8790000-194.8440000
   2.1078944  -5.6479027-194.8451552   1.1830000  -4.2160000-196.0830000
   0.1759955  -3.7995002-196.1068532   2.1850000  -3.0980000-196.4140000
   3.1974038  -3.5017525-196.4029363   1.9661995  -2.6942420-197.4025373
   2.1028318  -2.3042102-195.6715410   1.3080000  -5.2480000-197.1570000
   2.0960000  -6.1860000-197.0350000   0.5130000  -5.1180000-198.2360000
  -0.1342956  -4.3505686-198.3462575   0.6190000  -6.0760000-199.2980000
   1.5327467  -6.6536686-199.1584824  -0.5740000  -7.0460000-199.3410000
  -0.6746546  -7.4698008-198.3418200  -1.4577752  -6.4520265-199.5738882
  -0.4360000  -8.1770000-200.3630000  -0.3469852  -7.7767222-201.3729281
   0.4374562  -8.7885706-200.1368255  -1.6920000  -9.0310000-200.2650000
  -2.6260000  -8.6230000-199.5250000  -1.7380000 -10.1000000-200.9310000
   0.6170000  -5.3200000-200.5880000  -0.2360000  -4.4600000-200.8060000
   1.5910000  -5.6000000-201.4770000   2.3331473  -6.2619134-201.3004008
   1.5550000  -4.9430000-202.7510000   0.5321780  -4.9103486-203.1263241
   2.1140000  -3.5100000-202.7220000   3.1408863  -3.5273436-202.3568922
   2.0936704  -3.0910867-203.7280808   1.5040636  -2.8948339-202.0604507
   2.4010000  -5.7220000-203.7080000   3.3940000  -6.3360000-203.3210000
   1.9980000  -5.7290000-204.9930000   1.1401067  -5.2659813-205.2570684
   2.7830000  -6.3450000-206.0230000   3.8194974  -6.4016206-205.6904848
   2.3230000  -7.7240000-206.3960000   2.2446040  -8.3419681-205.5015338
   0.9440000  -7.6220000-207.0710000   1.0217021  -7.0045192-207.9658628
   0.5992374  -8.6186102-207.3466919   0.2328156  -7.1705107-206.3792813
   3.2580000  -8.3300000-207.2750000   2.9546050  -9.2107081-207.5071746
   2.6260000  -5.4770000-207.2280000   1.5850000  -4.8480000-207.4060000
   3.6570000  -5.3870000-208.0910000   4.5438436  -5.8582659-207.9836865
   3.4610000  -4.5630000-209.2470000   2.4265515  -4.6715861-209.5729210
   3.7420000  -3.0740000-208.9930000   3.0765371  -2.7132788-208.2086923
   4.7773141  -2.9549477-208.6735453   3.5240000  -2.3250000-210.1800000
   3.7022734  -1.3971175-210.0101398   4.3800000  -5.0000000-210.3390000
   5.4420000  -5.5650000-210.0870000   3.9570000  -4.7600000-211.5970000
   3.0406944  -4.3636643-211.7499753   4.7840000  -5.0230000-212.7400000
   5.8186184  -5.0819511-212.4020817   4.4330000  -6.3260000-213.4780000
   3.3702935  -6.4174977-213.7024601   5.0108475  -6.4794872-214.3893912
   4.7740000  -7.4520000-212.5620000   3.8750000  -7.8780000-211.6120000
   2.9072362  -7.3825874-211.5339003   4.1860000  -8.9170000-210.7660000
   3.4629756  -9.2467204-210.0199297   5.4070000  -9.5390000-210.8610000
   5.6593876 -10.3627747-210.1933206   6.3130000  -9.1170000-211.8050000
   7.2840020  -9.6058679-211.8841416   5.9950000  -8.0790000-212.6490000
   6.7140053  -7.7449543-213.3970273   4.5560000  -3.8820000-213.6800000
   3.4480000  -3.3550000-213.7620000   5.6060000  -3.4480000-214.4030000
   6.5183096  -3.8774366-214.3449065   5.4330000  -2.3370000-215.2930000
   4.3686401  -2.1123045-215.3619140   6.1730000  -1.0720000-214.8310000
   7.2106187  -1.3089439-214.5958314   6.1424104  -0.3046531-215.6045264
   5.4740000  -0.5590000-213.5800000   4.2140000  -0.5340000-213.5720000
   6.1910000  -0.1790000-212.6160000   5.9580000  -2.6990000-216.6460000
   6.9950000  -3.3480000-216.7670000   5.2270000  -2.3030000-217.7090000
   4.3411753  -1.8316245-217.5940256   5.7000000  -2.5470000-219.0420000
   6.7883330  -2.5041030-219.0843131   5.3607314  -3.5169899-219.4054772
   5.1360000  -1.4740000-219.9190000   4.0110000  -1.0190000-219.7140000
   5.9140000  -1.0360000-220.9310000   6.8231432  -1.4414023-221.1019003
   5.4450000  -0.0150000-221.8250000   4.3824087   0.1443775-221.6417030
   6.1810000   1.3250000-221.6480000   6.0466601   1.6979440-220.6326356
   7.2441442   1.1907795-221.8475227   5.6020000   2.3270000-222.6370000
   4.4300000   2.1320000-223.0570000   6.3220000   3.3020000-222.9800000
   5.7130000  -0.4640000-223.2270000   6.8690000  -0.5710000-223.6320000
   4.6580000  -0.7590000-224.0120000   3.6991791  -0.7090066-223.6985316
   4.9100000  -1.1440000-225.3700000   5.9746485  -1.0220524-225.5693778
   4.5160000  -2.6010000-225.6750000   4.9667828  -3.2727707-224.9445082
   3.4310906  -2.6991881-225.6371749   5.0100000  -2.9630000-227.0700000
   5.5270000  -2.0570000-227.7790000   4.8840000  -4.1590000-227.4450000
   4.0970000  -0.2650000-226.2720000   2.9270000  -0.5480000-226.5270000
   4.6910000   0.8350000-226.7780000   5.6410033   1.0908742-226.5496986
   3.9660000   1.6630000-227.6990000   3.2211249   1.0432577-228.1981790
   3.2510000   2.8520000-227.0350000   2.7859232   2.4871975-226.1191823
   4.0087290   3.5949567-226.7860782   2.1860000   3.4900000-227.9280000
   1.8836472   4.4594869-227.5320471   2.5611212   3.6139751-228.9438806
   0.9870000   2.5510000-227.9410000   1.0650000   1.4860000-227.2730000
  -0.0210000   2.8860000-228.6180000   4.9660000   2.2170000-228.6620000
   6.1060000   2.4950000-228.2860000   4.5810000   2.3750000-229.9430000
   3.6529730   2.1577237-230.2771501   5.5280000   2.9170000-230.8720000
   6.4296018   3.1990614-230.3282585   5.9130000   1.9160000-231.9780000
   6.2359609   0.9523304-231.5841265   5.1065993   1.7629790-232.6952186
   7.0640000   2.4710000-232.7430000   8.3520000   2.2650000-232.3010000
   8.5162028   1.6936198-231.3874017   9.4230000   2.7700000-232.9970000
  10.4381811   2.6054550-232.6358450   9.2120000   3.4840000-234.1510000
  10.0586615   3.8838880-234.7089909   7.9310000   3.6940000-234.6020000
   7.7616711   4.2625977-235.5163985   6.8630000   3.1870000-233.9000000
   5.8471510   3.3512652-234.2593990   4.8940000   4.0970000-231.5420000
   3.7920000   3.9990000-232.0820000   5.5740000   5.2620000-231.5020000
   6.4522676   5.3359119-231.0087634   5.0760000   6.4230000-232.1820000
   4.6060610   6.0975485-233.1100829   4.0460000   7.2280000-231.3640000
   3.2101456   6.5801265-231.0999801   4.5170949   7.6011964-230.4546628
   3.5350000   8.4060000-232.1930000   4.3490000   9.3030000-232.5360000
   2.3100000   8.4200000-232.4930000   6.2390000   7.3210000-232.4480000
   6.8350000   7.8570000-231.5140000   6.6190000   7.5030000-233.7270000
   6.2042258   7.0317517-234.5181933   7.6870000   8.4270000-233.9700000
   7.9537053   8.9262344-233.0384784   8.9220000   7.7890000-234.5440000
   9.3034792   7.0455639-233.8440881   8.5810000   7.1070000-235.8810000
   8.1998673   7.8499402-236.5816263   9.4784076   6.6459865-236.2935836
   7.8228884   6.3414051-235.7159794   9.9350000   8.7660000-234.7330000
  10.7179429   8.3484098-235.0993594   7.2070000   9.4610000-234.9410000
   6.7530000   9.1400000-236.0380000   7.2600000  10.7470000-234.5420000
   7.5820279  11.0110476-233.6218499   6.9050000  11.7870000-235.4620000
   6.8260175  11.3553639-236.4597731   5.5680000  12.4680000-235.1130000
   4.8163331  11.7201658-234.8603342   5.7074435  13.1421769-234.2679313
   5.1140000  13.2470000-236.3000000   4.4260000  12.6090000-237.3070000
   4.2286284  11.5406362-237.2190073   3.9900000  13.2990000-238.4110000
   3.4492292  12.7798933-239.2023262   4.2400000  14.6460000-238.5190000
   3.7920000  15.3580000-239.6510000   3.3250887  14.8047823-240.2815106
   4.9240000  15.2940000-237.5180000   5.1217253  16.3627928-237.5997752
   5.3590000  14.5960000-236.4140000   5.9018683  15.1119775-235.6220648
   7.9880000  12.8120000-235.3340000   8.3580000  13.1790000-234.2200000
   8.5510000  13.2950000-236.4590000   8.2933545  13.0085205-237.3926207
   9.5700000  14.2930000-236.3110000   9.4743583  14.7375631-235.3203863
  10.9960000  13.7350000-236.4640000  11.1394384  12.8567341-235.8345768
  11.2046042  13.4755182-237.5019082  11.9760000  14.8120000-236.0260000
  12.5380000  14.7480000-234.9330000  12.1900000  15.8340000-236.8990000
  12.8317463  16.5752447-236.6564762  11.7060994  15.8465752-237.7854440
   9.3780000  15.3270000-237.3710000   9.1110000  14.9980000-238.5260000
   9.4870000  16.6190000-236.9960000   9.6719571  16.8993274-236.0434735
   9.3750000  17.6400000-237.9950000   9.7454138  17.2347186-238.9366155
   7.9380000  18.1460000-238.2090000   7.3279342  17.2917680-238.5026097
   7.5806727  18.5366589-237.2562131   7.8360000  19.2360000-239.2770000
   8.4374015  20.0977329-238.9874599   8.1813612  18.8595757-240.2398757
   6.3770000  19.6510000-239.3890000   5.5330000  19.0350000-238.6860000
   6.0860000  20.5850000-240.1830000  10.1740000  18.8270000-237.5650000
  10.1650000  19.2050000-236.3940000  10.9140000  19.4300000-238.5140000
  10.9650923  19.0457671-239.4466596  11.6040000  20.6570000-238.2460000
  11.2239371  21.0598555-237.3071929  13.1330000  20.5040000-238.1330000
  13.3813139  19.6918688-237.4497121  13.5497954  20.2903020-239.1172331
  13.7200000  21.8100000-237.6050000  13.1910000  22.8960000-237.9630000
  14.7060000  21.7350000-236.8240000  11.3220000  21.5230000-239.4280000
  12.0240000  21.4530000-240.4360000  10.2750000  22.3640000-239.3490000
   9.7004437  22.4725707-238.5254730   9.9660000  23.1550000-240.5010000
  10.6279100  22.8528118-241.3125766   8.5070000  23.0030000-240.9730000
   8.2657432  21.9468991-241.0936037   7.8303369  23.4487830-240.2439564
   8.3520000  23.7150000-242.3110000   9.3480000  24.3260000-242.7830000
   7.2270000  23.6570000-242.8780000  10.1810000  24.5970000-240.1840000
   9.4540000  25.1850000-239.3840000  11.2150000  25.2040000-240.7960000
  11.8527080  24.7078797-241.4020466  11.3990000  26.6120000-240.6250000
  10.6694620  26.9644696-239.8958644  12.8080000  26.9970000-240.1370000
  13.0230293  26.3916061-239.2564548  13.5079179  26.7416257-240.9326123
  12.9550000  28.4790000-239.7850000  12.7723076  29.0920494-240.6675501
  12.2486884  28.7520792-239.0010033  14.3760000  28.7120000-239.2910000
  15.1880000  27.7490000-239.3350000  14.6700000  29.8590000-238.8590000
  11.2070000  27.2020000-241.9830000  11.9500000  26.8900000-242.9120000
  10.1860000  28.0650000-242.1390000   9.5922244  28.3472421-241.3722736
   9.9480000  28.6400000-243.4300000  10.6863272  28.2372888-244.1233944
   8.5440000  28.3510000-243.9850000   8.3347924  27.2829602-243.9248137
   7.7916723  28.9005240-243.4192029   8.5070000  28.7940000-245.4420000
   9.5920000  28.8140000-246.0830000   7.3940000  29.1240000-245.9310000
  10.0630000  30.1200000-243.3040000   9.2980000  30.7490000-242.5750000
  11.0440000  30.7230000-244.0000000  11.6963584  30.2214357-244.5856288
  11.1490000  32.1490000-243.9340000  10.5065019  32.4965009-243.1249644
  12.5770000  32.6630000-243.6830000  13.2800326  32.2025743-244.3771560
  12.6084351  33.7462507-243.7999605  12.9590000  32.2960000-242.2570000
  12.5530000  31.1950000-241.8010000  13.6700000  33.1080000-241.6060000
  10.7150000  32.6900000-245.2550000  11.4140000  32.5420000-246.2570000
   9.5270000  33.3220000-245.2940000   8.9502049  33.4342753-244.4725373
   9.0850000  33.9150000-246.5200000   9.8123286  33.6610594-247.2911073
   7.6900000  33.4600000-246.9900000   7.0110813  33.6044425-246.1495805
   7.4012312  34.1207374-247.8073975   7.6170000  32.0060000-247.4600000
   8.2820166  31.8383141-248.3071925   7.8905761  31.3350983-246.6456621
   6.1780000  31.7320000-247.8820000   5.3270000  32.6460000-247.7150000
   5.9130000  30.6080000-248.3850000   8.9780000  35.3780000-246.2680000
   8.4570000  35.8010000-245.2370000   9.4950000  36.2000000-247.1970000
   9.9460923  35.8751026-248.0402418   9.3520000  37.6080000-247.0050000
   8.7766817  37.7728342-246.0939908  10.6950000  38.3480000-246.8790000
  11.2452926  37.9472117-246.0277386  11.2739740  38.1951844-247.7897889
  10.4730000  39.7380000-246.6870000  11.3168627  40.1891452-246.6097763
   8.6750000  38.1410000-248.2160000   9.1110000  37.8980000-249.3400000
   7.5690000  38.8790000-248.0170000   7.1971732  39.0695395-247.0974681
   6.9150000  39.4610000-249.1460000   7.5480489  39.4484242-250.0332373
   5.6090000  38.8050000-249.4800000   4.9507650  38.8251657-248.6114269
   4.9530000  39.5760000-250.6380000   5.6104887  39.5558780-251.5071402
   4.0010571  39.1099263-250.8923235   4.7819072  40.6093593-250.3363423
   5.8700000  37.3200000-249.7850000   6.3127666  36.8414928-248.9114494
   4.9287514  36.8280059-250.0301378   6.5536868  37.2367713-250.6298350
   6.6180000  40.8760000-248.7870000   6.1210000  41.1570000-247.6970000
   6.9390000  41.8160000-249.6940000   7.3764603  41.5890579-250.5756037
   6.6280000  43.1860000-249.4240000   5.7638841  43.2261745-248.7608342
   7.7530000  43.9500000-248.7920000   8.1184545  43.4153610-247.9152421
   8.8900000  44.0890000-249.8180000   8.5254036  44.6239832-250.6949048
   9.7163061  44.6430067-249.3725857   9.2353574  43.0986742-250.1147891
   7.3040000  45.2320000-248.3790000   8.0316946  45.7115129-247.9763485
   6.3250000  43.8440000-250.7270000   6.7080000  43.3510000-251.7870000
   5.6040000  44.9800000-250.6790000   5.2342867  45.3446274-249.8127100
   5.3450000  45.7050000-251.8860000   6.2743281  45.9596758-252.3954984
   4.7086448  45.1294414-252.5582230   4.6380000  46.9640000-251.5070000
   3.8480000  46.9830000-250.5620000   4.9080000  48.0560000-252.2470000
   5.5552263  48.0265349-253.0218092   4.2380000  49.2900000-251.9690000
   3.3984199  49.0789903-251.3066713   5.1360000  50.3460000-251.3030000
   5.5121619  49.9833138-250.3464122   5.9754813  50.5968156-251.9514310
   4.3010000  51.5600000-251.0800000   3.4710000  51.6360000-249.9860000
   3.4326592  50.7993333-249.2884197   2.6960000  52.7490000-249.7670000
   2.0413168  52.7981011-248.8968961   2.7470000  53.8020000-250.6490000
   1.9560000  54.9490000-250.4330000   1.4182345  54.8898929-249.6399588
   3.5740000  53.7360000-251.7460000   3.6158997  54.5692390-252.4474682
   4.3480000  52.6190000-251.9580000   5.0048138  52.5678617-252.8263781
   3.7990000  49.8480000-253.2830000   4.4730000  49.6660000-254.2980000
   2.6360000  50.5260000-253.3120000   2.0560187  50.6631562-252.4965803
   2.2080000  51.0980000-254.5540000   3.0237415  51.0071313-255.2712224
   0.9580000  50.4220000-255.1430000   1.1323777  49.3556011-255.2861259
   0.1137692  50.5642490-254.4683596   0.5380000  50.9740000-256.4820000
  -0.3700000  51.9470000-256.7800000  -0.8925188  52.4108202-255.9433730
  -0.4260000  52.1350000-258.1410000  -1.0151743  52.7976512-258.6245976
   0.4630000  51.2680000-258.7400000   0.7770000  51.0710000-260.0550000
   0.2688360  51.6725794-260.8086380   1.7260000  50.1140000-260.3440000
   2.0037827  49.9280201-261.3814720   2.3360000  49.3820000-259.3470000
   3.0831435  48.6260029-259.5885459   2.0230000  49.5810000-258.0210000
   2.5224683  48.9889620-257.2541081   1.0830000  50.5290000-257.7340000
   1.8750000  52.5300000-254.2900000   1.3680000  52.8720000-253.2220000
   2.1740000  53.4160000-255.2630000   2.5814499  53.1160753-256.1371448
   1.8930000  54.8120000-255.0870000   1.2723358  54.9822588-254.2072915
   3.1190000  55.6710000-255.0070000   3.7854930  55.3084677-254.2244031
   3.8350000  55.5940000-256.3660000   3.1692487  55.9568279-257.1490911
   4.7335545  56.2104311-256.3392929   4.1103538  54.5600929-256.5741240
   2.7470000  57.0990000-254.5750000   3.6440063  57.7120298-254.6626063
   1.9889745  57.4640314-255.2679999   2.2120000  57.1810000-253.1460000
   2.9696981  56.8165450-252.4523387   1.9694659  58.2164830-252.9071457
   1.3146669  56.5685443-253.0577319   1.1070000  55.2820000-256.2670000
   1.3550000  54.8630000-257.3970000   0.1120000  56.1580000-256.0220000
  -0.0828938  56.4855066-255.0866630  -0.6780000  56.6750000-257.1020000
  -0.2553669  56.3389140-258.0488509  -2.1180000  56.2540000-257.0430000
  -2.1828279  55.1676311-256.9821706  -2.7670000  56.8760000-255.7970000
  -2.7029655  57.9624431-255.8573381  -3.8137465  56.5766279-255.7441108
  -2.2453671  56.5308291-254.9043317  -2.7980000  56.6740000-258.2170000
  -3.7169616  56.4003697-258.1697106  -0.6540000  58.1690000-257.0180000
  -0.5670000  58.7410000-255.9330000  -0.7117932  58.8521108-258.0380290
  98.4539624  26.4787446 -28.8965015  98.8130000  25.7790000 -29.4470000
  98.0820000  25.3630000 -30.6050000  97.9441225  26.2058838 -31.2822275
  97.1085637  24.9956051 -30.2801253  98.8150000  24.2550000 -31.3320000
  99.5992179  24.6748092 -31.9619707  99.5190000  23.4400000 -30.3740000
  98.7740000  22.2640000 -30.0930000  99.2648984  21.3218233 -30.3367677
  98.6340000  22.2150000 -28.5930000  98.1710000  23.3140000 -27.9260000
  97.8670708  24.1854137 -28.4869494  98.0840000  23.3390000 -26.5920000
  97.7117954  24.2374877 -26.0997762  98.5200000  22.1870000 -25.8800000
  98.4670000  22.1670000 -24.5400000  98.7852827  21.3316150 -24.0699697
  98.1183165  22.9674570 -24.0322723  99.0250000  21.1030000 -26.5150000
  99.1010000  21.0900000 -27.8780000  99.5470000  20.1070000 -28.5100000
  97.9370000  23.2730000 -32.0520000  97.0622380  23.6630643 -32.5723275
  97.4860000  22.3820000 -30.8940000  96.4466363  22.6012980 -30.6495999
  97.5775609  21.3351128 -31.1833842  98.7190000  22.5600000 -32.9590000
  98.0250000  21.7310000 -34.1370000  99.0270000  21.4290000 -35.1850000
  96.8040000  22.4840000 -34.5200000  97.6170000  20.3560000 -33.4270000
  98.5630000  19.3150000 -33.2910000  99.3924089  19.6939657 -32.6938687
  98.9321435  19.0029012 -34.2679483  97.9470000  18.1240000 -32.5880000
  98.6357011  17.2808603 -32.6419033  97.8310000  18.4090000 -31.1680000
  96.5090000  18.1180000 -30.7600000  96.4864813  17.0988934 -30.3739769
  96.1650000  18.9350000 -29.5990000  95.5230000  20.1490000 -29.5850000
  95.2059370  20.6150311 -30.5062427  95.3600000  20.6340000 -28.3840000
  95.9160000  19.6750000 -27.5580000  96.0280000  19.6440000 -26.1590000
  95.6430000  20.4880000 -25.3400000  96.6690000  18.4870000 -25.7270000
  96.8049500  18.3764828 -24.7424686  97.1330000  17.4790000 -26.5500000
  97.7210000  16.4290000 -25.9540000  97.8730079  16.2986295 -24.9640518
  98.0656721  15.6998930 -26.5620337  97.0280000  17.5000000 -27.8640000
  96.4120000  18.6230000 -28.2950000  96.5320000  17.7550000 -33.0600000
  96.2558067  18.1623290 -34.0325735  95.6470000  18.3720000 -31.9800000
  95.0787300  19.1997472 -32.4042675  94.9590583  17.6175269 -31.5984155
  96.3810000  16.3430000 -33.0910000  96.8370000  15.5070000 -34.3820000
  97.6550000  16.4420000 -35.1990000  95.6700000  14.8190000 -34.9870000
  97.7440000  14.3530000 -33.7580000  97.3390000  13.0180000 -33.8800000
  97.9318535  12.5567297 -34.6698446  96.2827496  12.9718049 -34.1451447
  97.5610000  12.2630000 -32.5850000  98.6016161  11.9436406 -32.5281938
  97.3900000  13.1510000 -31.4470000  96.3110000  12.6760000 -30.6360000
  96.6582299  12.1662752 -29.7372724  95.5890000  13.8340000 -30.1190000
  95.0520000  14.8560000 -30.8540000  95.1122121  14.8499599 -31.9323042
  94.4960000  15.7790000 -30.1240000  94.6900000  15.3540000 -28.8130000
  94.2930000  15.9550000 -27.5820000  93.6740000  17.0190000 -27.4070000
  94.6850000  15.2000000 -26.4930000  94.4530278  15.5448017 -25.5834401
  95.3650000  14.0070000 -26.5630000  95.6580000  13.4130000 -25.3910000
  95.4421437  13.7550167 -24.4655104  96.1651544  12.5410245 -25.4415379
  95.7320000  13.4250000 -27.7080000  95.3610000  14.1590000 -28.7890000
  96.5850000  11.1200000 -32.3530000  96.1560293  10.6767115 -33.2516536
  95.4810000  11.7840000 -31.5370000  94.5887883  11.8937659 -32.1534486
  95.2486799  11.1668197 -30.6691198  97.2150000  10.1280000 -31.6210000
  96.6980000   8.6190000 -31.7270000  97.8170000   7.7900000 -32.2270000
  95.4190000   8.6470000 -32.4710000  96.4160000   8.2160000 -30.2050000
  96.3540000   9.2320000 -29.2230000  95.5488859   9.9298470 -29.4530017
  97.3058426   9.7631264 -29.2239858  96.1190000   8.6360000 -27.8540000
  97.0707286   8.4353535 -27.3620112  95.4740000   9.6170000 -27.0090000
  94.0580000   9.4050000 -27.0350000  93.6298276   9.2588342 -26.0433331
  93.4290000  10.6510000 -27.5060000  93.3340000  11.1090000 -28.8080000
  93.7241989  10.5207277 -29.6253632  92.7500000  12.2720000 -28.9100000
  92.4520000  12.6130000 -27.5980000  91.8220000  13.7650000 -27.0850000
  91.3850000  14.7470000 -27.7120000  91.7280000  13.7210000 -25.6960000
  91.2929659  14.4944773 -25.2350480  92.1900000  12.6880000 -24.9050000
  92.0140000  12.8260000 -23.5800000  91.5910214  13.6082826 -23.1012272
  92.3589523  12.0756757 -22.9985172  92.7810000  11.5980000 -25.3780000
  92.8780000  11.6320000 -26.7230000  95.1680000   7.4630000 -27.8190000
  95.2445324   6.7121547 -28.6054305  93.8200000   8.1750000 -27.9240000
  93.4077109   8.0281083 -28.9222684  93.1331345   7.7646415 -27.1837825
  95.3230000   6.8220000 -26.5680000  94.3960000   5.5840000 -26.1570000
  95.0260000   4.7430000 -25.1120000  94.0190000   4.9430000 -27.4420000
  93.2000000   6.3080000 -25.3840000  93.5020000   7.2300000 -24.3270000
  93.9709527   8.0896261 -24.8057759  94.1923009   6.7963661 -23.6034346
  92.2390000   7.6860000 -23.6040000  92.5516791   8.0247463 -22.6162844
  91.6790000   8.8690000 -24.2340000  90.2760000   8.6840000 -24.4450000
  89.5883270   9.0213291 -23.6694910  89.9120000   9.5470000 -25.6180000
  90.1260000   9.0940000 -26.9070000  90.4648150   8.0778133 -27.0447292
  89.8870000   9.8500000 -27.9960000  90.1030000   9.3290000 -29.3800000
  89.4694980   8.4572131 -29.5435922  89.8488581  10.1031691 -30.1039987
  91.1484052   9.0460910 -29.5032469  89.4150000  11.2060000 -27.8040000
  89.1740000  11.9630000 -28.7430000  89.2450000  11.5930000 -26.4900000
  88.8613217  12.6008218 -26.3312959  89.4810000  10.8410000 -25.3730000
  89.2950000  11.2840000 -24.2440000  91.0980000   6.6720000 -23.5390000
  91.3699737   5.6395440 -23.7584621  90.1040000   7.1830000 -24.6110000
  90.0771334   6.4824722 -25.4456485  89.1086756   7.2655120 -24.1743979
  90.5540000   6.7150000 -22.2200000  89.7000000   5.4860000 -21.6510000
  90.1230000   5.2160000 -20.2500000  89.6620000   4.4440000 -22.7260000
  88.2540000   6.1270000 -21.5220000  88.1150000   7.3490000 -20.8310000
  88.8777300   8.0139196 -21.2362468  88.2663132   7.2348638 -19.7576045
  86.7520000   7.9480000 -21.0790000  86.5348648   8.6282285 -20.2554462
  86.7800000   8.8010000 -22.2590000  85.6520000   8.5420000 -23.0360000
  84.8553888   9.2337092 -22.7620506  85.9250000   8.8920000 -24.4710000
  86.3090000   7.9080000 -25.3580000  86.3774473   6.8924870 -24.9968235
  86.5440000   8.1490000 -26.6660000  86.9730000   7.0750000 -27.6170000
  86.2127262   6.2946880 -27.6515908  87.1017886   7.5004480 -28.6122424
  87.9172307   6.6469052 -27.2804547  86.3650000   9.4890000 -27.1560000
  86.5500000   9.7820000 -28.3320000  85.9680000  10.4130000 -26.2180000
  85.8410932  11.4341854 -26.5774102  85.7370000  10.1950000 -24.8880000
  85.4120000  11.0930000 -24.1370000  85.6360000   6.9360000 -21.2910000
  85.8900214   5.8988155 -21.0723216  85.3060000   7.0790000 -22.7890000
  85.5113903   6.1374529 -23.2983163  84.2525811   7.3329938 -22.9068813
  84.5520000   7.3080000 -20.4190000  83.0670000   6.7130000 -20.5470000
  82.6420000   6.5730000 -19.1300000  82.9620000   5.5880000 -21.5190000
  82.2880000   7.9340000 -21.1600000  82.3750000   9.1620000 -20.5210000
  83.4115303   9.4968057 -20.5611274  82.0551191   9.0957656 -19.4811010
  81.5090000  10.1520000 -21.2410000  81.5812062  11.1292469 -20.7636385
  82.0450000  10.3580000 -22.5740000  81.0160000  10.2880000 -23.5120000
  80.6047309  11.2679237 -23.7542941  81.5770000   9.8380000 -24.7950000
  82.0500000   8.5520000 -24.9340000  81.9533996   7.8753395 -24.0978187
  82.5830000   8.0870000 -26.0900000  83.0970000   6.6870000 -26.2200000
  82.2881278   5.9828581 -26.0250398  83.4779754   6.5315300 -27.2293497
  83.8996764   6.5258093 -25.5003976  82.6510000   8.9890000 -27.2290000
  83.1090000   8.6510000 -28.3210000  82.1570000  10.2550000 -27.0010000
  82.2008356  10.9468911 -27.8421099  81.6220000  10.7370000 -25.8300000
  81.2230000  11.8810000 -25.7230000  80.0520000   9.7020000 -21.4120000
  79.7974983   8.8180540 -20.8272204  79.9510000   9.3700000 -22.9180000
  79.6373707   8.3334682 -23.0418459  79.2204470  10.0286879 -23.3875985
  79.1590000  10.7880000 -20.9750000  77.5440000  10.6750000 -20.9820000
  77.1680000  11.7230000 -19.9790000  77.0130000   9.2810000 -20.8270000
  77.1910000  11.2730000 -22.4050000  77.3080000  12.6690000 -22.5630000
  78.3187932  12.9862457 -22.3065777  76.5939900  13.1674448 -21.9073758
  77.0200000  13.0450000 -23.9780000  77.3034581  14.0771057 -24.1841764
  77.8730000  12.2620000 -24.8250000  77.2060000  12.0300000 -26.0160000
  77.2852431  12.8631624 -26.7143267  77.8890000  10.9190000 -26.7400000
  78.1080000   9.7160000 -26.1040000  77.7266991   9.5938441 -25.1009607
  78.7140000   8.6760000 -26.6940000  78.9150000   7.3800000 -25.9790000
  77.9473442   6.9705300 -25.6890412  79.4241395   6.6762881 -26.6375337
  79.5203968   7.5461269 -25.0879354  79.1670000   8.8300000 -28.0650000
  79.7300000   7.9310000 -28.6860000  78.9240000  10.0610000 -28.6320000
  79.2607362  10.1936439 -29.6601610  78.3070000  11.1350000 -28.0400000
  78.1460000  12.2020000 -28.6280000  75.5950000  12.7290000 -24.4270000
  75.0004476  12.2617425 -23.6419671  75.7760000  11.7350000 -25.5970000
  75.1512343  10.8577454 -25.4290975  75.4837840  12.2151741 -26.5308859
  74.9330000  13.9380000 -24.8240000  73.3530000  13.9370000 -25.1160000
  72.8940000  15.3430000 -25.0060000  72.7830000  12.8940000 -24.2410000
  73.2490000  13.4410000 -26.6290000  73.6530000  14.3090000 -27.6350000
  74.5648723  14.8180836 -27.3228737  72.8654430  15.0442043 -27.8003156
  73.9150000  13.5670000 -28.9190000  74.5286666  14.1930498 -29.5667456
  74.7140000  12.4100000 -28.6790000  74.6580000  11.6940000 -29.8750000
  75.3244736  12.1228708 -30.6233195  75.2030000  10.3470000 -29.6810000
  75.0130000   9.6870000 -28.4820000  74.4227894  10.1772573 -27.7219346
  75.4790000   8.4500000 -28.2400000  75.2480000   7.7670000 -26.9260000
  74.1767637   7.6658100 -26.7518942  75.7076211   6.7788043 -26.9438239
  75.6913826   8.3589748 -26.1253271  76.2180000   7.7830000 -29.2980000
  76.6920000   6.6490000 -29.1690000  76.3690000   8.5200000 -30.4670000
  76.9388472   8.0443366 -31.2651975  75.8890000   9.7770000 -30.7170000
  76.0720000  10.3460000 -31.7850000  72.6830000  13.0050000 -29.6130000
  71.8657816  12.7697160 -28.9311684  73.1910000  11.7100000 -30.2710000
  72.3813333  10.9814689 -30.3132074  73.5369844  11.9268667 -31.2816255
  72.2200000  13.9150000 -30.5860000  70.7300000  13.7650000 -31.1620000
  70.1690000  15.1400000 -31.2870000  70.0610000  12.7140000 -30.3420000
  70.9530000  13.1430000 -32.6120000  71.9120000  13.6990000 -33.4670000
  72.7220166  14.1570681 -32.8994203  71.4234200  14.4574836 -34.0786313
  72.4790000  12.6290000 -34.3640000  73.1608360  13.0763317 -35.0872519
  73.3030000  11.7340000 -33.5980000  73.5250000  10.5990000 -34.4070000
  74.4922236  10.7466816 -34.8873830  73.7270000   9.4200000 -33.5830000
  73.2160000   9.1620000 -32.3310000  72.5927671   9.8872266 -31.8289750
  73.5670000   7.9950000 -31.8610000  74.3460000   7.4480000 -32.8760000
  75.0000000   6.2000000 -32.9520000  75.0310000   5.2980000 -32.1050000
  75.6750000   6.0450000 -34.1650000  76.1688029   5.1884850 -34.3151309
  75.7110000   6.9840000 -35.1750000  76.4180000   6.6620000 -36.2740000
  76.9359213   5.8100900 -36.4355773  76.4502691   7.3544205 -37.0085839
  75.0970000   8.1530000 -35.1140000  74.4400000   8.3150000 -33.9400000
  71.4560000  11.6880000 -34.9890000  70.6579473  11.3846862 -34.3113486
  72.3160000  10.4690000 -35.3440000  71.6728543   9.6548202 -35.6780271
  73.0103724  10.7334131 -36.1415167  70.8660000  12.2740000 -36.1610000
  69.6840000  11.5120000 -36.9540000  69.0970000  12.5120000 -37.8800000
  68.8250000  10.8280000 -35.9600000  70.4340000  10.3540000 -37.7860000
  71.4290000  10.6840000 -38.7730000  72.1581341  11.3644144 -38.3331139
  70.9422932  11.1707347 -39.6181665  72.1430000   9.4330000 -39.2600000
  72.9951941   9.7030082 -39.8836666  72.7210000   8.7570000 -38.1350000
  72.8550000   7.3890000 -38.4350000  73.8607637   7.0804374 -38.7201802
  72.6120000   6.6240000 -37.1900000  71.8560000   7.1930000 -36.1870000
  71.4102319   8.1583116 -36.3763793  71.6090000   6.5860000 -35.0120000
  70.7700000   7.2300000 -33.9460000  69.7703261   7.4215358 -34.3359561
  70.7023266   6.5650378 -33.0849857  71.2274854   8.1715456 -33.6421935
  72.1800000   5.2770000 -34.7880000  72.0080000   4.6570000 -33.7440000
  72.9410000   4.7760000 -35.8320000  73.3792979   3.7898709 -35.6785561
  73.1930000   5.3830000 -37.0340000  73.8740000   4.8490000 -37.8910000
  71.2370000   8.3950000 -39.9130000  70.2221981   8.3992310 -39.5151834
  71.9080000   7.0590000 -39.5850000  71.2221591   6.2423531 -39.8104093
  72.8121337   6.9492336 -40.1838270  71.1780000   8.6130000 -41.3250000
  69.8580000   8.2120000 -42.1590000  69.8610000   9.0330000 -43.3930000
  68.6970000   8.2410000 -41.2450000  70.0970000   6.6880000 -42.5410000
  71.3160000   6.3160000 -43.1080000  72.1314776   6.8682548 -42.6409764
  71.2886260   6.5418041 -44.1740037  71.5460000   4.8440000 -42.9210000
  72.4110425   4.5126197 -43.4954457  71.8980000   4.5860000 -41.5650000
  71.6510000   3.2300000 -41.2910000  72.5496696   2.6131643 -41.2885683
  71.1910000   3.1500000 -39.8970000  70.4460000   4.1920000 -39.3880000
  70.1787600   4.9905688 -40.0642180  69.9920000   4.2360000 -38.1280000
  69.1840000   5.3920000 -37.6200000  68.2738199   5.4878171 -38.2120226
  68.9214351   5.2215001 -36.5759265  69.7684054   6.3084170 -37.7021558
  70.2960000   3.1230000 -37.2580000  69.9110000   3.0830000 -36.0910000
  71.0560000   2.1050000 -37.8340000  71.2914821   1.2548410 -37.1937824
  71.5280000   2.0580000 -39.1240000  72.1800000   1.1170000 -39.5390000
  70.3280000   3.9980000 -43.1510000  69.3836260   4.4354236 -42.8270910
  70.6220000   2.7410000 -42.3190000  69.7258547   2.1228923 -42.2645419
  71.4259392   2.1738989 -42.7882316  70.2370000   3.7060000 -44.5180000
  68.8110000   3.7110000 -45.2450000  69.0770000   3.7490000 -46.7020000
  68.0260000   4.8120000 -44.6300000  68.1820000   2.2850000 -44.8410000
  68.9450000   1.0960000 -45.0310000  69.8950484   1.2367722 -44.5155476
  69.1298616   0.9181682 -46.0903879  68.2320000  -0.1030000 -44.4420000
  68.6527217  -1.0130493 -44.8696714  68.5280000  -0.1970000 -43.0240000
  67.3370000  -0.4320000 -42.2990000  67.1831698  -1.4831247 -42.0549255
  67.4760000   0.1950000 -40.9830000  67.7070000   1.5200000 -40.7410000
  67.7522903   2.2164254 -41.5652221  67.7940000   1.8250000 -39.4690000
  67.6060000   0.6190000 -38.8190000  67.5900000   0.2800000 -37.4530000
  67.7720000   1.1670000 -36.4770000  67.7505048   0.8680944 -35.5124821
  67.9315674   2.1388132 -36.7010896  67.3770000  -1.0030000 -37.1300000
  67.1980000  -1.9050000 -38.1170000  67.0324197  -2.9461085 -37.8823190
  67.1910000  -1.7080000 -39.4450000  67.4060000  -0.4070000 -39.7330000
  66.7080000  -0.0590000 -44.5630000  66.3757661   0.7566278 -45.2052389
  66.2310000   0.1930000 -43.1300000  65.6199621   1.0952293 -43.1032771
  65.6390549  -0.6563254 -42.7889025  66.1880000  -1.3010000 -45.0950000
  64.7370000  -1.3280000 -45.8010000  64.9460000  -1.1030000 -47.2540000
  63.8650000  -0.3840000 -45.0530000  64.2050000  -2.8290000 -45.5620000
  64.6550000  -3.5800000 -44.4440000  65.2556028  -2.9056110 -43.8336100
  65.2712120  -4.4162202 -44.7743318  63.4930000  -4.1120000 -43.6090000
  63.6334687  -5.1862192 -43.4889124  63.5900000  -3.5790000 -42.2600000
  62.4470000  -2.7920000 -41.9630000  61.7612068  -3.2803768 -41.2707030
  62.8800000  -1.6030000 -41.2160000  63.2220000  -0.3740000 -41.7320000
  63.1385145  -0.1940088 -42.7936190  63.5750000   0.5110000 -40.8220000
  63.4610000  -0.1840000 -39.6180000  63.7010000   0.1900000 -38.2650000
  64.1210000   1.4110000 -37.8960000  64.2744467   1.6185401 -36.9195357
  64.2834362   2.1217734 -38.5949380  63.4890000  -0.7520000 -37.3050000
  63.0620000  -1.9790000 -37.6790000  62.8824726  -2.7405475 -36.9345442
  62.8040000  -2.4460000 -38.9120000  63.0290000  -1.4920000 -39.8450000
  62.0820000  -3.7540000 -44.0910000  61.9960623  -3.5499416 -45.1582739
  61.7840000  -2.4790000 -43.3030000  61.7473456  -1.6297649 -43.9853162
  60.8236649  -2.5798633 -42.7973487  61.1580000  -4.8220000 -43.7470000
  59.6650000  -4.8790000 -44.3630000  59.4620000  -6.2590000 -44.8790000
  59.4410000  -3.6760000 -45.2080000  58.7140000  -4.7320000 -43.0880000
  58.6530000  -5.7780000 -42.1260000  59.6185429  -6.2827229 -42.0931117
  57.8788281  -6.4935205 -42.4031081  58.3400000  -5.2110000 -40.7550000
  58.6141374  -5.9347768 -39.9874747  59.1960000  -4.0680000 -40.4990000
  58.5110000  -3.2350000 -39.6220000  58.7394790  -3.6392661 -38.6358633
  59.1010000  -1.8990000 -39.5930000  59.3200000  -1.0430000 -40.6610000
  59.0922151  -1.3515846 -41.6705997  59.8130000   0.1200000 -40.3020000
  59.9060000   0.0280000 -38.9090000  60.3680000   0.9710000 -37.9570000
  60.8030000   2.1190000 -38.1610000  60.2960000   0.4650000 -36.6480000
  60.6083330   1.0557121 -35.9040202  59.8290000  -0.7890000 -36.3100000
  59.8170000  -1.1040000 -35.0030000  60.1248919  -0.5244777 -34.2352391
  59.4821214  -2.0264946 -34.7643350  59.4040000  -1.6790000 -37.1940000
  59.4670000  -1.2050000 -38.4660000  56.9090000  -4.6850000 -40.5880000
  56.3489817  -4.7145252 -41.5226692  57.0930000  -3.2270000 -40.1480000
  56.4673575  -2.5797465 -40.7626003  56.8046246  -3.1234664 -39.1019500
  56.1990000  -5.4420000 -39.6060000  54.5930000  -5.3140000 -39.5160000
  54.0060000  -6.5220000 -40.1400000  54.2000000  -3.9740000 -40.0270000
  54.2810000  -5.3420000 -37.9440000  55.3110000  -5.6370000 -37.0100000
  56.2611782  -5.3620331 -37.4678806  55.3246034  -6.6965031 -36.7543271
  55.1120000  -4.8220000 -35.7470000  55.4446857  -5.4021131 -34.8862513
  55.9990000  -3.6730000 -35.7760000  55.2840000  -2.5080000 -35.4530000
  55.5512652  -2.2626011 -34.4251635  55.8240000  -1.3950000 -36.2250000
  55.8180000  -1.2670000 -37.6030000  55.4186114  -2.0555918 -38.2234947
  56.3270000  -0.1430000 -38.0250000  56.6850000   0.5220000 -36.8550000
  57.2840000   1.7870000 -36.6870000  57.6280000   2.5900000 -37.5670000
  57.4810000   2.0910000 -35.3390000  57.9001920   2.9727517 -35.1226888
  57.1410000   1.2710000 -34.2790000  57.4050000   1.7460000 -33.0490000
  57.8344516   2.6305492 -32.8182524  57.1658781   1.1457882 -32.2726834
  56.5770000   0.0650000 -34.4210000  56.3780000  -0.2370000 -35.7340000
  53.6920000  -4.2770000 -35.5600000  52.9849149  -4.7033744 -36.2715717
  53.8320000  -2.7830000 -35.8170000  53.1445769  -2.4839331 -36.6082697
  53.5971452  -2.2334226 -34.9054584  53.2250000  -4.5260000 -34.2450000
  51.6960000  -4.2150000 -33.8520000  51.3310000  -5.2850000 -32.8870000
  50.8810000  -3.9380000 -35.0640000  51.7780000  -2.8290000 -33.0810000
  52.3630000  -2.7790000 -31.8020000  53.3888704  -3.1408332 -31.8710405
  51.8062016  -3.3987762 -31.0991816  52.3720000  -1.3590000 -31.3090000
  52.8720969  -1.2948437 -30.3426220  53.1930000  -0.5650000 -32.1950000
  52.5360000   0.6260000 -32.5130000  52.9222254   1.4112678 -31.8631664
  52.9580000   1.0410000 -33.8430000  52.8030000   0.3360000 -35.0150000
  52.3460892  -0.6425811 -35.0113126  53.2550000   0.9670000 -36.0630000
  53.7400000   2.1660000 -35.5490000  54.3440000   3.2500000 -36.2130000
  54.5820000   3.3680000 -37.4260000  54.6740000   4.2690000 -35.3290000
  55.1039117   5.0893153 -35.7061700  54.4570000   4.2350000 -33.9670000
  54.8490000   5.3060000 -33.2740000  55.2980055   6.1343844 -33.6376945
  54.6980877   5.2774444 -32.2757460  53.8970000   3.2170000 -33.3320000
  53.5640000   2.2240000 -34.1840000  51.0010000  -0.6990000 -31.2930000
  50.1833122  -1.3996041 -31.4622316  51.0570000   0.3050000 -32.4420000
  50.2601493   0.0885080 -33.1535191  50.9291762   1.3140272 -32.0500492
  50.7960000  -0.0630000 -30.0610000  49.3540000   0.5520000 -29.7000000
  49.3050000   0.5340000 -28.2100000  48.2750000  -0.0040000 -30.5730000
  49.5030000   2.0720000 -30.0780000  49.9860000   2.9130000 -29.1190000
  50.8561568   2.4796249 -28.6259349  49.2089179   3.1065554 -28.3795540
  50.3750000   4.1870000 -29.7600000  51.2495936   4.6230338 -29.2772373
  50.8030000   3.9060000 -31.0850000  50.7610000   5.1060000 -31.7840000
  51.6456107   5.7160288 -31.6011669  50.8480000   4.7850000 -33.2460000
  50.4400000   3.5520000 -33.6890000  50.0444608   2.8361784 -32.9836291
  50.5210000   3.2120000 -34.9850000  50.1891054   2.2218073 -35.2971932
  51.0540000   4.1790000 -35.8930000  51.1490000   3.8880000 -37.2000000
  51.5303917   4.5952287 -37.8119383  50.8454132   2.9884847 -37.5446863
  51.4810000   5.3950000 -35.4710000  51.3970000   5.7240000 -34.1430000
  51.7730000   6.8200000 -33.7080000  49.2390000   5.1760000 -29.9210000
  48.2384363   4.7491110 -29.8521757  49.4530000   5.7590000 -31.3320000
  48.4861547   5.9332884 -31.8041577  49.9956988   6.7013800 -31.2578501
  49.3730000   6.1520000 -28.9310000  48.1780000   7.1580000 -28.6260000
  48.3590000   7.8160000 -27.3090000  46.9960000   6.3090000 -28.8780000
  48.3160000   8.2460000 -29.7780000  48.8900000   9.4780000 -29.5100000
  49.7891648   9.3755282 -28.9024622  48.1650570  10.0986290 -28.9833332
  49.2470000  10.1340000 -30.8140000  50.2571558  10.5417511 -30.7762700
  49.3050000   9.1280000 -31.8250000  49.2410000   9.7830000 -33.0610000
  50.1722776  10.2177954 -33.4240073  48.9170000   8.7630000 -34.1040000
  48.3320000   7.5730000 -33.7290000  48.0458467   7.4631309 -32.6934106
  48.0640000   6.5720000 -34.5820000  47.4390000   5.2950000 -34.1340000
  46.4648955   5.5024217 -33.6910596  47.3146188   4.6310396 -34.9894449
  48.0798223   4.8164415 -33.3934407  48.4030000   6.7460000 -35.9590000
  48.1840000   5.8810000 -36.7980000  49.0040000   7.9530000 -36.2660000
  49.2713076   8.1021707 -37.3121336  49.2870000   8.9860000 -35.4000000
  49.8150000  10.0230000 -35.7710000  48.2210000  11.1200000 -31.3480000
  47.2167628  10.9277533 -30.9703127  48.2440000  10.9120000 -32.8830000
  47.2721434  11.1752962 -33.3004555  49.0125027  11.5463804 -33.3246620
  48.5840000  12.4180000 -30.9990000  47.6160000  13.6150000 -31.4210000
  47.9110000  14.8720000 -30.6920000  46.2490000  13.0560000 -31.3190000
  47.9140000  13.7780000 -32.9650000  49.0130000  14.4510000 -33.3470000
  49.8575747  13.7731136 -33.2234539  49.1720971  15.3430262 -32.7411305
  48.9060000  14.8470000 -34.7880000  49.8621974  15.2765227 -35.0868246
  48.7570000  13.6770000 -35.6250000  47.6100000  13.7810000 -36.4410000
  47.7155848  14.1115473 -37.4742906  47.1140000  12.4110000 -36.5650000
  46.6580000  11.6140000 -35.5550000  46.5565937  12.0069515 -34.5541464
  46.3810000  10.3940000 -35.9330000  46.7090000  10.3690000 -37.2760000
  46.6190000   9.3060000 -38.2190000  46.2240000   8.1470000 -38.0320000
  47.0470000   9.7000000 -39.4770000  47.0140984   9.0279021 -40.2167300
  47.5100000  10.9650000 -39.7870000  47.8790000  11.1730000 -41.0580000
  47.8661869  10.5014774 -41.8123166  48.2254515  12.0948789 -41.2820794
  47.5980000  11.9680000 -38.9110000  47.1820000  11.5970000 -37.6800000
  47.7550000  15.7430000 -35.1160000  47.2985687  16.2956825 -34.2948354
  46.7160000  14.7650000 -35.7210000  45.8729663  14.6614279 -35.0378703
  46.3633005  15.1539911 -36.6761907  48.2330000  16.6670000 -36.0370000
  47.3730000  17.9440000 -36.4760000  48.0270000  19.1910000 -36.0040000
  45.9480000  17.6940000 -36.1150000  47.4800000  17.8310000 -38.0570000
  47.5850000  16.5390000 -38.6260000  46.8804768  15.8806202 -38.1177843
  48.5977478  16.1584735 -38.4931763  47.2580000  16.5740000 -40.0960000
  48.1620363  16.7976887 -40.6623753  46.8710000  15.2430000 -40.5380000
  45.4760000  15.2070000 -40.8170000  45.2540431  15.0568395 -41.8735445
  44.9060000  13.9660000 -40.1700000  44.5020000  13.9980000 -38.8520000
  44.5575383  14.9403322 -38.3272851  44.0050000  12.9300000 -38.2090000
  43.5820000  12.9990000 -36.7790000  42.7911041  13.7409322 -36.6689095
  43.2117269  12.0241734 -36.4616500  44.4338770  13.2823481 -36.1608424
  43.8910000  11.6900000 -38.9300000  43.4580000  10.6740000 -38.4110000
  44.2960000  11.7300000 -40.2400000  44.1809779  10.8068646 -40.8080595
  44.8180000  12.8110000 -40.9130000  45.1630000  12.7520000 -42.0790000
  46.0930000  17.4710000 -40.4740000  45.9430927  18.3569808 -39.8570198
  44.8990000  16.5230000 -40.3060000  44.3136163  16.8254747 -39.4377062
  44.2733724  16.5642786 -41.1976201  46.2860000  17.9130000 -41.8400000
  45.2570000  18.8960000 -42.5950000  45.9550000  20.1440000 -42.9730000
  44.0280000  19.0280000 -41.7950000  44.9560000  18.0630000 -43.9260000
  45.4450000  16.7310000 -44.0140000  44.9302265  16.0935484 -43.2951371
  46.5076176  16.7644566 -43.7735314  45.2680000  16.1610000 -45.3970000
  46.2329531  15.9736735 -45.8680347  44.6670000  14.8650000 -45.2820000
  43.2490000  15.0170000 -45.3280000  42.7248857  14.3843684 -46.0443663
  42.7130000  14.5720000 -44.0420000  42.5890000  15.2990000 -42.8890000
  42.8392256  16.3495104 -42.8742818  42.0920000  14.6060000 -41.8820000
  41.9010000  13.3390000 -42.4130000  41.4040000  12.1420000 -41.8620000
  40.9950000  12.0300000 -40.5940000  40.6471628  11.1456814 -40.2518140
  41.0338764  12.8297114 -39.9783304  41.3270000  11.0640000 -42.6710000
  41.7430000  11.1870000 -43.9330000  41.7010383  10.3386490 -44.6000374
  42.2380000  12.2570000 -44.5570000  42.2820000  13.3050000 -43.7370000
  44.3050000  16.9150000 -46.2830000  44.3698073  18.0030503 -46.2897347
  42.9640000  16.4870000 -45.6780000  42.5165438  17.3302231 -45.1518281
  42.2943984  16.1587405 -46.4729715  44.4730000  16.4450000 -47.6410000
  43.4980000  16.9350000 -48.8290000  44.2120000  16.7410000 -50.1200000
  42.8790000  18.2360000 -48.4440000  42.3630000  15.8160000 -48.8390000
  42.6580000  14.5510000 -49.3610000  43.4554418  14.1211067 -48.7548825
  42.9878516  14.6213987 -50.3975050  41.4490000  13.6640000 -49.2870000
  41.6999398  12.7047992 -49.7398382  41.1580000  13.3480000 -47.9080000
  39.7660000  13.2330000 -47.7830000  39.4096668  12.2349161 -48.0378615
  39.4200000  13.3540000 -46.3400000  39.4630000  14.5930000 -45.7450000
  39.6962062  15.4384775 -46.3752245  39.1780000  14.8100000 -44.4630000
  39.2400000  16.1740000 -43.8700000  38.5432872  16.8297718 -44.3921630
  38.9705066  16.1246777 -42.8149926  40.2516689  16.5677225 -43.9680208
  38.7940000  13.6950000 -43.6460000  38.5080000  13.8260000 -42.4570000
  38.7700000  12.4780000 -44.2890000  38.5021517  11.6179517 -43.6752616
  39.0630000  12.2270000 -45.6260000  39.0220000  11.0950000 -46.1270000
  40.1590000  14.2600000 -49.8560000  40.2690724  15.2409501 -50.3182983
  39.2490000  14.3720000 -48.6350000  38.9845406  15.4169383 -48.4729373
  38.3426217  13.7900652 -48.8021239  39.6200000  13.3690000 -50.7960000
  38.9140000  13.9280000 -52.1260000  39.5650000  13.2470000 -53.2810000
  38.7680000  15.4150000 -52.0110000  37.4510000  13.2990000 -52.0530000
  37.3070000  11.8970000 -52.0120000  38.2237543  11.4385671 -51.6411888
  37.1056168  11.5399886 -53.0219942  36.1580000  11.5100000 -51.1100000
  35.9982358  10.4323916 -51.1465365  36.4950000  11.7770000 -49.7420000
  35.3140000  11.7810000 -49.0010000  35.1991399  10.8028525 -48.5339520
  35.4740000  12.6990000 -47.8540000  35.7850000  14.0070000 -48.0710000
  35.9202205  14.3733957 -49.0779109  35.9280000  14.8580000 -47.0450000
  36.1864107  15.8978544 -47.2450675  35.7260000  14.3420000 -45.7230000
  35.8370000  15.1500000 -44.6620000  35.6871496  14.7477001 -43.7477789
  36.0633886  16.1263261 -44.7870480  35.4230000  13.0630000 -45.5090000
  35.2830000  12.2190000 -46.5590000  34.9900000  11.0440000 -46.4090000
  34.9040000  12.3020000 -51.3270000  35.0564407  13.3520730 -51.5764141
  34.1980000  12.1960000 -49.9660000  33.3840962  12.9196245 -49.9209737
  33.7965873  11.1902590 -49.8416896  34.1470000  11.7010000 -52.3620000
  33.5530000  12.6090000 -53.5520000  33.8870000  11.9060000 -54.8070000
  33.8990000  14.0340000 -53.3150000  31.9730000  12.5180000 -53.3650000
  31.3890000  11.3080000 -52.9190000  32.1407260  10.8026213 -52.3126994
  31.1088215  10.6690609 -53.7564708  30.1630000  11.5810000 -52.0680000
  29.7081534  10.6134436 -51.8557535  30.5340000  12.1010000 -50.7670000
  29.8760000  13.3260000 -50.5580000  28.9764323  13.2543042 -49.9466597
  30.7380000  14.1590000 -49.7680000  31.6930000  15.0200000 -50.2160000
  31.8350220  15.1716120 -51.2758326  32.3270000  15.6460000 -49.2580000
  31.7530000  15.1520000 -48.1090000  31.9820000  15.4160000 -46.7520000
  32.8910000  16.2910000 -46.3160000  33.0128477  16.4408764 -45.3246416
  33.4569043  16.8031499 -46.9774783  31.2340000  14.7450000 -45.8550000
  30.3090000  13.8830000 -46.2930000  29.6831455  13.3504242 -45.5922374
  30.0090000  13.5470000 -47.5460000  30.7770000  14.2250000 -48.4090000
  29.1650000  12.5900000 -52.6310000  29.1372773  12.7508141 -53.7087147
  29.5830000  13.8790000 -51.9360000  30.1222607  14.5133235 -52.6395131
  28.6967922  14.4041364 -51.5796746  27.8830000  12.1630000 -52.2030000
  26.5200000  12.7610000 -52.7940000  25.6860000  11.5780000 -52.4580000
  26.5630000  13.2680000 -54.2030000  26.2790000  14.0520000 -51.8570000
  25.0930000  14.1870000 -51.1390000  24.4791552  13.2972338 -51.2790381
  24.5671701  15.0563593 -51.5337377  25.3470000  14.3880000 -49.6630000
  25.0519904  13.4952869 -49.1115184  26.7440000  14.5340000 -49.3880000
  26.8750000  15.1730000 -48.1340000  27.2052630  14.4386104 -47.3993589
  27.9970000  16.1740000 -48.1650000  28.5350000  16.5810000 -49.3450000
  28.1581687  16.1953988 -50.2807937  29.5390000  17.4650000 -49.3650000
  29.9506373  17.7833029 -50.3227778  30.0130000  17.9540000 -48.1130000
  31.0050000  18.8310000 -48.0610000  31.3048776  19.1471533 -47.1498353
  31.4364654  19.1626567 -48.9118483  29.4870000  17.5680000 -46.9650000
  28.4850000  16.6790000 -46.9540000  27.9860000  16.2820000 -45.9030000
  24.7600000  15.6580000 -49.1090000  24.9212755  16.5499490 -49.7144056
  25.5210000  15.7920000 -47.7930000  25.1807219  16.6827999 -47.2649986
  25.3381916  14.9123806 -47.1757877  23.3590000  15.5030000 -48.9040000
  22.4440000  16.7910000 -48.6990000  21.0550000  16.3070000 -48.7560000
  22.8910000  17.8520000 -49.6330000  22.7450000  17.2440000 -47.2010000
  22.5130000  16.3460000 -46.1420000  23.1759068  15.4858728 -46.2359984
  21.4764396  16.0105763 -46.1756769  22.7700000  17.0270000 -44.8250000
  22.5846103  16.3637694 -43.9801005  24.1550000  17.3360000 -44.7380000
  24.3470000  18.5810000 -44.1240000  24.7778092  18.5648040 -43.1228804
  25.3630000  19.2970000 -44.9100000  25.4310000  19.1010000 -46.2740000
  24.6740299  18.4811908 -46.7314200  26.3550000  19.6640000 -47.0530000
  26.3840000  19.4270000 -48.5250000  25.4473058  19.7668971 -48.9667844
  27.2143286  19.9784870 -48.9660401  26.5115914  18.3621367 -48.7196433
  27.3460000  20.5040000 -46.4280000  28.2380000  21.0740000 -47.0660000
  27.2140000  20.6430000 -45.0570000  27.9420203  21.2925588 -44.5710365
  26.2660000  20.0710000 -44.2540000  26.2220000  20.2530000 -43.0460000
  22.0540000  18.3370000 -44.6930000  21.7752238  18.7464010 -45.6639652
  23.0210000  19.2800000 -44.0060000  22.6681494  20.3055821 -44.1145225
  23.0845532  19.0282792 -42.9473698  20.9130000  18.1600000 -43.9420000
  19.5940000  18.9660000 -44.3500000  18.5410000  18.0880000 -43.7990000
  19.5250000  19.3830000 -45.7770000  19.7880000  20.2890000 -43.5280000
  20.1000000  20.1560000 -42.1750000  21.0184917  19.5736538 -42.1018843
  19.2933327  19.6264463 -41.6680864  20.3080000  21.4970000 -41.5110000
  20.4267814  21.3119424 -40.4434121  21.5680000  22.0460000 -41.9230000
  21.3530000  23.1230000 -42.8120000  21.6782056  24.0746211 -42.3915741
  22.2430000  22.9270000 -43.9520000  21.9810000  22.2490000 -45.1060000
  21.0158756  21.7934939 -45.2716837  22.9880000  22.2250000 -45.9270000
  23.9920000  22.9330000 -45.2630000  25.3280000  23.2380000 -45.6560000
  25.9000000  22.9520000 -46.7050000  25.9950000  23.9540000 -44.6880000
  26.9461575  24.2066039 -44.8654522  25.4490000  24.3450000 -43.4850000
  26.2380000  25.0550000 -42.6620000  27.1974121  25.3260893 -42.8236766
  25.8351984  25.3313088 -41.7779721  24.2150000  24.0570000 -43.1060000
  23.5450000  23.3580000 -44.0460000  19.3220000  22.5920000 -41.8170000
  18.2629671  22.3587285 -41.9271473  19.8600000  23.1410000 -43.1310000
  19.2645005  22.7541985 -43.9579608  19.8032150  24.2294741 -43.1210088
  19.4830000  23.5190000 -40.8240000  18.2600000  23.9600000 -39.9050000
  18.7090000  24.0630000 -38.4820000  17.1920000  22.9720000 -40.1960000
  17.8320000  25.3510000 -40.5880000  18.0510000  26.5460000 -39.9260000
  18.7516525  26.2955386 -39.1294731  17.1344199  26.9444026 -39.4909634
  18.6780000  27.6040000 -40.8320000  19.0090855  28.3836176 -40.1459402
  19.8990000  27.1260000 -41.4560000  20.2220000  28.0370000 -42.4940000
  21.0561753  28.6588771 -42.1691621  20.7940000  27.2920000 -43.6780000
  19.9310000  26.7190000 -44.5810000  18.8733388  26.8504063 -44.4063993
  20.3230000  26.0640000 -45.6720000  19.3440000  25.4430000 -46.6040000
  18.6828927  26.2123577 -47.0029052  19.8770346  24.9618302 -47.4240303
  18.7536741  24.6991185 -46.0689719  21.7270000  25.9660000 -45.9390000
  22.1520000  25.3950000 -46.9260000  22.5480000  26.5700000 -45.0100000
  23.6208539  26.4949654 -45.1873558  22.1510000  27.2490000 -43.8740000
  22.9430000  27.7570000 -43.1050000  17.8370000  28.1470000 -41.9780000
  17.2728671  27.4401905 -42.5865007  18.9220000  28.8180000 -42.8430000
  18.4878442  29.1322717 -43.7921266  19.3181769  29.6880832 -42.3194552
  16.9570000  29.1140000 -41.4570000  15.4060000  29.1720000 -41.8590000
  14.9630000  30.5800000 -41.9540000  14.7000000  28.3950000 -40.8230000
  15.3970000  28.5090000 -43.3050000  15.0080000  29.2640000 -44.4000000
  14.1192603  29.8359363 -44.1332967  14.7738817  28.5948274 -45.2279476
  16.0980000  30.2120000 -44.8230000  16.4485689  30.7910742 -43.9686734
  17.2510000  29.4640000 -45.2490000  18.0140000  30.2970000 -46.0590000
  18.6579820  30.7428133 -45.3009519  18.9560000  29.5370000 -46.9170000
  18.6660000  28.8670000 -48.0770000  17.6432880  28.7835968 -48.4139065
  19.7080000  28.3780000 -48.6750000  20.7700000  28.7850000 -47.8880000
  22.1480000  28.5600000 -48.0400000  22.7170000  27.9250000 -48.9160000
  22.8870000  29.1490000 -47.0300000  23.8793026  29.0259991 -47.0443146
  22.3590000  29.8740000 -46.0020000  23.2210000  30.3620000 -45.1090000
  24.2239988  30.2433655 -45.1045763  22.8270797  30.8909951 -44.3440870
  21.0740000  30.0940000 -45.8450000  20.3340000  29.5130000 -46.8180000
  15.7330000  31.0830000 -46.0130000  14.9173943  30.6685464 -46.6055490
  17.0090000  31.1280000 -46.8610000  16.7430037  31.2204440 -47.9139954
  17.6138723  31.9844178 -46.5630432  15.3580000  32.3800000 -45.5680000
  14.3550000  33.2860000 -46.4460000  14.8760000  33.3180000 -47.8300000
  14.0700000  34.5360000 -45.6980000  13.0490000  32.3850000 -46.5950000
  12.0080000  32.3770000 -45.6260000  11.7990958  33.4154861 -45.3690841
  12.2733498  31.8263020 -44.7235468  10.7530000  31.7490000 -46.2500000
  10.3868815  32.4363330 -47.0126467  11.1130000  30.5400000 -46.9890000
  10.2080000  29.4850000 -46.7030000   9.8220100  29.0206894 -47.6104837
  10.9660000  28.3540000 -46.0370000  10.9930000  28.2470000 -44.6520000
  10.4201736  28.9624790 -44.0807207  11.6570000  27.2650000 -43.9900000
  11.6640000  27.1930000 -42.4790000  10.6418733  27.0889359 -42.1149570
  12.2526031  26.3334222 -42.1584189  12.1025735  28.1046899 -42.0733223
  12.3760000  26.2660000 -44.7880000  13.0130000  25.3310000 -44.2840000
  12.2910000  26.4470000 -46.1630000  12.8114717  25.7101575 -46.7747786
  11.6200000  27.4480000 -46.8330000  11.6080000  27.5150000 -48.0400000
   9.6610000  31.3470000 -45.2680000  10.0346205  31.1339136 -44.2664509
   9.0620000  30.0650000 -45.8760000   8.3143960  29.6551257 -45.1968899
   8.5938492  30.2999679 -46.8318897   8.6800000  32.3890000 -45.1820000
   7.7000000  32.4970000 -43.9030000   8.3980000  33.3800000 -42.9180000
   7.1920000  31.1430000 -43.5330000   6.4210000  33.2660000 -44.4640000
   5.6580000  32.7000000 -45.5010000   5.1330969  31.8458576 -45.0731946
   6.2688113  32.3672961 -46.3402367   4.6490000  33.7070000 -45.9910000
   4.9101054  34.6810070 -45.5771962   4.7860000  33.8720000 -47.4180000
   3.5280000  33.7660000 -48.0450000   3.1072687  34.7240750 -48.3502486
   3.7210000  33.0760000 -49.3090000   3.0740000  31.9520000 -49.7430000
   2.2909177  31.5096133 -49.1451056   3.4580000  31.5490000 -50.9300000
   4.4260000  32.4730000 -51.2950000   5.2260000  32.6120000 -52.4470000
   5.1740000  31.7770000 -53.4940000   5.7739358  31.9297387 -54.2920283
   4.5348777  30.9949894 -53.4850115   6.0830000  33.6520000 -52.4860000
   6.1310000  34.4930000 -51.4430000   6.8036215  35.3378898 -51.4548580
   5.4370000  34.4580000 -50.3120000   4.5970000  33.4160000 -50.3020000
   3.1980000  33.3460000 -45.7130000   3.0863041  32.4877525 -45.0504036
   2.6250000  33.0030000 -47.0960000   2.1853378  32.0059286 -47.0706037
   1.8587111  33.7307277 -47.3630467   2.5530000  34.4530000 -45.1020000
   0.9480000  34.5610000 -45.0360000   0.6420000  35.1150000 -43.6980000
   0.2950000  33.3040000 -45.4880000   0.6450000  35.7450000 -46.0540000
   1.4480000  36.9160000 -45.9680000   2.4592425  36.5772420 -45.7427632
   1.0991580  37.5722232 -45.1706413   1.4590000  37.6820000 -47.2740000
   2.1947783  38.4815057 -47.1872805   1.9490000  36.8570000 -48.3390000
   1.4580000  37.3740000 -49.5430000   2.0398193  38.1909437 -49.9698356
   1.5470000  36.3260000 -50.5790000   0.8350000  35.1540000 -50.6710000
   0.0500668  34.9330453 -49.9628613   1.1720000  34.4140000 -51.7130000
   2.1780000  35.1470000 -52.3320000   2.9700000  34.9230000 -53.4940000
   2.8570000  33.8380000 -54.2760000   3.4489126  33.7369616 -55.0881158
   2.1800573  33.1225833 -54.0523343   3.8920000  35.8770000 -53.8230000
   4.0020000  36.9580000 -53.0380000   4.7249507  37.7249768 -53.2735588
   3.3230000  37.2700000 -51.9380000   2.4210000  36.3170000 -51.6360000
   0.1040000  38.1940000 -47.7250000  -0.7437224  37.7180733 -47.2320910
   0.0530000  37.8940000 -49.2450000  -0.9540327  37.5807829 -49.5204620
   0.3187524  38.7922848 -49.8022793   0.0560000  39.5790000 -47.4120000
  -0.9720000  40.5940000 -48.1010000  -1.0330000  41.7350000 -47.1620000
  -2.1980000  39.9280000 -48.5980000  -0.1510000  41.1300000 -49.3350000
   1.0320000  41.8460000 -49.1180000   1.7717812  41.1950604 -48.6520584
   0.8535408  42.7094508 -48.4771368   1.5520000  42.3140000 -50.4400000
   2.5317910  42.7771863 -50.3235205   1.7940000  41.1610000 -51.2730000
   1.1000000  41.2870000 -52.4850000   1.7798940  41.5874410 -53.2822318
   0.6720000  39.9630000 -52.8810000  -0.2320000  39.1570000 -52.2350000
  -0.7157333  39.4925371 -51.3295615  -0.4150000  38.0080000 -52.8200000
   0.4230000  38.0620000 -53.9280000   0.6610000  37.1030000 -54.9480000
   0.1650000  35.9690000 -55.0810000   1.5990000  37.5660000 -55.8820000
   1.8376204  36.9621999 -56.6425815   2.2180000  38.7940000 -55.8300000
   3.0840000  39.0720000 -56.8140000   3.3408619  38.4723560 -57.5850702
   3.5440434  39.9700545 -56.7697374   2.0030000  39.6910000 -54.8770000
   1.0990000  39.2610000 -53.9690000   0.5830000  43.1970000 -51.2150000
  -0.1980968  43.6555648 -50.6086131  -0.0480000  42.2370000 -52.2140000
  -1.1136858  42.1431514 -52.0051810   0.0912682  42.6203337 -53.2248214
   1.3040000  44.2150000 -51.8640000   0.5690000  45.2400000 -52.8590000
   1.3390000  46.4930000 -52.7020000  -0.9030000  45.2130000 -52.6400000
   0.9470000  44.6830000 -54.3160000   2.3110000  44.6030000 -54.6880000
   2.7126801  43.7078728 -54.2131312   2.8552200  45.4778055 -54.3321342
   2.4800000  44.4880000 -56.1960000   3.5329976  44.6632422 -56.4164212
   2.2430000  43.1340000 -56.6220000   1.0750000  43.0830000 -57.4280000
   1.2662699  42.9071831 -58.4865856   0.2840000  41.9050000 -57.0340000
  -0.4330000  41.7210000 -55.8790000  -0.5156913  42.5190863 -55.1560740
  -1.0220000  40.5460000 -55.8050000  -0.6640000  39.9190000 -56.9890000
  -0.9590000  38.6460000 -57.5200000  -1.7140000  37.7460000 -56.8930000
  -1.8918781  36.8491336 -57.3220587  -2.1087793  37.9602260 -55.9883701
  -0.4340000  38.3310000 -58.7270000   0.3350000  39.2380000 -59.3490000
   0.7650908  39.0107395 -60.3132477   0.6830000  40.4570000 -58.9520000
   0.1430000  40.7400000 -57.7520000   1.5550000  45.3370000 -57.0460000
   1.2140316  46.2815129 -56.6220488   0.3700000  44.4110000 -57.2350000
  -0.4652081  44.7603491 -56.6279729   0.0774749  44.4040827 -58.2849911
   2.1930000  45.5910000 -58.2740000   1.5890000  46.6370000 -59.3300000
   2.7340000  47.3310000 -59.9770000   0.4630000  47.3610000 -58.7130000
   0.9010000  45.7090000 -60.4150000   1.6880000  44.9050000 -61.2460000
   2.3254762  44.2841198 -60.6165305   2.3093635  45.5184572 -61.8984403
   0.8090000  44.0170000 -62.0900000   1.4325618  43.4549056 -62.7852122
   0.1890000  43.0030000 -61.2560000  -1.1440000  42.8820000 -61.6500000
  -1.2014597  42.1892218 -62.4895570  -1.9200000  42.1990000 -60.5760000
  -2.2870000  42.8640000 -59.4530000  -2.0167996  43.9015513 -59.3230813
  -2.9880000  42.2490000 -58.4890000  -3.2680208  42.8094431 -57.5970402
  -3.3260000  40.8810000 -58.6850000  -4.0150000  40.2160000 -57.7540000
  -4.2332619  39.2465257 -57.9345048  -4.3010036  40.6801452 -56.9037809
  -2.9680000  40.2250000 -59.7840000  -2.2620000  40.8660000 -60.7520000
  -1.9050000  40.3040000 -61.7900000  -0.3440000  44.7340000 -62.7870000
  -0.2910981  45.8224268 -62.8120470  -1.5580000  44.3010000 -61.9610000
  -1.9414155  45.1549354 -61.4025324  -2.3349192  43.9240399 -62.6261300
  -0.4350000  44.2540000 -64.0970000  -0.3530000  45.2510000 -65.3490000
   1.0690000  45.6340000 -65.5360000  -1.4340000  46.2570000 -65.1910000
  -0.7530000  44.3160000 -66.5750000  -0.2140000  42.9950000 -66.6540000
   0.1230877  42.7371897 -65.6500051   0.6296524  42.9499745 -67.3427118
  -1.2730000  42.0000000 -67.0960000  -0.7698936  41.1530302 -67.5625033
  -1.9390000  41.4340000 -65.9370000  -3.3370000  41.4720000 -66.1230000
  -3.7733740  40.5567469 -66.5229858  -3.9690000  41.5900000 -64.8030000
  -3.9920000  42.6850000 -63.9800000  -3.5629339  43.6202802 -64.3079554
  -4.6230000  42.4790000 -62.8400000  -5.0310000  41.1560000 -62.9210000
  -5.7450000  40.3180000 -62.0310000  -6.1880000  40.7210000 -60.8350000
  -6.6926273  40.0788623 -60.2407679  -6.0178843  41.6674437 -60.5261250
  -5.9840000  39.0410000 -62.4250000  -5.5320000  38.6510000 -63.6250000
  -5.7141403  37.6424674 -63.9657138  -4.8480000  39.3420000 -64.5350000
  -4.6300000  40.5960000 -64.1210000  -2.3700000  42.5800000 -67.9870000
  -2.1528199  43.5780779 -68.3674893  -3.5970000  42.6400000 -67.0610000
  -3.9250626  43.6743680 -66.9582532  -4.4040096  42.0440571 -67.4872485
  -2.5690000  41.7160000 -69.1000000  -3.2610000  42.2370000 -70.4540000
  -2.2040000  42.4530000 -71.4710000  -4.2120000  43.3310000 -70.1320000
  -4.1020000  40.9580000 -70.8940000  -3.8220000  39.6970000 -70.2860000
  -3.2310004  39.8916981 -69.3910630  -3.2571880  39.0539867 -70.9609978
  -5.1100000  38.9970000 -69.8910000  -4.9241069  37.9232955 -69.8645105
  -5.4670000  39.3380000 -68.5260000  -6.8450000  39.6090000 -68.4790000
  -7.4037776  38.6931333 -68.2865029  -7.1320000  40.4430000 -67.3080000
  -6.7890000  41.7660000 -67.0990000  -6.2509259  42.3204552 -67.8536242
  -7.1790000  42.2280000 -65.9320000  -7.8160000  41.1390000 -65.3330000
  -8.4490000  41.0200000 -64.0630000  -8.5800000  41.8800000 -63.1750000
  -8.9640000  39.7300000 -63.8630000  -9.4284398  39.5468403 -62.9965436
  -8.8810000  38.6900000 -64.7740000  -9.4360000  37.5160000 -64.4120000
  -9.8989569  37.3059973 -63.5392629  -9.3645131  36.7591391 -65.0769453
  -8.2960000  38.7950000 -65.9590000  -7.7890000  40.0380000 -66.1720000
  -6.3280000  39.3570000 -70.7440000  -6.0958324  39.9018298 -71.6590724
  -7.1560000  40.2500000 -69.8140000  -7.2025414  41.2586766 -70.2244931
  -8.1650052  39.8471690 -69.7260459  -7.0250000  38.1730000 -71.0890000
  -7.8280000  38.0740000 -72.4760000  -7.1420000  37.0390000 -73.2890000
  -8.0440000  39.4430000 -73.0100000  -9.2400000  37.4910000 -72.0300000
  -9.2870000  36.2440000 -71.3850000  -8.3628694  36.1365997 -70.8170671
  -9.3624389  35.4349853 -72.1115706 -10.4610000  36.1730000 -70.4400000
 -10.4260769  35.2160768 -69.9192527 -10.3120000  37.1640000 -69.3900000
 -11.5280000  37.8590000 -69.2590000 -12.2051112  37.3753946 -68.5549081
 -11.2620000  39.1580000 -68.6460000 -10.5040000  40.1910000 -69.1460000
 -10.0375658  40.1121991 -70.1168921 -10.4270000  41.2200000 -68.3340000
 -11.1710000  40.8330000 -67.2210000 -11.4570000  41.5260000 -66.0080000
 -11.0880000  42.6560000 -65.6550000 -12.2530000  40.7580000 -65.1510000
 -12.5109900  41.1566779 -64.2709457 -12.7130000  39.4870000 -65.4320000
 -13.4710000  38.8950000 -64.4960000 -13.7345546  39.2745005 -63.5978805
 -13.7972935  37.9619580 -64.7035238 -12.4520000  38.8360000 -66.5570000
 -11.6830000  39.5640000 -67.4000000 -11.8250000  36.4430000 -71.0740000
 -11.8853414  36.3584618 -72.1590396 -12.1000000  37.8940000 -70.6580000
 -12.0158769  38.5443105 -71.5287001 -13.1056907  37.9695886 -70.2445115
 -12.7660000  35.5460000 -70.4960000 -14.1330000  35.1570000 -71.2450000
 -13.9010000  33.9030000 -71.9990000 -14.6290000  36.3660000 -71.9450000
 -15.1140000  34.8390000 -70.0280000 -14.8250000  35.3810000 -68.7520000
 -14.0214816  36.1047897 -68.8883326 -14.5020761  34.6073273 -68.0554001
 -16.0390000  36.0860000 -68.1850000 -16.3875746  35.5200120 -67.3211409
 -15.6570000  37.3820000 -67.6420000 -16.4390000  38.4040000 -68.2330000
 -17.2415900  38.7106128 -67.5622265 -15.5790000  39.6490000 -68.3560000
 -14.7900000  39.8370000 -69.4600000 -14.7901628  39.1063654 -70.2553445
 -14.0070000  40.9250000 -69.5740000 -13.3913487  41.0432671 -70.4656763
 -14.0250000  41.8770000 -68.5040000 -13.2620000  42.9830000 -68.5650000
 -13.3059140  43.6270974 -67.7882693 -12.6705634  43.1499282 -69.3665230
 -14.7910000  41.6990000 -67.4200000 -15.5790000  40.5910000 -67.3130000
 -16.2990000  40.3910000 -66.3290000 -17.1560000  36.3580000 -69.1870000
 -17.1315525  35.7495597 -70.0910473 -16.9320000  37.8330000 -69.5560000
 -16.6266254  37.9045845 -70.5998971 -17.8579045  38.3892800 -69.4098711
 -18.4110000  36.1460000 -68.5400000 -19.7540000  35.8520000 -69.3760000
 -20.2000000  34.4800000 -69.0460000 -19.5230000  36.2310000 -70.7910000
 -20.8030000  36.8560000 -68.7070000 -20.8700000  36.9380000 -67.2830000
 -19.8751248  36.6967301 -66.9086843 -21.5908885  36.2248781 -66.8831531
 -21.2480000  38.3370000 -66.8300000 -21.4414068  38.3051399 -65.7577696
 -20.1140000  39.2440000 -66.9700000 -20.5920000  40.4570000 -67.4920000
 -20.8506307  41.0967198 -66.6482181 -19.4840000  41.1840000 -68.1560000
 -19.0230000  40.7460000 -69.3600000 -19.4598741  39.8702883 -69.8168040
 -18.0330000  41.3820000 -69.9940000 -17.6826157  40.9990245 -70.9524680
 -17.4860000  42.5450000 -69.3720000 -16.4930000  43.2220000 -69.9690000
 -16.1325055  44.0393799 -69.4977948 -16.1290236  42.9125727 -70.8588749
 -17.9390000  42.9920000 -68.1970000 -18.9450000  42.3330000 -67.5590000
 -19.3910000  42.7130000 -66.4710000 -22.3990000  38.9750000 -67.6090000
 -22.9379337  38.2948808 -68.2686113 -21.6950000  40.0430000 -68.4440000
 -21.7802503  39.7928413 -69.5014745 -22.1595512  41.0120731 -68.2618194
 -23.3180000  39.5560000 -66.7050000 -24.8990000  39.3650000 -66.9130000
 -25.2500000  38.0010000 -66.4530000 -25.2190000  39.7790000 -68.3000000
 -25.5360000  40.4380000 -65.9070000 -25.0900000  40.4930000 -64.5550000
 -24.1374728  39.9637238 -64.5293337 -25.7940552  40.0058304 -63.8804093
 -24.8760000  41.9310000 -64.1020000 -24.6956967  41.9094742 -63.0272318
 -23.6490000  42.4640000 -64.6660000 -23.8990000  43.7020000 -65.2990000
 -23.6203088  44.5861241 -64.7256283 -23.0230000  43.7760000 -66.4630000
 -23.0050000  42.9150000 -67.5200000 -23.7312300  42.1177954 -67.5787906
 -22.1000000  43.2000000 -68.4230000 -21.4720000  44.3210000 -67.9210000
 -20.4200000  45.1080000 -68.4130000 -19.8020000  44.8620000 -69.5710000
 -19.0493390  45.4609754 -69.8789467 -20.0872630  44.0769741 -70.1388540
 -20.0270000  46.1580000 -67.6700000 -20.6540000  46.4010000 -66.5100000
 -20.3582664  47.2403178 -65.8980471 -21.6570000  45.7300000 -65.9420000
 -22.0220000  44.6910000 -66.7070000 -25.9780000  42.9070000 -64.4810000
 -26.9111800  42.4416828 -64.7984171 -25.3780000  43.6970000 -65.6490000
 -25.9641144  43.5158617 -66.5499762 -25.3930633  44.7613129 -65.4142421
 -26.2410000  43.7340000 -63.3860000 -27.5650000  44.6300000 -63.3660000
 -28.1130000  44.5430000 -61.9920000 -28.3840000  44.2290000 -64.5360000
 -27.0200000  46.1160000 -63.6070000 -26.2010000  46.7250000 -62.6260000
 -25.4558269  45.9832427 -62.3385748 -26.7799605  47.0161394 -61.7495622
 -25.5000000  47.9430000 -63.1860000 -24.8171641  48.3249550 -62.4270897
 -24.6440000  47.5590000 -64.2820000 -24.6610000  48.5670000 -65.2580000
 -23.8734110  49.3058932 -65.1102178 -24.3130000  47.9410000 -66.5300000
 -24.8950000  46.8250000 -67.0790000 -25.7105188  46.3290974 -66.5736173
 -24.3660000  46.4660000 -68.2150000 -23.3530000  47.3940000 -68.4330000
 -22.4310000  47.5100000 -69.5120000 -22.3280000  46.7890000 -70.5220000
 -21.5670000  48.5990000 -69.3430000 -20.8843564  48.7668720 -70.0542069
 -21.5890000  49.4640000 -68.2660000 -20.6750000  50.4550000 -68.2800000
 -19.9722396  50.6238083 -68.9855012 -20.6807769  51.0852254 -67.4907703
 -22.4510000  49.3650000 -67.2480000 -23.3000000  48.3090000 -67.3990000
 -26.4280000  49.0250000 -63.7180000 -27.4861009  48.7811007 -63.6229503
 -26.0620000  49.1520000 -65.2100000 -26.9644702  49.0635265 -65.8148298
 -25.5984945  50.1220471 -65.3896425 -26.1830000  50.2150000 -63.0120000
 -27.1600000  51.4700000 -63.1910000 -27.1760000  52.2200000 -61.9160000
 -28.4330000  50.9290000 -63.7170000 -26.4350000  52.3510000 -64.3240000
 -25.9650000  53.6670000 -64.0200000 -25.6940925  53.6600637 -62.9642249
 -26.7425371  54.4116998 -64.1901728 -24.7390000  54.0250000 -64.8490000
 -23.8970850  54.1501482 -64.1681061 -24.3630000  52.9080000 -65.6890000
 -24.1230000  53.3590000 -67.0040000 -23.0739524  53.5459135 -67.2334814
 -24.4720000  52.2740000 -67.9200000 -25.5690000  51.4590000 -67.8420000
 -26.3133398  51.6277626 -67.0778803 -25.6280000  50.5510000 -68.7910000
 -24.4880000  50.7820000 -69.5450000 -23.9700000  50.1530000 -70.7010000
 -24.5680000  49.1180000 -71.3120000 -24.1510749  48.7083580 -72.1356918
 -25.4348356  48.7489474 -70.9480014 -22.8050000  50.6290000 -71.2000000
 -22.2140000  51.6650000 -70.5880000 -21.2919306  52.0691447 -70.9789657
 -22.6000000  52.3320000 -69.4960000 -23.7580000  51.8390000 -69.0210000
 -24.9120000  55.2250000 -65.7810000 -25.8250744  55.7897440 -65.5926968
 -24.9770000  54.6010000 -67.1760000 -25.9306075  54.8496373 -67.6417376
 -24.1624636  54.9900745 -67.7869433 -23.8040000  56.1020000 -65.6500000
 -23.9530000  57.6570000 -66.0360000 -22.9660000  58.4340000 -65.2510000
 -25.3880000  57.9940000 -65.9060000 -23.5730000  57.6960000 -67.5950000
 -22.8770000  58.8180000 -68.1370000 -22.0155552  59.0354169 -67.5055392
 -23.5464994  59.6781097 -68.1460835 -22.4000000  58.5400000 -69.5560000
 -21.3587160  58.8468870 -69.6542210 -22.3820000  57.1140000 -69.7990000
 -22.5810000  56.8700000 -71.1840000 -21.7158869  56.3842330 -71.6353413
 -23.6710000  55.8430000 -71.3490000 -24.8720000  56.0100000 -70.6760000
 -24.9929552  56.9037502 -70.0818783 -25.9020000  55.1490000 -70.7660000
 -27.1880000  55.3660000 -70.0200000 -27.6334984  56.3112264 -70.3301254
 -27.8776287  54.5507676 -70.2388799 -26.9871596  55.3936594 -68.9490203
 -25.7410000  53.9880000 -71.6120000 -26.6280000  53.1500000 -71.7530000
 -24.5140000  53.8860000 -72.2550000 -24.3831262  53.0133983 -72.8949523
 -23.4570000  54.7560000 -72.1730000 -22.4170000  54.5700000 -72.7850000
 -23.2870000  59.0930000 -70.6520000 -24.3576900  59.0019805 -70.4691420
 -22.8980000  58.2210000 -71.8460000 -23.4492565  58.5455832 -72.7285312
 -21.8280408  58.3147286 -72.0317486 -22.9820000  60.4580000 -70.8830000
 -23.5059944  60.8800791 -71.5677465  52.6631745 -35.7916320  10.1713353
  53.1930000 -36.0680000   9.4200000  54.2570000 -35.2290000   8.9790000
  54.9609829 -35.1214688   9.8041944  53.8668827 -34.2488232   8.7048416
  54.9770000 -35.8330000   7.7830000  55.2542159 -36.8620945   8.0115089
  54.0570000 -35.9440000   6.6530000  54.6140000 -35.2750000   5.5390000
  55.0832102 -36.0185000   4.8946784  53.5350000 -34.7290000   4.7100000
  52.3160000 -34.2700000   5.1490000  52.0676728 -34.2992427   6.1996556
  51.5490000 -33.8260000   4.1920000  52.3040000 -33.9960000   3.0380000
  51.9840000 -33.6910000   1.6930000  50.9400000 -33.1970000   1.2530000
  53.0270000 -34.0140000   0.8190000  52.8934100 -33.8253367  -0.1539126
  54.2300000 -34.5690000   1.1980000  55.1130000 -34.8070000   0.2040000
  54.9799736 -34.6325668  -0.7818895  55.9937910 -35.2218338   0.4727383
  54.5470000 -34.8650000   2.4660000  53.5350000 -34.5500000   3.3310000
  56.1570000 -35.0080000   7.2680000  56.5994504 -34.3232877   7.9915372
  55.5110000 -34.2110000   6.1450000  55.4197249 -33.1672135   6.4454641
  56.1285674 -34.2780515   5.2493360  57.1830000 -35.8750000   6.7670000
  58.7240000 -35.4060000   6.7610000  59.5180000 -36.4580000   7.4390000
  58.7640000 -34.0140000   7.2630000  59.1270000 -35.3960000   5.2050000
  58.2310000 -34.8440000   4.2450000  57.7516384 -33.9450016   4.6324460
  57.4757098 -35.6089462   4.0647375  58.9280000 -34.5140000   2.9390000
  59.1307436 -35.4142034   2.3588033  58.0190000 -33.7530000   2.1190000
  58.2400000 -32.3670000   2.3570000  58.4538629 -31.8196685   1.4389640
  56.9840000 -31.7870000   2.8200000  56.4920000 -31.7410000   4.1050000
  57.0605695 -32.1459633   4.9290967  55.3120000 -31.1760000   4.1870000
  55.0040000 -30.8400000   2.8690000  53.8590000 -30.2020000   2.3150000
  52.8430000 -29.7890000   2.8970000  53.9710000 -30.0600000   0.9270000
  53.2136507 -29.6222777   0.4424180  55.0450000 -30.4800000   0.1760000
  54.9840000 -30.2650000  -1.1490000  54.2263483 -29.8360682  -1.6609391
  55.7719572 -30.5838095  -1.6945135  56.1100000 -31.0740000   0.6810000
  56.0240000 -31.2200000   2.0240000  60.1140000 -33.5880000   3.0570000
  60.8498099 -33.7828257   3.8372087  59.4010000 -32.2720000   3.3480000
  59.4939666 -32.0343913   4.4077163  59.8521213 -31.4752412   2.7565905
  60.7850000 -33.5500000   1.7930000  61.8170000 -32.3720000   1.4270000
  62.7250000 -32.9080000   0.3880000  62.3730000 -31.8300000   2.6860000
  60.9010000 -31.2440000   0.7550000  60.3370000 -31.4580000  -0.5340000
  59.5270378 -32.1761280  -0.4061196  61.0742888 -31.8623774  -1.2275306
  59.7740000 -30.1660000  -1.1010000  59.4520175 -30.3578851  -2.1245266
  58.5540000 -29.8120000  -0.3960000  58.5710000 -28.4320000  -0.1080000
  58.1278209 -27.8198392  -0.8934621  57.6610000 -28.1650000   1.0910000
  58.0690000 -28.5140000   2.3700000  59.0592192 -28.9285427   2.4884083
  57.3110000 -28.3170000   3.4720000  57.7960000 -28.6970000   4.8420000
  58.7091350 -28.1472540   5.0701740  57.0314535 -28.4525195   5.5794265
  57.9998371 -29.7673530   4.8719058  55.9940000 -27.7240000   3.2980000
  55.2290000 -27.5090000   4.2390000  55.6540000 -27.4160000   1.9940000
  54.6690112 -26.9718861   1.8502620  56.4170000 -27.6050000   0.8690000
  56.0140000 -27.2940000  -0.2410000  60.7000000 -28.9440000  -1.0030000
  61.7209907 -29.1849978  -0.7070324  60.0380000 -28.0850000   0.0900000
  60.7233912 -27.9736924   0.9302076  59.7981667 -27.1019748  -0.3152675
  60.7480000 -28.2680000  -2.2800000  61.9410000 -27.2490000  -2.6600000
  62.6300000 -27.7740000  -3.8600000  62.7240000 -26.9370000  -1.4450000
  61.1560000 -25.9290000  -3.0910000  59.9760000 -26.0440000  -3.8800000
  59.5246846 -27.0182467  -3.6922293  60.2329418 -25.9606299  -4.9359976
  58.9830000 -24.9580000  -3.5220000  58.2015999 -24.9114413  -4.2805153
  58.2900000 -25.3100000  -2.3120000  57.7630000 -24.1330000  -1.7570000
  56.7499309 -23.9409991  -2.1104486  57.5740000 -24.3270000  -0.2750000
  58.6060000 -24.8430000   0.4890000  59.5435578 -25.0454252  -0.0073966
  58.5190000 -25.0490000   1.8200000  59.6640000 -25.6080000   2.6100000
  60.5252511 -24.9459016   2.5207148  59.3768873 -25.6904645   3.6582680
  59.9235231 -26.5946350   2.2262050  57.2770000 -24.7060000   2.4820000
  57.1050000 -24.8610000   3.6940000  56.2910000 -24.1920000   1.6560000
  55.3503500 -23.9319273   2.1414282  56.3680000 -23.9780000   0.2960000
  55.4350000 -23.5180000  -0.3450000  59.6070000 -23.6010000  -3.2360000
  60.6388190 -23.6726539  -2.8920319  58.7330000 -23.0030000  -2.1170000
  59.3131170 -22.2722638  -1.5534506  57.8631268 -22.5147690  -2.5563760
  59.5770000 -22.8040000  -4.4060000  60.2660000 -21.3570000  -4.4120000
  60.5410000 -21.0250000  -5.8250000  61.3540000 -21.3620000  -3.4120000
  59.1190000 -20.3900000  -3.8710000  57.8950000 -20.3150000  -4.5710000
  57.6751620 -21.3273346  -4.9100427  57.9702631 -19.6520261  -5.4329175
  56.7700000 -19.8350000  -3.6680000  55.8435687 -20.2572120  -4.0573089
  56.9000000 -20.4040000  -2.3480000  56.3210000 -19.5060000  -1.4360000
  55.2327486 -19.5213021  -1.3762169  56.7460000 -19.8990000  -0.0320000
  57.9800000 -20.4930000   0.1610000  58.6292929 -20.5828131  -0.6973429
  58.4280000 -20.9150000   1.3580000  59.7870000 -21.5330000   1.5180000
  60.5500834 -20.8194249   1.2071724  59.9443899 -21.8003636   2.5629139
  59.8545051 -22.4284904   0.9002302  57.5560000 -20.7600000   2.5070000
  57.8840000 -21.1190000   3.6380000  56.3250000 -20.1800000   2.2420000
  55.6670083 -20.0369771   3.0991418  55.8560000 -19.7440000   1.0180000
  54.7530000 -19.2410000   0.8880000  56.6800000 -18.3150000  -3.4630000
  57.4909494 -17.7579563  -3.9322144  56.7520000 -18.1350000  -1.9230000
  57.5370517 -17.4201222  -1.6765393  55.7952885 -17.7644970  -1.5548548
  55.4420000 -17.8480000  -4.0170000  55.0890000 -16.2820000  -4.0700000
  53.8180000 -16.1290000  -4.8120000  56.2790000 -15.5390000  -4.5310000
  54.8460000 -15.9180000  -2.5410000  54.2760000 -14.7040000  -2.1940000
  53.8011098 -14.2770043  -3.0773199  55.0346329 -14.0156962  -1.8214218
  53.2360000 -14.9180000  -1.1280000  52.3411810 -15.3493271  -1.5767261
  53.6950000 -15.9260000  -0.1920000  53.7730000 -15.3760000   1.1100000
  52.9273928 -15.5768557   1.7678029  54.9350000 -16.0390000   1.8340000
  56.1070000 -16.3110000   1.1460000  56.1826047 -15.9630114   0.1263981
  57.1670000 -16.9350000   1.6980000  58.4290000 -17.1860000   0.9310000
  58.8505519 -16.2358188   0.6030529  59.1469464 -17.7001981   1.5699471
  58.2090993 -17.8048818   0.0610986  57.0670000 -17.3660000   3.0710000
  57.9850000 -17.9470000   3.6490000  55.8650000 -17.0850000   3.6900000
  55.7822233 -17.3959628   4.7314177  54.7700000 -16.4440000   3.1430000
  53.7500000 -16.2420000   3.7760000  52.9340000 -13.7000000  -0.2920000
  53.1322071 -12.7376492  -0.7639043  53.8660000 -13.8800000   0.9140000
  54.6662928 -13.1413604   0.8688102  53.2992146 -13.7449503   1.8352036
  51.5910000 -13.7400000   0.0730000  50.8630000 -12.4100000   0.5940000
  49.4370000 -12.4950000   0.1900000  51.6640000 -11.2510000   0.1510000
  51.0080000 -12.5190000   2.1850000  51.4880000 -11.4240000   2.9240000
  50.6861153 -10.6871605   2.9703518  52.3544546 -10.9865687   2.4280053
  51.8730000 -11.8310000   4.3330000  51.0439671 -12.3618762   4.8009469
  52.9540000 -12.8010000   4.3000000  53.8040000 -12.5650000   5.4000000
  53.4855955 -13.1209051   6.2818658  55.1710000 -13.1410000   5.1100000
  55.8200000 -12.8030000   3.9430000  55.3395785 -12.0888543   3.2906264
  57.0350000 -13.2740000   3.6040000  57.7070000 -12.8830000   2.3240000
  57.8500417 -11.8026229   2.3034085  58.6753954 -13.3785731   2.2553147
  57.0853533 -13.1828199   1.4803396  57.6930000 -14.1790000   4.5120000
  58.8020000 -14.6550000   4.2790000  56.9890000 -14.4690000   5.6550000
  57.4704963 -15.1610768   6.3458630  55.7490000 -13.9940000   6.0170000
  55.2100000 -14.3170000   7.0560000  52.3700000 -10.6710000   5.1850000
  52.3946922  -9.7402412   4.6182751  53.8030000 -11.0630000   5.5910000
  54.4784105 -10.2313499   5.3903063  53.8274813 -11.3018279   6.6542319
  51.5220000 -10.4830000   6.3000000  51.1800000  -8.9890000   6.7850000
  49.7200000  -8.8400000   6.9790000  51.9040000  -8.0760000   5.8740000
  51.8960000  -8.8720000   8.2070000  53.3140000  -8.9480000   8.2940000
  53.6819364  -7.9960707   8.6768230  53.7367148  -9.1294262   7.3058212
  53.7420000 -10.0620000   9.2320000  52.8744270 -10.6468392   9.5375805
  54.5690000 -10.9920000   8.5180000  55.5500000 -11.5300000   9.3730000
  55.4208905 -12.5738403   9.6590549  56.8270000 -11.5240000   8.6470000
  57.0740000 -10.8960000   7.4500000  56.3103381 -10.2894842   6.9859298
  58.2670000 -11.1150000   6.9800000  58.8460000 -11.9680000   7.9060000
  60.1360000 -12.5460000   7.9210000  61.0500000 -12.4120000   7.0930000
  60.3230000 -13.3520000   9.0370000  61.2035673 -13.8171515   9.1277408
  59.3870000 -13.5710000  10.0210000  59.7520000 -14.3880000  11.0210000
  60.6350098 -14.8676887  11.1224529  59.0629587 -14.5569063  11.7398837
  58.1690000 -13.0360000  10.0190000  57.9690000 -12.2470000   8.9340000
  54.5670000  -9.5970000  10.4090000  55.1647109  -8.7062337  10.2156718
  55.4940000 -10.7810000  10.6970000  56.2342505 -10.4905895  11.4425134
  54.9077293 -11.6185842  11.0749411  53.7070000  -9.3350000  11.4980000
  53.7690000  -7.9240000  12.2600000  52.4200000  -7.6140000  12.7810000
  54.4600000  -6.9680000  11.3700000  54.7100000  -8.2260000  13.5090000
  54.4210000  -9.3500000  14.3380000  53.9034755 -10.0985173  13.7380081
  53.7774495  -9.0351934  15.1594866  55.6920000  -9.9560000  14.9040000
  55.4374167 -10.6926446  15.6659983  56.3750000 -10.7120000  13.8850000
  57.7620000 -10.7160000  14.1550000  58.1485903 -11.7022423  14.4118525
  58.4890000 -10.3890000  12.8810000  57.9560000  -9.4540000  12.0270000
  57.0768683  -8.9223652  12.3600046  58.5000000  -9.1240000  10.8480000
  57.8730000  -8.1040000   9.9440000  57.8131966  -7.1467006  10.4617846
  58.4792316  -7.9929707   9.0449696  56.8703780  -8.4301970   9.6675149
  59.7300000  -9.7670000  10.4670000  60.3000000  -9.5100000   9.4130000
  60.2220000 -10.6880000  11.3740000  61.1591883 -11.1751457  11.1048015
  59.6620000 -11.0460000  12.5740000  60.1770000 -11.8740000  13.3010000
  56.7070000  -8.9490000  15.3800000  56.7987243  -8.0490140  14.7719616
  58.0070000  -9.7430000  15.3120000  58.8385558  -9.1060839  15.6135826
  57.9451265 -10.6004400  15.9821258  56.3950000  -8.5650000  16.7050000
  56.7830000  -7.0990000  17.2320000  55.9840000  -6.7780000  18.4310000
  56.7210000  -6.1840000  16.0740000  58.2960000  -7.2830000  17.7080000
  58.6230000  -8.3530000  18.5950000  58.0925997  -9.2494624  18.2738601
  58.3117659  -8.0898575  19.6059352  60.1100000  -8.6260000  18.5880000
  60.3641946  -9.3318393  19.3787435  60.4690000  -9.3070000  17.3660000
  61.7530000  -8.8930000  16.9490000  62.3965135  -9.7653095  16.8346946
  61.6520000  -8.3430000  15.5590000  60.5340000  -7.6700000  15.1600000
  59.7175480  -7.5251129  15.8519638  60.4270000  -7.1820000  13.9200000
  59.5178336  -6.6565271  13.6277758  61.5280000  -7.3830000  13.0370000
  61.4870000  -6.9120000  11.7820000  62.2896896  -7.0778307  11.1918388
  60.6744469  -6.4105972  11.4526763  62.6280000  -8.0420000  13.4230000
  62.7140000  -8.5340000  14.6830000  63.7070000  -9.1380000  15.0920000
  60.9730000  -7.3860000  18.6120000  60.5949192  -6.5411018  18.0364128
  62.2690000  -7.8890000  17.9850000  63.0117347  -7.0912917  17.9952880
  62.6425273  -8.7398914  18.5547029  61.1570000  -6.9660000  19.9490000
  60.4590000  -5.6160000  20.4730000  60.1960000  -5.7410000  21.9240000
  59.3340000  -5.3140000  19.5630000  61.5880000  -4.5020000  20.2600000
  62.9530000  -4.7860000  20.5980000  63.1781523  -5.7929571  20.2466543
  63.0939676  -4.7385049  21.6778023  63.8960000  -3.8000000  19.9270000
  64.9135517  -3.9601813  20.2834125  63.9570000  -4.0920000  18.5190000
  64.1110000  -2.9060000  17.7680000  65.1043082  -2.7906351  17.3342615
  63.2110000  -2.9950000  16.5440000  61.9050000  -2.5310000  16.5970000
  61.5742976  -2.0572749  17.5094805  61.0510000  -2.5970000  15.5540000
  59.6490000  -2.0680000  15.6460000  59.6763925  -1.0023765  15.8735870
  59.1385240  -2.2229898  14.6954779  59.1127331  -2.5940136  16.4358272
  61.5280000  -3.2020000  14.3230000  60.8350000  -3.2980000  13.3130000
  62.8360000  -3.6350000  14.3490000  63.2116322  -4.0681174  13.4219560
  63.7110000  -3.5740000  15.4000000  64.8480000  -3.9960000  15.3160000
  63.4690000  -2.3480000  20.0440000  62.3998126  -2.2341615  20.2228235
  63.8320000  -1.7180000  18.6890000  63.3067038  -0.7695999  18.5763042
  64.9072246  -1.5447101  18.6446953  64.1750000  -1.7320000  21.1100000
  63.7550000  -0.2680000  21.6210000  64.3590000  -0.0640000  22.9540000
  62.2880000  -0.1360000  21.4780000  64.4780000   0.7250000  20.5860000
  65.8970000   0.6420000  20.3810000  66.0621892  -0.2638552  19.7977000
  66.4334637   0.5673126  21.3269012  66.4210000   1.8430000  19.6010000
  67.4955021   1.9083536  19.7720951  66.2940000   1.6010000  18.1770000
  65.3610000   2.4940000  17.5920000  65.8576546   3.0789379  16.8178675
  64.3680000   1.7040000  16.8480000  63.2090000   1.1600000  17.3520000
  62.9519777   1.2988053  18.3917474  62.5110000   0.4990000  16.4720000
  63.2450000   0.6120000  15.3000000  62.9750000   0.1000000  14.0110000
  62.0020000  -0.5660000  13.6420000  63.9690000   0.4450000  13.0950000
  63.8574507   0.1367070  12.1502721  65.0940000   1.1910000  13.3920000
  65.9400000   1.4230000  12.3700000  65.8450783   1.1012396  11.4173403
  66.7682929   1.9602435  12.5830754  65.3620000   1.6820000  14.6030000
  64.3950000   1.3540000  15.5070000  65.7150000   3.1630000  19.8870000
  65.1598670   3.1441766  20.8248549  64.7400000   3.3240000  18.7210000
  63.7331875   3.4817193  19.1077200  65.0347306   4.1814412  18.1159970
  66.6540000   4.2270000  19.9420000  66.1590000   5.7370000  20.1890000
  67.2260000   6.4590000  20.9130000  64.7830000   5.7260000  20.7280000
  66.0960000   6.3410000  18.7220000  67.2460000   6.2790000  17.8960000
  67.7202328   5.3133020  18.0710164  67.9453674   7.0770975  18.1450505
  66.8650000   6.3890000  16.4340000  67.7432659   6.1746068  15.8250798
  65.9200000   5.3380000  16.0930000  64.9390000   5.8870000  15.2570000
  65.2815235   5.8113614  14.2249847  63.7350000   5.0510000  15.2850000
  62.9240000   4.7740000  16.3630000  63.1447086   5.1851210  17.3369965
  61.9160000   3.9940000  16.0680000  62.0660000   3.7450000  14.7070000
  61.2770000   2.9630000  13.8190000  60.2450000   2.3150000  14.0630000
  61.7900000   2.9870000  12.5160000  61.2934844   2.4790924  11.8120819
  62.9260000   3.6680000  12.1260000  63.2670000   3.5740000  10.8290000
  62.7880068   3.0493869  10.1110537  64.1028583   4.0650242  10.5455620
  63.6670000   4.3960000  12.9460000  63.1840000   4.3860000  14.2160000
  66.1910000   7.7100000  16.0400000  66.2147497   8.4718814  16.8191479
  64.7400000   7.3010000  15.7700000  64.0813169   7.8115474  16.4725504
  64.4677302   7.5769748  14.7512717  66.8140000   8.2350000  14.8760000
  66.8620000   9.8230000  14.6350000  68.2810000  10.2470000  14.7140000
  65.8450000  10.4390000  15.5270000  66.3480000   9.9990000  13.1230000
  67.1420000   9.5330000  12.0250000  67.6243623   8.5990014  12.3132242
  67.9031368  10.2762464  11.7876054  66.2770000   9.2910000  10.7940000
  66.9132800   9.1445872   9.9211825  65.5730000   8.0380000  10.9430000
  64.3470000   8.0870000  10.2320000  64.3997314   7.3880374   9.3972725
  63.2540000   7.5270000  11.0950000  63.2970000   7.7100000  12.4450000
  64.1209896   8.2490683  12.8886737  62.3320000   7.2320000  13.2390000
  62.3950972   7.4078178  14.3128748  61.2630000   6.5160000  12.6300000
  60.2770000   6.0110000  13.3840000  59.5366801   5.5094926  12.9144073
  60.2875747   6.1357479  14.3862113  61.2080000   6.3310000  11.3070000
  62.1920000   6.8290000  10.5050000  62.1790000   6.6790000   9.2760000
  65.1890000  10.3240000  10.5620000  64.7689651  10.7365819  11.4793035
  64.1100000   9.5370000   9.8160000  63.2279517  10.1637334   9.6844889
  64.4893454   9.2350320   8.8397764  65.6870000  11.3920000   9.7620000
  64.8470000  12.7570000   9.6300000  65.7200000  13.7820000   9.0280000
  64.1870000  13.0080000  10.9310000  63.6990000  12.4070000   8.5780000
  64.0220000  11.7980000   7.3200000  64.6129742  10.9055050   7.5256749
  64.5963051  12.4758621   6.6885119  62.7500000  11.3980000   6.5950000
  62.9981254  10.9227904   5.6459431  62.0640000  10.3610000   7.3540000
  60.6960000  10.6710000   7.4760000  60.1091534  10.0735275   6.7783347
  60.2040000  10.2010000   8.8230000  60.8890000  10.5850000   9.9560000
  61.7383068  11.2396994   9.8277542  60.5290000  10.2320000  11.1990000
  61.3190000  10.6650000  12.3970000  61.3396575  11.7537414  12.4451144
  60.8547734  10.2706253  13.3009149  62.3378637  10.2859533  12.3173765
  59.3480000   9.4130000  11.3610000  58.9510000   9.0440000  12.4630000
  58.7010000   9.0730000  10.1890000  57.8142416   8.4481177  10.2952184
  59.0590000   9.4290000   8.9080000  58.4170000   9.0790000   7.9350000
  61.7590000  12.5460000   6.4180000  62.1876307  13.4916987   6.7497052
  60.5820000  12.1810000   7.3120000  60.3338462  13.0285188   7.9509294
  59.7204718  11.9279760   6.6940613  61.3700000  12.6810000   5.0640000
  60.7780000  14.0820000   4.5460000  61.4470000  14.4080000   3.2700000
  60.8040000  15.0420000   5.6740000  59.2430000  13.7660000   4.2610000
  58.8500000  12.4820000   3.7870000  59.4719724  11.7409502   4.2890912
  58.9857621  12.3990016   2.7086770  57.3970000  12.2250000   4.1270000
  57.0050746  11.4406899   3.4794265  57.3070000  11.6700000   5.4660000
  56.2080000  12.2410000   6.1310000  55.3185769  11.6210094   6.0185833
  56.4600000  12.2070000   7.6190000  57.5450000  12.8830000   8.1410000
  58.1503485  13.4590892   7.4568402  57.8490000  12.9080000   9.4530000
  59.0470000  13.6480000   9.9810000  58.9600018  14.7056881   9.7323502
  59.0977143  13.5328023  11.0637084  59.9528330  13.2426270   9.5301799
  56.9760000  12.2000000  10.3620000  57.1690000  12.1760000  11.5740000
  55.9030000  11.5580000   9.7710000  55.2351663  11.0248124  10.4476165
  55.5900000  11.5190000   8.4360000  54.6150000  10.9180000   8.0200000
  56.5140000  13.4830000   4.1090000  57.0696605  14.3665646   3.7949079
  56.0660000  13.6520000   5.5670000  56.2813892  14.6678134   5.8984058
  54.9947802  13.4652029   5.6424662  55.4030000  13.3080000   3.2060000
  54.4060000  14.5270000   2.8670000  54.0320000  14.3820000   1.4380000
  54.9950000  15.7990000   3.3530000  53.1280000  14.2070000   3.7740000
  52.7840000  12.8420000   4.0610000  53.6729523  12.3611507   4.4692252
  52.4732037  12.3210437   3.1554003  51.6660000  12.7740000   5.0840000
  51.0458763  11.9012817   4.8792837  52.2230000  12.5240000   6.4120000
  51.7290000  13.4990000   7.3090000  50.9044725  13.0289071   7.8449724
  52.7520000  13.7860000   8.4020000  53.9290000  14.4100000   8.0840000
  54.1328269  14.6789886   7.0580860  54.8420000  14.6970000   9.0260000
  55.7725980  15.1819655   8.7312184  54.5380000  14.3490000  10.3770000
  55.4140000  14.6180000  11.3580000  55.1597618  14.3553164  12.2995205
  56.2930717  15.0680220  11.1463054  53.3860000  13.7540000  10.7070000
  52.4640000  13.4640000   9.7400000  51.3900000  12.9120000  10.0120000
  50.8390000  14.0580000   5.1990000  50.9518588  14.7308449   4.3489168
  51.4130000  14.7160000   6.4470000  51.9014505  15.6512099   6.1733255
  50.6084489  14.9200878   7.1535025  49.4480000  13.7490000   5.3520000
  48.3140000  14.7970000   4.8930000  47.9340000  14.5020000   3.4950000
  48.7550000  16.1590000   5.2670000  47.0790000  14.4320000   5.8270000
  46.9550000  13.1230000   6.3410000  47.9585398  12.7015823   6.3994389
  46.3400211  12.5060910   5.6857711  46.3410000  13.1430000   7.7280000
  45.9118999  12.1598087   7.9211509  47.3780000  13.2890000   8.7280000
  47.1650000  14.4710000   9.4840000  46.7357106  14.3567211  10.4793644
  48.4790000  15.0530000   9.7570000  49.3970000  15.4780000   8.8400000
  49.1467919  15.4802114   7.7893847  50.5190000  15.9150000   9.3680000
  50.3280000  15.7520000  10.7300000  51.1470000  16.0270000  11.8410000
  52.3780000  16.5470000  11.7410000  52.9208881  16.7234555  12.5742090
  52.7629152  16.7624669  10.8324225  50.6500000  15.7420000  13.0680000
  49.4210000  15.2200000  13.1640000  49.0058386  14.9825858  14.1323360
  48.5600000  14.9220000  12.1940000  49.0800000  15.2090000  10.9890000
  45.3560000  14.2720000   7.9950000  44.8616312  14.6954622   7.1207129
  46.2390000  15.3390000   8.6490000  46.3641380  16.1775860   7.9640086
  45.7677126  15.6881884   9.5677251  44.3670000  13.7970000   8.8840000
  43.1300000  14.7190000   9.3090000  41.9880000  13.7930000   9.4590000
  43.0500000  15.8850000   8.3980000  43.5460000  15.2530000  10.7510000
  43.8660000  14.3310000  11.7760000  44.8086925  13.8585058  11.4999925
  43.0935169  13.5684929  11.8757668  44.0360000  15.0450000  13.1030000
  43.9247484  14.3149875  13.9047507  45.3990000  15.5250000  13.2350000
  45.4070000  16.9230000  13.4500000  45.6194751  17.1474130  14.4952714
  46.5860000  17.4940000  12.7180000  46.5730000  17.5620000  11.3550000
  45.7104890  17.2118199  10.8074157  47.6160000  18.0580000  10.6760000
  47.5704956  18.1074771   9.5880746  48.7430000  18.5000000  11.4290000
  49.8220000  19.0000000  10.8060000  50.5974483  19.3009923  11.3788736
  49.8428432  19.0665681   9.7984110  48.7650000  18.4340000  12.7600000
  47.7000000  17.9330000  13.4370000  47.6910000  17.8580000  14.6700000
  43.1370000  16.2590000  13.2990000  42.2631913  16.2834930  12.6478801
  44.0590000  17.4330000  12.9600000  43.6872885  17.9426672  12.0710854
  44.0809275  18.1316972  13.7963263  42.6930000  16.3040000  14.6450000
  41.2150000  16.8230000  15.0070000  40.4890000  15.7190000  15.6720000
  40.6280000  17.4340000  13.7950000  41.4980000  17.9820000  16.0720000
  42.3690000  17.7320000  17.1730000  43.0509761  16.9207522  16.9182733
  41.7636053  17.4410127  18.0314429  43.1750000  18.9690000  17.5270000
  43.5855085  18.8609925  18.5309504  44.3280000  19.0640000  16.6750000
  44.7910000  20.3970000  16.7110000  45.6857856  20.5056881  17.3238988
  45.2560000  20.7780000  15.3800000  44.6620000  20.4990000  14.1820000
  43.7195006  19.9725440  14.1513321  45.3120000  20.9820000  13.1450000
  46.4070000  21.6230000  13.7060000  47.4910000  22.3450000  13.1460000
  47.6540000  22.5440000  11.8320000  48.4490656  23.0681005  11.4954133
  46.9818915  22.1700107  11.1774002  48.4150000  22.8450000  13.9980000
  48.2400000  22.6560000  15.3100000  48.9492813  23.0718566  16.0102731
  47.2770000  21.9990000  15.9470000  46.3830000  21.5050000  15.0820000
  42.4640000  20.2860000  17.3100000  41.8775439  20.3486201  16.3933503
  43.6360000  21.2710000  17.2350000  43.2585936  22.2694340  17.0141081
  44.1613907  21.2847715  18.1899215  41.6080000  20.5660000  18.4140000
  40.0240000  20.7590000  18.1900000  39.3360000  19.8430000  19.1260000
  39.7300000  20.7070000  16.7410000  39.7630000  22.2570000  18.6540000
  40.7980000  23.2230000  18.5270000  41.1717198  23.1808990  17.5039354
  41.6140296  23.0184095  19.2200649  40.2500000  24.6040000  18.7990000
  40.3190310  24.8099883  19.8671306  41.0860000  25.6080000  18.1820000
  40.5710000  25.9560000  16.9140000  40.7360585  27.0178098  16.7312028
  41.4220000  25.2610000  15.8250000  40.9530000  24.1160000  15.2450000
  39.9952832  23.7155843  15.5430701  41.6630000  23.4730000  14.3050000
  41.2581638  22.5586367  13.8712401  42.9180000  24.0260000  13.9220000
  43.6680000  23.4310000  12.9870000  44.5503833  23.8610491  12.7491805
  43.3492885  22.5815100  12.5432759  43.3900000  25.1390000  14.4680000
  42.6810000  25.7900000  15.4280000  43.1150000  26.8300000  15.9230000
  38.8570000  24.8330000  18.2580000  38.3010614  23.9106155  18.0899588
  39.0850000  25.5510000  16.9070000  38.4148423  25.1336122  16.1554846
  38.8827223  26.6158539  17.0221956  38.1290000  25.6160000  19.1830000
  36.7060000  26.2310000  18.7880000  35.9690000  26.5020000  20.0410000
  36.0930000  25.3290000  17.7860000  37.0970000  27.6370000  18.1290000
  38.0910000  28.4500000  18.7520000  38.9773816  27.8271962  18.8725945
  37.7581420  28.8004318  19.7289870  38.4360000  29.6460000  17.8840000
  38.9145328  30.4033127  18.5049534  39.4510000  29.2740000  16.9180000
  39.0990000  29.7570000  15.6400000  39.5976878  30.6939671  15.3920034
  39.6540000  28.7940000  14.6140000  38.9120000  27.6780000  14.2900000
  37.9425875  27.5758399  14.7549763  39.3030000  26.7490000  13.4000000
  38.4550000  25.5560000  13.0880000  37.4936010  25.8858984  12.6943270
  38.9577849  24.9363750  12.3454556  38.2951052  24.9755862  13.9966544
  40.5810000  26.9320000  12.7420000  41.0070000  26.1220000  11.9170000
  41.2810000  28.0670000  13.1100000  42.2488987  28.2061936  12.6284421
  40.8930000  29.0340000  14.0200000  41.5870000  30.0040000  14.2760000
  37.2630000  30.2130000  17.0890000  36.3042093  29.7812480  17.3760705
  37.5810000  29.8320000  15.6420000  36.7623287  29.2396060  15.2334100
  37.7066408  30.7364675  15.0468083  37.1910000  31.6230000  17.2640000
  35.8910000  32.4220000  16.7580000  35.6620000  33.5920000  17.6370000
  34.8130000  31.4280000  16.5640000  36.3240000  32.9420000  15.3200000
  37.4050000  33.8390000  15.1990000  38.3084678  33.2397970  15.0858555
  37.4953414  34.4679822  16.0846187  37.2350000  34.7210000  13.9760000
  37.7581985  35.6589464  14.1620623  37.9280000  34.1370000  12.8490000
  37.0050000  33.6640000  11.8860000  37.0982229  34.1647401  10.9223257
  37.3670000  32.2400000  11.5640000  36.6760000  31.2050000  12.1770000
  35.8586647  31.4646603  12.8334600  36.9370000  29.9030000  11.9520000
  36.1610000  28.8090000  12.6270000  35.1067657  28.8949776  12.3637560
  36.5386880  27.8401259  12.3002971  36.2734308  28.8966127  13.7076400
  38.0000000  29.5700000  11.0240000  38.3000000  28.4090000  10.7680000
  38.6550000  30.6540000  10.4470000  39.4508289  30.4189091   9.7402543
  38.3980000  31.9900000  10.6710000  39.0340000  32.8750000  10.1130000
  35.8020000  34.9380000  13.5150000  35.0469452  34.8422505  14.2952711
  35.6040000  33.8310000  12.4740000  34.8226208  33.1499553  12.8112297
  35.3125395  34.2746872  11.5220060  35.6920000  36.2340000  12.9420000
  34.2570000  36.8960000  12.6450000  34.1540000  38.1440000  13.4360000
  33.2160000  35.8510000  12.7830000  34.3770000  37.3040000  11.1050000
  35.6450000  37.7130000  10.5810000  36.3991526  37.1475839  11.1284107
  35.8150113  38.7798174  10.7262493  35.7530000  37.3870000   9.1010000
  36.5540049  37.9926234   8.6770769  36.1990000  36.0240000   8.9270000
  35.5240000  35.4350000   7.8460000  36.1081512  35.4985668   6.9279445
  35.4440000  34.0000000   8.1060000  34.6450000  33.3670000   9.0270000
  33.9698176  33.9344712   9.6503034  34.8030000  32.0690000   9.0480000
  35.7790000  31.8240000   8.0840000  36.3710000  30.6000000   7.6560000
  36.1420000  29.4490000   8.0590000  37.3240000  30.8090000   6.6530000
  37.7999839  30.0081844   6.2895000  37.6610000  32.0400000   6.1290000
  38.6030000  32.0550000   5.1660000  39.1012671  31.2606625   4.7906893
  38.8518346  32.9597598   4.7923800  37.1150000  33.1880000   6.5240000
  36.1860000  33.0060000   7.4990000  34.4490000  37.5300000   8.3150000
  33.6122346  37.8502120   8.9357952  34.1680000  36.1200000   7.7620000
  33.1377354  35.8411127   7.9830790  34.3216167  36.1151085   6.6828901
  34.6310000  38.5040000   7.2940000  33.6740000  38.5660000   6.0090000
  33.7690000  39.9550000   5.4970000  32.3430000  38.0190000   6.3680000
  34.4260000  37.6070000   4.9660000  35.8470000  37.6400000   4.9080000
  36.1828169  37.1614445   5.8279520  36.2131462  38.6662338   4.8783044
  36.4040000  36.8740000   3.7120000  37.4420583  37.1895942   3.6074319
  36.4830000  35.4590000   4.0040000  35.6920000  34.7280000   3.0850000
  36.2099548  34.1818230   2.2966392  35.0390000  33.6690000   3.8430000
  34.0890000  33.8230000   4.8140000  33.6884062  34.8022454   5.0308056
  33.7060000  32.6930000   5.3640000  34.4740000  31.7280000   4.7260000
  34.5420000  30.3190000   4.8610000  33.7940000  29.6240000   5.7270000
  33.8847813  28.6194835   5.7799782  33.1389385  30.1042164   6.3273211
  35.4150000  29.6560000   4.0690000  36.1700000  30.3590000   3.2060000
  36.8781673  29.8515086   2.5677598  36.1940000  31.6800000   2.9880000
  35.3130000  32.3120000   3.7890000  35.6300000  36.9790000   2.4090000
  35.0102936  37.8651406   2.2718227  34.7400000  35.7380000   2.4600000
  33.7072321  36.0379632   2.6375156  34.8049637  35.2044456   1.5117386
  36.5590000  36.9000000   1.3380000  36.2060000  37.5010000  -0.1070000
  37.4670000  37.5780000  -0.8800000  35.3710000  38.7130000   0.0600000
  35.3090000  36.3630000  -0.7600000  35.6780000  35.8410000  -2.0030000
  36.4319170  36.5012572  -2.4316836  34.8137177  35.7985787  -2.6658100
  36.2580000  34.4560000  -1.8550000  37.3404986  34.5046117  -1.7369621
  35.7850000  33.8570000  -0.6230000  35.5650000  32.4790000  -0.8320000
  36.4378891  31.8755041  -0.5830890  34.5260000  31.9990000   0.1570000
  33.6690000  32.9250000   0.7240000  33.7479905  33.9480782   0.3871443
  32.7190000  32.6120000   1.6240000  31.8140000  33.6590000   2.2100000
  31.2488972  34.1397436   1.4114739  31.1237851  33.1915935   2.9123066
  32.4120090  34.4061094   2.7318354  32.5860000  31.2210000   2.0210000
  31.7460000  30.8450000   2.8370000  33.4720000  30.3430000   1.4150000
  33.3840505  29.2981325   1.7126869  34.4520000  30.6460000   0.4890000
  35.1920000  29.7830000   0.0160000  35.8460000  33.5180000  -2.9790000
  35.1459132  34.0025002  -3.6596150  35.1510000  32.3340000  -2.2860000
  34.2412256  32.0776813  -2.8288725  35.8212240  31.4744788  -2.2748943
  36.9740000  33.1150000  -3.7200000  36.7740000  32.5510000  -5.2110000
  38.1190000  32.5330000  -5.8480000  35.6700000  33.3450000  -5.8150000
  36.2560000  31.0350000  -4.9870000  37.0830000  30.1180000  -4.2680000
  37.1622477  30.5374958  -3.2650827  38.0743954  30.0630898  -4.7176896
  36.4940000  28.7130000  -4.1790000  37.3097281  28.0650566  -3.8582879
  35.5200000  28.6280000  -3.1080000  34.3020000  28.1250000  -3.6330000
  34.1667511  27.0467747  -3.5479286  33.1710000  28.6770000  -2.7950000
  32.8480000  30.0220000  -2.8650000  33.3716681  30.6282380  -3.5893255
  31.8840000  30.5960000  -2.1140000  31.5590000  32.0590000  -2.2290000
  31.2425371  32.2824277  -3.2478380  30.7552091  32.3086978  -1.5364170
  32.4432354  32.6483259  -1.9862610  31.1550000  29.7550000  -1.1740000
  30.2600000  30.1950000  -0.4460000  31.5410000  28.4210000  -1.1500000
  30.9943463  27.7753165  -0.4627131  32.5240000  27.8260000  -1.9120000
  32.7880000  26.6350000  -1.8250000  35.7830000  28.1880000  -5.4120000
  36.0501660  28.6068827  -6.3821847  34.3270000  28.5310000  -5.0920000
  34.0284957  29.4138967  -5.6572325  33.6870627  27.6919285  -5.3650189
  35.9740000  26.7870000  -5.4480000  35.9390000  25.9880000  -6.8380000
  37.2570000  25.3950000  -7.1640000  35.3130000  26.9010000  -7.8080000
  34.9640000  24.7770000  -6.5260000  33.9510000  24.9350000  -5.5720000
  33.1070440  25.4642276  -6.0144437  34.3422183  25.5120857  -4.7341331
  33.4850000  23.5860000  -5.0720000  34.3147591  23.0454208  -4.6166174
  32.5550000  23.7920000  -3.9950000  31.2370000  23.7260000  -4.5010000
  30.6132024  22.9979748  -3.9823911  30.5600000  25.0330000  -4.1920000
  30.9200000  26.1780000  -4.8740000  31.6617041  26.0858465  -5.6536043
  30.3650000  27.3820000  -4.6490000  30.7730000  28.6040000  -5.4120000
  30.5874883  28.4482007  -6.4747378  30.1945836  29.4599824  -5.0643959
  31.8343657  28.7946673  -5.2531027  29.3550000  27.4820000  -3.6370000
  28.7960000  28.5470000  -3.3670000  29.0580000  26.3010000  -2.9900000
  28.2970035  26.3686259  -2.2125608  29.6040000  25.0610000  -3.2150000
  29.2580000  24.0590000  -2.5920000  32.7150000  22.7510000  -6.0800000
  33.0755801  22.7947830  -7.1076983  31.3410000  23.3970000  -5.9970000
  31.1272820  23.9187212  -6.9298616  30.5867988  22.6278887  -5.8304212
  32.6870000  21.3640000  -5.6640000  31.7840000  20.2850000  -6.4480000
  32.3220000  18.9110000  -6.3460000  31.5720000  20.8180000  -7.8090000
  30.4150000  20.2920000  -5.6240000  30.4390000  20.0710000  -4.2260000
  30.7723618  21.0106332  -3.7854782  31.1359758  19.2770623  -3.9576937
  29.0590000  19.7280000  -3.6870000  29.2104527  19.2640616  -2.7123603
  28.3140000  20.9350000  -3.4020000  27.1220000  20.9880000  -4.1780000
  26.1762247  20.8110397  -3.6658542  27.0160000  22.3740000  -4.6310000
  27.7910000  22.9930000  -5.5720000  28.5367075  22.4358417  -6.1196284
  27.5280000  24.2660000  -5.7100000  26.5300000  24.5150000  -4.7770000
  25.8370000  25.7300000  -4.4590000  25.9810000  26.8640000  -4.9560000
  24.9030000  25.5380000  -3.4450000  24.3666742  26.3258115  -3.1421695
  24.6690000  24.3320000  -2.8180000  23.7340000  24.3330000  -1.8590000
  23.1919646  25.1230237  -1.5393745  23.5661548  23.4534988  -1.3916601
  25.3110000  23.1990000  -3.1010000  26.2180000  23.3630000  -4.0900000
  28.1740000  18.8910000  -4.5920000  28.6935277  18.3097055  -5.3537654
  27.2730000  19.9400000  -5.2720000  27.4884292  19.9671113  -6.3401547
  26.2268179  19.6747741  -5.1194926  27.4420000  17.9900000  -3.7740000
  26.5650000  16.8030000  -4.4110000  26.5700000  15.6320000  -3.4980000
  26.9750000  16.6190000  -5.8240000  25.1040000  17.4310000  -4.3960000
  24.7340000  18.2940000  -3.3430000  25.4948871  19.0705457  -3.2647206
  24.6734093  17.7491325  -2.4009019  23.3990000  18.9350000  -3.6320000
  22.8234334  19.0040092  -2.7089289  23.6090000  20.2920000  -4.0250000
  22.5600000  20.7060000  -4.8490000  21.7520209  21.1911447  -4.3013653
  23.1050000  21.7900000  -5.7030000  24.0200000  21.4980000  -6.6690000
  24.3269590  20.4754187  -6.8317994  24.5500000  22.4610000  -7.4260000
  25.2717084  22.1939943  -8.1979749  24.1330000  23.7960000  -7.1830000
  24.6190000  24.7810000  -7.9190000  24.3003474  25.7182154  -7.7185296
  25.2853131  24.5872597  -8.6528889  23.2510000  24.1060000  -6.2300000
  22.7210000  23.1180000  -5.4580000  21.8950000  23.3480000  -4.5540000
  22.6050000  18.2830000  -4.7620000  23.2159545  17.6298442  -5.3850737
  22.0850000  19.4670000  -5.6110000  22.0417198  19.1716605  -6.6593323
  21.0879355  19.7477837  -5.2717022  21.5490000  17.4810000  -4.1900000
  20.2770000  17.0040000  -5.0450000  19.8080000  15.7680000  -4.3790000
  20.5780000  16.9250000  -6.4890000  19.2270000  18.1820000  -4.8060000
  18.9510000  18.5950000  -3.4860000  19.8809810  18.9968893  -3.0838553
  18.6269355  17.7512464  -2.8767688  17.8860000  19.6730000  -3.4510000
  17.7076134  19.9293945  -2.4067111  18.4030000  20.8920000  -4.0410000
  17.6600000  21.2230000  -5.2010000  16.9884934  22.0751126  -5.0957278
  18.6070000  21.6740000  -6.2220000  19.4500000  20.9000000  -6.9810000
  19.4112878  19.8233176  -6.9057801  20.2120000  21.5920000  -7.8040000
  19.8460000  22.9070000  -7.5570000  20.2880000  24.1410000  -8.1000000
  21.2270000  24.2410000  -9.0440000  21.4994750  25.1495346  -9.3910210
  21.6648049  23.4081090  -9.4110399  19.7140000  25.2660000  -7.6340000
  18.7660000  25.1570000  -6.6860000  18.2891860  26.0452993  -6.2987380
  18.2760000  24.0580000  -6.0970000  18.8600000  22.9650000  -6.5820000
  16.5940000  19.3630000  -4.2040000  16.3458949  18.3073037  -4.3137634
  16.8780000  19.9640000  -5.5770000  16.9942951  19.1634972  -6.3075956
  16.0482081  20.6064240  -5.8716811  15.4840000  20.0340000  -3.5450000
  13.9550000  19.8050000  -4.0050000  13.1460000  19.8830000  -2.7700000
  13.8460000  18.6100000  -4.8810000  13.6450000  21.1140000  -4.8630000
  13.8060000  22.3900000  -4.2670000  14.8371514  22.4480641  -3.9184954
  13.1296590  22.5130327  -3.4211120  13.5540000  23.5070000  -5.2780000
  13.3866542  24.4299279  -4.7227534  14.7430000  23.7580000  -6.0430000
  14.3860000  24.2880000  -7.2970000  14.4159751  25.3771747  -7.3269869
  15.4510000  23.8970000  -8.2600000  15.7560000  22.5610000  -8.4210000
  15.1722735  21.8389908  -7.8693060  16.6970000  22.1210000  -9.2540000
  17.0000000  20.6740000  -9.4030000  16.1078188  20.1486416  -9.7437503
  17.7991405  20.5428387 -10.1325691  17.3156289  20.2675258  -8.4421376
  17.4320000  23.0930000 -10.0190000  18.3240000  22.7680000 -10.8040000
  17.0700000  24.4190000  -9.8090000  17.6065037  25.1685180 -10.3907966
  16.1140000  24.8750000  -8.9550000  15.8750000  26.0550000  -8.8300000
  12.4530000  23.2340000  -6.2990000  12.1813860  22.1809924  -6.3731588
  13.0220000  23.7130000  -7.6460000  12.6470155  23.0755499  -8.4467142
  12.7121778  24.7423402  -7.8264691  11.3260000  23.9750000  -5.9600000
   9.9010000  23.6280000  -6.6000000   9.0100000  24.2620000  -5.6000000
   9.8400000  22.1730000  -6.9520000   9.8250000  24.5270000  -7.9310000
   9.6710000  25.9420000  -7.8220000  10.3242221  26.3343386  -7.0425955
   8.6330038  26.1556082  -7.5669783  10.0070000  26.6090000  -9.1330000
   9.9585627  27.6942992  -9.0442374  11.3790000  26.3350000  -9.4410000
  11.5750000  26.4230000 -10.8350000  12.1060078  27.3439314 -11.0758636
  12.5370000  25.3320000 -11.2640000  12.2830000  24.0320000 -10.9370000
  11.3936187  23.7767132 -10.3800175  13.1210000  23.0610000 -11.2960000
  12.8907622  22.0312473 -11.0226864  14.2940000  23.4320000 -12.0290000
  15.1690000  22.4950000 -12.4150000  15.9836693  22.7970464 -12.9299587
  15.0063511  21.5235625 -12.1914917  14.5570000  24.7010000 -12.3480000
  13.6920000  25.6770000 -11.9850000  13.8890000  26.8650000 -12.2640000
   9.2430000  26.0770000 -10.3290000   9.0258030  25.0097859 -10.2845211
  10.1960000  26.3570000 -11.5000000   9.7988393  25.9043748 -12.4085664
  10.2908986  27.4334721 -11.6424861   8.0010000  26.7930000 -10.4740000
   6.6140000  26.0250000 -10.8030000   5.5790000  26.7410000 -10.0180000
   6.7660000  24.5490000 -10.6640000   6.3840000  26.3400000 -12.3560000
   6.9280000  27.5480000 -12.9310000   7.8867661  27.7471824 -12.4522579
   6.2483422  28.3788389 -12.7415994   7.1390000  27.4050000 -14.4380000
   7.2893843  28.4002026 -14.8563966   8.3810000  26.7020000 -14.7150000
   8.0790000  25.4650000 -15.3450000   8.2982184  25.4877749 -16.4124848
   8.9830000  24.4470000 -14.8480000   8.8260000  23.6500000 -13.7460000
   7.9268899  23.7165775 -13.1513825   9.8130000  22.8070000 -13.5590000
  10.6770000  23.0740000 -14.6170000  11.9300000  22.5260000 -15.0050000
  12.5540000  21.5520000 -14.3360000  13.4441478  21.2046685 -14.6632598
  12.1354961  21.1631467 -13.5030856  12.5120000  23.0290000 -16.1110000
  11.8850000  24.0150000 -16.7760000  12.3382783  24.4345288 -17.6619647
  10.7230000  24.6050000 -16.5150000  10.1670000  24.0850000 -15.4140000
   6.0850000  26.6030000 -15.1770000   5.0658212  26.6412454 -14.7924086
   6.6220000  25.1910000 -15.0460000   6.0625886  24.6588989 -14.2765674
   6.5143009  24.6709928 -15.9978895   6.0880000  26.9990000 -16.5240000
   4.7690000  26.7980000 -17.4100000   4.4760000  28.2140000 -17.8110000
   3.8280000  25.8840000 -16.6920000   5.2250000  25.8410000 -18.6250000
   5.9700000  26.3720000 -19.7060000   6.3984958  27.3157200 -19.3685329
   5.3143335  26.5550642 -20.5572870   7.0920000  25.4370000 -20.1310000
   7.8203947  26.0495293 -20.6623645   7.8180000  24.9220000 -18.9830000
   8.6340000  23.8770000 -19.4750000   9.6181724  24.3196808 -19.6284198
   8.8750000  22.8340000 -18.4470000   7.9720000  22.5780000 -17.4870000
   7.0549461  23.1462812 -17.4373172   8.1900000  21.6240000 -16.5840000
   7.4464221  21.4569404 -15.8047161   9.3830000  20.8780000 -16.6830000
   9.6410000  19.9130000 -15.8100000  10.5062054  19.4028526 -15.9161600
   8.9851114  19.7071563 -15.0700406  10.2730000  21.1140000 -17.6320000
  10.0310000  22.0900000 -18.5380000  10.8140000  22.3550000 -19.4510000
   6.6880000  24.1810000 -20.8980000   5.8264706  23.6527689 -20.4895423
   7.9440000  23.3160000 -20.7320000   7.7503387  22.3153646 -21.1184237
   8.7701536  23.7644218 -21.2838047   6.4460000  24.4690000 -22.2960000
   6.3200000  23.2640000 -23.3680000   5.8570000  23.7860000 -24.6780000
   5.5980000  22.1250000 -22.7390000   7.8160000  22.7610000 -23.5610000
   8.7870000  23.5450000 -24.2670000   9.1504470  24.3402854 -23.6162102
   8.3388753  23.9825401 -25.1591006   9.9510000  22.6640000 -24.6750000
  10.7599187  23.2603969 -25.0969723  10.5020000  22.0990000 -23.5030000
  10.9780000  20.8120000 -23.7460000  12.0578371  20.6821688 -23.8180754
  10.6270000  20.0220000 -22.5450000   9.4780000  20.3510000 -21.8440000
   8.8576271  21.1381170 -22.2464730   9.0860000  19.7320000 -20.7210000
   7.8360000  20.1050000 -19.9900000   6.9765563  19.9707061 -20.6468266
   7.7244509  19.4689251 -19.1118967   7.8945218  21.1476512 -19.6776652
   9.9140000  18.6980000 -20.2010000   9.6190000  18.0980000 -19.1780000
  11.0570000  18.4280000 -20.9310000  11.6678534  17.6039276 -20.5624033
  11.4840000  19.0500000 -22.0900000  12.5170000  18.7270000 -22.6840000
   9.5750000  21.5020000 -25.5570000   8.5133526  21.2606405 -25.5045670
  10.3870000  20.3230000 -25.0550000   9.9265514  19.3942539 -25.3919227
  11.4022766  20.3874365 -25.4463586   9.8920000  21.8040000 -26.8420000
   8.9680000  21.2510000 -28.0120000   9.2540000  22.0160000 -29.2550000
   7.5840000  21.1860000 -27.4850000   9.5140000  19.7870000 -28.1870000
  10.7020000  19.6450000 -28.8120000  11.4324853  20.2240595 -28.2470386
  10.6398805  20.0325388 -29.8288852  11.1400000  18.2040000 -28.8570000
  12.1994914  18.1851087 -29.1123831  11.0740000  17.6090000 -27.5420000
  10.0250000  16.6630000 -27.4890000  10.2874563  15.6054602 -27.4602705
   9.3600000  16.8880000 -26.2120000   8.4280000  17.8330000 -25.9030000
   8.0266117  18.4858401 -26.6639791   8.1070000  17.8420000 -24.6340000
   8.8970000  16.8560000 -24.0750000   9.0050000  16.4180000 -22.7400000
   8.3950000  16.8110000 -21.7630000   9.9460000  15.4010000 -22.5960000
  10.0857824  15.0144001 -21.6844080  10.6940000  14.8780000 -23.6280000
  11.5540000  13.8830000 -23.3230000  11.7208666  13.4820020 -22.4111576
  12.1038254  13.5125485 -24.0849440  10.5990000  15.2930000 -24.8840000
   9.6830000  16.2770000 -25.0290000  10.3220000  17.3110000 -29.7250000
   9.8774561  17.7148887 -30.6345897   9.2060000  16.8890000 -28.7520000
   8.2968018  17.4463760 -28.9773659   9.0134110  15.8216103 -28.8601157
  11.1470000  16.2370000 -30.0780000  11.6040000  16.0280000 -31.6000000
  13.0330000  15.6660000 -31.4890000  11.3100000  17.2380000 -32.4080000
  10.6190000  14.8390000 -32.1080000  10.9950000  13.4450000 -32.1740000
  12.0481679  13.4121841 -31.8949651  10.8797150  13.0895780 -33.1979556
  10.1860000  12.5260000 -31.2210000  10.8436868  11.6637502 -31.1111242
  10.1120000  13.0900000 -29.9080000   9.3570000  12.1610000 -29.1610000
  10.0441791  11.5068359 -28.6243870   8.6390000  12.8500000 -28.0750000
   7.6110000  13.7060000 -28.3850000   7.3508049  13.8263131 -29.4262605
   6.8950000  14.3540000 -27.4670000   5.8200000  15.2960000 -27.8510000
   5.0626041  14.7673820 -28.4298040   5.3644583  15.7137825 -26.9532030
   6.2400968  16.1015851 -28.4532050   7.1940000  14.1220000 -26.0700000
   6.5970000  14.6860000 -25.1640000   8.2040000  13.2300000 -25.8320000
   8.4341462  13.0298404 -24.7855443   8.9650000  12.5700000 -26.7720000
   9.8640000  11.8070000 -26.4720000   8.7140000  12.1640000 -31.4810000
   8.0388014  13.0100372 -31.6091667   8.4110000  11.4650000 -30.1490000
   7.3718167  11.1362258 -30.1387634   9.0659407  10.6013161 -30.0340956
   8.5240000  11.2100000 -32.5180000   8.0170000  11.6120000 -34.0010000
   8.3290000  10.4510000 -34.8500000   8.5010000  12.9540000 -34.3810000
   6.4130000  11.4640000 -34.0510000   5.5440000  12.0280000 -33.0990000
   4.6042132  12.3156643 -33.5703280   6.0112532  12.9070490 -32.6550993
   5.2680000  11.0210000 -32.0240000   6.1843786  10.4468510 -31.8872428
   5.0830000  11.6930000 -30.7910000   4.8580000  10.6530000 -29.9090000
   5.7953909  10.1428253 -29.6873714   4.4390000  11.1810000 -28.6170000
   3.4000000  12.0240000 -28.3670000   2.7773949  12.3781494 -29.1752964
   3.2670000  12.3270000 -27.1140000   4.2840000  11.6460000 -26.4920000
   4.6280000  11.6000000 -25.1290000   4.0780000  12.1810000 -24.1770000
   5.7420000  10.8040000 -24.9100000   6.0635436  10.6987403 -23.9689747
   6.4290000  10.1390000 -25.8880000   7.4680000   9.4080000 -25.4790000
   7.8035619   9.3050948 -24.5319472   7.9865103   8.9203998 -26.1955850
   6.1140000  10.1750000 -27.1780000   5.0290000  10.9480000 -27.4010000
   4.0150000  10.1660000 -32.1130000   3.1352550  10.7278520 -32.4267990
   3.8530000   9.7370000 -30.6330000   2.8414490   9.3648175 -30.4706915
   4.5706728   8.9498921 -30.4016841   4.1700000   9.0230000 -33.0130000
   2.8690000   8.2080000 -33.5800000   1.6380000   8.7230000 -32.9260000
   3.1820000   6.7520000 -33.5890000   2.7730000   8.5940000 -35.1390000
   3.0410000   9.9220000 -35.5940000   3.9797865   9.8960840 -36.1472706
   3.1390587  10.5978798 -34.7444875   1.9350000  10.4260000 -36.5090000
   1.1646626   9.6593751 -36.5924620   1.2630000  11.5510000 -35.8690000
   1.0110000  12.5820000 -36.8020000  -0.0163874  12.9461040 -36.8003404
   1.7950000  13.7830000 -36.3700000   2.2990000  13.8020000 -35.0880000
   2.1453284  12.9236175 -34.4787139   3.0070000  14.8210000 -34.5820000
   3.5480000  14.7920000 -33.1840000   4.2255261  13.9453266 -33.0735366
   4.0880149  15.7173695 -32.9835623   2.7243259  14.6921892 -32.4771067
   3.2460000  15.9720000 -35.4260000   3.8960000  16.9580000 -35.0420000
   2.6920000  15.8930000 -36.6960000   2.8585671  16.7569649 -37.3393668
   1.9680000  14.8590000 -37.2270000   1.5270000  14.9090000 -38.3640000
   2.3980000  10.9380000 -37.8730000   3.3972309  11.3733781 -37.8639245
   1.3700000  12.0270000 -38.1870000   1.5777636  12.4511066 -39.1693783
   0.3693248  11.5948770 -38.1826226   2.3780000   9.8490000 -38.8660000
   2.3810000  10.1410000 -40.4650000   2.7820000   8.8780000 -41.1390000
   3.2010000  11.3440000 -40.7450000   0.8290000  10.4760000 -40.8080000
   0.4480000  10.9570000 -42.1190000   1.3460518  11.2955066 -42.6357362
  -0.2485351  11.7894180 -42.0189011  -0.2100000   9.8480000 -42.9320000
   0.4143994   8.9557074 -42.8868478  -1.4550000   9.4540000 -42.2930000
  -2.5680000   9.8900000 -43.0770000  -3.1516817   9.0809133 -43.5160827
  -3.5240000  10.5360000 -42.1800000  -4.0350000  11.8000000 -42.2800000
  -3.7858939  12.4202879 -43.1282869  -4.8650000  12.1150000 -41.3090000
  -4.8970000  10.9780000 -40.5220000  -5.5930000  10.6590000 -39.3390000
  -6.4240000  11.5070000 -38.7150000  -6.8954795  11.2210606 -37.8688044
  -6.5782723  12.4314922 -39.0913152  -5.3900000   9.4300000 -38.8120000
  -4.5590000   8.5780000 -39.4320000  -4.3869301   7.5912872 -39.0280337
  -3.8590000   8.7610000 -40.5460000  -4.0730000   9.9940000 -41.0450000
  -0.6020000  10.2230000 -44.3580000   0.0382190  10.9626946 -44.8386977
  -2.0030000  10.8150000 -44.1530000  -1.9733332  11.8900000 -44.3307472
  -2.6997991  10.3509371 -44.8510092  -0.6050000   9.0240000 -45.1920000
  -1.2460000   8.9970000 -46.6810000  -0.2220000   8.4020000 -47.5680000
  -1.8850000  10.2860000 -47.0430000  -2.4290000   7.9310000 -46.5480000
  -2.2940000   6.8590000 -45.5950000  -2.0281177   7.3361618 -44.6517486
  -1.5002758   6.1730858 -45.8910139  -3.5920000   6.0760000 -45.4130000
  -3.2997877   5.0899184 -45.0519538  -4.4050000   6.6350000 -44.3340000
  -5.6940000   6.8590000 -44.8460000  -6.3525805   6.0082175 -44.6712428
  -6.3340000   7.9300000 -44.0910000  -6.4620000   9.2500000 -44.4490000
  -6.1030919   9.5920791 -45.4084626  -7.0970000   9.9790000 -43.5560000
  -7.4090000   9.0670000 -42.5530000  -8.0800000   9.1990000 -41.3240000
  -8.5840000  10.3600000 -40.8830000  -9.0572593  10.3989500 -39.9915911
  -8.4905349  11.1959335 -41.4420870  -8.2190000   8.0810000 -40.5640000
  -7.7110000   6.9240000 -41.0150000  -7.8018652   6.0235869 -40.4255945
  -7.0690000   6.6830000 -42.1460000  -6.9480000   7.8030000 -42.8760000
  -4.5240000   6.0100000 -46.6160000  -4.1350048   6.1156445 -47.6287294
  -5.4680000   7.1550000 -46.3160000  -5.1569570   8.0385767 -46.8733542
  -6.4804922   6.8783846 -46.6100129  -5.2040000   4.8290000 -46.5000000
  -5.6340000   3.9670000 -47.7700000  -4.4210000   3.3140000 -48.3240000
  -6.5360000   4.8110000 -48.5960000  -6.4620000   2.8110000 -47.0750000
  -6.0500000   2.3730000 -45.7930000  -5.4564506   3.1639321 -45.3344964
  -5.4463746   1.4694101 -45.8782197  -7.2480000   2.0880000 -44.9270000
  -6.9518581   1.4461520 -44.0972829  -7.7050000   3.3090000 -44.2960000
  -9.0680000   3.4870000 -44.5850000  -9.6479515   3.1129950 -43.7412727
  -9.3690000   4.9080000 -44.6060000  -9.0130000   5.8180000 -45.5640000
  -8.4405110   5.5168885 -46.4288643  -9.4330000   7.0280000 -45.3040000
 -10.1230000   6.8990000 -44.1030000 -10.8060000   7.8680000 -43.3230000
 -10.9410000   9.0800000 -43.5420000 -11.3640000   7.3120000 -42.1740000
 -11.8600872   7.9177368 -41.5519236 -11.2750000   5.9960000 -41.8300000
 -11.8630000   5.6390000 -40.6910000 -12.3583571   6.2402567 -40.0481842
 -11.7898654   4.6657075 -40.4312811 -10.6440000   5.0830000 -42.5470000
 -10.0920000   5.6050000 -43.6660000  -8.4500000   1.5480000 -45.6810000
  -8.2500626   1.0656044 -46.6377749  -9.2730000   2.8070000 -45.9100000
  -9.2149665   3.0936471 -46.9600308 -10.3123605   2.6158428 -45.6430003
  -9.1210000   0.6360000 -44.8520000 -10.4160000  -0.1570000 -45.3690000
 -10.0560000  -1.5700000 -45.0960000 -10.8110000   0.2780000 -46.7450000
 -11.5380000   0.2780000 -44.3170000 -11.3610000  -0.0560000 -42.9430000
 -10.4876805   0.4799754 -42.5713234 -11.2005810  -1.1288872 -42.8367951
 -12.5680000   0.3460000 -42.1380000 -12.4135526   0.0916304 -41.0894098
 -12.6980000   1.7840000 -42.1460000 -13.9540000   2.1530000 -42.6920000
 -14.7052391   2.4537235 -41.9617231 -13.7550000   3.3640000 -43.4750000
 -13.0960000   3.4710000 -44.6680000 -12.7140827   2.5877411 -45.1583003
 -13.0500000   4.7010000 -45.1410000 -13.7180000   5.4520000 -44.1820000
 -14.0190000   6.8280000 -44.0930000 -13.6540000   7.7200000 -45.0240000
 -13.8950120   8.6943833 -44.9117871 -13.1378794   7.4179378 -45.8379267
 -14.7130000   7.2510000 -43.0110000 -15.0780000   6.3550000 -42.0810000
 -15.6334880   6.6716332 -41.2106118 -14.8530000   5.0380000 -42.0480000
 -14.1600000   4.6450000 -43.1440000 -13.8830000  -0.1870000 -42.6770000
 -13.7712115  -1.0679258 -43.3091170 -14.4220000   0.9700000 -43.5090000
 -14.4473503   0.6816543 -44.5598631 -15.4298545   1.2186596 -43.1765878
 -14.7410000  -0.5100000 -41.6120000 -16.1230000  -1.2650000 -41.9110000
 -16.4200000  -2.0680000 -40.7000000 -16.0530000  -1.8600000 -43.2740000
 -17.1770000  -0.0620000 -41.9810000 -17.3100000   0.8400000 -40.8720000
 -16.3190034   1.2351155 -40.6485958 -17.6955907   0.3128089 -39.9993660
 -18.2440000   1.9940000 -41.2130000 -18.4969830   2.5287406 -40.2974939
 -17.5530000   2.9680000 -42.0210000 -18.4710000   3.5210000 -42.9090000
 -18.9110873   4.3845203 -42.4102464 -17.7520000   4.1050000 -44.0410000
 -17.1040000   3.3020000 -44.9240000 -17.1009363   2.2304847 -44.7889244
 -16.4630000   3.8230000 -45.9690000 -15.9395431   3.1614433 -46.6592433
 -16.5060000   5.2360000 -46.1290000 -15.8900000   5.8120000 -47.1590000
 -15.9446953   6.8175615 -47.2361688 -15.3891408   5.2495672 -47.8319865
 -17.1590000   6.0280000 -45.2730000 -17.7950000   5.4820000 -44.2190000
 -18.4040000   6.1570000 -43.3910000 -19.4760000   1.5950000 -42.0130000
 -19.5089634   0.5278866 -42.2327297 -19.3650000   2.3790000 -43.3160000
 -19.4499355   1.6951021 -44.1604932 -20.1649999   3.1176842 -43.3654568
 -20.6170000   1.9430000 -41.3210000 -21.9770000   1.1530000 -41.6050000
 -22.3170000   0.4480000 -40.3310000 -21.8370000   0.4240000 -42.8920000
 -23.0100000   2.3290000 -41.8820000 -23.0740000   3.4160000 -40.9900000
 -22.1047456   3.5119799 -40.5006803 -23.8458218   3.2539624 -40.2375803
 -23.3760000   4.6850000 -41.7440000 -23.4054312   5.5236221 -41.0483376
 -22.2770000   4.9890000 -42.6310000 -22.7930000   5.6770000 -43.7300000
 -22.8552836   6.7481672 -43.5381122 -21.8440000   5.5960000 -44.8310000
 -21.2750000   4.4660000 -45.3580000 -21.5476986   3.4929724 -44.9768776
 -20.4600000   4.7020000 -46.3640000 -20.5030000   6.0810000 -46.5030000
 -19.8580000   6.9680000 -47.3910000 -19.0170000   6.5700000 -48.3440000
 -18.5837426   7.2505532 -48.9516485 -18.8125012   5.5876330 -48.4590396
 -20.1230000   8.2820000 -47.2620000 -20.9830000   8.6780000 -46.3060000
 -21.2120300   9.7266294 -46.1863311 -21.6510000   7.9410000 -45.4140000
 -21.3590000   6.6410000 -45.5680000 -24.6290000   4.6170000 -42.6300000
 -25.0695789   3.6205725 -42.6634850 -24.1200000   4.9990000 -44.0280000
 -24.4930461   4.2821476 -44.7594770 -24.4751858   5.9971082 -44.2843653
 -25.6250000   5.5360000 -42.1470000 -27.1190000   5.5560000 -42.7480000
 -27.9760000   4.8830000 -41.7430000 -27.1250000   5.0970000 -44.1580000
 -27.4620000   7.1110000 -42.7710000 -26.4260000   8.0550000 -42.9070000
 -25.4826872   7.5105000 -42.9492001 -26.4171572   8.7303116 -42.0514437
 -26.5920000   8.8640000 -44.1790000 -26.4791402   9.9187538 -43.9282880
 -25.4970000   8.5880000 -45.0930000 -26.0500000   8.2230000 -46.3340000
 -26.1498277   9.1236025 -46.9398455 -25.1060000   7.4100000 -47.0800000
 -24.9290000   6.0450000 -47.0350000 -25.5291302   5.4305173 -46.3802811
 -23.9900000   5.6200000 -47.8430000 -23.5310000   6.7830000 -48.4590000
 -22.5240000   6.9710000 -49.4360000 -21.8090000   6.1150000 -49.9740000
 -22.3870000   8.3220000 -49.7840000 -21.6978153   8.5545386 -50.4702571
 -23.1300000   9.3580000 -49.2530000 -22.8640000  10.5980000 -49.7070000
 -22.1675899  10.8586558 -50.3904997 -23.4058326  11.3507218 -49.3070897
 -24.0700000   9.1890000 -48.3390000 -24.2150000   7.8840000 -47.9930000
 -27.8610000   8.5790000 -44.9880000 -28.7220856   8.1749610 -44.4556629
 -27.3560000   7.5510000 -45.9900000 -27.6809046   6.5560741 -45.6856010
 -27.7578454   7.7775670 -46.9775666 -28.2490000   9.7910000 -45.6560000
 -29.7510000  10.0260000 -46.1780000 -30.3740000  10.9900000 -45.2360000
 -30.3790000   8.7080000 -46.4460000 -29.5360000  10.7730000 -47.5680000
 -29.0570000  12.0950000 -47.5760000 -28.2383757  12.1597714 -46.8592302
 -29.8443753  12.7930193 -47.2915536 -28.5440000  12.4580000 -48.9500000
 -28.1010393  13.4533179 -48.9149660 -27.4370000  11.5780000 -49.3000000
 -27.6880000  11.0000000 -50.5600000 -27.1665997  11.5770388 -51.3237193
 -27.0500000   9.6850000 -50.6240000 -27.3570000   8.5640000 -49.8820000
 -28.1467904   8.5917924 -49.1458881 -26.6080000   7.5270000 -50.1700000
 -25.7520000   7.9950000 -51.1660000 -24.7120000   7.3300000 -51.8730000
 -24.3310000   6.1460000 -51.7570000 -24.0930000   8.1850000 -52.7970000
 -23.3430421   7.8135239 -53.3443274 -24.4390000   9.5070000 -53.0060000
 -23.7380000  10.1750000 -53.9320000 -22.9734858   9.8202890 -54.4885955
 -23.9879162  11.1429935 -54.0756365 -25.4030000  10.1320000 -52.3490000
 -26.0160000   9.3220000 -51.4510000 -29.5680000  12.3150000 -50.0800000
 -30.6096117  12.2977192 -49.7593052 -29.2000000  10.9620000 -50.6900000
 -29.9970731  10.2451230 -50.4928679 -29.0688430  11.0718054 -51.7664947
 -29.3990000  13.3880000 -51.0200000 -30.5030000  13.7000000 -52.1530000
 -31.3620000  14.7860000 -51.6310000 -31.1470000  12.4380000 -52.5960000
 -29.6170000  14.2790000 -53.3600000 -28.2650000  13.8230000 -53.5450000
 -28.1037451  12.9962473 -52.8532075 -27.5509597  14.6186104 -53.3322769
 -28.0560000  13.3310000 -54.9700000 -27.3538591  13.9959486 -55.4729322
 -27.3860000  12.0350000 -54.9560000 -28.1450000  11.0870000 -55.6960000
 -27.6767249  10.9455638 -56.6700706 -28.0150000   9.7300000 -55.0360000
 -28.9260000   9.3490000 -54.0900000 -29.7305235  10.0171564 -53.8203541
 -28.8420000   8.1550000 -53.4850000 -29.5839315   7.8884573 -52.7322763
 -27.7710000   7.2910000 -53.8640000 -27.6380000   6.0820000 -53.2860000
 -26.8664168   5.5019093 -53.5830769 -28.2951293   5.7796166 -52.5811263
 -26.8750000   7.6490000 -54.7910000 -26.9690000   8.8660000 -55.4020000
 -26.1550000   9.2300000 -56.2620000 -29.3460000  13.1370000 -55.7710000
 -30.2067250  13.6479735 -55.3395403 -29.5730000  11.6210000 -55.7200000
 -30.5071433  11.4102805 -55.1993536 -29.6263115  11.2267342 -56.7347968
 -29.1680000  13.6030000 -57.1060000 -30.4360000  14.0700000 -57.9750000
 -30.4120000  15.5500000 -58.0120000 -31.6290000  13.3430000 -57.4710000
 -30.1090000  13.5190000 -59.4370000 -28.7640000  13.3260000 -59.8300000
 -28.1577089  13.2891911 -58.9249275 -28.4197482  14.1428284 -60.4643364
 -28.6190000  12.0180000 -60.5800000 -27.6376415  11.9936400 -61.0537524
 -28.5990000  10.9030000 -59.6410000 -29.3560000   9.8580000 -60.2000000
 -28.6923838   9.2895958 -60.8516360 -29.7550000   8.8550000 -59.1310000
 -30.8700000   9.0630000 -58.3650000 -31.4709717   9.9490216 -58.5071218
 -31.2340000   8.1730000 -57.4280000 -32.1198354   8.3702578 -56.8242739
 -30.4240000   7.0030000 -57.2690000 -30.7350000   6.0830000 -56.3510000
 -30.1348435   5.2742360 -56.2747536 -31.5454861   6.2061331 -55.7610407
 -29.3390000   6.7900000 -58.0160000 -28.9780000   7.6960000 -58.9620000
 -27.9760000   7.5390000 -59.6790000 -29.7540000  11.7150000 -61.5700000
 -30.4397232  12.5455162 -61.7377063 -30.5070000  10.5570000 -60.8970000
 -31.5189120  10.8767832 -60.6482590 -30.5521587   9.7075142 -61.5784945
 -29.1990000  11.3220000 -62.8270000 -29.9870000  11.6170000 -64.1980000
 -29.7790000  13.0360000 -64.5720000 -31.3570000  11.0790000 -64.0170000
 -29.2440000  10.6950000 -65.2770000 -27.8300000  10.5840000 -65.2770000
 -27.4664439  10.9399754 -64.3130454 -27.3962953  11.1880937 -66.0739138
 -27.4130000   9.1390000 -65.4640000 -26.3257367   9.0886447 -65.5224987
 -27.7490000   8.3780000 -64.2730000 -28.5870000   7.2910000 -64.6190000
 -28.0728091   6.3353993 -64.7216364 -29.5160000   7.0490000 -63.5050000
 -30.5860000   7.8190000 -63.1370000 -30.8625072   8.6801376 -63.7272435
 -31.2300000   7.3650000 -62.0800000 -30.5300000   6.2180000 -61.7220000
 -30.7060000   5.2670000 -60.6730000 -31.6860000   5.3410000 -59.7660000
 -31.7610090   4.6376508 -59.0450459 -32.3511072   6.1002349 -59.8019670
 -29.8290000   4.2320000 -60.6010000 -28.8450000   4.1650000 -61.5150000
 -28.1304151   3.3559056 -61.4813309 -28.5800000   4.9940000 -62.5380000
 -29.4670000   6.0100000 -62.5860000 -28.0920000   8.4170000 -66.6220000
 -28.4872986   9.0597335 -67.4085949 -29.2470000   7.6920000 -65.9270000
 -30.1927506   8.1440192 -66.2258874 -29.2411188   6.6402329 -66.2130970
 -27.1710000   7.5010000 -67.2060000 -27.1790000   7.2120000 -68.7890000
 -25.8590000   7.6090000 -69.3370000 -28.4160000   7.8030000 -69.3490000
 -27.2970000   5.6140000 -68.8780000 -26.2650000   4.7960000 -68.3360000
 -25.7279144   5.4048997 -67.6087584 -25.5773331   4.4738886 -69.1179585
 -26.8370000   3.5720000 -67.6380000 -26.0334156   3.1190427 -67.0573270
 -27.8250000   3.9680000 -66.6460000 -28.9520000   3.1370000 -66.7970000
 -28.8495492   2.2358113 -66.1924655 -30.1140000   3.8030000 -66.2280000
 -30.7750000   4.9080000 -66.7070000 -30.4577954   5.3845914 -67.6227751
 -31.7760000   5.2830000 -65.9510000 -31.7700000   4.3640000 -64.9050000
 -32.6180000   4.2490000 -63.7700000 -33.5830000   4.9600000 -63.4440000
 -32.2510000   3.1700000 -62.9630000 -32.7876779   3.0069126 -62.1351245
 -31.2020000   2.3130000 -63.2180000 -30.9970000   1.3340000 -62.3270000
 -31.5215730   1.1622812 -61.4811654 -30.2226799   0.7119829 -62.5103687
 -30.4070000   2.4110000 -64.2710000 -30.7480000   3.4530000 -65.0670000
 -27.5520000   2.5620000 -68.5420000 -27.3504557   2.6389258 -69.6104386
 -29.0250000   2.8710000 -68.2780000 -29.4560696   3.3611771 -69.1509288
 -29.5617969   1.9430311 -68.0809644 -27.2160000   1.2520000 -68.1060000
 -27.7160000  -0.0480000 -68.9060000 -26.5030000  -0.7830000 -69.3340000
 -28.7230000   0.3490000 -69.9140000 -28.4500000  -0.9240000 -67.7880000
 -27.6840000  -1.8030000 -66.9760000 -26.9672200  -1.1834854 -66.4369934
 -27.1484100  -2.5331894 -67.5826855 -28.5630000  -2.5330000 -65.9770000
 -27.9330098  -2.8468981 -65.1447262 -29.5120000  -1.6090000 -65.3860000
 -30.8310000  -2.0700000 -65.5840000 -31.3083504  -2.5311915 -64.7193970
 -31.6670000  -0.9010000 -65.8360000 -31.5980000  -0.0550000 -66.9090000
 -30.9133233  -0.2606811 -67.7185151 -32.4620000   0.9360000 -66.8600000
 -33.1360000   0.7330000 -65.6630000 -34.1830000   1.4410000 -65.0200000
 -34.7500000   2.5440000 -65.5250000 -35.4931205   3.0060164 -65.0206051
 -34.4345411   2.9139250 -66.4102909 -34.6220000   0.9660000 -63.8320000
 -34.0540000  -0.1390000 -63.3280000 -34.3897986  -0.5362805 -62.3815294
 -33.0710000  -0.8870000 -63.8350000 -32.6520000  -0.3930000 -65.0150000
 -29.3880000  -3.6820000 -66.5430000 -29.0318011  -4.0865296 -67.4904053
 -30.7680000  -3.0520000 -66.7440000 -31.0004912  -3.0170560 -67.8083430
 -31.5194411  -3.6495718 -66.2279143 -29.4200000  -4.7320000 -65.5910000
 -30.0350000  -6.1670000 -65.9630000 -29.2600000  -7.1810000 -65.2070000
 -30.1220000  -6.2490000 -67.4390000 -31.5110000  -6.1010000 -65.3480000
 -31.7470000  -5.3180000 -64.1820000 -31.9757837  -4.3005819 -64.4992043
 -30.8527444  -5.3113178 -63.5588123 -32.9090000  -5.8620000 -63.3790000
 -32.5793001  -6.0763270 -62.3624070 -33.9030000  -4.8250000 -63.2260000
 -34.9920000  -5.0670000 -64.0950000 -35.9349496  -5.1210877 -63.5509229
 -35.1730000  -3.8750000 -64.9590000 -34.5320000  -3.8290000 -66.1820000
 -33.9495097  -4.6895904 -66.4760908 -34.6400000  -2.8020000 -67.0360000
 -33.9250000  -2.7940000 -68.3570000 -34.2535133  -3.6449592 -68.9536968
 -34.1518051  -1.8694406 -68.8878949 -32.8501056  -2.8617884 -68.1893507
 -35.4770000  -1.6860000 -66.6490000 -35.6330000  -0.7030000 -67.3650000
 -36.0890000  -1.8010000 -65.4120000 -36.7188755  -0.9645530 -65.1091569
 -35.9860000  -2.8450000 -64.5330000 -36.5700000  -2.8490000 -63.4610000
 -33.6420000  -7.0320000 -64.0140000 -33.0134047  -7.6731780 -64.6319462
 -34.6770000  -6.3380000 -64.8910000 -34.4892568  -6.5807965 -65.9368975
 -35.6751125  -6.6768304 -64.6133932 -34.2610000  -7.8320000 -63.0100000
 -34.7446554  -8.5930585 -63.3393417 -31.7787911  45.2542608 -79.2250798
 -31.1830000  45.8790000 -79.6450000 -30.9170000  45.7500000 -81.0400000
 -31.8612502  45.8526897 -81.5747401 -30.4872027  44.7700561 -81.2475698
 -29.9550000  46.8280000 -81.5130000 -30.2330753  47.1388748 -82.5200405
 -30.1330000  48.0200000 -80.7020000 -28.9230000  48.3200000 -80.0390000
 -28.3752394  49.1416770 -80.5004178 -29.2340000  48.8370000 -78.7130000
 -29.9710000  48.2220000 -77.7350000 -30.3538353  47.2241299 -77.8902227
 -30.0860000  48.9310000 -76.6340000 -29.3770000  50.0940000 -76.9100000
 -29.1140000  51.2560000 -76.1510000 -29.5600000  51.4390000 -74.9020000
 -29.3402541  52.2915980 -74.4071399 -30.1162102  50.7244565 -74.4546097
 -28.3720000  52.2260000 -76.7300000 -27.9150000  52.0350000 -77.9740000
 -27.2985783  52.7867820 -78.4443694 -28.1050000  51.0000000 -78.7900000
 -28.8470000  50.0510000 -78.1900000 -28.4710000  46.4760000 -81.3950000
 -28.2369331  45.4120387 -81.4310332 -28.1310000  47.0230000 -80.0190000
 -27.9757035  46.1955345 -79.3266956 -27.2216175  47.6208685 -80.0796372
 -27.7240000  47.1490000 -82.4180000 -26.4200000  46.4630000 -83.0670000
 -25.6080000  47.5430000 -83.6800000 -26.8890000  45.3480000 -83.9250000
 -25.6560000  45.8380000 -81.8010000 -24.2980000  46.1680000 -81.5310000
 -23.7374281  46.0651251 -82.4601264 -23.8879948  45.4895432 -80.7828738
 -24.1760000  47.5960000 -81.0300000 -24.5135969  48.2701765 -81.8171554
 -25.0920000  47.8210000 -79.9460000 -24.6410000  48.9550000 -79.2560000
 -24.9348922  49.9069834 -79.6981020 -25.2680000  49.0000000 -77.9260000
 -26.0460000  48.0320000 -77.3420000 -26.1930214  47.0852236 -77.8403981
 -26.5030000  48.3590000 -76.1490000 -25.9980000  49.6360000 -75.9340000
 -26.1190000  50.5430000 -74.8510000 -26.8210000  50.2810000 -73.7360000
 -26.8705214  50.9680107 -72.9973084 -27.2992673  49.3970101 -73.6363952
 -25.4850000  51.7340000 -74.9630000 -24.7820000  51.9940000 -76.0790000
 -24.2663526  52.9370940 -76.1842635 -24.5990000  51.2300000 -77.1580000
 -25.2370000  50.0510000 -77.0220000 -22.8050000  47.9760000 -80.4760000
 -22.2225541  47.1108500 -80.1591861 -23.1170000  48.8640000 -79.2500000
 -22.3458071  48.7227901 -78.4927546 -23.1389954  49.9103045 -79.5547349
 -22.0610000  48.6860000 -81.4660000 -20.4760000  48.4560000 -81.6060000
 -20.0320000  49.0990000 -82.8650000 -20.2290000  47.0090000 -81.3900000
 -19.8570000  49.2640000 -80.3620000 -19.8690000  50.6980000 -80.3520000
 -20.8689253  50.9918301 -80.6712385 -19.1325651  51.1061263 -81.0442407
 -19.6050000  51.2530000 -78.9530000 -19.6693789  52.3393251 -79.0150683
 -20.6830000  50.8750000 -78.0530000 -20.1380000  50.5570000 -76.7940000
 -20.0966863  51.4267008 -76.1382463 -21.0870000  49.6320000 -76.0720000
 -21.3140000  48.3590000 -76.5700000 -20.7460986  48.0532336 -77.4362535
 -22.1520000  47.4730000 -76.0000000 -22.3750000  46.1060000 -76.5790000
 -21.4296320  45.5641686 -76.6072414 -23.0874659  45.5605371 -75.9601603
 -22.7700463  46.1993361 -77.5905959 -22.8370000  47.8680000 -74.7930000
 -23.6150000  47.1200000 -74.2030000 -22.5570000  49.1530000 -74.3460000
 -23.0688130  49.4626626 -73.4348155 -21.7110000  50.0710000 -74.9240000
 -21.5360000  51.1840000 -74.4480000 -18.3000000  50.7850000 -78.2860000
 -17.6860889  50.1659762 -78.9402334 -18.7740000  49.9490000 -77.0860000
 -18.3462685  48.9483507 -77.1480155 -18.4505224  50.4251199 -76.1603801
 -17.5230000  51.9190000 -77.8690000 -15.9400000  51.7740000 -77.6100000
 -15.2400000  52.8250000 -78.3860000 -15.5920000  50.3490000 -77.8080000
 -15.7650000  52.1330000 -76.0610000 -15.9640000  53.4660000 -75.6170000
 -16.7607749  53.8837971 -76.2323824 -15.0606281  54.0637780 -75.7381665
 -16.3910000  53.4960000 -74.1590000 -16.8158246  54.4780535 -73.9511678
 -17.4890000  52.5730000 -73.9470000 -17.3690000  52.0020000 -72.6660000
 -17.9011680  52.6035275 -71.9290732 -18.1170000  50.6860000 -72.6610000
 -17.8870000  49.7760000 -73.6560000 -17.1678642  49.9978304 -74.4306192
 -18.5390000  48.6070000 -73.6910000 -18.3252880  47.9049936 -74.4969866
 -19.4900000  48.3420000 -72.6560000 -20.1700000  47.1850000 -72.6440000
 -20.8321011  47.0372983 -71.8957307 -20.0141499  46.4953614 -73.3652564
 -19.7320000  49.2240000 -71.6770000 -19.0640000  50.4120000 -71.6490000
 -19.2620000  51.2470000 -70.7510000 -15.3020000  53.1110000 -73.1510000
 -14.3581660  52.8470362 -73.6280736 -15.8720000  51.8760000 -72.4190000
 -15.1357208  51.0723978 -72.4336835 -16.1015708  52.1389159 -71.3863952
 -15.0600000  54.2150000 -72.2620000 -13.9450000  54.1280000 -71.1030000
 -13.5760000  55.5130000 -70.7250000 -12.8870000  53.1810000 -71.5230000
 -14.7370000  53.4730000 -69.8850000 -16.0260000  53.9620000 -69.5340000
 -16.7536162  53.5450132 -70.2302734 -16.0534286  55.0502613 -69.5890973
 -16.3750000  53.5280000 -68.1340000 -16.9938717  54.2826673 -67.6486399
 -17.2190000  52.3460000 -68.1900000 -16.5880000  51.2720000 -67.5260000
 -17.0403527  51.0795779 -66.5531434 -16.8630000  50.0030000 -68.2840000
 -16.1400000  49.7180000 -69.4350000 -15.3652789  50.4116651 -69.7266098
 -16.3230000  48.6010000 -70.1730000 -15.5270000  48.3290000 -71.4160000
 -14.4668707  48.2840057 -71.1665989 -15.8390247  47.3776882 -71.8469830
 -15.6961949  49.1274896 -72.1384174 -17.3230000  47.6510000 -69.7370000
 -17.5510000  46.6100000 -70.3510000 -18.0040000  48.0010000 -68.5750000
 -18.7602771  47.2940790 -68.2338135 -17.8280000  49.1380000 -67.8140000
 -18.4810000  49.3530000 -66.8060000 -15.1640000  53.1480000 -67.2930000
 -14.2286602  53.5822525 -67.6460764 -15.1100000  51.6300000 -67.4460000
 -14.1949392  51.3491862 -67.9674466 -15.1235701  51.1642760 -66.4605979
 -15.3580000  53.5480000 -65.9400000 -14.1090000  53.6590000 -64.9310000
 -13.8250000  55.0930000 -64.6800000 -13.0370000  52.7790000 -65.4520000
 -14.6710000  53.0060000 -63.5860000 -16.0440000  52.6470000 -63.5050000
 -16.4536359  52.7040820 -64.5134841 -16.5874292  53.3312456 -62.8533918
 -16.2000000  51.2320000 -62.9830000 -17.1405591  51.1670463 -62.4359818
 -16.3570000  50.2990000 -64.0910000 -15.5300000  49.1860000 -63.8460000
 -16.1089303  48.4560163 -63.2802590 -15.2370000  48.4960000 -65.1040000
 -14.2940000  48.8290000 -66.0500000 -13.6619259  49.6940212 -65.9135352
 -14.2690000  48.0120000 -67.0710000 -15.2520000  47.0700000 -66.7740000
 -15.6880000  45.9330000 -67.5040000 -15.2800000  45.5210000 -68.5970000
 -16.7140000  45.2480000 -66.8390000 -17.0875145  44.4289584 -67.2744956
 -17.2470000  45.6190000 -65.6210000 -18.2280000  44.8410000 -65.1210000
 -18.6271076  44.0169437 -65.5473152 -18.6194978  45.1231017 -64.2337294
 -16.8450000  46.6810000 -64.9320000 -15.8500000  47.3560000 -65.5660000
 -15.0120000  50.7150000 -62.1650000 -14.3065026  51.4818207 -61.8450651
 -14.3200000  49.7600000 -63.1390000 -13.3478338  50.1663260 -63.4180902
 -14.1841817  48.7893042 -62.6621319 -15.4890000  50.0250000 -61.0160000
 -14.6950000  50.1280000 -59.6230000 -15.1250000  51.3830000 -58.9630000
 -13.2620000  49.9050000 -59.9290000 -15.2160000  48.8650000 -58.7810000
 -16.5490000  48.3930000 -58.9400000 -16.9619162  48.8882364 -59.8188294
 -17.1543286  48.6383034 -58.0673580 -16.5720000  46.8830000 -59.1580000
 -17.5985037  46.5434425 -59.0198325 -16.2680000  46.5690000 -60.5450000
 -15.3020000  45.5470000 -60.5680000 -15.7925009  44.5743473 -60.6061433
 -14.5680000  45.6130000 -61.8270000 -13.6880000  46.5860000 -62.2460000
 -13.4611387  47.4316653 -61.6137136 -13.1960000  46.3630000 -63.4400000
 -13.7930000  45.1670000 -63.8320000 -13.6560000  44.4110000 -65.0310000
 -12.9570000  44.6580000 -66.0300000 -14.4530000  43.2540000 -65.0050000
 -14.4254691  42.6498805 -65.8014171 -15.2700000  42.8850000 -63.9560000
 -15.9640000  41.7440000 -64.0930000 -15.9639462  41.1245807 -64.8907594
 -16.5657740  41.4868493 -63.3236870 -15.3990000  43.5830000 -62.8380000
 -14.6390000  44.7020000 -62.8450000 -15.5680000  46.0750000 -58.3280000
 -15.1472087  46.5929932 -57.4661900 -14.4620000  45.7830000 -59.3350000
 -13.5713155  46.3540821 -59.0729969 -14.2279389  44.7185339 -59.3199136
 -16.1760000  44.8750000 -57.8940000 -15.8500000  44.2930000 -56.4340000
 -16.8110000  44.8950000 -55.4740000 -14.3870000  44.4490000 -56.2590000
 -16.1480000  42.7220000 -56.5530000 -17.0840000  42.2480000 -57.5020000
 -17.2113979  43.0317693 -58.2487098 -18.0448150  42.0326456 -57.0344985
 -16.5670000  40.9940000 -58.1790000 -17.4267243  40.4132131 -58.5131557
 -15.8590000  41.3350000 -59.4040000 -14.6220000  40.6500000 -59.4220000
 -14.7278791  39.6934328 -59.9337305 -13.6500000  41.4150000 -60.2920000
 -13.1140000  42.5940000 -59.8560000 -13.3744798  42.9783679 -58.8809044
 -12.2600000  43.2920000 -60.6250000 -11.8503586  44.2283637 -60.2461632
 -11.9350000  42.7610000 -61.9160000 -11.0870000  43.4150000 -62.7300000
 -10.8880172  43.0023196 -63.6301118 -10.6714352  44.2877417 -62.4372045
 -12.4600000  41.6110000 -62.3530000 -13.3250000  40.9130000 -61.5630000
 -13.8300000  39.8450000 -61.9290000 -15.5860000  40.1620000 -57.3510000
 -15.5684362  40.3612779 -56.2795157 -14.2300000  40.5330000 -57.9620000
 -13.6626550  41.1336049 -57.2510199 -13.6745225  39.6242648 -58.1938305
 -15.8760000  38.7980000 -57.5570000 -15.5130000  37.6950000 -56.4500000
 -16.5400000  37.7630000 -55.3840000 -14.0830000  37.8530000 -56.1080000
 -15.6820000  36.3260000 -57.2520000 -15.7650000  36.3560000 -58.6720000
 -15.8787446  37.3964487 -58.9763496 -16.6228824  35.7804271 -59.0196409
 -14.5020000  35.7910000 -59.2910000 -14.7817793  35.1163166 -60.1000891
 -13.7560000  36.8330000 -59.9340000 -12.4070000  36.4440000 -60.0130000
 -12.1695462  35.9328803 -60.9459906 -11.6080000  37.6830000 -60.0810000
 -11.5320000  38.5120000 -58.9930000 -12.0352411  38.2446151 -58.0755832
 -10.8400000  39.6580000 -59.0440000 -10.7875671  40.2935672 -58.1600286
 -10.2020000  39.9860000 -60.2800000  -9.4970000  41.1190000 -60.4010000
  -9.0635973  41.3092638 -61.2932233  -9.4109292  41.7511556 -59.6180105
 -10.2860000  39.1850000 -61.3510000 -10.9930000  38.0240000 -61.2820000
 -11.0960000  37.2550000 -62.2470000 -13.5370000  35.1490000 -58.3030000
 -13.6881779  35.4819850 -57.2761772 -12.1290000  35.5810000 -58.7840000
 -11.4588118  35.6551603 -57.9275847 -11.7413681  34.8418911 -59.4851132
 -13.7180000  33.7370000 -58.3410000 -12.6860000  32.7430000 -57.6180000
 -13.4370000  31.4930000 -57.3710000 -12.0650000  33.4610000 -56.4740000
 -11.5980000  32.4380000 -58.7600000 -12.0330000  32.1100000 -60.0850000
 -12.7195549  32.9002907 -60.3886166 -12.5504332  31.1509390 -60.1087810
 -10.8620000  32.0690000 -61.0490000 -11.2413696  31.7827382 -62.0299344
 -10.3260000  33.4080000 -61.2420000  -8.9140000  33.3770000 -61.1640000
  -8.4318435  33.2978109 -62.1383477  -8.4250000  34.7370000 -60.6460000
  -8.6820000  35.0860000 -59.3280000  -9.1737873  34.3508540 -58.7082373
  -8.3140000  36.2560000 -58.7750000  -8.6150000  36.5790000 -57.3400000
  -8.1400148  35.8410132 -56.6935759  -8.2306184  37.5708039 -57.1019333
  -9.6932034  36.5600117 -57.1812035  -7.6160000  37.2130000 -59.6020000
  -7.2510000  38.3040000 -59.1720000  -7.3890000  36.8140000 -60.9090000
  -6.8596947  37.5294384 -61.5383524  -7.7570000  35.6120000 -61.5010000
  -7.5090000  35.3530000 -62.6750000  -9.6920000  31.1920000 -60.6060000
  -9.9131730  30.5727147 -59.7367089  -8.5920000  32.2030000 -60.2480000
  -8.3084472  32.0773731 -59.2030527  -7.7221351  32.0342500 -60.8827903
  -9.3050000  30.3340000 -61.6820000  -8.1570000  29.2220000 -61.4800000
  -8.4910000  28.0470000 -62.3170000  -7.9620000  29.0530000 -60.0200000
  -6.8530000  29.9050000 -62.1080000  -6.9390000  30.6100000 -63.3420000
  -7.6978392  31.3865781 -63.2461383  -7.2138481  29.9319154 -64.1499359
  -5.6130000  31.2500000 -63.6620000  -5.5486707  31.4665270 -64.7283382
  -5.5250000  32.5600000 -63.0160000  -4.3360000  32.6200000 -62.2440000
  -3.5855204  33.1344135 -62.8442153  -4.5290000  33.5150000 -61.0830000
  -5.0620000  33.1870000 -59.8530000  -5.4072018  32.1821199 -59.6594703
  -5.0940000  34.1890000 -59.0080000  -4.5430000  35.2500000 -59.7180000
  -4.3240000  36.6000000 -59.3270000  -4.5800000  37.1480000 -58.2380000
  -3.7440000  37.3410000 -60.3600000  -3.5475508  38.3067318 -60.1903877
  -3.4200000  36.8350000 -61.6050000  -2.8670000  37.6870000 -62.4730000
  -2.6698330  38.6660001 -62.3220554  -2.6390938  37.3174804 -63.3849293
  -3.6220000  35.5810000 -61.9780000  -4.1820000  34.8470000 -60.9940000
  -4.4130000  30.4540000 -63.1570000  -4.6297703  29.4086705 -62.9370100
  -4.0450000  31.1810000 -61.8640000  -4.2354393  30.5277820 -61.0124494
  -2.9889710  31.4501238 -61.8858006  -3.3560000  30.5080000 -64.1050000
  -2.0070000  29.6570000 -63.8740000  -1.8690000  28.7880000 -65.0650000
  -1.9810000  29.0810000 -62.5090000  -0.8480000  30.7530000 -63.9330000
  -0.4290000  31.2580000 -65.1800000  -1.3136833  31.5171153 -65.7616311
   0.1557938  30.5140568 -65.7209856   0.4070000  32.4910000 -64.9760000
   0.4131267  33.0877939 -65.8880849  -0.2390000  33.3380000 -63.9920000
   0.7270000  33.7900000 -63.0810000   1.1508939  34.7388312 -63.4098351
   0.0580000  34.1530000 -61.7560000  -0.5610000  33.1640000 -61.0130000
  -0.5204252  32.1546210 -61.3949791  -1.1580000  33.3830000 -59.8300000
  -1.8110000  32.2860000 -59.0610000  -1.0735263  31.5193980 -58.8231902
  -2.2279013  32.6873553 -58.1373079  -2.6098331  31.8477959 -59.6592828
  -1.1630000  34.7110000 -59.2990000  -1.6930000  34.9740000 -58.2310000
  -0.5330000  35.6650000 -60.0770000  -0.5443265  36.6824720 -59.6862019
   0.0990000  35.4710000 -61.2990000   0.6380000  36.3940000 -61.9240000
   1.8150000  32.2260000 -64.4470000   2.1368169  31.1862573 -64.5058886
   1.7250000  32.6480000 -62.9850000   1.8744026  31.7781509 -62.3453589
   2.4939310  33.3908180 -62.7727106   2.7390000  33.0270000 -65.1630000
   4.3130000  32.6840000 -65.1390000   4.8520000  32.6820000 -66.5260000
   4.4790000  31.5120000 -64.2550000   4.9650000  33.9110000 -64.3590000
   4.5920000  35.2370000 -64.6800000   3.5476185  35.2793220 -64.9891539
   5.2256707  35.5915753 -65.4929197   4.7890000  36.1240000 -63.4740000
   4.6957116  37.1752812 -63.7464049   3.7330000  35.9030000 -62.5250000
   4.1760000  36.3930000 -61.2880000   3.8795876  37.4376634 -61.1935685
   3.4290000  35.7150000 -60.1930000   3.1210000  34.3920000 -60.2850000
   3.4183592  33.8230267 -61.1534738   2.4480000  33.7770000 -59.3060000
   2.2120713  32.7177615 -59.4082340   2.0690000  34.5550000 -58.1680000
   1.3900000  34.0000000 -57.1580000   1.1451228  34.5907442 -56.3762347
   1.1379461  33.0224909 -57.1903451   2.3700000  35.8470000 -58.0700000
   3.0530000  36.4620000 -59.0730000   3.3520000  37.6710000 -59.0290000
   6.0500000  35.8200000 -62.6900000   6.3538793  34.7748048 -62.7476476
   5.6840000  36.1670000 -61.2410000   6.3680048  35.6588501 -60.5612792
   5.7605513  37.2443819 -61.0944108   7.1010000  36.6210000 -63.1530000
   8.6140000  36.1480000 -62.9100000   9.3590000  36.5790000 -64.1300000
   8.5430000  34.6990000 -62.5540000   9.0770000  36.9670000 -61.5860000
   8.9050000  38.4060000 -61.4930000   7.9148941  38.6507625 -61.8775538
   9.6624420  38.9064881 -62.0962362   9.0160000  38.8900000 -60.0400000
   9.2568409  39.9528397 -60.0616020   7.7120000  38.8240000 -59.3900000
   7.8860000  38.5780000 -57.9870000   7.4365165  39.3553915 -57.3691600
   7.1000000  37.3270000 -57.5920000   7.2580000  36.1590000 -58.3300000
   7.9948961  36.1743468 -59.1193978   6.5990000  35.0160000 -58.0850000
   6.8150000  33.8020000 -58.9250000   7.8619826  33.5036733 -58.8708874
   6.1869331  32.9898119 -58.5589639   6.5541121  34.0243483 -59.9596971
   5.6710000  34.9880000 -56.9730000   5.0300000  33.9840000 -56.6740000
   5.5550000  36.1810000 -56.2710000   4.8612662  36.1764733 -55.4302779
   6.2330000  37.3750000 -56.5200000   6.0770000  38.3760000 -55.8400000
   9.9340000  38.0870000 -59.1200000   9.8658424  37.0061828 -59.2436422
   9.3890000  38.4790000 -57.7420000  10.0326260  38.0660789 -56.9652498
   9.3666446  39.5653030 -57.6551308  11.3150000  38.4840000 -59.2740000
  12.4900000  37.6640000 -58.5170000  13.7820000  38.2640000 -58.9250000
  12.2950000  36.2280000 -58.8390000  12.1720000  37.8710000 -56.9380000
  12.9250000  38.7970000 -56.1150000  13.0547085  39.7048767 -56.7040973
  13.9018633  38.3746843 -55.8794409  12.1960000  39.1430000 -54.8080000
  12.3388131  40.2057401 -54.6123287  10.7610000  38.9950000 -54.9850000
  10.1840000  38.3180000 -53.8780000   9.2757923  38.8136282 -53.5350559
   9.6820000  36.9690000 -54.3390000  10.3810000  36.3110000 -55.3640000
  11.2833265  36.7776955 -55.7306094  10.0250000  35.1090000 -55.8610000
  10.8020000  34.4340000 -56.9640000  11.8276334  34.2651949 -56.6358530
  10.3362430  33.4784388 -57.2049838  10.8043137  35.0699796 -57.8492254
   8.8580000  34.4610000 -55.2800000   8.4600000  33.3590000 -55.6660000
   8.2220000  35.1810000 -54.2620000   7.3435872  34.6983381 -53.8335971
   8.5660000  36.4030000 -53.7490000   7.9230000  36.9210000 -52.8520000
  12.5460000  38.2770000 -53.6100000  12.8413332  37.2574751 -53.8578833
  11.2490000  38.2490000 -52.7930000  11.4016335  37.6608609 -51.8880720
  10.9680822  39.2665320 -52.5213126  13.5470000  38.8730000 -52.8960000
  14.4100000  37.9760000 -51.9040000  15.6010000  38.8260000 -51.5990000
  14.4870000  36.6140000 -52.5270000  13.4770000  37.7880000 -50.6220000
  13.4840000  36.5760000 -49.9350000  14.4182550  36.5020353 -49.3784061
  13.4134613  35.7455462 -50.6374752  12.3320000  36.5100000 -48.9760000
  12.2641634  37.4353179 -48.4039124  11.0930000  36.4580000 -49.7320000
  10.2740000  35.4240000 -49.2410000   9.2229729  35.6343420 -49.0430166
  10.2130000  34.3730000 -50.2880000  10.8280000  34.4090000 -51.5170000
  11.5048869  35.2160645 -51.7554800  10.5570000  33.3730000 -52.2850000
   9.6880000  32.6160000 -51.5270000   9.0310000  31.4030000 -51.7820000
   9.1810000  30.7160000 -52.9180000   8.6844177  29.8467455 -53.0518058
   9.7909768  31.0658995 -53.6429810   8.2230000  30.9080000 -50.8110000
   8.0750000  31.5950000 -49.6720000   7.4279243  31.2284808 -48.8888297
   8.6410000  32.7500000 -49.3180000   9.4460000  33.2170000 -50.2990000
  12.3320000  35.2900000 -48.0930000  12.7952019  34.4197678 -48.5580148
  10.8450000  35.0200000 -47.8760000  10.7234798  34.2073129 -47.1598494
  10.3645700  35.9189049 -47.4896619  13.0300000  35.5630000 -46.8710000
  13.0713012  34.8278930 -46.2549557 -44.0844562   8.0322131 -68.3603941
 -44.6300000   7.2700000 -68.1530000 -44.4770000   6.6370000 -66.8920000
 -44.7048712   7.3668322 -66.1151344 -43.4525074   6.2853274 -66.7701719
 -45.4270000   5.4600000 -66.7650000 -46.4460304   5.7938986 -66.9604206
 -45.1500000   4.5070000 -67.8170000 -45.3210000   3.1870000 -67.3350000
 -46.0758336   2.6106069 -67.8698813 -44.0470000   2.4080000 -67.5980000
 -43.1380000   2.9200000 -68.5080000 -43.3562089   3.8855982 -68.9397479
 -41.9880000   2.3090000 -68.8400000 -41.0240000   2.9070000 -69.8260000
 -40.6870120   3.8777483 -69.4624236 -40.1656741   2.2453740 -69.9427383
 -41.5192245   3.0321676 -70.7889049 -41.6910000   1.0430000 -68.2210000
 -40.6640000   0.4170000 -68.4680000 -42.6440000   0.5830000 -67.3280000
 -42.4170974  -0.3682660 -66.8466415 -43.8240000   1.1860000 -66.9780000
 -44.5920000   0.6720000 -66.1780000 -45.3090000   4.6780000 -65.4640000
 -44.3031037   4.6325274 -65.0466222 -45.7540000   3.2780000 -65.8710000
 -45.7008276   2.6140889 -65.0081589 -46.7797056   3.3145501 -66.2380033
 -46.1920000   5.2350000 -64.4830000 -46.0410000   4.8630000 -62.9220000
 -47.3970000   4.5890000 -62.3910000 -45.2040000   5.9090000 -62.2910000
 -45.2190000   3.4910000 -62.9210000 -45.7440000   2.3410000 -62.2700000
 -46.0450999   1.6285648 -63.0380332 -46.6085107   2.6046523 -61.6607305
 -44.6880000   1.7060000 -61.3880000 -45.0564942   0.7513995 -61.0124347
 -43.5350000   1.3570000 -62.2000000 -42.3790000   1.9810000 -61.6830000
 -41.7544324   1.2890472 -61.1180081 -41.5130000   2.3740000 -62.7940000
 -41.5410000   3.5580000 -63.4850000 -42.2294639   4.3384555 -63.1963682
 -40.6380000   3.6380000 -64.4350000 -39.9670000   2.4230000 -64.3610000
 -38.8880000   1.8790000 -65.1000000 -38.2750000   2.5250000 -66.1050000
 -37.5097967   2.0849667 -66.5958521 -38.5791284   3.4509278 -66.3700705
 -38.4630000   0.6380000 -64.7630000 -39.0690000  -0.0010000 -63.7520000
 -38.7311117  -0.9823404 -63.4533338 -40.0930000   0.3980000 -62.9970000
 -40.4950000   1.6340000 -63.3520000 -44.1600000   2.6070000 -60.2680000
 -44.8272704   3.4318816 -60.0181616 -42.8650000   3.1600000 -60.8520000
 -42.9527481   4.2395826 -60.9740696 -42.0376688   2.9371095 -60.1782470
 -43.9200000   1.8410000 -59.0840000 -43.6740000   2.5770000 -57.6740000
 -44.1870000   1.6980000 -56.5980000 -44.1910000   3.9580000 -57.8050000
 -42.0770000   2.6640000 -57.5550000 -41.3690000   1.7850000 -56.6830000
 -42.1148415   1.2748840 -56.0734082 -40.6881046   2.3379730 -56.0359274
 -40.5800000   0.7540000 -57.4740000 -41.2192552  -0.1135269 -57.6378571
 -40.3000000   1.2580000 -58.8100000 -39.0000000   0.8620000 -59.1630000
 -38.9751036  -0.1351367 -59.6025428 -38.4790000   1.7440000 -60.2860000
 -38.9710000   3.0350000 -60.4420000 -39.6832646   3.3926908 -59.7132088
 -38.5660000   3.8740000 -61.4200000 -39.1180000   5.2660000 -61.5540000
 -38.9057818   5.8305361 -60.6460562 -38.6529004   5.7613702 -62.4062856
 -40.1960910   5.2167364 -61.7069457 -37.5690000   3.3980000 -62.3550000
 -37.1440000   4.0950000 -63.2750000 -37.1280000   2.0980000 -62.1410000
 -36.3789514   1.7287920 -62.8415087 -37.5300000   1.2320000 -61.1500000
 -37.0760000   0.1000000 -61.0520000 -39.2200000   0.3700000 -56.8680000
 -39.0415423   0.8062749 -55.8851898 -38.2110000   0.9390000 -57.8700000
 -37.5685086   1.6625918 -57.3682840 -37.6013211   0.1297086 -58.2717950
 -39.1100000  -1.0540000 -56.7630000 -38.3490000  -1.7270000 -55.5130000
 -38.9350000  -3.0620000 -55.2500000 -38.3030000  -0.7160000 -54.4330000
 -36.8630000  -1.9670000 -56.0450000 -36.6340000  -2.4520000 -57.3640000
 -37.2492612  -1.8888624 -58.0657334 -36.8858221  -3.5105124 -57.4290980
 -35.1760000  -2.2650000 -57.7200000 -34.7834576  -3.1629969 -58.1970864
 -35.0420000  -1.2230000 -58.7350000 -34.0650000  -0.2990000 -58.3000000
 -33.0979863  -0.6011506 -58.7021055 -34.3170000   1.0380000 -58.9460000
 -35.1850000   1.9240000 -58.3800000 -35.6882091   1.6714639 -57.4583677
 -35.4290000   3.1130000 -58.9490000 -36.1397463   3.7943041 -58.4812772
 -34.7330000   3.4210000 -60.1560000 -34.9280000   4.5930000 -60.7740000
 -34.4130691   4.7661898 -61.6254412 -35.5711066   5.2703864 -60.3897306
 -33.8750000   2.5640000 -60.7080000 -33.6440000   1.3630000 -60.1250000
 -32.8580000   0.5460000 -60.6080000 -34.3160000  -1.8040000 -56.5420000
 -34.7712809  -1.9710117 -55.5658211 -34.1920000  -0.3070000 -56.7950000
 -34.7406865   0.2384501 -56.0271936 -33.1413062  -0.0185746 -56.7641204
 -33.0470000  -2.4520000 -56.5650000 -32.5540000  -3.2930000 -55.2870000
 -33.0380000  -4.6840000 -55.4620000 -32.9400000  -2.5320000 -54.0780000
 -30.9570000  -3.2890000 -55.4100000 -30.3020000  -4.3210000 -56.1380000
 -31.0607133  -4.7985190 -56.7580241 -29.8650900  -5.0596209 -55.4659514
 -29.2140000  -3.7530000 -57.0300000 -29.0110640  -4.4653253 -57.8296930
 -29.7100000  -2.5650000 -57.7160000 -28.7680000  -1.5210000 -57.6090000
 -28.1251217  -1.4540839 -58.4866838 -29.5150000  -0.1680000 -57.6210000
 -30.3720000   0.1400000 -56.5740000 -30.4344634  -0.5688293 -55.7615595
 -31.0750000   1.2920000 -56.4870000 -31.9750000   1.5840000 -55.3220000
 -31.3906841   1.5839553 -54.4018509 -32.4393743   2.5608679 -55.4568538
 -32.7495095   0.8195463 -55.2599923 -30.9350000   2.2680000 -57.5510000
 -31.5430000   3.3430000 -57.5380000 -30.0670000   1.9070000 -58.5750000
 -29.9555890   2.6297094 -59.3833189 -29.3300000   0.7270000 -58.6810000
 -28.5880000   0.5030000 -59.6290000 -27.9430000  -3.3340000 -56.2980000
 -27.9003489  -3.6809752 -55.2655815 -28.0100000  -1.8060000 -56.3200000
 -28.0282989  -1.4278486 -55.2978621 -27.1357898  -1.4108805 -56.8374333
 -26.7990000  -3.8340000 -56.9840000 -25.3930000  -4.0210000 -56.2200000
 -25.0990000  -5.4690000 -56.1190000 -25.4400000  -3.2110000 -54.9840000
 -24.3410000  -3.3340000 -57.2130000 -24.6850000  -3.1590000 -58.5870000
 -25.7733252  -3.1877614 -58.6401137 -24.2706395  -3.9616144 -59.1970952
 -24.1930000  -1.8200000 -59.1200000 -24.1494923  -1.8992447 -60.2062443
 -25.1740000  -0.7680000 -58.8690000 -24.5260000   0.3230000 -58.2350000
 -24.2109464   1.0788640 -58.9543817 -25.5170000   1.0210000 -57.4100000
 -26.0910000   0.5620000 -56.2540000 -25.7957430  -0.3936287 -55.8465700
 -26.9810000   1.3720000 -55.7450000 -26.9960000   2.4550000 -56.6170000
 -27.7620000   3.6560000 -56.5750000 -28.6090000   4.0080000 -55.7330000
 -27.4710000   4.4910000 -57.6540000 -27.9592135   5.3617385 -57.7128258
 -26.5550000   4.2070000 -58.6490000 -26.4080000   5.1390000 -59.6050000
 -26.9023636   6.0165865 -59.6794771 -25.7459135   4.9318039 -60.3390383
 -25.8290000   3.0850000 -58.7020000 -26.1030000   2.2560000 -57.6560000
 -22.8900000  -1.3120000 -58.5190000 -22.2442871  -2.0514187 -58.0452768
 -23.3850000  -0.3190000 -57.4670000 -23.2528725  -0.7460701 -56.4728910
 -22.8141521   0.6064400 -57.5431156 -22.1660000  -0.6490000 -59.5270000
 -20.9830000  -1.4010000 -60.3050000 -21.1430000  -1.1120000 -61.7480000
 -21.0180000  -2.8140000 -59.8520000 -19.6450000  -0.6540000 -59.7850000
 -19.7330000   0.4420000 -58.8300000 -18.8188689   0.4603852 -58.2365976
 -20.5864535   0.2625678 -58.1761485 -19.9080000   1.7930000 -59.5260000
 -19.9819889   1.6445244 -60.6033022 -21.1900000   2.3820000 -59.1490000
 -20.9730000   3.4870000 -58.2880000 -21.2453383   4.4112477 -58.7976050
 -21.9250000   3.4120000 -57.1720000 -22.0540000   2.3960000 -56.2540000
 -21.4095374   1.5308496 -56.3048413 -22.9990000   2.6010000 -55.3710000
 -23.5350000   3.8360000 -55.7230000 -24.5910000   4.5890000 -55.1260000
 -25.2940000   4.3010000 -54.1310000 -24.8040000   5.7980000 -55.8070000
 -25.5234656   6.4036676 -55.4670962 -24.0900000   6.2170000 -56.9160000
 -24.4310000   7.4070000 -57.4420000 -25.1619865   8.0260683 -57.1218228
 -23.9134625   7.7052012 -58.2564519 -23.1060000   5.5200000 -57.4740000
 -22.8850000   4.3460000 -56.8350000 -18.8850000   2.8450000 -59.1410000
 -17.8772046   2.4902971 -58.9250530 -19.5080000   3.4050000 -57.8720000
 -18.9583166   3.0392031 -57.0047399 -19.4654666   4.4939127 -57.8956714
 -18.8130000   3.8370000 -60.1620000 -17.4400000   4.6300000 -60.4300000
 -17.2780000   4.7890000 -61.8930000 -16.3960000   3.9410000 -59.6410000
 -17.6890000   6.0800000 -59.7910000 -18.6200000   6.9820000 -60.3920000
 -19.4493716   6.4081211 -60.8054076 -18.1252412   7.5325063 -61.1921607
 -19.1570000   7.9680000 -59.3640000 -19.7522658   8.7296457 -59.8676406
 -20.0880000   7.3020000 -58.4900000 -20.1890000   8.0640000 -57.3150000
 -21.0054767   8.7711035 -57.4615257 -20.6660000   7.2020000 -56.1950000
 -20.0820000   5.9920000 -55.9660000 -19.2791140   5.6510997 -56.6028367
 -20.4890000   5.2070000 -54.9540000 -20.0096593   4.2396730 -54.8036293
 -21.5440000   5.6940000 -54.1200000 -21.9970000   4.9580000 -53.0920000
 -22.7432710   5.3437544 -52.5313096 -21.5952474   4.0517306 -52.8986813
 -22.1090000   6.8840000 -54.3320000 -21.6840000   7.6670000 -55.3610000
 -22.1820000   8.7720000 -55.5920000 -18.1030000   8.5600000 -58.4250000
 -17.2278457   7.9156168 -58.3414899 -18.8060000   8.6480000 -57.0620000
 -18.0643324   8.5877528 -56.2655085 -19.3407931   9.5949707 -56.9889035
 -17.6830000   9.8570000 -58.8730000 -16.5380000  10.6650000 -58.0730000
 -15.9450000  11.6530000 -58.9980000 -15.6570000   9.6910000 -57.3870000
 -17.3410000  11.4470000 -56.9420000 -18.5200000  12.1770000 -57.2640000
 -19.2765184  11.5086924 -57.6752724 -18.2946172  12.9595068 -57.9885594
 -19.0480000  12.8060000 -56.0060000 -19.7302979  13.6321367 -56.2061674
 -19.8550000  11.8310000 -55.3070000 -19.6350000  11.9100000 -53.9170000
 -20.5022973  12.3907082 -53.4644360 -19.6670000  10.5330000 -53.3610000
 -18.8080000   9.5930000 -53.8570000 -18.1230556   9.8608286 -54.6478975
 -18.7950000   8.3450000 -53.3850000 -18.1014798   7.6190897 -53.8094812
 -19.7020000   8.0310000 -52.3350000 -19.7310000   6.7940000 -51.8240000
 -20.3881347   6.6087752 -51.0797109 -19.1109468   6.0810644 -52.1808730
 -20.5400000   8.9450000 -51.8300000 -20.5450000  10.2170000 -52.3200000
 -21.3090000  11.0960000 -51.8800000 -17.9310000  13.2020000 -55.0530000
 -16.9767969  12.8073527 -55.4020683 -18.2830000  12.5680000 -53.7080000
 -17.3669723  12.3156093 -53.1738732 -18.8662700  13.2725833 -53.1151605
 -17.8290000  14.6040000 -54.9500000 -16.7440000  15.2350000 -53.9450000
 -16.3850000  16.5690000 -54.4770000 -15.6690000  14.2260000 -53.7360000
 -17.5570000  15.4100000 -52.5700000 -18.9610000  15.7040000 -52.5890000
 -19.4462050  14.9341213 -53.1889691 -19.1548549  16.6824147 -53.0285743
 -19.5250000  15.6690000 -51.1830000 -20.4848738  16.1853925 -51.1740371
 -19.8430000  14.3020000 -50.8000000 -19.2490000  13.9950000 -49.5500000
 -19.9741151  14.0297434 -48.7369193 -18.8290000  12.5490000 -49.5680000
 -17.8400000  12.1500000 -50.4520000 -17.3766468  12.9199002 -51.0511308
 -17.3950000  10.8880000 -50.5660000 -16.3290000  10.5110000 -51.5520000
 -15.4197708  11.0725239 -51.3373077 -16.1229239   9.4434574 -51.4746346
 -16.6686940  10.7427189 -52.5614621 -17.9710000   9.8860000 -49.7050000
 -17.6170000   8.7070000 -49.7450000 -18.9510000  10.3510000 -48.8300000
 -19.3951843   9.6030274 -48.1732367 -19.4220000  11.6480000 -48.7070000
 -20.2930000  11.9600000 -47.9040000 -18.5760000  16.2020000 -50.1210000
 -17.7276117  16.7457822 -50.5364961 -18.0760000  14.9470000 -49.4060000
 -16.9922151  14.8811021 -49.5017444 -18.3445804  14.9980060 -48.3508398
 -19.2680000  17.0540000 -49.2470000 -18.4680000  17.8470000 -48.1000000
 -19.1090000  19.1790000 -47.9680000 -17.0060000  17.7550000 -48.3680000
 -18.7580000  16.9890000 -46.7860000 -20.0360000  16.3980000 -46.5600000
 -20.2845331  15.7209700 -47.3772893 -20.8016885  17.1699128 -46.4827187
 -19.9850000  15.6210000 -45.2720000 -20.9592324  15.5852362 -44.7844638
 -19.6720000  14.2280000 -45.5650000 -18.4990000  13.8490000 -44.8640000
 -18.8289662  13.2877621 -43.9897954 -17.7300000  12.8580000 -45.6460000
 -16.8660000  13.0970000 -46.6950000 -16.6999799  14.1031497 -47.0506714
 -16.3120000  12.0110000 -47.1720000 -16.8300000  10.9900000 -46.3810000
 -16.6040000   9.5910000 -46.4170000 -15.8740000   8.9450000 -47.1840000
 -17.3410000   8.9280000 -45.4380000 -17.2597246   7.9326307 -45.3866889
 -18.1760000   9.5410000 -44.5370000 -18.7960000   8.7600000 -43.6640000
 -18.7308027   7.7545085 -43.5944554 -19.4152879   9.2170688 -43.0100340
 -18.3950000  10.8330000 -44.4920000 -17.6970000  11.4980000 -45.4370000
 -18.8840000  16.1090000 -44.3350000 -18.5568293  17.1246765 -44.5573947
 -17.7390000  15.1350000 -44.6040000 -16.8954705  15.6749472 -45.0341327
 -17.4315969  14.6675453 -43.6685378 -19.3060000  16.0590000 -42.9930000
 -18.3550000  16.6470000 -41.8330000 -19.1330000  17.6710000 -41.0950000
 -17.0130000  16.9560000 -42.3840000 -18.2010000  15.4280000 -40.8340000
 -19.3500000  14.9160000 -40.2240000 -20.1430863  14.8763221 -40.9706859
 -19.6655923  15.5463770 -39.3926596 -19.0810000  13.5350000 -39.7190000
 -20.0253500  13.0381780 -39.4965808 -18.4940000  12.7410000 -40.7760000
 -17.4460000  11.9790000 -40.2330000 -17.7727616  11.0285044 -39.8112367
 -16.5100000  11.5520000 -41.3560000 -15.9390000  12.5080000 -42.1770000
 -16.1446411  13.5452374 -41.9573401 -15.1100000  12.2140000 -43.1990000
 -14.4980000  13.2790000 -44.0640000 -13.8945747  13.9457766 -43.4480565
 -13.8667624  12.8143243 -44.8214401 -15.2880017  13.8506996 -44.5509871
 -14.8180000  10.8310000 -43.4590000 -14.0800000  10.4830000 -44.3770000
 -15.4320000   9.9290000 -42.6070000 -15.2109479   8.8777436 -42.7916528
 -16.2790000  10.2100000 -41.5570000 -16.7790000   9.3300000 -40.8570000
 -18.1070000  13.4720000 -38.5520000 -17.8682088  14.4271235 -38.0842216
 -16.8390000  12.8750000 -39.1700000 -16.0349611  13.6099718 -39.1320905
 -16.5451980  11.9866723 -38.6108448 -18.6540000  12.6330000 -37.5880000
 -18.1230000  12.6720000 -36.0820000 -19.3210000  12.6630000 -35.1920000
 -17.0870000  13.7390000 -36.0160000 -17.3910000  11.2600000 -35.9380000
 -18.0210000  10.0690000 -36.4560000 -18.2276648  10.2275591 -37.5144180
 -18.9545043   9.8688309 -35.9300697 -17.0980000   8.8790000 -36.3020000
 -17.6785912   7.9637978 -36.1861632 -16.3480000   8.6810000 -37.5290000
 -14.9590000   8.6520000 -37.2480000 -14.5902854   7.6264564 -37.2277738
 -14.2260000   9.2730000 -38.4200000 -14.2680000  10.6220000 -38.6120000
 -14.8086475  11.2479248 -37.9175086 -13.6480000  11.1920000 -39.6520000
 -13.7109077  12.2732485 -39.7746569 -12.9400000  10.3500000 -40.5490000
 -12.3070000  10.8730000 -41.5950000 -11.8146168  10.2409271 -42.2099335
 -12.3269509  11.8699084 -41.7558636 -12.8890000   9.0370000 -40.3820000
 -13.5320000   8.4570000 -39.3220000 -13.5160000   7.2350000 -39.1330000
 -16.0730000   9.0510000 -35.1970000 -16.3267671   9.8576201 -34.5092027
 -14.7840000   9.4010000 -35.9390000 -14.4378844  10.3850347 -35.6228056
 -14.0200567   8.6574270 -35.7118655 -15.9550000   7.8720000 -34.4630000
 -15.3460000   7.9380000 -32.9780000 -16.3730000   7.2350000 -32.1210000
 -14.8540000   9.3510000 -32.7550000 -13.9700000   7.0880000 -33.0770000
 -13.9900000   5.6660000 -33.2960000 -14.7932385   5.4224761 -33.9914165
 -14.1741392   5.1723918 -32.3417755 -12.6650000   5.1730000 -33.8680000
 -12.6530846   4.0837936 -33.8281670 -12.5840000   5.4860000 -35.2830000
 -11.2140000   5.5280000 -35.6610000 -10.9607107   4.7424464 -36.3729335
 -10.9510000   6.7990000 -36.4470000 -11.3440000   8.0230000 -35.9290000
 -11.7831579   8.0326000 -34.9423651 -11.1600000   9.1930000 -36.5660000
 -11.5990000  10.4820000 -35.9720000 -11.0893753  10.6366593 -35.0209676
 -11.3540309  11.2980550 -36.6518120 -12.6761462  10.4583676 -35.8067821
 -10.5160000   9.1810000 -37.8630000 -10.3290000  10.2080000 -38.5130000
 -10.1430000   7.9280000 -38.3230000  -9.6561361   7.8973313 -39.2977429
 -10.3260000   6.7130000 -37.6770000  -9.9660000   5.6550000 -38.1590000
 -11.4190000   5.8080000 -33.3050000 -11.4459729   6.8939634 -33.2152523
 -10.4050000   5.4110000 -34.3740000  -9.4042484   5.6971206 -34.0503793
 -10.4420391   4.3325718 -34.5280160 -11.0850000   5.2550000 -32.0330000
  -9.8460000   5.8520000 -31.1850000  -9.8180000   5.1150000 -29.9050000
  -9.9220000   7.3400000 -31.1580000  -8.5680000   5.4840000 -32.0740000
  -8.0020000   4.1820000 -32.0510000  -8.8197628   3.4669295 -32.1406561
  -7.4742986   4.0138569 -31.1121924  -7.0260000   3.9830000 -33.2220000
  -6.9470945   2.9124130 -33.4109885  -7.6010000   4.5230000 -34.4330000
  -6.5860000   5.0790000 -35.2560000  -6.5803724   4.6316949 -36.2499747
  -6.9120000   6.5140000 -35.5340000  -7.6780000   7.2450000 -34.6330000
  -7.9772571   6.7532488 -33.7192023  -8.0180000   8.5410000 -34.8150000
  -8.8640000   9.2900000 -33.8030000  -8.3540893   9.3012477 -32.8396911
  -9.0179122  10.3137767 -34.1440164  -9.8287906   8.7939638 -33.6970438
  -7.5350000   9.1970000 -36.0290000  -7.7730000  10.3740000 -36.3060000
  -6.7710000   8.3920000 -36.8650000  -6.3897819   8.8759720 -37.7641911
  -6.4390000   7.0790000 -36.6850000  -5.7640000   6.4740000 -37.4930000
  -5.6630000   4.6630000 -33.0950000  -5.6692336   5.6203456 -32.5738961
  -5.2510000   4.8780000 -34.5500000  -4.2806818   5.3734048 -34.5839974
  -5.1843955   3.9145815 -35.0554591  -4.7690000   3.7990000 -32.4560000
  -3.2950000   4.2940000 -32.0440000  -2.6820000   3.0840000 -31.4410000
  -3.4260000   5.5350000 -31.2200000  -2.5760000   4.6490000 -33.4510000
  -1.6640000   5.7800000 -33.5680000  -0.8688467   5.5899716 -32.8470835
  -2.1432978   6.7313562 -33.3371416  -1.0590000   5.8480000 -34.9830000
  -0.7006706   4.8450371 -35.2148725  -2.1120000   6.0940000 -35.9590000
  -1.8930000   7.3350000 -36.5990000  -2.1762417   7.3973390 -37.6497080
  -2.7640000   8.3280000 -35.9630000  -3.5240000   8.1510000 -34.8350000
  -3.4522108   7.2266036 -34.2811596  -4.2420000   9.1900000 -34.5040000
  -3.9550000  10.1100000 -35.4920000  -4.4020000  11.4270000 -35.7120000
  -5.2770000  12.0540000 -34.9030000  -5.5648023  13.0003536 -35.1071717
  -5.6454991  11.5779337 -34.0920326  -3.9090000  12.0830000 -36.7930000
  -3.0270000  11.4520000 -37.5910000  -2.6183112  11.9534715 -38.4558115
  -2.5350000  10.2130000 -37.4830000  -3.0450000   9.5930000 -36.4040000
   0.0310000   6.9230000 -35.2190000   0.0753379   7.6519135 -34.4097918
  -0.3900000   7.6270000 -36.5210000   0.2580639   8.4857144 -36.6962769
  -0.3035817   6.9309404 -37.3553459   1.3270000   6.3010000 -35.3540000
   2.0547708   6.9090285 -35.5031633  35.5666251  33.4801168 -51.8093579
  34.7610000  33.2480000 -52.2770000  33.5600000  33.2520000 -51.5880000
  33.3693085  34.2588436 -51.2165120  33.5803500  32.5542056 -50.7508801
  32.4640000  32.8590000 -52.5300000  31.5791793  33.4625175 -52.3276156
  32.8340000  33.2010000 -53.8940000  32.7250000  32.0590000 -54.7020000
  31.7762142  32.1363157 -55.2329696  33.7460000  32.1230000 -55.7920000
  35.0680000  32.3180000 -55.4860000  35.3735862  32.4394471 -54.4572791
  35.9930000  32.3610000 -56.4440000  37.0330696  32.5417161 -56.1725269
  35.5590000  32.1710000 -57.7960000  36.4390000  32.2080000 -58.8010000
  36.0879713  32.0688970 -59.7377655  37.4182513  32.3704665 -58.6145314
  34.2780000  31.9590000 -58.1040000  33.3400000  31.9300000 -57.1200000
  32.1340000  31.7350000 -57.3660000  32.1620000  31.3810000 -52.5470000
  32.4792313  30.8198695 -51.6680255  32.9200000  30.8880000 -53.7610000
  33.7614305  30.2739751 -53.4399578  32.2555644  30.2936329 -54.3881782
  30.7870000  31.2210000 -52.7060000  30.0280000  30.1100000 -51.8540000
  30.8110000  28.8280000 -51.9990000  28.6360000  30.2610000 -52.3320000
  30.1750000  30.5980000 -50.3440000  29.6760000  31.8050000 -49.9420000
  28.6388710  31.8728583 -50.2704186  30.2505973  32.6188669 -50.3842208
  29.7290000  31.9210000 -48.4310000  29.4853104  32.9478552 -48.1584506
  28.6710000  31.1310000 -47.8470000  29.2210000  30.0010000 -47.1640000
  29.1884500  29.9701461 -46.0749234  28.4250000  28.8420000 -47.5490000
  28.4650000  28.1540000 -48.7390000  29.2140424  28.3999868 -49.4771244
  27.5850000  27.1890000 -48.8280000  26.8810000  27.2840000 -47.6220000
  25.7910000  26.5550000 -47.0810000  25.1920000  25.5330000 -47.7140000
  24.4190423  25.0516875 -47.2769920  25.5145197  25.2457885 -48.6270112
  25.3480000  26.9160000 -45.8540000  25.9560000  27.9210000 -45.2200000
  25.6208234  28.2185454 -44.2373900  26.9770000  28.6730000 -45.6190000
  27.3980000  28.3000000 -46.8340000  31.0000000  31.4200000 -47.7650000
  31.9167160  31.5221227 -48.3457766  30.6950000  29.9400000 -47.5520000
  31.2993658  29.3421055 -48.2341754  30.9289663  29.6646164 -46.5236402
  31.1680000  32.1000000 -46.5090000  32.5420000  31.9950000 -45.6780000
  32.5450000  33.1560000 -44.7500000  33.6650000  31.7970000 -46.6220000
  32.3910000  30.6400000 -44.8430000  31.6940000  30.6580000 -43.6250000
  30.7001409  31.0591992 -43.8234525  32.2030183  31.2922335 -42.8992254
  31.5630000  29.2660000 -43.0610000  31.1027817  29.3508193 -42.0765691
  30.6170000  28.4830000 -43.8390000  31.1180000  27.1740000 -43.8850000
  30.8403084  26.6631690 -42.9630248  30.4250000  26.4060000 -44.9300000
  30.8720000  26.4280000 -46.2040000  31.7448587  27.0085383 -46.4637939
  30.2470000  25.7370000 -47.1590000  30.6238728  25.7762717 -48.1810200
  29.1120000  24.9760000 -46.7810000  28.4510000  24.2590000 -47.6830000
  27.6485978  23.7326540 -47.3680221  28.7524875  24.2504418 -48.6469157
  28.6730000  24.9470000 -45.5280000  29.3090000  25.6580000 -44.5790000
  28.9320000  25.6650000 -43.3980000  32.8360000  28.4390000 -43.0450000
  33.7671949  28.9614596 -43.2641137  32.5730000  27.3920000 -44.1260000
  33.2059785  27.5941852 -44.9900362  32.7992711  26.4001695 -43.7346257
  32.9320000  27.8250000 -41.8090000  33.9090000  28.4440000 -40.7070000
  33.4320000  29.8340000 -40.4690000  35.3040000  28.0970000 -41.1140000
  33.6450000  27.5470000 -39.4080000  32.3850000  27.5530000 -38.7600000
  31.7088271  28.1988575 -39.3201414  32.4908454  27.9328174 -37.7438130
  31.8120000  26.1590000 -38.7110000  30.8203514  26.1965389 -38.2600862
  31.5800000  25.7230000 -40.0480000  31.6610000  24.3330000 -40.0460000
  30.8368420  23.7519022 -39.6322512  31.7110000  23.8910000 -41.4280000
  32.6130000  24.2340000 -42.3900000  33.4719699  24.8378743 -42.1371997
  32.3540000  23.7140000 -43.5700000  31.1730000  23.0100000 -43.3710000
  30.3440000  22.2370000 -44.2280000  30.6020000  22.0120000 -45.5160000
  29.9679676  21.4518707 -46.0676878  31.4315564  22.4016126 -45.9404254
  29.2400000  21.6910000 -43.6930000  28.9650000  21.9080000 -42.4050000
  28.0735165  21.4812909 -41.9695973  29.6410000  22.6030000 -41.5060000
  30.7550000  23.1310000 -42.0570000  32.7080000  25.0760000 -38.0850000
  33.6935067  25.4316256 -37.7843245  32.8600000  24.0240000 -39.2030000
  33.9178324  23.8218785 -39.3710378  32.3572413  23.1032746 -38.9070291
  32.0680000  24.5510000 -36.9670000  32.8210000  23.5270000 -35.9870000
  31.9390000  23.0130000 -34.8970000  34.0380000  24.2320000 -35.5570000
  33.2100000  22.3310000 -36.9440000  32.7400000  21.0460000 -36.6990000
  32.5344704  20.9766323 -35.6308026  33.4949542  20.3086401 -36.9718464
  31.4660000  20.7640000 -37.4710000  30.6960294  21.4522202 -37.1222916
  31.6160000  21.0710000 -38.8840000  31.0770000  19.9910000 -39.6010000
  29.9981743  20.0886398 -39.7222470  31.5760000  19.9970000 -40.9590000
  32.6770000  20.6530000 -41.4320000  33.3006269  21.2276860 -40.7632493
  32.8610000  20.5050000 -42.7110000  31.8050000  19.7100000 -43.1110000
  31.4680000  19.2240000 -44.3860000  32.0490000  19.3950000 -45.4420000
  30.3260000  18.4760000 -44.3610000  30.0115562  18.0836839 -45.2254141
  29.5880000  18.2120000 -43.2480000  28.5150000  17.4530000 -43.4330000
  28.1877368  17.0656310 -44.3064668  27.9544546  17.2573869 -42.6159166
  29.8880000  18.6500000 -42.0390000  31.0040000  19.3940000 -42.0470000
  31.0180000  19.3100000 -37.4240000  31.4718296  18.6959405 -36.6461385
  31.4480000  18.7980000 -38.7890000  32.3082838  18.1383212 -38.6757095
  30.6261535  18.2471648 -39.2464375  29.6150000  19.2630000 -37.2780000
  28.9480000  18.2160000 -36.2670000  27.5180000  18.5480000 -36.1980000
  29.7230000  18.2120000 -35.0110000  29.1410000  16.8160000 -37.0060000
  28.0650000  16.0230000 -37.2430000  27.2758783  16.6243355 -37.6944229
  27.7066328  15.5993729 -36.3048030  28.4340000  14.9050000 -38.1820000
  27.5388630  14.3026267 -38.3368406  28.7600000  15.4020000 -39.4810000
  29.3570000  14.3150000 -40.1870000  28.6912013  13.7887227 -40.8709909
  30.3880000  14.8820000 -41.0940000  31.4700000  15.5440000 -40.5500000
  31.5604091  15.5547529 -39.4738444  32.4260000  16.1230000 -41.2800000
  33.5760000  16.8120000 -40.6410000  34.1282271  16.1027536 -40.0244659
  34.2345072  17.2121508 -41.4119394  33.2105128  17.6275087 -40.0169294
  32.3150000  16.0660000 -42.7210000  33.1430000  16.5730000 -43.4760000
  31.2090000  15.3870000 -43.1940000  31.1239155  15.3134701 -44.2781839
  30.2220000  14.7930000 -42.4570000  29.2850000  14.2270000 -42.9820000
  29.6490000  14.0930000 -37.8150000  30.5513325  14.6330764 -37.5282732
  29.9000000  13.3380000 -39.1260000  30.8136687  12.7501325 -39.0381340
  29.0598021  12.6743448 -39.3302778  29.3050000  13.2150000 -36.7900000
  30.4230000  12.5070000 -35.8980000  29.8840000  12.0930000 -34.5840000
  31.5820000  13.4200000 -35.8740000  30.8460000  11.2630000 -36.7840000
  29.9400000  10.2930000 -37.1500000  29.2175263  10.7561406 -37.8220362
  29.4192772   9.8813482 -36.2854243  30.6590000   9.1660000 -37.8860000
  29.8886648   8.4728918 -38.2240593  31.2730000   9.6560000 -39.1130000
  32.6940000   9.5410000 -39.0410000  33.0873433   8.8137550 -39.7512781
  33.2450000  10.8000000 -39.4990000  33.4370000  11.9420000 -38.7560000
  33.1952883  11.9668095 -37.7036873  33.9210000  12.9340000 -39.4570000
  34.0490000  12.4060000 -40.7360000  34.5220000  13.0030000 -41.9190000
  34.9460000  14.1600000 -42.0810000  34.4850000  12.1190000 -42.9930000
  34.8048245  12.4505426 -43.8805756  34.0390000  10.8370000 -42.9280000
  34.0620000  10.1410000 -44.0680000  34.3642620  10.4687449 -44.9742678
  33.7226821   9.1907528 -44.0233406  33.5900000  10.2670000 -41.8210000
  33.6310000  11.1030000 -40.7730000  31.7960000   8.4690000 -37.1310000
  31.7468057   8.4749630 -36.0421276  33.0370000   9.2340000 -37.5890000
  33.4246694   9.8275835 -36.7610687  33.7994270   8.5275101 -37.9171422
  31.8420000   7.1460000 -37.5800000  32.7340000   6.0370000 -36.8600000
  31.9160000   4.9520000 -36.2900000  33.6590000   6.7350000 -35.9490000
  33.4040000   5.3650000 -38.1170000  32.6960000   5.3160000 -39.3250000
  32.2775765   6.3046533 -39.5136437  31.8891112   4.5854134 -39.2677776
  33.6240000   4.9440000 -40.4600000  33.0323543   4.5033325 -41.2624132
  34.2070000   6.1390000 -41.0510000  35.6130000   6.1230000 -40.9000000
  36.1604719   5.9294084 -41.8224402  36.0270000   7.4670000 -40.5510000
  36.0120000   8.0500000 -39.3050000  35.7074020   7.4761121 -38.4422867
  36.4520000   9.2960000 -39.2930000  36.7520000   9.5370000 -40.6150000
  37.2470000  10.6580000 -41.2560000  37.5240000  11.7880000 -40.6140000
  37.8842606  12.5826233 -41.1228097  37.3742776  11.8522536 -39.6172285
  37.4440000  10.5800000 -42.5900000  37.1400000   9.4290000 -43.2180000
  37.2759792   9.3468106 -44.2862479  36.6670000   8.2940000 -42.7130000
  36.4940000   8.4170000 -41.4010000  34.8130000   4.0760000 -40.0610000
  34.6751665   3.4709031 -39.1649205  35.9160000   5.1000000 -39.8180000
  36.1516837   5.1354348 -38.7543756  36.8068306   4.8149696 -40.3777131
  35.1250000   3.2280000 -41.1280000  36.2820000   2.1390000 -40.9730000
  35.7030000   0.8820000 -41.5510000  36.7590000   2.2190000 -39.5540000
  37.3640000   2.6650000 -42.0250000  36.8820000   3.0370000 -43.3090000
  36.1323352   3.8094134 -43.1373017  36.4209790   2.1908016 -43.8184199
  37.9770000   3.5950000 -44.1710000  37.6381833   3.6007297 -45.2069873
  38.2060000   4.9990000 -43.8540000  39.5880000   5.2380000 -43.6770000
  40.0533224   5.6538250 -44.5706800  39.7710000   6.3620000 -42.6350000
  39.5110000   6.0970000 -41.2980000  39.2348473   5.0877180 -41.0306244
  39.6320000   7.0150000 -40.3210000  39.3480000   6.7010000 -38.8860000
  40.0123035   5.9051032 -38.5493269  39.5121500   7.5915399 -38.2792930
  38.3123481   6.3772699 -38.7824463  40.0450000   8.3400000 -40.6760000
  40.1690000   9.2230000 -39.8360000  40.2930000   8.5500000 -42.0240000
  40.5877834   9.5616976 -42.3026958  40.1870000   7.6320000 -43.0440000
  40.4220000   7.9340000 -44.2100000  39.2980000   2.8840000 -44.0150000
  39.2439457   1.9542091 -43.4487265  40.1760000   3.8940000 -43.2590000
  40.5075576   3.4551136 -42.3179647  41.0444406   4.1477773 -43.8668719
  39.7950000   2.5790000 -45.3070000  41.1090000   1.6760000 -45.5090000
  40.8560000   0.9270000 -46.7650000  41.4620000   1.0130000 -44.2240000
  42.2150000   2.7510000 -45.8510000  41.8800000   3.8000000 -46.7450000
  41.0168420   4.3435597 -46.3608111  41.6394108   3.3809799 -47.7220566
  43.0350000   4.7450000 -46.8850000  42.9369740   5.3310351 -47.7988124
  43.0080000   5.7300000 -45.8160000  44.1770000   5.5960000 -45.0390000
  44.9246178   6.3374385 -45.3208436  43.8910000   5.9300000 -43.6550000
  43.5160000   5.0800000 -42.6470000  43.4394093   4.0174767 -42.8247067
  43.3380000   5.6880000 -41.4880000  43.6310000   7.0180000 -41.7680000
  43.6430000   8.1890000 -40.9650000  43.3200000   8.1970000 -39.6610000
  43.3465910   9.0615088 -39.1394458  43.0505748   7.3385073 -39.2021982
  43.9870000   9.3550000 -41.5600000  44.2880000   9.3440000 -42.8660000
  44.5638142  10.2607590 -43.3658784  44.3060000   8.3140000 -43.7180000
  43.9730000   7.1740000 -43.0970000  44.3870000   4.0760000 -46.7580000
  44.4723800   3.0357433 -47.0721260  44.6370000   4.1760000 -45.2540000
  44.4436918   3.2097879 -44.7879901  45.6730374   4.4640031 -45.0757283
  45.3190000   4.8470000 -47.4880000  46.5190000   4.1640000 -48.3050000
  46.0890000   4.1500000 -49.7360000  46.8970000   2.9000000 -47.6060000
  47.6750000   5.2520000 -48.1120000  47.3220000   6.6280000 -48.2350000
  46.2506720   6.7037382 -48.0489350  47.5427023   6.9927739 -49.2381606
  48.0640000   7.4750000 -47.2230000  48.0488519   8.5106826 -47.5624576
  47.3640000   7.5000000 -45.9390000  48.3460000   7.4080000 -44.9420000
  48.6836166   8.4326538 -44.7864401  47.7670000   7.0250000 -43.6260000
  47.4490000   5.7270000 -43.3640000  47.5920989   4.9705330 -44.1214168
  46.9540000   5.3650000 -42.1650000  46.6954859   4.3209308 -41.9883924
  46.8020000   6.3890000 -41.1710000  46.3270000   6.0840000 -39.9540000
  46.2356989   6.8342967 -39.2840601  46.0736422   5.1322538 -39.7301912
  47.1330000   7.6630000 -41.4190000  47.6300000   8.0080000 -42.6420000
  47.9440000   9.1730000 -42.9260000  49.4770000   6.9820000 -46.9110000
  49.8664853   6.2117375 -47.5766544  49.3330000   6.4110000 -45.5000000
  49.4434043   5.3271112 -45.5330921  50.1033584   6.8346587 -44.8556698
  50.3600000   8.0880000 -46.9280000  51.8920000   7.8900000 -47.3650000
  51.9630000   8.2220000 -48.8090000  52.3590000   6.5650000 -46.8710000
  52.6200000   9.0500000 -46.5660000  52.0290000  10.3360000 -46.5020000
  50.9462711  10.2507861 -46.5943947  52.4137143  10.9618341 -47.3072498
  52.3640000  10.9700000 -45.1800000  52.1396714  12.0366475 -45.1737461
  51.4940000  10.4080000 -44.1550000  52.2770000   9.9570000 -43.0790000
  52.2560934  10.7377856 -42.3187132  51.6380000   8.8260000 -42.4070000
  51.4440000   7.5600000 -42.9120000  51.7799791   7.3175716 -43.9093706
  50.8930000   6.7220000 -42.0540000  50.7400000   7.4890000 -40.9040000
  50.2130000   7.1960000 -39.6290000  49.7340000   6.0020000 -39.2920000
  49.3682834   5.8483965 -38.3631520  49.7359370   5.2488162 -39.9649110
  50.2060000   8.1800000 -38.7140000  50.6910000   9.3840000 -39.0530000
  50.6894800  10.1907806 -38.3350154  51.2140000   9.7830000 -40.2140000
  51.2070000   8.7800000 -41.1050000  53.7890000  10.6740000 -44.7270000
  54.4189400  10.3105616 -45.5389032  53.6050000   9.5700000 -43.6940000
  54.1057783   8.6643511 -44.0362286  54.0354544   9.8855564 -42.7436141
  54.3970000  11.8180000 -44.1630000  55.9990000  11.8640000 -44.0480000
  56.4360000  12.3070000 -45.3910000  56.4870000  10.5580000 -43.5410000
  56.2880000  12.9460000 -42.8860000  55.2030000  13.4730000 -42.1050000
  54.3040138  12.9943003 -42.4932917  55.1180796  14.5533875 -42.2218417
  55.3500000  13.1370000 -40.6160000  54.9142267  13.9670631 -40.0599458
  54.5210000  11.9890000 -40.2680000  55.2480000  11.1450000 -39.4160000
  54.9699710  11.4136479 -38.3968693  54.7620000   9.7750000 -39.5570000
  54.8690000   8.9670000 -40.6670000  55.3313899   9.3368222 -41.5702326
  54.3670000   7.7710000 -40.4940000  53.9060000   7.7860000 -39.1820000
  53.2790000   6.7700000 -38.4320000  52.9890000   5.6200000 -38.7980000
  52.9830000   7.1920000 -37.1320000  52.5402362   6.5400656 -36.5164187
  53.2610000   8.4490000 -36.6330000  52.9010000   8.6890000 -35.3610000
  52.4367411   8.0514390 -34.7300642  53.0983476   9.6125283 -35.0028794
  53.8550000   9.4100000 -37.3310000  54.1480000   9.0100000 -38.5890000
  56.7660000  12.8000000 -40.1410000  57.5397770  12.9887174 -40.8851463
  56.6970000  11.3000000 -39.8460000  57.3927327  10.7690235 -40.4957071
  56.9646956  11.1212969 -38.8046046  57.0720000  13.5520000 -38.9600000
  58.5990000  13.7340000 -38.4660000  58.8320000  15.1970000 -38.3640000
  59.5050000  12.8430000 -39.2350000  58.5940000  13.1090000 -37.0010000
  57.4290000  13.2100000 -36.1950000  56.5541627  13.2384332 -36.8445777
  57.4634184  14.1178954 -35.5928024  57.3300000  12.0100000 -35.2800000
  56.5817836  12.2026021 -34.5111203  56.8170000  10.8770000 -36.0070000
  57.2030000   9.7330000 -35.3050000  56.5395395   9.5282197 -34.4647712
  57.0260000   8.5500000 -36.1890000  57.3480000   8.6320000 -37.5130000
  57.7524797   9.5484869 -37.9165441  57.1700000   7.5870000 -38.3290000
  57.4376717   7.6789094 -39.3816181  56.6190000   6.3950000 -37.7650000
  56.4180000   5.3180000 -38.5300000  56.0266832   4.4967992 -38.0911367
  56.6542390   5.3395842 -39.5117468  56.2750000   6.3110000 -36.4670000
  56.4650000   7.3750000 -35.6540000  56.1680000   7.3480000 -34.4460000
  58.6650000  11.5400000 -34.7000000  59.5223970  11.9452079 -35.2373785
  58.6370000  10.0000000 -34.8590000  59.6290474   9.6449294 -35.1380449
  58.3398741   9.5421457 -33.9155034  58.7640000  11.9430000 -33.3340000
  60.1510000  11.7970000 -32.5320000  60.0690000  12.6790000 -31.3370000
  61.2650000  11.9410000 -33.5000000  60.1620000  10.2660000 -32.0810000
  59.9810000   9.9490000 -30.7490000  59.2732707  10.6224541 -30.2655967
  60.9450950  10.0127836 -30.2444674  59.4700000   8.5510000 -30.6550000
  58.5517215   8.5097585 -30.0691988  59.0830000   8.1190000 -31.9560000
  58.9400000   6.7200000 -31.8920000  57.9298110   6.4359311 -31.5971741
  59.0660000   6.1880000 -33.2590000  59.5480000   6.9940000 -34.2370000
  59.8539262   8.0008071 -33.9937953  59.6540000   6.5740000 -35.4940000
  60.0187719   7.2602464 -36.2582693  59.2560000   5.2440000 -35.7750000
  59.3460000   4.7690000 -37.0180000  59.0525943   3.8160324 -37.1788303
  59.6974615   5.3541490 -37.7624306  58.7610000   4.4390000 -34.8230000
  58.6510000   4.8870000 -33.5450000  58.1970000   4.1830000 -32.6270000
  60.4960000   7.5210000 -30.2370000  61.5092618   7.7564266 -30.5625357
  60.0200000   6.2310000 -30.9320000  60.8463976   5.5225954 -30.9896982
  59.2032716   5.7899491 -30.3605729  60.4930000   7.3790000 -28.8360000
  61.8210000   6.8770000 -28.1130000  61.6540000   6.9130000 -26.6450000
  62.8870000   7.7020000 -28.7250000  61.9280000   5.3550000 -28.5940000
  61.0950000   4.4200000 -28.0080000  60.0843060   4.8177242 -27.9162766
  61.4954779   4.2144213 -27.0152989  61.0530000   3.1330000 -28.8040000
  60.2297425   2.5187443 -28.4392586  60.7280000   3.3940000 -30.1600000
  60.9400000   2.2010000 -30.8710000  60.0362953   1.6030775 -30.9889224
  61.2870000   2.5800000 -32.2460000  61.6870000   3.8630000 -32.5010000
  61.7734774   4.5666996 -31.6863047  61.9750000   4.2690000 -33.7410000
  62.2878962   5.2996392 -33.9082697  61.8390000   3.3150000 -34.7940000
  62.1140000   3.6710000 -36.0540000  62.0069202   2.9706034 -36.7737772
  62.4172305   4.6115366 -36.2626710  61.4240000   2.0530000 -34.5640000
  61.1310000   1.6580000 -33.2870000  60.7390000   0.5090000 -33.0190000
  62.3450000   2.3990000 -28.9430000  63.2123778   3.0094923 -29.1941048
  62.0280000   1.4490000 -30.1160000  62.9295423   0.9047611 -30.3972911
  61.2566513   0.7411118 -29.8126590  62.6220000   1.6940000 -27.7710000
  64.1250000   1.2310000 -27.5070000  64.2110000   0.8260000 -26.0800000
  64.9320000   2.3530000 -28.0600000  64.2870000  -0.0810000 -28.4190000
  63.7010000  -1.3090000 -27.9880000  62.6510495  -1.1382630 -27.7501914
  64.2211785  -1.6649973 -27.0987414  63.8010000  -2.3590000 -29.0780000
  63.1519886  -3.2038200 -28.8474299  63.2640000  -1.8140000 -30.2900000
  63.8800000  -2.3880000 -31.4150000  63.2520486  -3.0704704 -31.9877219
  64.1330000  -1.2820000 -32.3740000  64.4540000  -0.0340000 -31.8770000
  64.5757740   0.0629385 -30.8082745  64.6750000   1.0390000 -32.6510000
  65.0290000   2.3710000 -32.0600000  65.9534652   2.2818006 -31.4894678
  65.1649188   3.0992617 -32.8595380  64.2262894   2.7014879 -31.4008090
  64.5680000   0.8790000 -34.0930000  64.7620000   1.8070000 -34.8820000
  64.2240000  -0.4010000 -34.5210000  64.1381019  -0.5439482 -35.5981667
  63.9920000  -1.5040000 -33.7280000  63.6960000  -2.5890000 -34.2000000
  65.2150000  -2.7850000 -29.4290000  65.9603205  -2.0069415 -29.2640116
  65.1400000  -3.1140000 -30.9330000  66.1475774  -3.2461965 -31.3272221
  64.5708173  -4.0324273 -31.0766056  65.5800000  -3.9440000 -28.6440000
  66.9570000  -3.9640000 -27.8100000  66.7320000  -4.8420000 -26.6260000
  67.3620000  -2.5440000 -27.6110000  68.0190000  -4.5910000 -28.8460000
  67.9260000  -5.9590000 -29.2360000  66.9040318  -6.3119501 -29.0977707
  68.5984547  -6.5375698 -28.6026263  68.3270000  -6.1450000 -30.6930000
  68.0197664  -7.1336426 -31.0340171  67.5780000  -5.2330000 -31.5120000
  68.2910000  -4.9980000 -32.7130000  67.7813058  -5.4147191 -33.5817096
  68.2900000  -3.5430000 -32.9920000  68.4830000  -2.6510000 -31.9600000
  68.6785056  -3.0461905 -30.9740982  68.4940000  -1.3240000 -32.1350000
  68.7110000  -0.3820000 -30.9920000  69.6823016  -0.5783966 -30.5380165
  68.6817368   0.6449204 -31.3562499  67.9271929  -0.5256414 -30.2482843
  68.2930000  -0.8090000 -33.4740000  68.2900000   0.3890000 -33.7230000
  68.1020000  -1.7650000 -34.4570000  67.9390573  -1.3975640 -35.4701837
  68.0910000  -3.1180000 -34.2850000  67.9110000  -3.8820000 -35.2150000
  69.7680000  -5.8140000 -31.0280000  70.1574055  -4.9202509 -30.5404811
  69.6930000  -5.5800000 -32.5350000  70.6879380  -5.3528856 -32.9179056
  69.3120265  -6.4766156 -33.0239170  70.6200000  -6.9130000 -30.7200000
  71.9900000  -6.6610000 -29.9190000  72.0470000  -7.7290000 -28.8910000
  72.0590000  -5.2260000 -29.5310000  73.1500000  -6.8740000 -31.0090000
  72.8370000  -7.1530000 -32.3700000  71.7908059  -6.8828884 -32.5135883
  72.9739261  -8.2094486 -32.6007989  73.7020000  -6.3200000 -33.3060000
  73.8331829  -6.8837190 -34.2296402  72.9830000  -5.1290000 -33.7070000
  73.8930000  -4.0610000 -33.8030000  74.3432792  -3.9650341 -34.7909972
  73.1530000  -2.8100000 -33.6560000  72.4790000  -2.3940000 -32.5460000
  72.5015421  -2.9866494 -31.6434148  71.8960000  -1.2290000 -32.6880000
  72.2090000  -0.8540000 -33.9830000  71.8830000   0.2880000 -34.7380000
  71.1420000   1.2910000 -34.2580000  70.9354949   2.0899234 -34.8403902
  70.7884098   1.2502077 -33.3127970  72.3470000   0.3600000 -36.0020000
  73.0860000  -0.6460000 -36.4710000  73.4684641  -0.6176370 -37.4806117
  73.4610000  -1.7700000 -35.8520000  72.9810000  -1.8120000 -34.5980000
  75.0430000  -5.8350000 -32.7220000  75.2371823  -6.2037116 -31.7148040
  74.8950000  -4.3060000 -32.6880000  75.0499705  -3.9479922 -31.6702015
  75.6352086  -3.8540300 -33.3482383  76.1270000  -6.2450000 -33.5770000
  77.6610000  -5.9180000 -33.2090000  78.2030000  -7.1350000 -32.5620000
  77.7530000  -4.6120000 -32.5160000  78.3550000  -5.7440000 -34.6410000
  77.6050000  -5.2330000 -35.7350000  76.5564803  -5.2596998 -35.4383627
  77.7454896  -5.8440840 -36.6265939  78.0000000  -3.7990000 -36.0450000
  78.0236301  -3.6888275 -37.1291600  76.9580000  -2.8890000 -35.6100000
  77.5760000  -1.6600000 -35.3490000  77.6882974  -1.1075013 -36.2818632
  76.6950000  -0.7950000 -34.5570000  76.3720000  -0.9440000 -33.2370000
  76.7963082  -1.7557353 -32.6647675  75.5870000   0.0000000 -32.7720000
  75.3900000   0.8370000 -33.8570000  74.6510000   2.0250000 -34.0120000
  73.9520000   2.5830000 -33.0210000  73.4379226   3.4369344 -33.1841620
  73.9372176   2.1512452 -32.1080553  74.6570000   2.6180000 -35.2250000
  75.3590000   2.0530000 -36.2170000  75.3803108   2.5049712 -37.1976462
  76.0950000   0.9350000 -36.1920000  76.0690000   0.3700000 -34.9690000
  79.2980000  -3.3020000 -35.3740000  79.7085246  -4.0197150 -34.6637511
  78.8630000  -2.0310000 -34.6250000  79.2120912  -2.0790620 -33.5935328
  79.2925341  -1.1561024 -35.1130111  80.3090000  -3.0120000 -36.3760000
  81.7590000  -2.4330000 -35.9620000  82.7410000  -3.1020000 -36.8460000
  81.9060000  -2.5540000 -34.4940000  81.6860000  -0.8560000 -36.3070000
  81.9290000  -0.3860000 -37.6460000  81.5832630  -1.1330585 -38.3604716
  83.0018972  -0.2369311 -37.7675347  81.2070000   0.9310000 -37.9090000
  80.9035619   0.9823602 -38.9546514  79.9690000   0.9440000 -37.1730000
  79.5710000   2.2830000 -36.9480000  78.6949593   2.4912150 -37.5622462
  79.0620000   2.4210000 -35.5480000  79.3870000   1.4820000 -34.6110000
  80.0100882   0.6416765 -34.8793606  78.9420000   1.5850000 -33.3500000
  79.2130391   0.8157780 -32.6268571  78.1260000   2.7150000 -33.0210000
  77.6560000   2.8710000 -31.7760000  77.0845305   3.6823113 -31.5881244
  77.8742065   2.1921988 -31.0606565  77.8090000   3.6410000 -33.9290000
  78.2620000   3.5260000 -35.2070000  77.9850000   4.3660000 -36.0760000
  81.9270000   2.1830000 -37.4320000  82.4584503   2.0552728 -36.4889490
  80.7760000   3.1740000 -37.2390000  81.1645806   4.1087319 -36.8347964
  80.2959455   3.3654729 -38.1986802  82.8480000   2.6600000 -38.4280000
  83.9740000   3.7490000 -38.0380000  85.2580000   3.1690000 -38.4810000
  83.8260000   4.1270000 -36.6140000  83.6290000   5.0500000 -38.9290000
  82.2840000   5.3290000 -39.3400000  81.6852198   4.4871121 -38.9924558
  82.2086656   5.4045135 -40.4247687  81.7550000   6.6160000 -38.7090000
  81.0788937   7.0674924 -39.4350401  80.9070000   6.3210000 -37.5520000
  81.2540000   7.2220000 -36.5210000  80.6774257   8.1453697 -36.5762246
  80.8640000   6.6670000 -35.2230000  81.2870000   5.4930000 -34.6700000
  82.0179775   4.8867195 -35.1842932  80.7760000   5.2470000 -33.4850000
  79.9610000   6.3350000 -33.2390000  79.1340000   6.6710000 -32.1450000
  78.9970000   5.9030000 -31.0520000  78.3893846   6.1974142 -30.3008508
  79.5015715   5.0309479 -30.9810672  78.4510000   7.8330000 -32.2180000
  78.5840000   8.5970000 -33.3160000  78.0405152   9.5266670 -33.3981130
  79.3310000   8.3850000 -34.4050000  80.0020000   7.2260000 -34.3010000
  82.8190000   7.6030000 -38.2060000  83.8371195   7.4196952 -38.5494105
  82.7520000   7.4200000 -36.6930000  83.6611531   6.9295083 -36.3452103
  82.6586189   8.3939020 -36.2124846  82.4380000   8.9200000 -38.5630000
  83.5270000   9.9550000 -39.1150000  83.4910000   9.8780000 -40.5950000
  84.7780000   9.7090000 -38.3530000  82.9690000  11.3830000 -38.6780000
  81.6980000  11.7940000 -39.0840000  81.0650776  10.9145487 -39.2026365
  81.7489970  12.3344813 -40.0291878  81.1050000  12.6920000 -38.0320000
  80.1689284  13.1256031 -38.3839341  80.7240000  11.8840000 -36.8880000
  81.3070000  12.4030000 -35.7120000  80.6330031  13.0217662 -35.1195848
  81.6120000  11.2810000 -34.8040000  82.4430000  10.2260000 -35.0480000
  83.0049331  10.1839931 -35.9693404  82.5160000   9.3640000 -34.0590000
  81.6780000   9.8890000 -33.0920000  81.3110000   9.4460000 -31.7990000
  81.7820000   8.3270000 -31.2370000  81.4821580   8.0628994 -30.3093972
  82.4374186   7.7463193 -31.7403241  80.4320000  10.2020000 -31.1000000
  79.9550000  11.3200000 -31.6600000  79.2465711  11.9370281 -31.1272675
  80.2300000  11.8400000 -32.8600000  81.1000000  11.0640000 -33.5370000
  82.0680000  13.7490000 -37.5080000  82.9323350  13.8996182 -38.1547905
  82.5290000  13.1870000 -36.1650000  83.6080546  13.0343004 -36.1855723
  82.2770874  13.8897075 -35.3707441  81.4060000  14.9750000 -37.3550000
  82.2710000  16.2940000 -37.0660000  81.9380000  17.3640000 -38.0360000
  83.6660000  15.8320000 -36.9230000  81.7790000  16.7630000 -35.6370000
  80.4660000  17.1690000 -35.4590000  79.8118816  16.4457106 -35.9459102
  80.2960277  18.1572017 -35.8863961  80.1550000  17.2060000 -33.9930000
  79.0903171  17.3874446 -33.8459375  80.3770000  15.8920000 -33.4420000
  81.1230000  15.9910000 -32.2530000  80.5670067  16.0542306 -31.3176003
  81.8780000  14.7390000 -32.1050000  82.6240000  14.0980000 -33.0560000
  82.7709983  14.5539242 -34.0239495  83.1550000  12.9690000 -32.6460000
  82.7120000  12.8530000 -31.3420000  82.9110000  11.8700000 -30.3530000
  83.6510000  10.7740000 -30.5380000  83.7568538  10.1039055 -29.7897556
  84.1048679  10.6150988 -31.4261740  82.3140000  12.0580000 -29.1560000
  81.5630000  13.1520000 -28.9780000  81.0634459  13.3166192 -28.0347369
  81.3090000  14.1420000 -29.8260000  81.9100000  13.9260000 -31.0020000
  81.0200000  18.1660000 -33.1820000  81.6071113  18.8610822 -33.7822164
  81.9630000  17.2430000 -32.4000000  82.9955105  17.4641309 -32.6704115
  81.8255681  17.4038647 -31.3307315  80.1980000  18.9000000 -32.3300000
  80.7230000  20.2420000 -31.6220000  79.6200000  21.2280000 -31.6720000
  82.0450000  20.5940000 -32.1920000  80.8860000  19.7970000 -30.0950000
  80.1190000  18.7110000 -29.6290000  80.3178746  17.8677238 -30.2903880
  79.0581862  18.9588032 -29.6659907  80.4900000  18.3330000 -28.2200000
  79.5717903  18.1589913 -27.6590087  81.1560000  17.0520000 -28.2300000
  82.4420000  17.1790000 -27.6560000  82.5704236  16.9227290 -26.6043671
  83.3100000  16.2170000 -28.3380000  83.7130000  16.2270000 -29.6480000
  83.4653916  17.0641897 -30.2837712  84.4490000  15.1840000 -29.9890000
  84.5100000  14.4250000 -28.8280000  85.1400000  13.1890000 -28.5150000
  85.8580000  12.4770000 -29.3880000  86.2804638  11.6052185 -29.1023034
  85.9783812  12.8104708 -30.3337295  84.9940000  12.7170000 -27.2570000
  84.2720000  13.4320000 -26.3780000  84.1429061  13.0698377 -25.3687566
  83.6410000  14.5970000 -26.5490000  83.8030000  15.0460000 -27.8060000
  81.4370000  19.2730000 -27.5070000  81.4461304  20.3205159 -27.8082074
  82.7970000  18.6400000 -27.8190000  83.3065565  19.2296805 -28.5810553
  83.4032976  18.6156121 -26.9135119  81.1600000  19.1940000 -26.1470000
  81.1250000  20.5110000 -25.2350000  79.7540000  20.6530000 -24.6970000
  81.7180000  21.6210000 -26.0190000  82.0880000  20.1230000 -24.0120000
  81.8810000  18.8790000 -23.3170000  81.5549538  18.1898471 -24.0960136
  81.1005378  18.9678566 -22.5612991  83.1600000  18.3320000 -22.6610000
  82.8116770  17.6622256 -21.8747604  83.8820000  17.4720000 -23.5770000
  85.2580000  17.7880000 -23.5080000  85.8425732  17.2613314 -22.7536833
  85.8870000  17.3590000 -24.7760000  85.9430000  18.0450000 -25.9630000
  85.5658380  19.0553118 -26.0214856  86.5380000  17.3790000 -26.9400000
  86.8850000  16.1630000 -26.3610000  87.5470000  15.0000000 -26.8670000
  87.9890000  14.8830000 -28.1260000  88.4494874  14.0344776 -28.4227530
  87.8617981  15.6432981 -28.7785836  87.7300000  13.9600000 -26.0180000
  87.2820000  14.0740000 -24.7560000  87.4122602  13.2555904 -24.0634417
  86.6560000  15.1030000 -24.1660000  86.4850000  16.1280000 -25.0300000
  84.1800000  19.3500000 -22.1490000  83.8360358  20.3797769 -22.0523201
  85.2860000  19.2780000 -23.2080000  85.2875847  20.1961476 -23.7954536
  86.2521801  19.1594013 -22.7175608  84.6340000  18.9080000 -20.8820000
  85.2320000  19.9540000 -19.8120000  84.4780000  19.7890000 -18.5450000
  85.3220000  21.2700000 -20.4860000  86.7280000  19.4260000 -19.5390000
  86.9430000  18.3460000 -18.6330000  85.9886595  17.8502666 -18.4552850
  87.3161529  18.7610317 -17.6967275  87.9500000  17.3230000 -19.1670000
  87.7129078  16.3597398 -18.7153181  87.8060000  17.1040000 -20.5760000
  88.9300000  16.3520000 -20.9750000  88.6510787  15.2995568 -20.9233725
  89.2130000  16.5700000 -22.4180000  88.9750000  17.7890000 -22.9960000
  88.5662858  18.5963028 -22.4064113  89.2440000  18.0030000 -24.3010000
  89.0348526  18.9817797 -24.7326804  89.7950000  16.9130000 -25.0580000
  90.0770000  17.0610000 -26.3680000  90.4629695  16.2665274 -26.8578382
  89.9027919  17.9421366 -26.8298996  90.0420000  15.7220000 -24.4930000
  89.7570000  15.5180000 -23.1690000  89.9780000  14.4270000 -22.6110000
  89.4000000  17.7080000 -19.0500000  89.6205947  18.7478975 -19.2909357
  90.0770000  16.7920000 -20.0740000  91.0988889  17.1303716 -20.2453099
  90.0919296  15.7703283 -19.6944422  89.8570000  17.4340000 -17.7650000
  91.2230000  18.1000000 -17.2990000  91.2950000  18.0730000 -15.8190000
  91.3200000  19.3560000 -18.0890000  92.3130000  17.0930000 -17.8640000
  92.2190000  15.6980000 -17.5800000  91.2596060  15.3113601 -17.9237628
  92.3152671  15.5284696 -16.5075763  93.3340000  14.9730000 -18.3000000
  93.3848669  13.9202877 -18.0219556  93.0430000  14.9600000 -19.7070000
  94.2200000  15.1080000 -20.4590000  94.5335789  14.1539402 -20.8827186
  93.8850000  15.9290000 -21.6520000  93.2530000  17.1320000 -21.4970000
  93.0114406  17.4991631 -20.5104707  92.9240000  17.8730000 -22.5650000
  92.4171467  18.8260537 -22.4137096  93.2570000  17.3610000 -23.8610000
  92.9550000  18.0550000 -24.9530000  93.2075255  17.6576915 -25.8465756
  92.4888537  18.9476981 -24.8761946  93.8660000  16.1900000 -24.0200000
  94.1990000  15.4430000 -22.9290000  94.7800000  14.3480000 -23.0220000
  94.6710000  15.6720000 -18.1550000  94.5310032  16.6847092 -17.7769528
  95.2750000  15.7310000 -19.5620000  95.9637803  16.5732726 -19.6272524
  95.8133482  14.8054293 -19.7659613  95.4970000  14.9730000 -17.2550000
  96.6660000  15.7790000 -16.5110000  96.8680000  15.1590000 -15.1830000
  96.3910000  17.2280000 -16.6250000  97.9340000  15.5300000 -17.4520000
  98.1020000  14.2880000 -18.1490000  97.1367459  14.0025106 -18.5671870
  98.4429352  13.5137440 -17.4616926  99.1100000  14.4350000 -19.2750000
  99.4041196  13.4403977 -19.6102002  98.4840000  15.0420000 -20.4400000
  99.1340000  16.2710000 -20.7180000  99.7963195  16.1248258 -21.5712674
  98.1430000  17.2540000 -21.2090000  97.6020000  18.1610000 -20.3420000
  97.8976292  18.1645681 -19.3032553  96.6990000  19.0580000 -20.7640000
  96.2860318  19.7718474 -20.0512733  96.3380000  19.0380000 -22.1470000
  95.4580000  19.9170000 -22.6260000  95.2319723  19.8668848 -23.6091076
  95.0399688  20.6036670 -22.0145756  96.8710000  18.1660000 -22.9990000
  97.7780000  17.2540000 -22.5640000  98.2760000  16.4100000 -23.3230000
 100.3080000  15.3310000 -18.9590000 100.6309636  15.3985225 -17.9201381
  99.8050000  16.6850000 -19.4210000  99.5251697  17.2842066 -18.5545442
 100.5919485  17.1954054 -19.9762464 101.3890000  14.9260000 -19.7610000
 102.8320000  14.6250000 -19.1380000 102.6920000  13.5540000 -18.1110000
 103.3980000  15.9620000 -18.7980000 103.6220000  14.0380000 -20.3980000
 103.2600000  12.7880000 -20.9430000 102.2696604  12.5195686 -20.5752065
 103.9803195  12.0319882 -20.6304515 103.2290000  12.8510000 -22.4590000
 102.7408089  11.9514386 -22.8339108 102.3680000  13.9310000 -22.8780000
 103.1160000  14.9010000 -23.5820000 102.9783484  14.8487741 -24.6620110
 102.5790000  16.2080000 -23.2290000 102.6020000  16.8050000 -21.9880000
 103.0744491  16.3147686 -21.1496283 102.0120000  17.9670000 -21.9630000
 101.5440000  18.1440000 -23.2700000 100.8070000  19.2240000 -23.8460000
 100.4090000  20.2670000 -23.2950000 100.5390000  19.0050000 -25.1950000
 100.0270344  19.7068932 -25.6902129 100.9240000  17.8800000 -25.9020000
 100.5700000  17.8460000 -27.1960000 100.0455418  18.5458092 -27.7012831
 100.8402440  17.0235157 -27.7161813 101.6040000  16.8540000 -25.3730000
 101.8800000  17.0620000 -24.0580000 104.5500000  13.1400000 -23.1460000
 105.4515948  12.7839488 -22.6475493 104.5520000  14.6630000 -23.1720000
 105.2300631  15.0390910 -22.4059157 104.8825955  15.0097547 -24.1510649
 104.5120000  12.6130000 -24.4710000 105.3113126  12.7500543 -24.9847258
   5.3843016   4.6290086 -12.4852613   4.6590000   4.9960000 -12.9960000
   4.8580000   6.1530000 -13.6900000   5.6564731   5.9838917 -14.4124566
   5.1497116   6.9507627 -13.0069335   3.6180000   6.5570000 -14.4150000
   3.5312767   6.0297737 -15.3650589   2.4490000   6.1370000 -13.6570000
   1.6470000   7.2570000 -13.3640000   0.8034621   7.2602022 -14.0543147
   1.0050000   7.0630000 -12.0200000   1.6200000   6.2970000 -11.0850000
   2.5627506   5.8233998 -11.3159182   1.0830000   6.1140000  -9.8780000
   1.6031483   5.4871682  -9.1536876  -0.1490000   6.7530000  -9.6030000
  -0.7330000   6.6030000  -8.4150000  -1.6116246   7.0765888  -8.2606210
  -0.2998708   6.0321505  -7.7032213  -0.7610000   7.5140000 -10.5030000
  -0.2110000   7.6900000 -11.7270000  -0.7560000   8.3900000 -12.5840000
   3.5040000   8.0460000 -14.5800000   4.4517942   8.5780241 -14.4979276
   2.5930000   8.4480000 -13.4230000   3.1536211   9.0556259 -12.7126517
   1.7501343   9.0230432 -13.8064085   2.9620000   8.3340000 -15.8330000
   3.7650000   9.3370000 -16.7780000   3.9500000  10.5580000 -15.9620000
   3.1600000   9.4440000 -18.1230000   5.1330000   8.5620000 -16.9870000
   5.1970000   7.5120000 -17.9510000   4.5534647   7.8041539 -18.7808243
   4.8298152   6.5819332 -17.5171201   6.6240000   7.2970000 -18.4710000
   6.6535970   6.3066259 -18.9252934   6.9230000   8.2090000 -19.5650000
   7.9030000   9.1470000 -19.1560000   8.8953789   9.0268852 -19.5905753
   7.4840000  10.4410000 -19.6530000   6.6450000  11.3390000 -19.0600000
   6.2613780  11.1590007 -18.0666038   6.4330000  12.4190000 -19.7900000
   7.1860000  12.1930000 -20.9350000   7.3940000  12.9440000 -22.1100000
   6.8440000  14.1320000 -22.3320000   7.0315086  14.6219703 -23.1950591
   6.2381386  14.5456714 -21.6378050   8.1860000  12.4100000 -23.0600000
   8.7450000  11.2230000 -22.8300000   9.4044775  10.7851839 -23.5647145
   8.6210000  10.4310000 -21.7780000   7.8220000  10.9760000 -20.8620000
   7.7400000   7.5220000 -17.4740000   7.5443558   7.3054561 -16.4237948
   8.0110000   9.0230000 -17.6450000   7.5905824   9.5672916 -16.7993671
   9.0862931   9.1958586 -17.6893261   8.8440000   6.7390000 -17.8980000
  10.0670000   6.3810000 -16.9230000  10.4800000   5.0530000 -17.4380000
   9.7360000   6.6270000 -15.4970000  11.1650000   7.4850000 -17.2900000
  11.5420000   7.6640000 -18.6490000  10.6351052   7.7732959 -19.2437236
  12.1096196   6.8052529 -19.0074161  12.3790000   8.9040000 -18.7920000
  13.1277295   8.7401812 -19.5670270  11.5650000  10.0040000 -19.2970000
  11.9520000  11.1410000 -18.5630000  12.8571037  11.5359861 -19.0243811
  10.9860000  12.2100000 -18.7330000  10.0420000  12.4230000 -17.7940000
   9.9976754  11.7880020 -16.9215249   9.1550000  13.4090000 -17.9210000
   8.4134232  13.5597572 -17.1365025   9.2320000  14.2180000 -19.0740000
   8.3690000  15.2190000 -19.2500000   8.4585737  15.7740605 -20.0890381
   7.6556721  15.4036084 -18.5592146  10.1510000  14.0190000 -19.9970000
  11.0610000  13.0200000 -19.8510000  11.9380000  12.8080000 -20.6930000
  12.9950000   9.4200000 -17.4720000  12.9952086   8.7292465 -16.6288165
  12.0860000  10.6040000 -17.1590000  11.4284611  10.3482292 -16.3281431
  12.6935350  11.4675641 -16.8883371  14.3400000   9.8970000 -17.7120000
  15.6480000   9.0500000 -17.3200000  15.6440000   7.6930000 -17.9180000
  15.8550000   9.1550000 -15.8640000  16.7910000   9.9290000 -17.9790000
  17.0130000   9.8830000 -19.3610000  16.1055693   9.5328762 -19.8530193
  17.8345735   9.2040327 -19.5893003  17.3520000  11.2580000 -19.8690000
  17.5908174  11.2019133 -20.9310357  16.1580000  12.0680000 -19.8090000
  16.4840000  13.2810000 -19.1680000  16.8092415  14.0771653 -19.8376551
  15.2790000  13.8210000 -18.5820000  14.6740000  13.4270000 -17.4300000
  15.1270450  12.6716391 -16.8050346  13.5810000  14.0860000 -17.1650000
  13.4650000  14.9700000 -18.2210000  12.5100000  15.9570000 -18.5330000
  11.4580000  16.2270000 -17.7580000  10.8024439  16.9459873 -18.0289333
  11.3172129  15.7123975 -16.9004091  12.6880000  16.6590000 -19.6680000
  13.7420000  16.3830000 -20.4180000  13.9035505  16.9309703 -21.3345310
  14.7070000  15.4840000 -20.2270000  14.5020000  14.8090000 -19.1000000
  18.4150000  12.0370000 -19.0610000  19.0808930  11.4306966 -18.4469303
  17.5600000  12.9090000 -18.1680000  17.6136905  12.5429353 -17.1427131
  17.9236194  13.9358529 -18.2061343  19.2000000  12.8570000 -19.9500000
  20.6140000  13.4800000 -19.4860000  21.2480000  13.9740000 -20.7150000
  21.3520000  12.5210000 -18.6210000  20.2050000  14.7370000 -18.6080000
  20.4250000  16.0320000 -19.0780000  21.3094588  15.9921017 -19.7137994
  20.6059685  16.7137979 -18.2470351  19.2490000  16.5380000 -19.8910000
  19.1567214  15.9096864 -20.7768927  17.9710000  16.3690000 -19.1850000
  17.2340000  17.5690000 -19.3290000  16.6554552  17.5606134 -20.2527504
  16.2110000  17.6700000 -18.2790000  16.1240000  16.9360000 -17.1250000
  16.8681498  16.1870876 -16.8974623  15.0900000  17.2400000 -16.3870000
  14.4370000  18.2250000 -17.1100000  13.2330000  18.9280000 -16.8260000
  12.4790000  18.8130000 -15.8410000  12.9200000  19.8420000 -17.8300000
  12.0895977  20.3890331 -17.7242392  13.6690000  20.0430000 -18.9630000
  13.2150000  20.9520000 -19.8170000  12.3728736  21.5024713 -19.7280913
  13.7597918  21.0952282 -20.6553248  14.7840000  19.3910000 -19.2410000
  15.1080000  18.4960000 -18.2770000  19.3270000  18.0230000 -20.2300000
  20.2936967  18.4973877 -20.0610251  18.2820000  18.6590000 -19.3180000
  18.7800971  19.2642521 -18.5605910  17.6192862  19.2909058 -19.9092746
  18.9790000  18.1760000 -21.5230000  19.7750000  19.2320000 -22.3860000
  19.3310000  19.1430000 -23.8030000  21.1830000  18.9640000 -21.9960000
  19.3390000  20.6290000 -21.7470000  19.1560000  21.7560000 -22.5740000
  18.5354596  21.4949974 -23.4312673  20.1397752  22.0720193 -22.9210141
  18.4970000  22.9100000 -21.8070000  18.1202192  23.6309620 -22.5324994
  17.3230000  22.4840000 -21.0760000  17.0180000  23.4930000 -20.1280000
  16.1314985  24.0597527 -20.4126149  16.6080000  22.8480000 -18.8570000
  17.4690000  21.9860000 -18.2110000  18.4516305  21.8342634 -18.6326794
  17.1620000  21.3770000 -17.0540000  18.1140000  20.4560000 -16.3740000
  19.0302835  20.9941387 -16.1312432  17.6619325  20.0773186 -15.4573020
  18.3477015  19.6213531 -17.0349445  15.8630000  21.6430000 -16.4580000
  15.4980000  21.1240000 -15.3960000  15.0560000  22.5130000 -17.1670000
  14.0761576  22.7257992 -16.7395353  15.3630000  23.1370000 -18.3480000
  14.5900000  23.8930000 -18.9000000  19.3200000  23.5150000 -20.7130000
  19.7501426  22.7958652 -20.0159195  18.2670000  24.3630000 -19.9880000
  18.7470500  24.9442830 -19.2007509  17.7913207  25.0384711 -20.6990332
  20.3930000  24.2880000 -21.2570000  21.6710000  24.5660000 -20.3440000
  22.7610000  24.9200000 -21.2890000  21.8130000  23.4660000 -19.3550000
  21.2320000  25.8670000 -19.5560000  20.9190000  26.9970000 -20.2850000
  20.0146154  26.7845772 -20.8551448  21.7292722  27.2471125 -20.9698382
  20.6650000  28.1650000 -19.3720000  20.2229425  28.9665187 -19.9638212
  19.6460000  27.8140000 -18.4240000  20.1890000  27.7190000 -17.1240000
  19.7451987  28.4792707 -16.4812495  19.7290000  26.4570000 -16.5370000
  20.2380000  25.1890000 -16.7680000  21.0611129  25.0348351 -17.4499973
  19.6200000  24.2610000 -16.0890000  18.6390000  24.9620000 -15.3730000
  17.6590000  24.4960000 -14.4720000  17.4520000  23.3280000 -14.1130000
  16.8760000  25.5300000 -13.9670000  16.1653741  25.2995712 -13.3022354
  17.0110000  26.8430000 -14.3120000  16.1610000  27.7110000 -13.7400000
  15.4208288  27.4963098 -13.0871945  16.2596216  28.6804666 -14.0055356
  17.9190000  27.2870000 -15.1580000  18.6950000  26.2990000 -15.6430000
  21.8420000  28.6360000 -18.5350000  22.8330986  28.4810140 -18.9613821
  21.7050000  27.8190000 -17.2630000  22.5302303  27.1101281 -17.1952150
  21.7259563  28.4838539 -16.3995011  21.6700000  29.9990000 -18.2830000
  22.7230000  30.8160000 -17.3980000  22.9630000  32.0760000 -18.1520000
  23.8620000  29.9580000 -16.9660000  21.8480000  31.1880000 -16.1460000
  20.8480000  32.1310000 -16.3310000  20.1760568  31.7660626 -17.1077966
  21.2752666  33.0850667 -16.6397079  20.0790000  32.3240000 -15.0690000
  19.1484461  32.8492683 -15.2840862  19.6660000  31.0470000 -14.5930000
  19.9900000  30.8910000 -13.2490000  19.2372455  31.0758247 -12.4826451
  20.2610000  29.4910000 -13.1040000  21.2050000  28.7740000 -13.7690000
  21.9020975  29.2701470 -14.4280104  21.2000000  27.4960000 -13.4730000
  20.1440000  27.3630000 -12.5830000  19.6040000  26.2470000 -11.8950000
  20.0830000  25.0020000 -12.0130000  19.6563642  24.2457573 -11.4970735
  20.8708944  24.8192673 -12.6179215  18.5510000  26.4640000 -11.0810000
  18.0830000  27.7110000 -10.9620000  17.2408826  27.9087187 -10.3153589
  18.5070000  28.8340000 -11.5460000  19.5470000  28.5850000 -12.3570000
  20.8530000  32.9650000 -13.9330000  21.7783854  33.4657190 -14.2176773
  21.1730000  31.7920000 -13.0000000  22.2531016  31.6574096 -12.9419894
  20.7794117  32.0005298 -12.0051614  20.0190000  33.8960000 -13.3290000
  20.5830000  34.8490000 -12.1860000  19.9360000  36.1720000 -12.3990000
  22.0660000  34.6830000 -12.1910000  20.0560000  34.1560000 -10.8460000
  18.6990000  34.1010000 -10.5700000  18.1642410  33.6557506 -11.4089791
  18.3174602  35.1058174 -10.3886990  18.4800000  33.2580000  -9.3390000
  17.4140323  33.1707253  -9.1287732  18.9070000  31.9130000  -9.5950000
  19.1960000  31.3130000  -8.3660000  18.3509401  30.9233353  -7.7984312
  19.9840000  30.0990000  -8.6650000  21.0310000  30.1800000  -9.5570000
  21.2779556  31.1546315  -9.9513432  21.7790000  29.1220000  -9.9290000
  22.9170000  29.2530000 -10.8860000  23.6573159  29.9416969 -10.4789024
  23.3762695  28.2767107 -11.0410186  22.5496057  29.6363913 -11.8379097
  21.4450000  27.8320000  -9.3870000  22.0720000  26.8180000  -9.6790000
  20.3690000  27.8240000  -8.5140000  20.1132127  26.8564631  -8.0820904
  19.6030000  28.9000000  -8.1230000  18.6740000  28.7910000  -7.3460000
  19.2870000  33.6900000  -8.1300000  20.0770786  34.3975950  -8.3813639
  19.9170000  32.3860000  -7.5830000  20.9453075  32.5790591  -7.2773677
  19.3429215  32.0366936  -6.7247931  18.4370000  34.2900000  -7.1960000
  19.0540000  35.2730000  -6.0910000  18.2890000  36.5500000  -6.1330000
  20.5240000  35.3280000  -6.3080000  18.7930000  34.4530000  -4.7450000
  17.9810000  33.2900000  -4.7990000  18.1164244  32.8345013  -5.7799593
  16.9320878  33.5533978  -4.6629652  18.3870000  32.3010000  -3.7320000
  17.4892105  31.8694248  -3.2894888  19.0760000  31.1680000  -4.3390000
  20.3540000  31.0420000  -3.7300000  20.2742520  30.2740589  -2.9605807
  21.3060000  30.4800000  -4.6810000  22.1630000  31.1630000  -5.5140000
  22.1814704  32.2428066  -5.5228607  22.9000000  30.3800000  -6.2450000
  22.5160000  29.0980000  -5.8600000  22.9790000  27.8240000  -6.3020000
  23.8450000  27.5730000  -7.1560000  22.3290000  26.7740000  -5.6420000
  22.5842193  25.8376565  -5.8830862  21.3590000  26.9380000  -4.6820000
  20.8480000  25.8180000  -4.1570000  21.0904306  24.8677783  -4.3986743
  20.1288011  25.9349070  -3.4575813  20.9160000  28.1240000  -4.2630000
  21.5410000  29.1500000  -4.8940000  19.3530000  32.8520000  -2.6800000
  19.3381953  33.9304076  -2.5221498  20.7070000  32.4400000  -3.2510000
  21.2108205  33.3155351  -3.6605148  21.3187378  32.0062930  -2.4599404
  19.1070000  32.1980000  -1.4370000  19.4220000  32.9320000  -0.0430000
  18.3370000  33.9340000   0.1300000  20.8510000  33.3540000  -0.0210000
  19.2530000  31.7470000   1.0170000  18.3670000  30.6740000   0.7300000
  18.1218256  30.7325835  -0.3304516  17.4527722  30.7508653   1.3185404
  19.0330000  29.3410000   1.0150000  18.2637553  28.5689732   1.0333481
  19.8940000  28.9710000  -0.0970000  21.1600000  28.5980000   0.4100000
  21.1829043  27.5176032   0.5525390  22.2180000  28.8420000  -0.6410000
  22.5790000  30.1170000  -0.9800000  22.1088854  30.9594881  -0.4946074
  23.5170000  30.3440000  -1.9150000  23.7825901  31.3716106  -2.1631506
  24.1230000  29.2060000  -2.5410000  25.0700000  29.3660000  -3.4840000
  25.4674654  28.5339781  -3.8961425  25.3627086  30.2925589  -3.7595210
  23.7710000  27.9540000  -2.2120000  22.8180000  27.7440000  -1.2630000
  22.4570000  26.6080000  -0.9320000  19.9200000  29.3100000   2.2670000
  19.7583233  30.1362564   2.9592859  21.3330000  29.3990000   1.6880000
  21.7868520  30.3460445   1.9799319  21.9354026  28.5749086   2.0702103
  19.7090000  28.0770000   2.9730000  20.2400000  27.8780000   4.4800000
  19.1100000  27.3380000   5.2790000  20.9830000  29.0920000   4.8940000
  21.2660000  26.6780000   4.3500000  20.7540000  25.3890000   4.1720000
  19.9261627  25.4411866   3.4648494  20.3961650  24.9887661   5.1206135
  21.8150000  24.4820000   3.6230000  21.3505103  23.6104111   3.1618260
  22.4890000  25.1500000   2.5360000  23.8820000  25.0730000   2.7430000
  24.3889881  24.2106990   2.3099882  24.5070000  26.2020000   2.0550000
  24.2900000  27.5390000   2.2640000  23.6468440  27.8694882   3.0662029
  24.9770000  28.3160000   1.4530000  25.6750000  27.4240000   0.6520000
  26.5820000  27.6010000  -0.4190000  26.9660000  28.7990000  -0.8890000
  27.6182687  28.8542819  -1.6581494  26.6025252  29.6446939  -0.4733238
  27.0800000  26.4900000  -0.9920000  26.7000000  25.2960000  -0.5250000
  27.0947543  24.3951422  -0.9711204  25.8630000  25.0060000   0.4610000
  25.3840000  26.1200000   1.0120000  22.9090000  24.1020000   4.6170000
  22.6564524  24.2332644   5.6691826  24.0520000  25.0430000   4.2470000
  24.1945962  25.7731141   5.0436799  24.9682243  24.4677755   4.1137710
  23.2580000  22.7580000   4.4040000  23.6420000  21.8240000   5.6460000
  22.7510000  20.6360000   5.6290000  23.7540000  22.7040000   6.8310000
  25.1050000  21.3300000   5.2780000  25.2990000  20.6450000   4.0680000
  24.5247137  20.9798309   3.3777327  25.2128859  19.5684380   4.2153068
  26.6550000  20.9590000   3.4830000  26.7436022  20.4386269   2.5293434
  26.7460000  22.3430000   3.1450000  28.1000000  22.6480000   3.0470000
  28.6363316  22.3403640   2.1493321  28.2220000  24.1080000   3.0200000
  27.6370000  25.0110000   3.8680000  27.0808658  24.6664139   4.7272885
  27.8810000  26.2670000   3.5570000  28.6580000  26.1810000   2.4140000
  29.2480000  27.1630000   1.5840000  29.1340000  28.4830000   1.7990000
  29.5783630  29.1372103   1.1707869  28.6038553  28.8220527   2.5889928
  29.9640000  26.7350000   0.5180000  30.0730000  25.4150000   0.3030000
  30.6366070  25.0497484  -0.5427762  29.5650000  24.4000000   1.0100000
  28.8650000  24.8580000   2.0630000  27.8300000  20.6880000   4.4050000
  27.5704979  20.5789227   5.4580240  28.7510000  21.9270000   4.2240000
  29.1447243  22.2324167   5.1934334  29.5775244  21.6721735   3.5606591
  28.4310000  19.4740000   3.9810000  29.7440000  18.8910000   4.6940000
  29.8260000  17.4440000   4.3450000  29.7300000  19.3370000   6.1070000
  30.9220000  19.6170000   3.9090000  31.1200000  19.3060000   2.5480000
  30.1493055  19.3768669   2.0572555  31.5113066  18.2950827   2.4338685
  32.0730000  20.2820000   1.9050000  31.9406459  20.2266496   0.8244825
  31.7070000  21.6300000   2.2440000  32.8610000  22.4270000   2.1570000
  33.2289397  22.7737218   1.1913377  32.5600000  23.6650000   2.8560000
  31.9090000  23.7910000   4.0480000  31.6632765  22.9136358   4.6278739
  31.6950000  25.0350000   4.4040000  32.2100000  25.7710000   3.3570000
  32.2860000  27.1560000   3.1240000  31.8270000  28.0690000   3.9770000
  31.9084256  29.0514509   3.7573153  31.3973009  27.7793026   4.8439100
  32.8600000  27.5660000   1.9770000  33.3210000  26.6400000   1.1280000
  33.7881107  26.9401905   0.2016673  33.3000000  25.3080000   1.2400000
  32.7310000  24.9400000   2.3880000  33.5350000  20.1320000   2.3220000
  33.6861409  19.4523412   3.1606413  33.9810000  21.5670000   2.7300000
  34.5290877  21.5238663   3.6711900  34.6242405  21.9824462   1.9542769
  34.2580000  19.6380000   1.2220000  35.7130000  19.0130000   1.4300000
  36.0120000  18.1240000   0.2730000  35.6910000  18.4710000   2.8110000
  36.6540000  20.3030000   1.3470000  36.5710000  21.1120000   0.2070000
  35.5076845  21.2183009  -0.0078493  37.0673242  20.6412256  -0.6416073
  37.1710000  22.4810000   0.4370000  37.0981754  23.0105395  -0.5129389
  36.3760000  23.2530000   1.3390000  37.2050000  24.2750000   1.8040000
  37.3780064  25.0867217   1.0974054  36.5180000  24.9460000   2.9170000
  35.9980000  24.1850000   3.9370000  36.1861656  23.1216694   3.9190540
  35.3210000  24.7030000   4.9740000  34.7790000  23.8360000   6.0760000
  35.5997894  23.3054606   6.5586306  34.2675821  24.4582758   6.8103872
  34.0760768  23.1147234   5.6591564  35.1240000  26.1390000   5.0120000
  34.5230000  26.6980000   5.9270000  35.6680000  26.8390000   3.9480000
  35.5409063  27.9213453   3.9698311  36.3530000  26.3190000   2.8800000
  36.7840000  27.0270000   1.9800000  38.5820000  22.5130000   1.0240000
  38.9319093  21.5639029   1.4300505  38.4930000  23.5600000   2.1620000
  38.9325731  23.1482182   3.0704660  39.0356667  24.4597026   1.8719167
  39.4710000  22.9200000   0.0080000  41.0490000  22.8030000   0.2140000
  41.6460000  22.5180000  -1.1120000  41.2620000  21.8470000   1.3340000
  41.4470000  24.2860000   0.6750000  40.7030000  25.4100000   0.1920000
  39.7014272  25.3163630   0.6117428  40.6415591  25.4123121  -0.8962648
  41.3230000  26.7220000   0.6620000  41.4067124  27.3782180  -0.2042964
  40.4170000  27.4210000   1.5630000  41.0760000  27.7570000   2.7690000
  41.2965924  28.8243915   2.7796574  40.0990000  27.5850000   3.8980000
  39.8920000  26.3370000   4.4170000  40.4315465  25.4928192   4.0137032
  39.0320000  26.1370000   5.4180000  38.8968597  25.1278093   5.8070650
  38.3310000  27.2680000   5.9280000  37.4540000  27.1170000   6.9300000
  36.9767202  27.9418759   7.2644911  37.2866859  26.2034040   7.3267994
  38.5220000  28.4950000   5.4330000  39.4060000  28.6930000   4.4120000
  39.6090000  29.8150000   3.9290000  42.6450000  26.5800000   1.4060000
  43.0944019  25.5925912   1.3003563  42.2700000  26.8160000   2.8720000
  42.5266516  25.9345818   3.4596489  42.8171462  27.6781871   3.2532671
  43.5680000  27.5470000   0.9410000  45.1460000  27.2480000   1.0070000
  45.5230000  26.6400000  -0.2910000  45.4030000  26.4780000   2.2510000
  45.7970000  28.7160000   1.1270000  44.9930000  29.8410000   1.5340000
  43.9512318  29.5242618   1.4840408  45.1466409  30.6894201   0.8671578
  45.3210000  30.2600000   2.9610000  45.4697142  31.3396834   2.9773458
  44.1730000  30.0370000   3.8270000  44.6550000  29.6910000   5.0970000
  44.8022577  30.6113365   5.6621506  43.6290000  28.9870000   5.8740000
  43.5940000  27.6390000   6.1300000  44.3795203  27.0013718   5.7521248
  42.5940000  27.2620000   6.8920000  41.9310000  28.4440000   7.1790000
  40.7840000  28.7090000   7.9470000  40.0970000  27.7500000   8.5750000
  39.2779359  27.9873968   9.1161820  40.3968638  26.7878417   8.5084275
  40.3710000  29.9950000   8.0420000  41.0730000  30.9520000   7.4010000
  40.7675173  31.9860152   7.4633861  42.1710000  30.8240000   6.6410000
  42.5550000  29.5280000   6.5730000  46.4930000  29.4970000   3.6070000
  46.9059282  28.7359184   2.9449245  45.8760000  28.8240000   4.8360000
  46.1138166  27.7603055   4.8261807  46.2803455  29.2778389   5.7407846
  47.5390000  30.3990000   3.9780000  48.9550000  29.8340000   4.5020000
  49.9980000  30.6580000   3.8440000  48.9770000  28.3560000   4.3930000
  48.9380000  30.1470000   6.0660000  49.1110000  31.4790000   6.5300000
  48.2367525  32.0631545   6.2426764  50.0050672  31.9265501   6.0958994
  49.2360000  31.4800000   8.0350000  49.4131556  32.4882681   8.4093135
  47.9670000  31.1050000   8.5970000  48.1380000  30.2810000   9.7260000
  47.9072614  30.7504431  10.6822856  47.1530000  29.2040000   9.6420000
  47.2260000  28.0660000   8.8820000  48.1112517  27.8540204   8.3007981
  46.1740000  27.2870000   8.9990000  45.3490000  27.9710000   9.8890000
  44.0750000  27.6800000  10.4360000  43.3830000  26.5740000  10.1430000
  42.4779355  26.4183664  10.5634019  43.7653655  25.8942248   9.5012827
  43.5400000  28.5780000  11.3030000  44.2350000  29.6820000  11.5870000
  43.8290099  30.4167298  12.2665169  45.4320000  30.0590000  11.1420000
  45.9380000  29.1540000  10.2870000  50.2600000  30.4870000   8.5630000
  50.5264092  29.7378383   7.8174253  49.5880000  29.8010000   9.7600000
  50.0772892  28.8465374   9.9541554  49.6739435  30.4384069  10.6400149
  51.4430000  31.1820000   8.9490000  52.7950000  30.3800000   9.2810000
  53.8950000  31.3470000   9.0760000  52.7930000  29.0910000   8.5500000
  52.6760000  30.0640000  10.8440000  52.7450000  31.1270000  11.7890000
  52.2814408  32.0179257  11.3653677  53.7937255  31.3313369  12.0046892
  52.0330000  30.7590000  13.0780000  52.0194895  31.6188692  13.7477326
  50.6360000  30.4950000  12.7980000  50.1440000  29.5300000  13.7180000
  49.2887533  29.9696445  14.2311911  49.5640000  28.3980000  12.9830000
  50.2090000  27.5460000  12.1160000  51.2589513  27.6769945  11.8995635
  49.4320000  26.6190000  11.6200000  48.1940000  26.8650000  12.2000000
  46.9570000  26.1850000  12.0440000  46.7080000  25.1950000  11.3310000
  45.9440000  26.7690000  12.8220000  45.0222977  26.3872969  12.7529624
  46.1200000  27.8640000  13.6520000  45.0370000  28.3180000  14.3220000
  44.0969247  27.9514369  14.2773887  45.1786720  29.1221551  14.9164448
  47.2730000  28.5050000  13.7920000  48.2600000  27.9530000  13.0460000
  52.5170000  29.4850000  13.7500000  52.7270649  28.6593094  13.0701423
  51.3180000  29.1320000  14.6230000  51.5713867  28.2886825  15.2654251
  51.0514673  29.9904907  15.2394854  53.6860000  29.7370000  14.5280000
  55.0090000  28.8510000  14.2950000  56.1360000  29.5530000  14.9390000
  55.0860000  28.5110000  12.8570000  54.7230000  27.5000000  15.1000000
  54.7190000  27.5050000  16.5160000  53.9226172  28.1727032  16.8447048
  55.6741408  27.8625778  16.9006358  54.4550000  26.1110000  17.0540000
  54.0926181  26.1965665  18.0784301  53.3500000  25.5120000  16.3260000
  53.7460000  24.2510000  15.8330000  53.4859127  23.4309523  16.5023098
  52.9410000  23.9410000  14.5840000  53.1990000  24.6220000  13.4040000
  54.0176496  25.3263872  13.3968049  52.5170000  24.4090000  12.2600000
  52.8390000  25.1600000  11.0000000  53.8715226  24.9620570  10.7122237
  52.1713027  24.8351008  10.2020522  52.7082209  26.2287053  11.1698976
  51.4510000  23.4210000  12.2750000  50.7650000  23.1610000  11.2870000
  51.2360000  22.8020000  13.4950000  50.3919441  22.1138746  13.5414085
  51.9400000  22.9930000  14.6530000  51.6630000  22.3920000  15.6770000
  55.6140000  25.1230000  16.9230000  56.6043755  25.5647194  16.8128219
  55.2500000  24.3600000  15.6450000  55.9330854  24.6441692  14.8445368
  55.3292481  23.2880823  15.8261419  55.6240000  24.2610000  18.0710000
  56.8830000  23.3090000  18.3720000  58.0790000  24.1760000  18.4060000
  56.8250000  22.1830000  17.4140000  56.6220000  22.7400000  19.8550000
  55.3040000  22.3800000  20.2930000  54.5863908  23.0459139  19.8137342
  55.2476257  22.5037315  21.3744865  54.9650000  20.9360000  19.9350000
  54.2720404  20.5315722  20.6727971  54.2250000  20.9230000  18.7000000
  54.3350000  19.6410000  18.1350000  53.4847853  19.0623533  18.4961124
  54.1160000  19.7120000  16.6840000  55.0750000  19.8130000  15.6970000
  56.1221991  19.8742564  15.9539508  54.5790000  19.8260000  14.4890000
  53.2050000  19.7250000  14.6830000  52.1450000  19.6950000  13.7410000
  52.2050000  19.7470000  12.5010000  50.9030000  19.5820000  14.3690000
  50.0923076  19.5333638  13.7855526  50.7090000  19.5150000  15.7290000
  49.4390000  19.4020000  16.1370000  48.6139671  19.3726392  15.5551418
  49.2876448  19.3610160  17.1347539  51.6890000  19.5390000  16.6200000
  52.9070000  19.6470000  16.0290000  56.1640000  20.0170000  19.6760000
  57.0075359  20.6235299  19.3463525  55.7140000  19.0960000  18.5270000
  56.5900490  18.6729611  18.0353949  55.0977423  18.2905169  18.9264040
  56.5790000  19.2660000  20.8670000  55.5540000  18.5180000  21.8670000
  54.8170000  19.5220000  22.6650000  56.3530000  17.4900000  22.5680000
  54.5420000  17.7050000  20.9410000  54.3220000  16.3250000  21.2040000
  54.6215647  16.1304890  22.2338187  54.9310445  15.7234901  20.5292027
  52.8610000  15.9470000  21.0290000  52.2955096  16.2291879  21.9170822
  52.2780000  16.7380000  19.9600000  51.5200000  15.9090000  19.0930000
  50.5389519  16.3214089  18.8572826  52.2000000  15.8620000  17.7490000
  53.5760000  16.0300000  17.6650000  54.1222080  16.1377109  18.5904488
  54.2620000  16.0140000  16.5070000  55.7490000  16.1910000  16.4590000
  56.2284332  15.3992290  17.0346232  56.0878787  16.1433051  15.4241153
  56.0140307  17.1594180  16.8832933  53.5210000  15.8190000  15.2900000
  54.0620000  15.8010000  14.1880000  52.1510000  15.6630000  15.4480000
  51.5837521  15.5045581  14.5308159  51.4370000  15.6780000  16.6230000
  50.2260000  15.5310000  16.6540000  52.6380000  14.4930000  20.6350000
  53.4536749  14.0645330  20.0526004  51.3770000  14.5530000  19.7770000
  51.0913816  13.5442003  19.4789322  50.5676982  15.0046407  20.3507172
  52.4510000  13.7000000  21.7950000  53.1410000  12.2510000  21.8960000
  52.9640000  11.7710000  23.2850000  54.5060000  12.3550000  21.3310000
  52.2590000  11.3390000  20.9160000  50.8550000  11.2020000  21.1410000
  50.4732842  12.1887722  21.4030565  50.6585813  10.5081736  21.9583893
  50.1510000  10.7110000  19.8900000  49.0796884  10.8843062  19.9917632
  50.5480000  11.5370000  18.7610000  51.0510000  10.7280000  17.7230000
  50.2947089  10.6745384  16.9398877  52.1650000  11.4230000  17.0810000
  53.2990000  11.9090000  17.6880000  53.4344425  11.8096811  18.7548613
  54.1350000  12.4720000  16.8570000  53.5190000  12.3450000  15.6190000
  53.9510000  12.7670000  14.3380000  55.0000000  13.3550000  14.0340000
  53.0220000  12.4420000  13.3490000  53.2377475  12.6932684  12.4054345
  51.8280000  11.7910000  13.5750000  51.0600000  11.5560000  12.5000000
  51.2570943  11.8149084  11.5438512  50.1813407  11.0868327  12.6671547
  51.4170000  11.3900000  14.7700000  52.3060000  11.7010000  15.7410000
  50.4670000   9.2650000  19.5030000  50.9185557   8.6940028  20.3142696
  51.4700000   9.4110000  18.3650000  52.4070151   8.9276888  18.6416083
  51.0710916   8.9413062  17.4659116  49.2810000   8.5920000  19.0830000
  49.2620000   6.9890000  18.9340000  48.0440000   6.4720000  19.5930000
  50.5890000   6.4570000  19.3090000  49.1040000   6.7650000  17.3720000
  48.2710000   7.6200000  16.6220000  48.5991002   8.6467491  16.7839770
  47.2294929   7.5194727  16.9273813  48.3920000   7.2870000  15.1600000
  47.4651348   7.5355457  14.6430423  49.3890000   8.1440000  14.5500000
  50.3940000   7.3660000  13.9330000  50.3154880   7.3054253  12.8475205
  51.6740000   8.0430000  14.1330000  52.2890000   8.3060000  15.3270000
  51.8538599   7.9515314  16.2497170  53.4310000   8.9430000  15.2070000
  53.5720000   9.1160000  13.8380000  54.5730000   9.7280000  13.0540000
  55.6670000  10.2940000  13.5700000  56.3515934  10.7180548  12.9604011
  55.8097943  10.2980098  14.5698462  54.4070000   9.7290000  11.7140000
  53.3100000   9.1640000  11.2010000  53.1481874   9.1628579  10.1331918
  52.3050000   8.5550000  11.8340000  52.4950000   8.5720000  13.1620000
  48.8330000   5.8570000  14.8920000  48.7020803   5.1936570  15.7469473
  50.3250000   5.9890000  14.5720000  50.9053007   5.4285113  15.3049411
  50.5197938   5.5929607  13.5753514  48.1020000   5.3340000  13.8150000
  48.2810000   3.7970000  13.3870000  46.9390000   3.2630000  13.0720000
  49.1250000   3.1090000  14.3910000  49.1000000   3.9010000  12.0230000
  48.7680000   4.9220000  11.0830000  48.9900146   5.8787352  11.5557233
  47.7104068   4.8829817  10.8220884  49.5970000   4.7850000   9.8230000
  49.0330451   5.1898870   8.9826901  50.7660000   5.6340000   9.9180000
  51.9410000   4.8620000   9.8240000  52.4714718   4.9785316   8.8789501
  52.8910000   5.3790000  10.7990000  52.7840000   5.3280000  12.1600000
  51.9486229   4.8216492  12.6206034  53.7940000   5.8790000  12.7900000
  54.6190000   6.3290000  11.7710000  55.8560000   7.0170000  11.7750000
  56.5030000   7.3670000  12.8940000  57.3839544   7.8575153  12.8355584
  56.1100277   7.1404637  13.7964150  56.4070000   7.3220000  10.5760000
  55.7560000   6.9640000   9.4610000  56.1706785   7.2025530   8.4927370
  54.5970000   6.3150000   9.3340000  54.0730000   6.0310000  10.5370000
  50.1090000   3.3770000   9.5470000  49.5506413   2.5972708  10.0650315
  51.5400000   3.4140000  10.0750000  51.6463994   2.6961905  10.8883437
  52.2308881   3.1573937   9.2719265  50.0610000   3.1110000   8.1600000
  50.4860000   1.6680000   7.6000000  49.5970000   1.3250000   6.4660000
  50.6070000   0.7380000   8.7420000  51.9570000   1.9220000   7.0300000
  52.2220000   3.1100000   6.2750000  52.1554767   3.9404555   6.9778643
  51.4828445   3.2431617   5.4850521  53.6140000   3.0860000   5.6590000
  53.5766154   3.6798429   4.7457353  54.5420000   3.7930000   6.5130000
  55.5870000   2.9260000   6.9060000  56.5179103   3.1009146   6.3666392
  55.9210000   3.2550000   8.2860000  55.1950000   2.9560000   9.4110000
  54.2776505   2.3904056   9.3404678  55.7290000   3.4210000  10.5110000
  56.8740000   4.0830000  10.0820000  57.8610000   4.7850000  10.8230000
  57.9170000   4.9730000  12.0470000  58.8470000   5.3110000   9.9930000
  59.5907417   5.8234741  10.4222052  58.8830000   5.1690000   8.6250000
  59.9170000   5.7330000   7.9900000  60.6698550   6.2627304   8.4055664
  59.9369823   5.6351105   6.9849531  57.9740000   4.5080000   7.9250000
  57.0000000   3.9960000   8.7150000  54.2240000   1.7080000   5.4310000
  53.5236819   0.8787299   5.3311779  55.0680000   1.5130000   6.6890000
  54.6148959   0.7448460   7.3156860  56.0747554   1.2043108   6.4074777
  55.0180000   1.7640000   4.2540000  55.8990000   0.5120000   3.7680000
  56.0280000   0.5800000   2.3020000  55.3960000  -0.7430000   4.3710000
  57.3310000   0.8300000   4.3920000  57.9510000   2.1010000   4.1830000
  57.4169837   2.8279830   4.7949005  57.9067364   2.4048045   3.1371299
  59.4030000   2.0460000   4.6260000  59.9910675   2.7377396   4.0228646
  59.5120000   2.5570000   5.9720000  60.3860000   1.7630000   6.7450000
  61.3585062   2.2377503   6.8751655  59.8220000   1.7200000   8.1390000
  58.7560000   0.9100000   8.4180000  58.3336282   0.2893111   7.6416320
  58.2200000   0.8700000   9.6450000  57.3739410   0.2094181   9.8345154
  58.7950000   1.7060000  10.6470000  58.3060000   1.7130000  11.8930000
  58.7472410   2.3220871  12.5671067  57.5222891   1.1239229  12.1356661
  59.8300000   2.5040000  10.3840000  60.3610000   2.5440000   9.1340000
  61.3290000   3.2660000   8.8710000  60.0020000   0.6430000   4.6300000
  59.2554946  -0.1042317   4.3607915  60.4780000   0.3960000   6.0720000
  60.2544817  -0.6318059   6.3579263  61.5531460   0.5642366   6.1341108
  61.0530000   0.5680000   3.7010000  61.6560000  -0.8600000   3.2830000
  61.8310000  -0.8970000   1.8180000  60.8380000  -1.9120000   3.9150000
  63.1070000  -0.8700000   3.9760000  63.9860000   0.2800000   3.8770000
  63.3835951   1.1583537   4.1087396  64.3911606   0.3734654   2.8694239
  65.1400000   0.1840000   4.8760000  65.9694807   0.7906849   4.5126895
  64.7520000   0.8090000   6.1200000  65.2830000   0.1030000   7.2260000
  65.9780594   0.7265661   7.7882783  64.1680000  -0.1530000   8.2000000
  63.2100000  -1.0780000   7.9020000  63.2653014  -1.6328830   6.9770965
  62.1930000  -1.3140000   8.7410000  61.4539102  -2.0728001   8.4839609
  62.1490000  -0.5630000   9.9520000  61.1670000  -0.7570000  10.8350000
  61.1776326  -0.2016459  11.6785457  60.4451431  -1.4392785  10.6519151
  63.0860000   0.3350000  10.2580000  64.0940000   0.5810000   9.3930000
  64.9730000   1.3970000   9.6670000  65.5750000  -1.2370000   5.2230000
  64.7768813  -1.9678719   5.0928786  65.9650000  -1.1650000   6.7020000
  66.1117020  -2.1733284   7.0891066  66.8898593  -0.5978447   6.8072159
  66.6980000  -1.6250000   4.4090000  66.9710000  -3.1770000   4.0680000
  67.6580000  -3.2660000   2.7620000  65.7100000  -3.9110000   4.2830000
  67.9560000  -3.6700000   5.2240000  69.1020000  -2.9070000   5.5650000
  68.8752030  -1.8481805   5.4402427  69.9240413  -3.1822740   4.9042633
  69.5120000  -3.1640000   7.0070000  70.4536162  -2.6550529   7.2129881
  68.5580000  -2.5390000   7.9020000  68.4460000  -3.3060000   9.0890000
  68.6653939  -2.6918325   9.9623635  67.0350000  -3.7040000   9.3070000
  66.3040000  -4.6250000   8.5950000  66.7673496  -5.1744176   7.7888679
  65.0730000  -4.7870000   9.0350000  64.9890000  -3.9210000  10.1150000
  63.9420000  -3.6140000  11.0160000  62.7220000  -4.1750000  10.9660000
  62.0172219  -3.9119965  11.6399572  62.5097793  -4.8596709  10.2544615
  64.1980000  -2.7040000  11.9780000  65.4100000  -2.1400000  12.0320000
  65.6331526  -1.4099840  12.7959886  66.4630000  -2.3400000  11.2480000
  66.1890000  -3.2510000  10.3010000  69.5210000  -4.6220000   7.4280000
  68.6866968  -5.2161045   7.0550700  69.4150000  -4.4920000   8.9440000
  69.5375607  -5.4731245   9.4027732  70.1941786  -3.8218111   9.3070809
  70.7390000  -5.2550000   7.0290000  70.7200000  -6.7350000   6.3880000
  72.0340000  -7.0190000   5.7800000  69.5110000  -6.8790000   5.5530000
  70.5670000  -7.6910000   7.6530000  71.5050000  -7.6140000   8.7260000
  71.2039535  -6.7686545   9.3447585  72.5152213  -7.4481410   8.3517750
  71.4850000  -8.8860000   9.5700000  72.2579457  -8.7855065  10.3319419
  70.2480000  -8.9680000  10.3170000  69.4050000  -9.9910000   9.7890000
  69.1694011 -10.7752501  10.5084055  68.1000000  -9.3760000   9.5050000
  67.7020000  -8.7430000   8.3490000  68.3666981  -8.6848482   7.4997669
  66.4900000  -8.2510000   8.4130000  66.0640000  -8.5660000   9.7000000
  64.8320000  -8.2920000  10.3560000  63.8320000  -7.6960000   9.9130000
  64.8240000  -8.7950000  11.6620000  63.9981530  -8.6589674  12.2092388
  65.8690000  -9.4680000  12.2500000  65.6910000  -9.8800000  13.5050000
  64.8720940  -9.7417215  14.0797803  66.4652868 -10.3660185  13.9343797
  67.0170000  -9.7270000  11.6490000  67.0470000  -9.2500000  10.3850000
  71.5910000 -10.2030000   8.8000000  72.0975127 -10.1153416   7.8388238
  70.1200000 -10.5970000   8.5710000  69.9213900 -10.6556295   7.5008524
  69.9275386 -11.5670099   9.0294099  72.3140000 -11.1710000   9.5990000
  72.5460000 -12.6870000   9.1030000  73.8310000 -13.1270000   9.6940000
  72.4030000 -12.7650000   7.6310000  71.3320000 -13.4790000   9.7970000
  70.9540000 -13.1520000  11.1440000  70.6956272 -12.0932261  11.1255251
  71.7790915 -13.3120593  11.8380502  69.7460000 -13.9540000  11.6090000
  69.8607620 -14.1207704  12.6800353  68.5350000 -13.1610000  11.4920000
  67.4920000 -13.9660000  10.9780000  66.8573606 -14.4034178  11.7487125
  66.5670000 -13.1050000  10.2390000  66.7210000 -12.6520000   8.9580000
  67.5680257 -12.9726200   8.3696533  65.7410000 -11.8850000   8.5440000
  64.8820000 -11.8260000   9.6280000  63.6540000 -11.1700000   9.8240000
  63.0730000 -10.4150000   8.8870000  62.1894141  -9.9644498   9.0777400
  63.5174367 -10.2948828   7.9880302  63.0490000 -11.3120000  11.0240000
  63.6400000 -12.0690000  11.9570000  63.1751155 -12.2034990  12.9225006
  64.7950000 -12.7360000  11.8890000  65.3720000 -12.5710000  10.6850000
  69.4890000 -15.2540000  10.8480000  70.2722163 -15.5035114  10.1321683
  68.1740000 -14.9980000  10.0990000  68.3321166 -15.1343752   9.0291869
  67.4151781 -15.6993818  10.4459194  69.3710000 -16.3210000  11.7730000
  69.2200000 -17.8440000  11.2750000  70.2920000 -18.6180000  11.9390000
  69.0690000 -17.9040000   9.8040000  67.8240000 -18.2750000  11.8980000
  67.3910000 -17.6660000  13.1000000  67.7365790 -16.6326380  13.0710496
  67.8145327 -18.1659372  13.9710818  65.8790000 -17.6830000  13.2020000
  65.6108124 -17.4088468  14.2223013  65.3100000 -16.6280000  12.3800000
  64.2500000 -17.1680000  11.6260000  63.3156705 -17.0212918  12.1678527
  64.0700000 -16.3570000  10.3870000  64.9200000 -16.5210000   9.3260000
  65.7246023 -17.2392970   9.3813572  64.7700000 -15.7980000   8.2070000
  65.4583576 -15.9506544   7.3757595  63.6960000 -14.8560000   8.1680000
  63.4940000 -14.1040000   7.0810000  62.7230430 -13.4517444   7.0979864
  64.0999353 -14.1963502   6.2782451  62.8600000 -14.6940000   9.2020000
  63.0230000 -15.4310000  10.3280000  62.2710000 -15.3070000  11.3100000
  65.2030000 -18.9790000  12.7510000  65.8614856 -19.8421512  12.6537093
  64.6380000 -18.6120000  11.3790000  65.1700005 -19.1667947  10.6061627
  63.5782811 -18.8645154  11.3425026  64.1720000 -19.2950000  13.6600000
  63.5550000 -20.7740000  13.7140000  63.8850000 -21.3230000  15.0460000
  63.9580000 -21.5240000  12.5000000  61.9840000 -20.5000000  13.6490000
  61.4110000 -19.4220000  14.4010000  62.0385970 -18.5415988  14.2627404
  61.3702377 -19.6757878  15.4602595  60.0100000 -19.1180000  13.9070000
  59.4861533 -18.4925768  14.6298623  60.0990000 -18.2940000  12.7080000
  59.2890000 -18.8640000  11.7100000  58.3021270 -18.4017397  11.7322799
  59.7890000 -18.5100000  10.3790000  60.8550000 -19.0500000   9.7070000
  61.4272504 -19.8524733  10.1485514  61.0350000 -18.5410000   8.5060000
  60.0090000 -17.6150000   8.3840000  59.6310000 -16.7290000   7.3470000
  60.2800000 -16.6320000   6.1820000  59.9618518 -15.9798288   5.4794647
  61.0883812 -17.2108989   6.0045323  58.5480000 -15.9440000   7.5590000
  57.9040000 -16.0470000   8.7220000  57.0366914 -15.4320542   8.9117801
  58.1630000 -16.8300000   9.7600000  59.2340000 -17.5940000   9.5260000
  59.1940000 -20.3640000  13.5150000  59.6208329 -21.2897672  13.9008336
  59.2830000 -20.3590000  11.9910000  59.8099594 -21.2518019  11.6543730
  58.2785133 -20.3493968  11.5678990  57.8250000 -20.2640000  13.9780000
  57.1310000 -21.4950000  14.7560000  57.6920000 -21.4970000  16.1220000
  57.2050000 -22.7170000  13.9220000  55.5880000 -21.0830000  14.8570000
  54.7210000 -21.2680000  13.7460000  53.9767024 -21.9995935  14.0604713
  55.2469811 -21.6404148  12.8669370  54.0240000 -19.9660000  13.3960000
  53.8389407 -19.4138124  14.3173801  54.9290000 -19.1290000  12.6490000
  54.3840000 -18.7570000  11.4050000  54.2994449 -17.6807520  11.2545345
  55.3070000 -19.1680000  10.3400000  56.3470000 -20.0440000  10.4400000
  56.5217211 -20.5733110  11.3650427  57.0210000 -20.1990000   9.3220000
  56.3760000 -19.3640000   8.4270000  56.5990000 -19.0680000   7.0600000
  57.5840000 -19.6140000   6.3310000  57.6918515 -19.3622594   5.3588395
  58.2177118 -20.2767986   6.7543275  55.7600000 -18.1820000   6.4680000
  54.7800000 -17.6420000   7.2030000  54.0998089 -16.9329442   6.7546931
  54.4780000 -17.8430000   8.4830000  55.3190000 -18.7190000   9.0420000
  52.7530000 -20.1260000  12.5720000  52.5661652 -21.1714184  12.3264559
  52.9840000 -19.3330000  11.2840000  52.4058793 -19.7779536  10.4741284
  52.6675827 -18.3003215  11.4308179  51.6350000 -19.6200000  13.3000000
  50.2410000 -20.4190000  13.2990000  49.6720000 -20.3220000  14.6620000
  50.4970000 -21.7440000  12.6900000  49.3190000 -19.5960000  12.2870000
  48.7510000 -20.2510000  11.1690000  47.6646189 -20.1876072  11.2311089
  49.0546345 -21.2977858  11.1810933  49.2140000 -19.6130000   9.8750000
  49.2018194 -18.5274380   9.9724991  50.5880000 -19.9360000   9.6320000
  50.8350000 -19.7200000   8.2680000  51.0360495 -18.6839276   7.9955438
  52.0770000 -20.4120000   7.8800000  52.8570000 -21.2080000   8.6740000
  52.5365228 -21.4430771   9.6782085  53.9320000 -21.6690000   8.0800000
  53.8610000 -21.1410000   6.8050000  54.7080000 -21.2590000   5.6850000
  55.8290000 -21.9870000   5.6890000  56.4009849 -22.0380150   4.8581378
  56.1040655 -22.4860751   6.5228836  54.3540000 -20.6040000   4.5550000
  53.2250000 -19.8750000   4.5640000  52.9219157 -19.3352468   3.6790111
  52.3480000 -19.6910000   5.5570000  52.7290000 -20.3560000   6.6610000
  48.4890000 -20.1060000   8.6360000  48.0417226 -21.0904178   8.7737072
  49.5780000 -20.1840000   7.5470000  49.3312630 -20.9777551   6.8418951
  49.6322313 -19.2325925   7.0178658  47.4800000 -19.2030000   8.2910000
  46.1230000 -19.7670000   7.6590000  45.0930000 -18.7050000   7.7060000
  45.8800000 -21.0710000   8.3150000  46.5200000 -20.0580000   6.1420000
  46.9950000 -19.0090000   5.3400000  47.6708788 -18.4200091   5.9599820
  46.1789504 -18.3763894   4.9907616  47.7550000 -19.5450000   4.1460000
  48.0576460 -18.6864214   3.5465440  48.9980000 -20.1500000   4.5650000
  49.2160000 -21.2670000   3.7480000  49.5918059 -21.0694849   2.7440792
  50.2720000 -22.0900000   4.3390000  50.3440000 -22.5910000   5.6080000
  49.5135881 -22.4702561   6.2878813  51.4560000 -23.2530000   5.8540000
  52.1630000 -23.1680000   4.6670000  53.4260000 -23.6650000   4.2590000
  54.2370000 -24.3830000   5.0480000  55.1260342 -24.7082190   4.6959317
  53.9592158 -24.5989350   5.9947348  53.8260000 -23.3900000   2.9970000
  53.0160000 -22.6720000   2.2100000  53.3157567 -22.4402285   1.1986509
  51.8200000 -22.1580000   2.4780000  51.4470000 -22.4450000   3.7300000
  47.0380000 -20.6170000   3.3180000  45.9884130 -20.7925160   3.5539236
  47.8500000 -21.8880000   3.6170000  47.2393235 -22.5826222   4.1937785
  48.1476415 -22.3584661   2.6798920  47.1450000 -20.2560000   1.9630000
  46.0220000 -20.6910000   0.9110000  46.3340000 -20.0380000  -0.3800000
  44.7000000 -20.4480000   1.5230000  46.2360000 -22.2610000   0.7960000
  45.9270000 -22.9080000  -0.3920000  45.0504502 -22.4271757  -0.8262447
  45.7085802 -23.9592957  -0.2044616  47.0790000 -22.8060000  -1.3600000
  47.0549142 -21.8555658  -1.8930986  48.3300000 -22.7740000  -0.6130000
  49.0830000 -23.9430000  -0.8810000  49.9769869 -23.7074904  -1.4584269
  49.6340000 -24.4750000   0.3830000  48.9890000 -24.5790000   1.5870000
  47.9545997 -24.2802497   1.6716510  49.7220000 -25.1150000   2.5440000
  50.9330000 -25.3920000   1.9300000  52.1410000 -25.9710000   2.4050000
  52.3240000 -26.3880000   3.6690000  53.2078107 -26.7917499   3.9446192
  51.5777615 -26.2977302   4.3435949  53.1570000 -26.1010000   1.5260000
  52.9750000 -25.6820000   0.2650000  53.7768491 -25.7737235  -0.4526516
  51.8950000 -25.1310000  -0.2970000  50.9000000 -25.0070000   0.5960000
  47.1710000 -23.9870000  -2.3030000  46.2167608 -24.4936293  -2.4474057
  48.1300000 -24.9120000  -1.5760000  47.6174949 -25.8393760  -1.3202434
  48.9807789 -25.1334472  -2.2203886  47.6600000 -23.5940000  -3.5740000
  47.2720000 -24.4580000  -4.8740000  47.9320000 -23.8500000  -6.0480000
  45.8030000 -24.6100000  -4.8730000  47.9390000 -25.8890000  -4.5910000
  48.2990000 -26.7540000  -5.6730000  48.0730970 -26.2469404  -6.6110610
  47.7240814 -27.6780695  -5.6124626  49.7850000 -27.0850000  -5.6280000
  50.2942728 -26.5492118  -6.4290441  50.3550000 -26.5480000  -4.4140000
  51.4250000 -27.3710000  -3.9780000  52.3571625 -26.8062025  -3.9647284
  51.2020000 -27.7180000  -2.5420000  50.0040000 -27.4390000  -1.9720000
  49.2252102 -26.9844773  -2.5663866  49.7610000 -27.7140000  -0.6850000
  48.7821206 -27.4795460  -0.2667577  50.8060000 -28.3090000   0.0720000
  50.6160000 -28.6080000   1.3670000  51.3841552 -29.0299018   1.8690330
  49.7298406 -28.4118271   1.8101018  51.9890000 -28.5890000  -0.4750000
  52.2250000 -28.3020000  -1.7840000  53.3080000 -28.5500000  -2.3170000
  50.1290000 -28.5690000  -5.5990000  49.4352058 -29.1896697  -5.0319749
  51.4920000 -28.5750000  -4.9150000  51.8500630 -29.6006801  -4.8262846
  52.1988654 -27.9938916  -5.5072454  50.2300000 -29.0790000  -6.9300000
  50.3090000 -30.6650000  -7.2000000  49.7070000 -30.8990000  -8.5320000
  49.7380000 -31.3360000  -6.0130000  51.8860000 -31.0050000  -7.2580000
  52.3310000 -32.2220000  -7.8900000  52.3957829 -31.9927816  -8.9536551
  51.6081538 -33.0229465  -7.7348270  53.7040000 -32.6790000  -7.3890000
  54.4280383 -32.5207155  -8.1882583  54.1630000 -31.8250000  -6.3080000
  54.5790000 -32.5990000  -5.1930000  55.5190568 -32.2268400  -4.7857048
  53.5920000 -32.3660000  -4.0800000  52.4210000 -31.7420000  -4.3780000
  52.2271860 -31.4403642  -5.3967501  51.5040000 -31.4920000  -3.4450000
  50.5761748 -30.9992220  -3.7355351  51.7890000 -31.8830000  -2.1110000
  50.8940000 -31.6420000  -1.1430000  51.1277234 -31.9329031  -0.2044642
  50.0201837 -31.1843301  -1.3599901  52.9340000 -32.4890000  -1.7830000
  53.8730000 -32.7480000  -2.7440000  54.9400000 -33.3190000  -2.4610000
  53.7370000 -34.1080000  -6.8610000  52.7615549 -34.4672759  -6.5330877
  54.6890000 -34.0490000  -5.6620000  54.7217727 -35.0236666  -5.1751221
  55.6885368 -33.7804344  -6.0039047  54.2280000 -34.9830000  -7.8750000
  54.2805047 -35.9075416  -7.6218898
