Cpptraj Generated Restart                                                       
 3122
  91.4920000  93.4430000 -45.4510000  90.8340000  95.7220000 -44.8560000
  90.8050000  98.2460000 -44.6880000  91.1410000  96.4710000 -42.5880000
  91.9130000  93.2260000 -44.1320000  90.1500000  97.0110000 -45.2660000
  92.3360000 102.3180000 -44.0860000  89.7870000  99.3710000 -44.4690000
  90.9580000  94.6930000 -45.8100000  91.8070000  94.2470000 -43.1800000
  91.2720000  95.4950000 -43.5340000  90.4670000 100.5790000 -43.8120000
  91.6460000 101.0730000 -44.6660000  93.0040000 102.1300000 -42.7190000
  94.0390000 103.2240000 -42.4250000  91.4720000 103.5920000 -44.1850000
  90.6640000 103.9550000 -42.9240000  92.6570000  99.9260000 -44.8560000
  92.0020000  98.7060000 -45.5270000  91.5910000  92.3840000 -46.4110000
  91.6860000  91.4840000 -47.2210000  91.7830000  90.4270000 -48.2330000
  91.8970000  90.9900000 -49.5430000  92.4470000  93.8370000 -41.1630000
  91.1440000  97.9470000 -43.7580000  91.3870000  96.0890000 -41.7280000
  92.3020000  92.2560000 -43.8370000  89.1150000  96.9880000 -44.9210000
  90.1280000  97.1150000 -46.3520000  93.1190000 102.5000000 -44.7360000
  88.9740000  98.9900000 -43.8470000  89.3700000  99.6360000 -45.4440000
  90.6070000  94.8570000 -46.8250000  90.8020000 100.3230000 -42.7980000
  89.7090000 101.3680000 -43.7180000  91.2640000 101.3690000 -45.6460000
  93.5110000 101.1640000 -42.7060000  92.2330000 102.1190000 -41.9470000
  94.5660000 103.0020000 -41.4890000  93.5680000 104.2090000 -42.3240000
  94.7770000 103.2870000 -43.2320000  90.7860000 103.4690000 -45.0240000
  92.1260000 104.4350000 -44.4140000  89.9380000 104.7410000 -43.1630000
  91.3160000 104.3390000 -42.1310000  90.1150000 103.0970000 -42.5180000
  93.0720000  99.6120000 -43.8900000  93.4970000 100.2780000 -45.4690000
  91.6320000  98.9480000 -46.5270000  92.6950000  97.8660000 -45.6230000
  90.8890000  89.7950000 -48.1660000  92.6560000  89.8030000 -48.0050000
  92.7310000  91.4900000 -49.5540000 115.0880000  74.2070000 -34.8080000
 114.2880000  73.6390000 -34.5680000 115.5910000  74.4180000 -33.9580000
 115.7000000  73.6660000 -35.4030000 114.6640000  75.4610000 -35.4950000
 115.5570000  76.0540000 -35.6930000 114.0010000  75.1700000 -36.8550000
 114.6810000  74.5840000 -37.4730000 113.0840000  74.6000000 -36.7080000
 113.6970000  76.3790000 -37.5310000 113.3870000  76.1600000 -38.4130000
 113.7430000  76.3050000 -34.6070000 112.9460000  75.7550000 -33.8430000
 113.8310000  77.6370000 -34.6870000 114.4670000  78.0280000 -35.3680000
 113.0420000  78.5960000 -33.8840000 112.2400000  78.0640000 -33.3710000
 113.8980000  79.2550000 -32.7780000 114.6910000  79.8470000 -33.2350000
 113.0450000  80.1710000 -31.8890000 112.2290000  79.6080000 -31.4350000
 113.6630000  80.6000000 -31.1010000 112.6330000  80.9940000 -32.4730000
 114.5510000  78.2170000 -31.8590000 115.2160000  77.5660000 -32.4280000
 115.1560000  78.7260000 -31.1090000 113.7830000  77.6190000 -31.3680000
 112.4370000  79.6740000 -34.8050000 113.1940000  80.4630000 -35.3800000
 111.0970000  79.7230000 -34.9700000 110.1470000  78.7110000 -34.5420000
 109.9960000  78.7820000 -33.4650000 110.4970000  77.7150000 -34.8150000
 108.8440000  79.0140000 -35.2740000 107.9810000  78.7230000 -34.6750000
 108.8380000  78.5110000 -36.2410000 108.9050000  80.5240000 -35.4780000
 108.5590000  81.0200000 -34.5710000 108.3100000  80.8390000 -36.3350000
 110.4000000  80.7870000 -35.6960000 110.6270000  80.6850000 -36.7570000
 110.7900000  82.1920000 -35.2150000 110.8590000  82.4510000 -34.0100000
 111.0330000  83.1100000 -36.1560000 110.9650000  82.8370000 -37.1260000
 111.3310000  84.5140000 -35.8410000 112.2030000  84.5320000 -35.1860000
 111.7020000  85.2800000 -37.1130000 112.5970000  84.8350000 -37.5480000
 110.8880000  85.2130000 -37.8340000 111.9500000  86.6410000 -36.8050000
 112.4930000  87.0050000 -37.5080000 110.1680000  85.2000000 -35.1120000
 109.0070000  85.0380000 -35.4880000 110.4960000  86.0220000 -34.1100000
 111.4730000  86.0790000 -33.8610000 109.5470000  86.8500000 -33.3490000
 108.5280000  86.5640000 -33.6100000 109.7260000  86.5540000 -31.8450000
 108.9450000  87.0770000 -31.2920000 109.5850000  85.4850000 -31.6800000
 111.0960000  86.9650000 -31.2760000 111.8860000  86.3980000 -31.7690000
 111.2720000  88.0250000 -31.4600000 111.1840000  86.7050000 -29.7740000
 111.5760000  85.6370000 -29.3210000 110.8290000  87.6650000 -28.9450000
 110.5030000  88.5530000 -29.2980000 110.8900000  87.4870000 -27.9520000
 109.6840000  88.3530000 -33.6840000 109.1170000  89.2000000 -32.9910000
 110.4090000  88.6940000 -34.7620000 110.8270000  87.9470000 -35.2970000
 110.7170000  90.0750000 -35.1780000 111.0690000  90.6270000 -34.3070000
 111.8580000  90.0280000 -36.2180000 112.7310000  89.5620000 -35.7610000
 111.5470000  89.3960000 -37.0500000 112.2830000  91.3850000 -36.8070000
 113.0400000  91.1900000 -37.5670000 111.4320000  91.8530000 -37.3000000
 112.8650000  92.3550000 -35.7650000 112.1150000  92.5490000 -34.9980000
 113.7330000  91.9010000 -35.2870000 113.2580000  93.7060000 -36.3820000
 112.3940000  94.1220000 -36.8990000 113.5150000  94.3870000 -35.5700000
 114.4140000  93.5990000 -37.3160000 114.1990000  93.0220000 -38.1170000
 114.6770000  94.5090000 -37.6660000 115.2250000  93.2090000 -36.8570000
 109.4700000  90.7770000 -35.7260000 109.0100000  90.4490000 -36.8220000
 108.9160000  91.7210000 -34.9660000 109.2840000  91.8650000 -34.0360000
 107.8010000  92.5810000 -35.4040000 106.9300000  91.9480000 -35.5750000
 107.4350000  93.5980000 -34.3080000 108.2880000  94.2510000 -34.1240000
 106.2170000  94.4560000 -34.6540000 105.3590000  93.8200000 -34.8710000
 105.9780000  95.1080000 -33.8150000 106.4300000  95.0850000 -35.5190000
 107.1220000  92.9030000 -33.1200000 106.9170000  93.5580000 -32.4490000
 108.1480000  93.3010000 -36.7150000 109.2620000  93.8060000 -36.8800000
 107.1910000  93.3520000 -37.6420000 106.3000000  92.9310000 -37.4190000
 107.3910000  93.7700000 -39.0320000 108.0310000  94.6520000 -39.0610000
 108.1010000  92.6300000 -39.7890000 107.6070000  91.6890000 -39.5440000
 109.1270000  92.5540000 -39.4300000 108.1340000  92.7780000 -41.3000000
 108.8680000  93.8240000 -41.8930000 109.4160000  94.5190000 -41.2750000
 108.9000000  93.9560000 -43.2950000 109.4670000  94.7560000 -43.7490000
 108.1960000  93.0390000 -44.1080000 108.2180000  93.1630000 -45.4620000
 108.8270000  93.8470000 -45.7470000 107.4540000  91.9980000 -43.5120000
 106.9150000  91.3040000 -44.1400000 107.4300000  91.8650000 -42.1110000
 106.8720000  91.0580000 -41.6580000 106.0420000  94.1300000 -39.6670000
 105.2340000  93.2500000 -39.9580000 105.7640000  95.4220000 -39.8540000
 106.4410000  96.1170000 -39.5730000 104.4800000  95.8750000 -40.4100000
 103.6910000  95.2920000 -39.9350000 104.2310000  97.3450000 -40.0460000
 104.9520000  97.9870000 -40.5540000 103.2340000  97.5880000 -40.4130000
 104.2760000  97.6170000 -38.5290000 103.9450000  96.7270000 -37.9930000
 105.3040000  97.8160000 -38.2290000 103.3910000  98.7820000 -38.0730000
 102.7950000  99.5200000 -38.8490000 103.2790000  99.0060000 -36.7790000
 103.7670000  98.4220000 -36.1150000 102.7160000  99.7870000 -36.4730000
 104.3230000  95.6310000 -41.9260000 103.1970000  95.5930000 -42.4280000
 105.4340000  95.4540000 -42.6520000 106.3220000  95.4900000 -42.1730000
 105.4590000  95.2150000 -44.1010000 104.9900000  94.2530000 -44.3060000
 106.4960000  95.1640000 -44.4310000 104.7630000  96.2930000 -44.9460000
 104.5870000  97.4380000 -44.5200000 104.3770000  95.9230000 -46.1710000
 104.6040000  94.9890000 -46.4820000 103.7710000  96.8330000 -47.1620000
 104.4230000  97.6970000 -47.2850000 103.6620000  96.1290000 -48.5210000
 102.9590000  95.3000000 -48.4430000 103.2870000  96.8350000 -49.2620000
 104.9270000  95.6370000 -48.9380000 104.8170000  95.2310000 -49.8010000
 102.3790000  97.3570000 -46.7720000 101.9510000  98.3940000 -47.2820000
 101.6780000  96.6570000 -45.8710000 102.1000000  95.8150000 -45.5060000
 100.2730000  96.9170000 -45.5190000  99.8540000  97.6240000 -46.2350000
  99.4770000  95.6080000 -45.6730000  98.4150000  95.8150000 -45.5390000
  99.7800000  94.9090000 -44.8930000  99.6780000  94.9660000 -47.0350000
  99.0840000  95.5490000 -48.1720000  98.4180000  96.3910000 -48.0560000
  99.3890000  95.0650000 -49.4580000  98.9470000  95.5290000 -50.3270000
 100.2840000  93.9830000 -49.6080000 100.6160000  93.5310000 -50.8470000
 100.2470000  94.0840000 -51.5390000 100.8460000  93.3740000 -48.4660000
 101.5300000  92.5470000 -48.5900000 100.5480000  93.8660000 -47.1810000
 101.0110000  93.4210000 -46.3140000 100.0870000  97.5580000 -44.1330000
  98.9570000  97.7390000 -43.6860000 101.1670000  97.9420000 -43.4420000
 102.0780000  97.7970000 -43.8540000 101.0970000  98.5300000 -42.0970000
 100.5010000  99.4410000 -42.1430000 102.0980000  98.8110000 -41.7710000
 100.4650000  97.6010000 -41.0460000  99.7090000  98.0620000 -40.1910000
 100.7200000  96.2920000 -41.1310000 101.3950000  95.9910000 -41.8180000
 100.1130000  95.2640000 -40.2780000  99.0290000  95.3530000 -40.3620000
 100.5080000  93.8830000 -40.8210000 100.1660000  93.7990000 -41.8530000
 101.5950000  93.8030000 -40.8310000  99.9390000  92.7220000 -40.0260000
  98.5890000  92.3570000 -40.1880000  97.9620000  92.8900000 -40.8870000
  98.0490000  91.2980000 -39.4380000  97.0140000  91.0180000 -39.5690000
  98.8560000  90.6040000 -38.5190000  98.4350000  89.7960000 -37.9380000
 100.2050000  90.9640000 -38.3530000 100.8230000  90.4310000 -37.6450000
 100.7470000  92.0240000 -39.1050000 101.7790000  92.3080000 -38.9640000
 100.4870000  95.3950000 -38.7870000 101.6680000  95.5190000 -38.4540000
  99.4940000  95.2890000 -37.8900000  98.5520000  95.2490000 -38.2520000
  99.6540000  95.1800000 -36.4230000 100.4260000  94.4320000 -36.2390000
 100.1450000  96.4990000 -35.7800000 100.4080000  96.2730000 -34.7460000
 101.0660000  96.8220000 -36.2660000  99.1650000  97.6860000 -35.7420000
  98.2150000  97.3710000 -35.3100000  99.5930000  98.4440000 -35.0860000
  98.9210000  98.3330000 -37.1100000  99.8860000  98.5680000 -37.5610000
  98.3950000  97.6280000 -37.7530000  98.1220000  99.5690000 -36.9940000
  97.8130000  99.8370000 -36.0710000  97.8220000 100.3880000 -37.9860000
  98.1690000 100.1440000 -39.2080000  98.7170000  99.3210000 -39.4120000
  98.0270000 100.8540000 -39.9130000  97.1630000 101.4900000 -37.7850000
  96.8660000 101.7540000 -36.8560000  96.9720000 102.1000000 -38.5670000
  98.3870000  94.6590000 -35.7340000  97.2870000  94.7810000 -36.2750000
  98.5360000  94.0570000 -34.5550000  99.4700000  93.9780000 -34.1780000
  97.4210000  93.5940000 -33.7190000  96.6540000  93.1850000 -34.3770000
  97.8940000  92.4680000 -32.7790000  98.5850000  92.8990000 -32.0550000
  97.0380000  92.0750000 -32.2300000  98.5960000  91.3000000 -33.4860000
  99.4430000  91.6890000 -34.0520000  99.1320000  90.3130000 -32.4530000
  98.3030000  89.8660000 -31.9050000  99.7110000  89.5360000 -32.9510000
  99.7860000  90.8370000 -31.7550000  97.6930000  90.5610000 -34.4690000
  97.3780000  91.2390000 -35.2630000  98.2520000  89.7450000 -34.9270000
  96.8180000  90.1650000 -33.9550000  96.7600000  94.7280000 -32.9110000
  97.2930000  95.8350000 -32.7960000  95.6110000  94.4220000 -32.3070000
  95.2150000  93.5120000 -32.4930000  94.9600000  95.2310000 -31.2720000
  94.2790000  95.9430000 -31.7380000  95.7150000  95.7890000 -30.7170000
  94.1710000  94.3660000 -30.2810000  93.7700000  93.2450000 -30.6030000
  93.9370000  94.8870000 -29.0760000  94.2480000  95.8310000 -28.8920000
  93.3770000  94.1370000 -27.9440000  92.8470000  93.2600000 -28.3140000
  94.5150000  93.6560000 -27.0290000  95.0130000  94.5290000 -26.6080000
  94.0750000  93.1040000 -26.1980000  95.5610000  92.7750000 -27.6910000
  96.6980000  93.3560000 -28.2890000  96.8280000  94.4280000 -28.2740000
  97.6700000  92.5450000 -28.8990000  98.5410000  92.9930000 -29.3550000
  97.5170000  91.1480000 -28.9000000  98.2670000  90.5240000 -29.3620000
  96.3940000  90.5620000 -28.2900000  96.2920000  89.4860000 -28.2800000
  95.4120000  91.3740000 -27.6940000  94.5480000  90.9200000 -27.2320000
  92.3860000  94.9940000 -27.1410000  92.6150000  96.1870000 -26.9180000
  91.2710000  94.3870000 -26.7210000  91.1650000  93.4010000 -26.9120000
  90.2300000  95.0460000 -25.9200000  89.9500000  95.9670000 -26.4300000
  88.9800000  94.1470000 -25.8270000  89.2420000  93.2490000 -25.2680000
  88.2190000  94.6790000 -25.2560000  88.3660000  93.7210000 -27.1760000
  89.0870000  93.1200000 -27.7310000  87.1270000  92.8650000 -26.9210000
  86.3610000  93.4540000 -26.4180000  86.7330000  92.4950000 -27.8680000
  87.3930000  92.0150000 -26.2930000  87.9470000  94.9100000 -28.0410000
  88.8250000  95.4870000 -28.3330000  87.4560000  94.5520000 -28.9460000
  87.2590000  95.5510000 -27.4900000  90.7260000  95.4470000 -24.5160000
  91.5380000  94.7540000 -23.8980000  90.1800000  96.5460000 -23.9880000
  89.5080000  97.0540000 -24.5450000  90.4800000  97.0760000 -22.6520000
  91.4970000  96.7930000 -22.3800000  90.4360000  98.6140000 -22.6850000
  89.4300000  98.9390000 -22.9500000  90.6580000  98.9950000 -21.6890000
  91.4170000  99.2330000 -23.6520000  92.7910000  99.2330000 -23.5340000
  93.3280000  98.8560000 -22.7660000  93.3050000  99.8430000 -24.6160000
  94.3590000  99.9950000 -24.7920000  92.3190000 100.2390000 -25.4440000
  91.1160000  99.8440000 -24.8400000  90.1230000  99.9900000 -25.2380000
  89.5440000  96.4600000 -21.5920000  88.6990000  97.1370000 -21.0010000
  89.6820000  95.1470000 -21.3650000  90.3470000  94.6450000 -21.9360000
  88.7740000  94.3320000 -20.5340000  87.7550000  94.4650000 -20.8980000
  89.1310000  92.8460000 -20.6680000  90.0630000  92.6560000 -20.1370000
  88.3420000  92.2510000 -20.2070000  89.2810000  92.4290000 -22.0120000
  89.4490000  91.4840000 -21.9770000  88.7800000  94.6600000 -19.0290000
  87.9100000  94.1840000 -18.2950000  89.7550000  95.4400000 -18.5480000
  90.4210000  95.8200000 -19.2070000  90.0080000  95.6650000 -17.1190000
  89.0710000  95.9200000 -16.6240000  90.6910000  96.5060000 -17.0050000
  90.6220000  94.4500000 -16.4130000  91.1330000  93.5320000 -17.0610000
  90.6350000  94.4740000 -15.0770000  90.2600000  95.2950000 -14.6240000
  91.4000000  93.5280000 -14.2300000  91.6520000  92.6500000 -14.8240000
  92.7300000  94.1630000 -13.7780000  93.2780000  93.4270000 -13.1880000
  93.6270000  94.5840000 -14.9420000  93.2140000  95.4540000 -15.4530000
  94.6220000  94.8280000 -14.5700000  93.7110000  93.7590000 -15.6490000
  92.4780000  95.3020000 -12.9860000  93.2890000  95.8130000 -12.9350000
  90.6210000  92.9900000 -13.0170000  91.2170000  92.3970000 -12.1130000
  89.2940000  93.1470000 -12.9860000  88.8570000  93.6340000 -13.7560000
  88.4090000  92.4790000 -12.0220000  88.6860000  92.8060000 -11.0200000
  86.9690000  92.9350000 -12.2950000  86.2950000  92.4980000 -11.5590000
  86.9060000  94.0210000 -12.2240000  86.6590000  92.6220000 -13.2920000
  88.5410000  90.9410000 -12.0800000  88.8060000  90.3770000 -13.1430000
  88.3400000  90.2380000 -10.9550000  88.0950000  90.7470000 -10.1180000
  88.5970000  88.7810000 -10.8370000  89.6440000  88.6120000 -11.0860000
  88.3990000  88.3190000  -9.3790000  88.7990000  87.3090000  -9.2840000
  88.9760000  88.9670000  -8.7190000  86.9320000  88.3010000  -8.9130000
  86.5130000  89.3050000  -8.9800000  86.3560000  87.6360000  -9.5570000
  86.8100000  87.7960000  -7.4700000  87.2850000  86.8180000  -7.3900000
  87.3110000  88.4940000  -6.7990000  85.3310000  87.6730000  -7.0820000
  84.8630000  88.6540000  -7.1610000  84.8390000  87.0090000  -7.7920000
  85.1670000  87.1420000  -5.7020000  85.5990000  87.7490000  -5.0200000
  84.1900000  87.0600000  -5.4610000  85.5800000  86.2250000  -5.6090000
  87.7930000  87.9100000 -11.8190000  88.2400000  86.8330000 -12.2090000
  86.6190000  88.3920000 -12.2290000  86.3260000  89.2850000 -11.8590000
  85.7000000  87.7250000 -13.1620000  85.6670000  86.6620000 -12.9260000
  84.2910000  88.2900000 -12.9450000  83.5930000  87.8040000 -13.6270000
  83.9770000  88.0820000 -11.9230000  84.2780000  89.6930000 -13.1660000
  83.3770000  90.0020000 -13.0440000  86.0930000  87.8530000 -14.6450000
  85.4540000  87.2200000 -15.4900000  87.1310000  88.6320000 -14.9940000
  87.6300000  89.1280000 -14.2690000  87.5340000  88.8480000 -16.3970000
  86.6220000  89.0980000 -16.9400000  88.4640000  90.0780000 -16.5290000
  88.0600000  90.8720000 -15.9010000  89.9270000  89.8530000 -16.1260000
  90.4390000  89.2420000 -16.8700000  90.4340000  90.8150000 -16.0510000
  89.9710000  89.3510000 -15.1600000  88.4710000  90.5960000 -17.9680000
  87.4560000  90.8430000 -18.2770000  89.0770000  91.5010000 -18.0180000
  88.8840000  89.8480000 -18.6450000  88.1040000  87.5620000 -17.0230000
  89.0710000  86.9820000 -16.5280000  87.4890000  87.0910000 -18.1130000
  86.6730000  87.5750000 -18.4590000  87.8660000  85.8300000 -18.7920000
  88.0940000  85.0790000 -18.0350000  86.7000000  85.2920000 -19.6370000
  87.0240000  84.3860000 -20.1500000  85.4710000  84.9600000 -18.7920000
  85.0540000  85.8640000 -18.3480000  84.7140000  84.4840000 -19.4160000
  85.7490000  84.2700000 -17.9960000  86.3180000  86.2570000 -20.5930000
  85.5740000  85.9020000 -21.0850000  89.1120000  85.9660000 -19.6740000
  89.8330000  84.9860000 -19.8700000  89.4000000  87.1770000 -20.1640000
  88.7260000  87.9120000 -20.0050000  90.5580000  87.5040000 -20.9990000
  91.4230000  86.9570000 -20.6250000  90.2680000  87.0190000 -22.4280000
  90.0980000  85.9430000 -22.4140000  89.3700000  87.5020000 -22.8140000
  91.6720000  87.3730000 -23.5210000  91.2530000  88.5640000 -23.9600000
  90.8760000  89.0120000 -20.9340000  89.9870000  89.8460000 -21.1130000
  92.1380000  89.3700000 -20.6780000  92.8260000  88.6370000 -20.5830000
  92.6250000  90.7590000 -20.5420000  92.0010000  91.4090000 -21.1560000
  92.4810000  91.2340000 -19.0820000  91.4400000  91.1030000 -18.7850000
  93.3650000  90.4980000 -18.0760000  94.4170000  90.6410000 -18.3190000
  93.1760000  90.8800000 -17.0730000  93.1340000  89.4320000 -18.0930000
  92.8020000  92.6010000 -18.9640000  92.2090000  92.9480000 -18.2940000
  94.0590000  90.8890000 -21.0710000  94.8040000  89.9100000 -21.0930000
  94.4600000  92.0820000 -21.5150000  93.8240000  92.8620000 -21.4330000
  95.7560000  92.3320000 -22.1620000  96.3910000  91.4510000 -22.0670000
  95.5510000  92.5930000 -23.6610000  94.7870000  93.3620000 -23.7810000
  95.1740000  91.6870000 -24.1360000  96.8090000  93.0430000 -24.3850000
  97.7650000  92.1000000 -24.8150000  97.5940000  91.0460000 -24.6510000
  98.9310000  92.5270000 -25.4840000  99.6540000  91.8050000 -25.8320000
  99.1340000  93.9040000 -25.7310000 100.2380000  94.3420000 -26.3910000
 100.8400000  93.6280000 -26.6150000  98.1780000  94.8460000 -25.2950000
  98.3380000  95.8950000 -25.4940000  97.0240000  94.4170000 -24.6160000
  96.2970000  95.1430000 -24.2850000  96.4930000  93.5080000 -21.5140000
  95.9150000  94.5750000 -21.3120000  97.7740000  93.3040000 -21.2030000
  98.1630000  92.3970000 -21.4170000  98.7040000  94.3290000 -20.7260000
  98.1480000  95.1380000 -20.2510000  99.6220000  93.7230000 -19.6650000
  99.0280000  93.3280000 -18.8400000 100.1920000  92.9040000 -20.1030000
 100.5050000  94.7190000 -19.1850000 100.0110000  95.2200000 -18.5310000
  99.5600000  94.8880000 -21.8730000 100.4250000  94.1630000 -22.3740000
  99.4020000  96.1690000 -22.2600000  98.2900000  97.0530000 -21.9420000
  98.4830000  97.5640000 -20.9990000  97.3420000  96.5170000 -21.8950000
  98.2440000  98.0610000 -23.0860000  97.7990000  99.0060000 -22.7740000
  97.6960000  97.6370000 -23.9280000  99.7170000  98.2200000 -23.4540000
 100.1650000  98.9720000 -22.8040000  99.8380000  98.5070000 -24.4990000
 100.3280000  96.8390000 -23.1760000 100.3770000  96.2760000 -24.1070000
 101.7420000  96.9660000 -22.5880000 102.7300000  96.8090000 -23.3060000
 101.8410000  97.2170000 -21.2740000 100.9860000  97.3450000 -20.7520000
 103.1020000  97.3700000 -20.5460000 103.6630000  98.1850000 -21.0040000
 102.7770000  97.7740000 -19.1020000 103.7020000  97.9920000 -18.5690000
 102.1570000  98.6700000 -19.0990000 102.2490000  96.9690000 -18.5900000
 103.9880000  96.1090000 -20.6050000 105.1850000  96.2000000 -20.8900000
 103.3950000  94.9300000 -20.3700000 102.4230000  94.9370000 -20.0950000
 104.0760000  93.6290000 -20.4760000 105.1150000  93.7370000 -20.1670000
 103.3850000  92.6330000 -19.5240000 102.3340000  92.5890000 -19.8080000
 103.8030000  91.6380000 -19.6800000 103.4830000  92.9730000 -18.0240000
 103.3650000  94.0450000 -17.8680000 102.3760000  92.2580000 -17.2530000
 102.4850000  91.1790000 -17.3610000 102.4400000  92.5280000 -16.1980000
 101.4000000  92.5690000 -17.6250000 104.8210000  92.5190000 -17.4410000
 105.6440000  92.9970000 -17.9710000 104.8690000  92.7900000 -16.3860000
 104.9220000  91.4370000 -17.5300000 104.0870000  93.0570000 -21.9130000
 104.8050000  92.0920000 -22.1780000 103.2750000  93.6150000 -22.8220000
 102.7410000  94.4180000 -22.5200000 102.8650000  93.0130000 -24.1000000
 101.9990000  93.5760000 -24.4470000 103.9620000  93.1770000 -25.1700000
 104.2280000  94.2290000 -25.2680000 104.8490000  92.6220000 -24.8650000
 103.5010000  92.6700000 -26.5320000 102.3230000  92.6790000 -26.8670000
 104.4040000  92.1940000 -27.3560000 105.3820000  92.1800000 -27.1010000
 104.0790000  91.7980000 -28.2270000 102.3720000  91.5610000 -23.9090000
 102.8910000  90.6140000 -24.5140000 101.3950000  91.3880000 -23.0070000
 100.9850000  92.2180000 -22.6040000 100.9910000  90.0760000 -22.4800000
 101.3510000  89.3090000 -23.1670000 101.6880000  89.8500000 -21.1310000
 102.7580000  90.0020000 -21.2720000 101.3270000  90.5790000 -20.4050000
 101.4570000  88.4390000 -20.5730000 100.4300000  88.3410000 -20.2220000
 101.6330000  87.7010000 -21.3560000 102.4270000  88.1800000 -19.4180000
 103.4470000  88.2650000 -19.7930000 102.2880000  88.9300000 -18.6390000
 102.2050000  86.7830000 -18.8310000 101.2850000  86.7940000 -18.2460000
 102.0900000  86.0690000 -19.6470000 103.3580000  86.3910000 -17.9860000
 103.5160000  87.0840000 -17.2680000 103.2130000  85.5070000 -17.5180000
 104.1950000  86.3240000 -18.5470000  99.4790000  89.9120000 -22.3690000
  98.8110000  90.7090000 -21.7120000  98.9560000  88.8550000 -22.9820000
  99.5980000  88.2440000 -23.4670000  97.5910000  88.3720000 -22.8020000
  96.9390000  89.2300000 -22.6460000  97.1640000  87.6410000 -24.0900000
  97.5010000  88.2060000 -24.9580000  97.6650000  86.6720000 -24.1090000
  95.6460000  87.4210000 -24.2130000  95.2500000  87.0170000 -23.2820000
  94.9390000  88.7370000 -24.5420000  95.4160000  89.2200000 -25.3950000
  93.8940000  88.5510000 -24.7890000  94.9740000  89.4030000 -23.6790000
  95.3400000  86.4290000 -25.3330000  95.8550000  85.4860000 -25.1490000
  94.2660000  86.2410000 -25.3590000  95.6540000  86.8380000 -26.2930000
  97.5010000  87.4530000 -21.5700000  98.3400000  86.5710000 -21.3730000
  96.4480000  87.6260000 -20.7790000  95.8100000  88.3790000 -20.9940000
  96.0800000  86.7740000 -19.6510000  96.7710000  85.9350000 -19.5650000
  96.1280000  87.5850000 -18.3460000  95.4350000  88.4230000 -18.4250000
  95.7710000  86.9450000 -17.5390000  97.4850000  88.1310000 -17.9430000
  97.9810000  89.3140000 -18.5260000  97.4130000  89.8210000 -19.2920000
  99.2120000  89.8460000 -18.1040000  99.5910000  90.7530000 -18.5520000
  99.9460000  89.2000000 -17.0940000 100.8850000  89.6140000 -16.7570000
  99.4530000  88.0230000 -16.5080000 100.0110000  87.5400000 -15.7190000
  98.2250000  87.4880000 -16.9330000  97.8410000  86.5920000 -16.4680000
  94.6630000  86.2490000 -19.9000000  93.7610000  87.0470000 -20.1640000
  94.4320000  84.9380000 -19.8210000  95.2060000  84.3150000 -19.6380000
  93.1340000  84.3420000 -20.1710000  92.3440000  85.0400000 -19.8950000
  93.0850000  84.1370000 -21.6960000  92.1250000  83.7010000 -21.9730000
  93.1800000  85.1010000 -22.1950000  94.4310000  83.0390000 -22.2450000
  94.0240000  82.8750000 -23.5070000  92.8400000  83.0300000 -19.4240000
  93.7490000  82.3390000 -18.9710000  91.5580000  82.6840000 -19.2870000
  90.8570000  83.3120000 -19.6520000  91.1050000  81.3910000 -18.7510000
  91.7880000  81.0850000 -17.9590000  89.7070000  81.5530000 -18.1340000
  89.0930000  82.1410000 -18.8150000  89.2530000  80.5700000 -18.0060000
  89.7420000  82.2480000 -16.7640000  90.3710000  81.6670000 -16.0900000
  90.1790000  83.2410000 -16.8720000  88.3570000  82.4020000 -16.1340000
  87.3270000  82.4120000 -16.7960000  88.2740000  82.5360000 -14.8280000
  89.1060000  82.4960000 -14.2560000  87.3600000  82.6360000 -14.4110000
  91.1280000  80.2720000 -19.8110000  90.9430000  80.5250000 -21.0040000
  91.3200000  79.0220000 -19.3630000  91.4590000  78.8930000 -18.3700000
  91.3020000  77.8130000 -20.2020000  92.2000000  77.8160000 -20.8190000
  91.3520000  76.5760000 -19.2770000  92.3230000  76.5560000 -18.7810000
  90.5840000  76.6870000 -18.5120000  91.1220000  75.2160000 -19.9680000
  90.1390000  75.1960000 -20.4380000  92.1870000  74.9350000 -21.0240000
  93.1740000  75.0180000 -20.5680000  92.0540000  73.9290000 -21.4220000
  92.1050000  75.6460000 -21.8470000  91.1810000  74.0830000 -18.9460000
  90.4530000  74.2630000 -18.1550000  90.9430000  73.1370000 -19.4320000
  92.1790000  74.0220000 -18.5110000  90.0740000  77.7690000 -21.1320000
  88.9310000  77.7770000 -20.6690000  90.3320000  77.7080000 -22.4420000
  91.3020000  77.7360000 -22.7210000  89.3680000  77.4710000 -23.5230000
  89.9370000  77.4520000 -24.4520000  88.7520000  76.0710000 -23.3580000
  88.1630000  75.8240000 -24.2410000  89.5420000  75.3280000 -23.2460000
  88.1010000  76.0400000 -22.4840000  88.3140000  78.5920000 -23.7020000
  87.3500000  78.4140000 -24.4530000  88.5030000  79.7600000 -23.0650000
  89.3240000  79.8560000 -22.4850000  87.6230000  80.9340000 -23.2160000
  86.5980000  80.5880000 -23.3530000  87.6770000  81.8060000 -21.9420000
  88.6970000  82.1610000 -21.7960000  87.0450000  82.6820000 -22.0830000
  87.2110000  81.1070000 -20.6530000  87.9370000  80.3440000 -20.3740000
  87.1850000  81.8610000 -19.8660000  85.8170000  80.4700000 -20.7330000
  85.1000000  81.2140000 -21.0800000  85.8340000  79.6290000 -21.4270000
  85.4090000  79.9700000 -19.3410000  86.1330000  79.2240000 -19.0110000
  85.4490000  80.8050000 -18.6420000  84.0420000  79.3820000 -19.3460000
  83.9840000  78.5880000 -19.9690000  83.7830000  79.0620000 -18.4240000
  83.3500000  80.0580000 -19.6360000  87.9570000  81.7470000 -24.4740000
  88.9550000  81.5030000 -25.1550000  87.1170000  82.7400000 -24.7620000
  86.2970000  82.8520000 -24.1840000  87.2610000  83.6460000 -25.9100000
  87.4390000  83.0540000 -26.8080000  85.9710000  84.4660000 -26.1160000
  85.8950000  85.2200000 -25.3330000  85.9430000  85.1600000 -27.4780000
  85.9720000  84.4130000 -28.2710000  85.0300000  85.7480000 -27.5730000
  86.7960000  85.8310000 -27.5810000  84.8290000  83.6390000 -26.0440000
  84.0600000  84.1890000 -26.2110000  88.4290000  84.6150000 -25.7000000
  88.4770000  85.3140000 -24.6860000  89.3150000  84.7220000 -26.6930000
  89.2910000  84.0280000 -27.4270000  90.4060000  85.6990000 -26.7530000
  90.3670000  86.3690000 -25.8940000  91.7550000  84.9610000 -26.7000000
  91.8140000  84.2430000 -27.5170000  92.5570000  85.6890000 -26.8220000
  91.9690000  84.0890000 -25.1190000  93.2940000  83.9470000 -25.2150000
  90.2770000  86.5440000 -28.0360000  90.7850000  86.1340000 -29.0850000
  89.5840000  87.7000000 -27.9950000  88.7690000  88.2010000 -26.8980000
  89.3630000  88.8780000 -26.2830000  88.3530000  87.4020000 -26.2840000
  87.6370000  88.9680000 -27.5700000  87.2240000  89.7340000 -26.9150000
  86.8560000  88.2730000 -27.8790000  88.3150000  89.5700000 -28.8010000
  88.7300000  90.5420000 -28.5360000  87.6070000  89.6810000 -29.6220000
  89.4360000  88.5770000 -29.1560000  89.1250000  87.9850000 -30.0170000
  90.7560000  89.3010000 -29.4690000  91.3130000  89.9930000 -28.6120000
  91.2360000  89.1750000 -30.7090000  90.7740000  88.5280000 -31.3310000
  92.4650000  89.8160000 -31.2030000  92.8000000  90.5700000 -30.4910000
  93.6100000  88.7950000 -31.3590000  93.3000000  88.0130000 -32.0510000
  94.8820000  89.4540000 -31.9060000  95.1970000  90.2650000 -31.2500000
  95.6820000  88.7160000 -31.9710000  94.7010000  89.8470000 -32.9070000
  93.9640000  88.1440000 -30.0140000  93.1240000  87.5530000 -29.6500000
  94.8230000  87.4840000 -30.1320000  94.1990000  88.9140000 -29.2790000
  92.1620000  90.5200000 -32.5250000  91.8800000  89.8840000 -33.5440000
  92.1660000  91.8510000 -32.4830000  92.4890000  92.2900000 -31.6330000
  91.9910000  92.7170000 -33.6470000  91.1070000  92.3920000 -34.1960000
  91.7870000  94.1790000 -33.2230000  92.7240000  94.5290000 -32.7920000
  91.5910000  94.7760000 -34.1140000  90.6500000  94.4280000 -32.2170000
  89.6970000  94.2220000 -32.7040000  90.7480000  93.7620000 -31.3600000
  90.6440000  95.8630000 -31.6880000  91.6310000  96.5870000 -31.7310000
  89.5350000  96.3320000 -31.1580000  88.7020000  95.7620000 -31.1160000
  89.5370000  97.2780000 -30.8050000  93.2060000  92.6500000 -34.5810000
  94.3400000  92.4430000 -34.1420000  92.9610000  92.9290000 -35.8570000
  91.9910000  93.0020000 -36.1280000  93.9350000  93.0880000 -36.9280000
  94.9480000  93.0020000 -36.5340000  93.7070000  92.0030000 -37.9960000
  92.7480000  92.2020000 -38.4750000  94.4830000  92.1060000 -38.7550000
  93.6750000  90.5440000 -37.5080000  92.8750000  90.4060000 -36.7800000
  93.3810000  89.6560000 -38.7150000  94.1450000  89.8070000 -39.4770000
  93.3710000  88.6100000 -38.4100000  92.4050000  89.9080000 -39.1290000
  94.9940000  90.0960000 -36.8840000  95.1820000  90.6760000 -35.9800000
  94.9330000  89.0430000 -36.6070000  95.8150000  90.2390000 -37.5860000
  93.7510000  94.4770000 -37.5560000  92.6320000  94.8590000 -37.9130000
  94.8460000  95.2170000 -37.7000000  95.7200000  94.8490000 -37.3510000
  94.8870000  96.5810000 -38.2280000  93.9060000  96.8600000 -38.6130000
  95.2470000  97.5490000 -37.0920000  96.1870000  97.2330000 -36.6390000
  95.4120000  98.5360000 -37.5250000  94.2240000  97.7030000 -36.0060000
  94.1740000  96.9920000 -34.8550000  94.8760000  96.2190000 -34.5790000
  93.1010000  97.4170000 -34.0910000  92.8600000  97.0420000 -33.1850000
  92.4090000  98.4320000 -34.7110000  91.2870000  99.1870000 -34.3380000
  90.8080000  99.0140000 -33.3860000  90.8060000 100.1710000 -35.2170000
  89.9440000 100.7640000 -34.9480000  91.4530000 100.3870000 -36.4480000
  91.0830000 101.1470000 -37.1200000  92.5810000  99.6250000 -36.8100000
  93.0690000  99.8050000 -37.7570000  93.0910000  98.6270000 -35.9500000
  95.9020000  96.6780000 -39.3750000  97.0090000  96.1450000 -39.2840000
  95.5120000  97.3580000 -40.4550000  94.5990000  97.7890000 -40.4360000
  96.3080000  97.5920000 -41.6740000  97.3670000  97.5160000 -41.4290000
  96.0040000  96.5600000 -42.7860000  96.5940000  96.8300000 -43.6620000
  96.4210000  95.1390000 -42.3910000  95.8170000  94.7820000 -41.5570000
  96.2870000  94.4680000 -43.2390000  97.4740000  95.1350000 -42.1080000
  94.5360000  96.5430000 -43.2250000  94.2600000  97.5070000 -43.6520000
  94.3870000  95.7800000 -43.9890000  93.8930000  96.3280000 -42.3710000
  96.0530000  99.0120000 -42.1910000  94.9620000  99.5560000 -42.0170000
  97.0540000  99.6250000 -42.8200000  97.9020000  99.0970000 -42.9710000
  96.9360000 100.9430000 -43.4640000  96.2420000 101.5530000 -42.8860000
  98.2970000 101.6570000 -43.4450000  99.0330000 101.0210000 -43.9360000
  98.2140000 102.5790000 -44.0190000  98.7890000 102.0210000 -42.0320000
  97.9710000 102.1280000 -41.0860000 100.0150000 102.2200000 -41.8660000
  96.3730000 100.8750000 -44.8970000  95.8370000 101.8640000 -45.4040000
  96.4390000  99.7000000 -45.5310000  96.8930000  98.9340000 -45.0550000
  95.9440000  99.4180000 -46.8870000  95.0670000 100.0330000 -47.0850000
  97.0120000  99.7840000 -47.9290000  96.6170000  99.6030000 -48.9290000
  97.2450000 100.8450000 -47.8410000  98.1990000  99.0290000 -47.7520000
  98.8590000  99.3620000 -48.3630000  95.5260000  97.9450000 -47.0110000
  95.9630000  97.0940000 -46.2350000  94.6440000  97.6340000 -47.9650000
  94.3070000  98.3640000 -48.5760000  94.0500000  96.2910000 -48.1010000
  93.7420000  95.9490000 -47.1130000  92.7810000  96.3630000 -48.9640000
  93.0020000  96.8970000 -49.8880000  92.1910000  94.9990000 -49.3230000
  92.1640000  94.3560000 -48.4430000  91.1830000  95.1190000 -49.7200000
  92.8030000  94.5220000 -50.0880000  91.7930000  97.0750000 -48.2530000
  91.0830000  97.2700000 -48.8690000  95.0560000  95.3000000 -48.7130000
  95.5050000  95.5280000 -49.8430000  95.4050000  94.1920000 -48.0250000
  95.0410000  93.8510000 -46.6540000  93.9640000  93.9120000 -46.4990000
  95.5590000  94.5180000 -45.9650000  95.5190000  92.4170000 -46.4300000
  94.7370000  91.7160000 -46.7220000  95.8220000  92.2510000 -45.3960000
  96.7000000  92.3030000 -47.3920000  96.8980000  91.2710000 -47.6810000
  97.5850000  92.7460000 -46.9370000  96.2600000  93.1490000 -48.5860000
  97.1390000  93.6230000 -49.0230000  95.5230000  92.3170000 -49.6630000
  94.2900000  92.2290000 -49.6250000  96.2380000  91.6980000 -50.6270000
  97.6850000  91.7410000 -50.7880000  98.1500000  91.0000000 -50.1390000
  98.0890000  92.7320000 -50.5830000  97.9520000  91.3960000 -52.2500000
  98.9290000  90.9320000 -52.3850000  97.8600000  92.2940000 -52.8610000
  96.8150000  90.4340000 -52.5730000  97.0770000  89.4390000 -52.2130000
  96.5990000  90.4090000 -53.6410000  95.6380000  90.9990000 -51.7690000
  95.1340000  91.7510000 -52.3760000  94.6620000  89.8670000 -51.3950000
  94.9050000  89.1600000 -50.4090000  93.6010000  89.6230000 -52.1890000
  93.1160000  90.4580000 -53.2790000  93.7530000  90.3220000 -54.1530000
  93.0770000  91.5090000 -52.9930000  91.7070000  89.9530000 -53.5780000
  91.4240000  90.1360000 -54.6150000  90.9980000  90.4170000 -52.8930000
  91.8180000  88.4620000 -53.2740000  92.2720000  87.9550000 -54.1260000
  90.8480000  88.0230000 -53.0390000  92.7640000  88.4270000 -52.0690000
  92.1770000  88.5140000 -51.1550000  93.5950000  87.1350000 -52.0310000
  94.5550000  86.9700000 -52.7890000  93.2450000  86.2260000 -51.1180000
  92.4270000  86.4040000 -50.5530000  94.0110000  85.0020000 -50.8420000
  94.4590000  84.6320000 -51.7640000  93.3250000  84.2360000 -50.4820000
  95.1260000  85.1620000 -49.7960000  95.7300000  84.1630000 -49.4040000
  95.3910000  86.3820000 -49.3040000  94.9090000  87.1720000 -49.7090000
  96.1870000  86.6090000 -48.0780000  97.1900000  86.2130000 -48.2370000
  96.3110000  88.1100000 -47.7570000  95.3150000  88.5440000 -47.6760000
  97.0720000  88.4160000 -46.4650000  98.0430000  87.9200000 -46.4740000
  97.2320000  89.4900000 -46.3710000  96.5040000  88.0780000 -45.5980000
  97.0030000  88.7620000 -48.7930000  96.3560000  88.9160000 -49.4850000
  95.5660000  85.8730000 -46.8860000  94.3410000  85.8170000 -46.7640000
  96.3910000  85.3490000 -45.9750000  97.3820000  85.4510000 -46.1370000
  95.9830000  84.6020000 -44.7710000  94.9200000  84.7630000 -44.5920000
  96.2010000  83.0910000 -44.9980000  97.2660000  82.8770000 -45.0900000
  95.8230000  82.5620000 -44.1230000  95.4700000  82.5640000 -46.2480000
  94.5750000  83.1620000 -46.4240000  96.1180000  82.6660000 -47.1180000
  95.0120000  81.1090000 -46.1150000  94.3850000  81.0210000 -45.2270000
  94.4060000  80.8670000 -46.9880000  96.1380000  80.1580000 -46.0360000
  97.0670000  80.5220000 -46.1960000  96.0250000  78.8500000 -45.8780000
  94.8740000  78.2790000 -45.6880000  94.0310000  78.8350000 -45.6910000
  94.8170000  77.2730000 -45.6150000  97.0660000  78.0740000 -45.9100000
  97.9820000  78.4480000 -46.1120000  96.9420000  77.0760000 -45.8140000
  96.7040000  85.0950000 -43.5080000  97.6930000  85.8220000 -43.5860000
  96.1740000  84.7140000 -42.3470000  95.3460000  84.1370000 -42.3920000
  96.6320000  85.1130000 -41.0030000  97.5920000  85.6230000 -41.0840000
  95.6360000  86.0730000 -40.3170000  94.7060000  85.5420000 -40.1160000
  96.1990000  86.5930000 -38.9880000  97.1500000  87.0990000 -39.1540000
  95.4990000  87.2990000 -38.5400000  96.3420000  85.7720000 -38.2850000
  95.3020000  87.2840000 -41.1930000  94.8340000  86.9610000 -42.1230000
  94.5900000  87.9260000 -40.6750000  96.2070000  87.8520000 -41.4090000
  96.8080000  83.8570000 -40.1500000  95.8570000  83.0900000 -39.9940000
  98.0180000  83.6220000 -39.6310000  98.7420000  84.3010000 -39.8160000
  98.4050000  82.4030000 -38.8950000  97.5540000  81.7250000 -38.8440000
  99.5530000  81.7060000 -39.6490000  99.2120000  81.4660000 -40.6560000
 100.3790000  82.4120000 -39.7410000 100.0740000  80.4170000 -38.9730000
 100.2550000  80.5860000 -37.9120000  99.3270000  79.6290000 -39.0710000
 101.4070000  79.9440000 -39.5710000 102.1750000  80.6740000 -39.3150000
 101.6970000  78.9920000 -39.1280000 101.3420000  79.8390000 -41.0350000
 101.6720000  80.6460000 -41.5430000 100.8290000  78.8710000 -41.7610000
 100.3840000  77.7530000 -41.2490000 100.4940000  77.5700000 -40.2620000
  99.9870000  77.0410000 -41.8450000 100.7460000  79.0490000 -43.0430000
 101.0450000  79.9450000 -43.4010000 100.4090000  78.3290000 -43.6660000
  98.8420000  82.7290000 -37.4680000  99.6350000  83.6440000 -37.2710000
  98.3730000  81.9370000 -36.5020000  97.7400000  81.1980000 -36.7730000
  98.8790000  81.9050000 -35.1290000  99.4790000  82.7980000 -34.9500000
  97.6930000  81.9330000 -34.1600000  98.0550000  81.9420000 -33.1320000
  97.1060000  82.8360000 -34.3290000  97.0630000  81.0570000 -34.3090000
  99.7740000  80.6760000 -34.8810000  99.4310000  79.5570000 -35.2740000
 100.9080000  80.8860000 -34.2070000 101.1440000  81.8400000 -33.9720000
 101.8480000  79.8430000 -33.7710000 101.3130000  78.8990000 -33.6710000
 102.9460000  79.6680000 -34.8410000 102.4780000  79.3750000 -35.7800000
 103.4510000  80.6220000 -34.9940000 103.9990000  78.6150000 -34.4590000
 104.4760000  78.9200000 -33.5270000 103.5040000  77.6600000 -34.2840000
 105.3280000  78.3630000 -35.6700000 104.4630000  77.4710000 -36.9900000
 103.6930000  78.1080000 -37.4260000 105.1760000  77.1970000 -37.7670000
 104.0110000  76.5640000 -36.5870000 102.4420000  80.2060000 -32.3980000
 102.7730000  81.3670000 -32.1530000 102.5760000  79.2230000 -31.5040000
 102.3000000  78.2870000 -31.7660000 103.1450000  79.3980000 -30.1640000
 103.1490000  80.4590000 -29.9130000 102.2370000  78.6940000 -29.1480000
 102.6290000  78.8420000 -28.1420000 101.2320000  79.1140000 -29.1940000
 102.1880000  77.6260000 -29.3610000 104.5940000  78.8790000 -30.0740000
 104.8980000  77.7860000 -30.5590000 105.4720000  79.6370000 -29.4070000
 105.1560000  80.5360000 -29.0710000 106.8430000  79.2260000 -29.0370000
 106.9260000  78.1450000 -29.1430000 107.9090000  79.8650000 -29.9680000
 108.8640000  79.4190000 -29.6920000 107.6460000  79.4900000 -31.4390000
 106.7620000  80.0070000 -31.8130000 108.5010000  79.7640000 -32.0570000
 107.4920000  78.4140000 -31.5290000 108.0570000  81.3980000 -29.8080000
 107.1760000  81.8960000 -30.2140000 108.1330000  81.6550000 -28.7520000
 109.3150000  81.9600000 -30.4830000 109.2680000  81.8240000 -31.5630000
 109.3910000  83.0270000 -30.2700000 110.2020000  81.4600000 -30.0940000
 107.1120000  79.5560000 -27.5600000 106.5670000  80.5250000 -27.0380000
 107.9450000  78.7770000 -26.8650000 108.3430000  77.9590000 -27.3050000
 108.4170000  79.1450000 -25.5190000 107.5460000  79.3490000 -24.8960000
 109.1740000  77.9760000 -24.8760000 109.5430000  78.2900000 -23.8990000
 110.0380000  77.7250000 -25.4910000 108.3150000  76.7430000 -24.6870000
 107.3750000  76.7160000 -23.6410000 107.2950000  77.5540000 -22.9640000
 106.5060000  75.6190000 -23.5020000 105.7650000  75.6350000 -22.7160000
 106.5810000  74.5350000 -24.4060000 105.7100000  73.4930000 -24.3190000
 105.2250000  73.4790000 -23.4910000 107.5440000  74.5540000 -25.4370000
 107.5940000  73.7270000 -26.1290000 108.4080000  75.6570000 -25.5790000
 109.1280000  75.6740000 -26.3840000 109.2710000  80.4240000 -25.5600000
 110.1110000  80.5830000 -26.4470000 109.0630000  81.3370000 -24.6000000
 108.3620000  81.1400000 -23.9000000 109.7900000  82.6210000 -24.5210000
 109.7820000  83.0920000 -25.5040000 109.0460000  83.5410000 -23.5330000
 107.9990000  83.6090000 -23.8310000 109.0880000  83.0940000 -22.5400000
 109.6300000  84.9600000 -23.4600000 110.6800000  84.9130000 -23.1720000
 109.5560000  85.4310000 -24.4400000 108.8840000  85.8090000 -22.4220000
 107.8260000  85.8520000 -22.6810000 108.9920000  85.3480000 -21.4410000
 109.4630000  87.2300000 -22.3890000 110.5440000  87.1720000 -22.2560000
 109.2700000  87.7060000 -23.3510000 108.8630000  88.0370000 -21.2940000
 109.1260000  87.6810000 -20.3860000 109.1560000  89.0020000 -21.3450000
 107.8540000  88.0140000 -21.3420000 111.2660000  82.4450000 -24.1270000
 112.1390000  83.1460000 -24.6370000 111.5310000  81.5220000 -23.1980000
 110.7570000  80.9670000 -22.8630000 112.8490000  81.3130000 -22.5830000
 113.2690000  82.2860000 -22.3300000 112.6680000  80.5250000 -21.2740000
 112.1460000  79.5930000 -21.4920000 113.6520000  80.2870000 -20.8690000
 111.8900000  81.3230000 -20.2110000 112.4610000  82.2170000 -19.9590000
 110.9280000  81.6430000 -20.6100000 111.6190000  80.5170000 -18.9390000
 111.2000000  79.3690000 -18.9670000 111.8220000  81.0890000 -17.7710000
 112.1540000  82.0410000 -17.7140000 111.6290000  80.5540000 -16.9360000
 113.8330000  80.6120000 -23.5350000 113.4990000  79.5980000 -24.1520000
 115.0680000  81.1150000 -23.6240000 115.2800000  81.9510000 -23.0970000
 116.0720000  80.7000000 -24.6210000 115.6630000  80.8970000 -25.6120000
 117.3450000  81.5430000 -24.4730000 117.8210000  81.3160000 -23.5190000
 118.0360000  81.2940000 -25.2790000 117.0360000  82.9270000 -24.5270000
 117.8600000  83.4180000 -24.4750000 116.4480000  79.2130000 -24.5720000
 116.7040000  78.6100000 -25.6130000 116.4530000  78.5960000 -23.3850000
 116.2970000  79.1470000 -22.5530000 116.7010000  77.1560000 -23.2250000
 117.5370000  76.9020000 -23.8760000 117.1770000  76.8460000 -21.7910000
 117.5960000  75.8400000 -21.8080000 117.9920000  77.5190000 -21.5240000
 116.1080000  76.8650000 -20.6830000 115.2160000  76.3380000 -21.0230000
 116.5010000  76.3050000 -19.8350000 115.7110000  78.2470000 -20.1610000
 116.1550000  79.2920000 -20.6200000 114.8430000  78.3030000 -19.1750000
 114.4150000  77.4540000 -18.8350000 114.6020000  79.2060000 -18.7910000
 115.5270000  76.2590000 -23.6810000 115.7380000  75.0730000 -23.9400000
 114.3060000  76.8070000 -23.7990000 114.1990000  77.7850000 -23.5720000
 113.0940000  76.0600000 -24.1810000 113.3260000  74.9960000 -24.2220000
 112.0130000  76.2380000 -23.1010000 111.7480000  77.2930000 -23.0360000
 111.1200000  75.6890000 -23.4010000 112.4230000  75.7520000 -21.7320000
 112.9090000  74.5010000 -21.4170000 113.1180000  73.7530000 -22.0630000
 113.1840000  74.4770000 -20.1010000 113.6010000  73.6320000 -19.5740000
 112.8950000  75.6650000 -19.5390000 112.4140000  76.4810000 -20.5720000
 112.0910000  77.5070000 -20.4760000 112.5300000  76.4110000 -25.5690000
 111.7850000  75.6110000 -26.1240000 112.8920000  77.5460000 -26.1810000
 113.4400000  78.2070000 -25.6500000 112.3170000  78.0100000 -27.4660000
 111.2450000  78.1420000 -27.3210000 112.8810000  79.3990000 -27.8150000
 112.3450000  79.7920000 -28.6790000 112.7040000  80.0720000 -26.9760000
 114.3810000  79.4010000 -28.1260000 114.9160000  78.9870000 -27.2710000
 114.5690000  78.7560000 -28.9850000 115.0560000  81.0450000 -28.4790000
 116.7930000  80.6010000 -28.7510000 116.8700000  79.9110000 -29.5920000
 117.3690000  81.4990000 -28.9730000 117.1990000  80.1270000 -27.8570000
 112.4630000  77.0110000 -28.6340000 111.6350000  76.9940000 -29.5450000
 113.4830000  76.1430000 -28.6050000 114.1430000  76.2280000 -27.8460000
 113.6780000  75.0480000 -29.5820000 113.6410000  75.4780000 -30.5830000
 115.0900000  74.4530000 -29.4160000 115.8050000  75.2750000 -29.3750000
 115.2580000  73.6000000 -28.1550000 114.6560000  72.6940000 -28.2200000
 116.3060000  73.3210000 -28.0420000 114.9590000  74.1660000 -27.2720000
 115.4180000  73.6410000 -30.5190000 116.3090000  73.3130000 -30.3760000
 112.5870000  73.9570000 -29.5300000 112.3290000  73.2820000 -30.5270000
 111.9060000  73.7950000 -28.3900000 112.0960000  74.4270000 -27.6250000
 110.8250000  72.8200000 -28.1770000 111.1540000  71.8670000 -28.5890000
 110.6430000  72.6270000 -26.6580000 111.6280000  72.4560000 -26.2240000
 110.2360000  73.5430000 -26.2290000 109.7280000  71.4620000 -26.2540000
 108.7350000  71.6270000 -26.6720000 110.1260000  70.5380000 -26.6750000
 109.6180000  71.3200000 -24.7200000 110.6260000  71.4940000 -23.9950000
 108.5140000  71.0490000 -24.1940000 109.5100000  73.2090000 -28.8920000
 109.1830000  74.3920000 -29.0390000 108.7360000  72.2070000 -29.3270000
 109.0630000  71.2620000 -29.1860000 107.3630000  72.3750000 -29.8450000
 107.3410000  73.2310000 -30.5200000 106.9240000  71.1260000 -30.6450000
 107.0550000  70.2410000 -30.0230000 105.4480000  71.1950000 -31.0630000
 105.2380000  72.1430000 -31.5590000 105.2100000  70.3740000 -31.7400000
 104.8000000  71.0990000 -30.1920000 107.7730000  70.9450000 -31.9080000
 108.8270000  70.8440000 -31.6470000 107.4660000  70.0380000 -32.4300000
 107.6520000  71.7960000 -32.5770000 106.3820000  72.6350000 -28.6910000
 106.2710000  71.8140000 -27.7800000 105.6260000  73.7400000 -28.7450000
 105.7480000  74.3810000 -29.5160000 104.5210000  73.9930000 -27.7970000
 104.8810000  73.7720000 -26.7920000 104.0750000  75.4700000 -27.8060000
 103.7630000  75.7440000 -28.8130000 102.9060000  75.7130000 -26.8430000
 103.1610000  75.3650000 -25.8420000 102.6790000  76.7780000 -26.7930000
 102.0130000  75.1950000 -27.1930000 105.2060000  76.4090000 -27.3700000
 106.0820000  76.2690000 -28.0030000 104.8740000  77.4440000 -27.4490000
 105.4790000  76.2140000 -26.3330000 103.3470000  73.0500000 -28.0960000
 102.8510000  72.9950000 -29.2250000 102.8870000  72.3130000 -27.0790000
 103.3490000  72.4010000 -26.1850000 101.7760000  71.3450000 -27.1800000
 101.0520000  71.7400000 -27.8920000 102.2920000  69.9990000 -27.7300000
 101.4420000  69.3270000 -27.8510000 102.7260000  70.1800000 -28.7140000
 103.3550000  69.2940000 -26.8680000 104.2810000  69.8680000 -26.8920000
 103.0120000  69.2330000 -25.8350000 103.6320000  67.8650000 -27.3610000
 104.4000000  67.4270000 -26.7250000 102.7290000  67.2680000 -27.2370000
 104.1060000  67.8370000 -28.7640000 105.0380000  68.1940000 -28.9220000
 103.4650000  67.3840000 -29.8290000 102.2780000  66.8490000 -29.7580000
 101.8540000  66.6970000 -28.8540000 101.8240000  66.4990000 -30.5890000
 104.0040000  67.4720000 -31.0100000 104.9320000  67.8540000 -31.1260000
 103.4960000  67.1650000 -31.8270000 101.0220000  71.1620000 -25.8600000
 101.5670000  71.4040000 -24.7810000  99.7600000  70.7340000 -25.9650000
  99.4140000  70.5490000 -26.8950000  98.9200000  70.3210000 -24.8230000
  98.8430000  71.1690000 -24.1430000  97.5150000  69.9420000 -25.3210000
  97.6040000  69.1130000 -26.0230000  96.9170000  69.6020000 -24.4750000
  96.7840000  71.1060000 -26.0160000  96.7180000  71.9770000 -25.3650000
  97.3350000  71.4040000 -26.9080000  95.3850000  70.6510000 -26.4360000
  95.0680000  71.2270000 -27.3050000  95.4400000  69.5980000 -26.7130000
  94.3960000  70.8290000 -25.3610000  94.6600000  71.3930000 -24.5660000
  93.1310000  70.4480000 -25.3970000  92.6260000  69.7410000 -26.3640000
  93.2380000  69.3390000 -27.0600000  91.6500000  69.4890000 -26.3130000
  92.3350000  70.8250000 -24.4500000  92.6690000  71.4700000 -23.7480000
  91.3460000  70.6410000 -24.5420000  99.5470000  69.1550000 -24.0380000
 100.2440000  68.3180000 -24.6120000  99.2920000  69.1030000 -22.7290000
  98.6820000  69.8020000 -22.3290000  99.7220000  67.9940000 -21.8650000
 100.7900000  67.8460000 -22.0300000  99.5130000  68.4100000 -20.4000000
  99.9300000  67.6440000 -19.7460000 100.0350000  69.3460000 -20.2010000
  97.7440000  68.5810000 -20.0220000  97.8570000  68.7280000 -18.6990000
  99.0000000  66.6630000 -22.1940000  97.9540000  66.6840000 -22.8520000
  99.4870000  65.5090000 -21.6840000 100.7670000  65.3310000 -21.0050000
 100.6570000  65.5570000 -19.9440000 101.5550000  65.9430000 -21.4430000
 101.1190000  63.8560000 -21.1730000 101.7530000  63.4960000 -20.3630000
 101.5970000  63.6990000 -22.1400000  99.7460000  63.1900000 -21.1610000
  99.4020000  63.0920000 -20.1320000  99.7650000  62.2180000 -21.6530000
  98.8790000  64.1960000 -21.9240000  98.9640000  63.9740000 -22.9880000
  97.4000000  64.0910000 -21.5260000  96.6170000  63.4640000 -22.2370000
  96.9990000  64.7140000 -20.4090000  97.6970000  65.1680000 -19.8370000
  95.5900000  64.8190000 -20.0070000  95.1820000  63.8120000 -19.9150000
  95.5010000  65.4890000 -18.6260000  95.9480000  64.8280000 -17.8830000
  96.0730000  66.4170000 -18.6330000  94.0870000  65.8060000 -18.2040000
  93.0980000  64.8930000 -17.9060000  93.2020000  63.8900000 -17.8530000
  91.9580000  65.5680000 -17.6780000  91.0160000  65.1110000 -17.4160000
  92.1590000  66.8910000 -17.8250000  93.5100000  67.0480000 -18.1680000
  94.0090000  67.9800000 -18.3900000  94.7370000  65.5570000 -21.0570000
  93.7790000  65.0000000 -21.5940000  95.0910000  66.8090000 -21.3720000
  95.9050000  67.2040000 -20.9220000  94.3120000  67.6740000 -22.2670000
  93.2650000  67.6130000 -21.9700000  94.7600000  69.1310000 -22.0950000
  95.8480000  69.1770000 -22.1490000  94.3630000  69.7160000 -22.9250000
  94.2800000  69.8030000 -20.8270000  95.0350000  70.6710000 -20.0310000
  94.1990000  71.1200000 -19.0790000  94.4700000  71.8010000 -18.2860000
  92.9720000  70.6070000 -19.2530000  92.1700000  70.8030000 -18.6710000
  92.9990000  69.7850000 -20.3570000  92.1610000  69.2530000 -20.7830000
  94.3280000  67.2410000 -23.7400000  93.3230000  67.4140000 -24.4220000
  95.3940000  66.6160000 -24.2490000  96.2290000  66.5190000 -23.6890000
  95.3740000  66.0590000 -25.6170000  94.9030000  66.7990000 -26.2630000
  96.7990000  65.8800000 -26.1700000  96.7270000  65.8310000 -27.2570000
  97.3870000  66.7610000 -25.9140000  97.5380000  64.6270000 -25.6810000
  97.5130000  64.6180000 -24.5920000  97.0110000  63.7430000 -26.0390000
  99.0040000  64.5600000 -26.1700000  99.3540000  65.1610000 -27.2160000
  99.8190000  63.8550000 -25.5240000  94.5030000  64.7860000 -25.7410000
  94.1910000  64.3660000 -26.8580000  94.0770000  64.1960000 -24.6100000
  94.4100000  64.5830000 -23.7380000  93.1990000  63.0090000 -24.5230000
  92.9940000  62.6310000 -25.5250000  93.9320000  61.8980000 -23.7430000
  94.1890000  62.2660000 -22.7490000  93.2570000  61.0500000 -23.6250000
  95.2020000  61.3940000 -24.4490000  94.9390000  60.9980000 -25.4300000
  95.8940000  62.2250000 -24.5880000  95.9220000  60.3060000 -23.6410000
  96.8590000  60.0730000 -24.1470000  96.1760000  60.6970000 -22.6550000
  95.1230000  59.0650000 -23.5400000  95.0850000  58.4920000 -24.3700000
  94.4610000  58.6070000 -22.4910000  94.4310000  59.2390000 -21.3500000
  94.9380000  60.1060000 -21.2520000  93.9160000  58.8630000 -20.5660000
  93.8000000  57.4890000 -22.5720000  93.7920000  56.9660000 -23.4360000
  93.2910000  57.1350000 -21.7740000  91.8170000  63.2790000 -23.8940000
  91.0520000  62.3330000 -23.6950000  91.4520000  64.5360000 -23.6070000
  92.1080000  65.2820000 -23.7850000  90.1880000  64.8650000 -22.9210000
  89.9700000  64.0630000 -22.2160000  90.3730000  66.1400000 -22.0810000
  89.5250000  66.2300000 -21.4010000  91.2800000  66.0630000 -21.4810000
  90.4320000  67.6210000 -23.1300000  90.1790000  68.5130000 -22.1680000
  88.9570000  64.9560000 -23.8540000  87.8410000  65.1800000 -23.3760000
  89.1390000  64.7430000 -25.1670000  90.0790000  64.5400000 -25.4760000
  88.0710000  64.6550000 -26.1830000  88.5490000  64.5550000 -27.1570000
  87.2260000  63.3840000 -25.9750000  86.7040000  63.4400000 -25.0200000
  86.4860000  63.3100000 -26.7720000  88.0460000  62.2250000 -26.0000000
  87.4860000  61.4640000 -25.8300000  87.1950000  65.9190000 -26.2650000
  85.9660000  65.8440000 -26.3440000  87.8330000  67.0950000 -26.2950000
  88.8400000  67.0920000 -26.2250000  87.1660000  68.4080000 -26.3520000
  86.1090000  68.2840000 -26.1180000  87.7510000  69.3270000 -25.2670000
  87.0950000  70.1920000 -25.1640000  87.7310000  68.7970000 -24.3140000
  89.1800000  69.8320000 -25.5270000  89.8570000  69.4140000 -26.5000000
  89.6420000  70.6900000 -24.7450000  87.2320000  69.0680000 -27.7480000
  87.0770000  70.2850000 -27.8730000  87.4940000  68.2820000 -28.7980000
  87.6100000  67.2950000 -28.6130000  87.5240000  68.7220000 -30.2020000
  88.3710000  69.3960000 -30.3280000  87.7590000  67.5100000 -31.1110000
  88.7060000  67.0430000 -30.8420000  86.9560000  66.7860000 -30.9680000
  87.7970000  67.9010000 -32.4710000  88.2480000  67.2120000 -32.9640000
  86.2510000  69.4730000 -30.6340000  85.1370000  69.1360000 -30.2240000
  86.4160000  70.4600000 -31.5190000  87.3480000  70.6390000 -31.8650000
  85.3250000  71.1760000 -32.1990000  84.4280000  71.1440000 -31.5810000
  85.7190000  72.6550000 -32.3690000  84.8610000  73.1980000 -32.7650000
  85.9350000  73.0670000 -31.3830000  86.9320000  72.9080000 -33.2870000
  87.5550000  71.9360000 -33.7770000  87.2590000  74.0990000 -33.5090000
  84.9680000  70.5430000 -33.5670000  84.1190000  71.0630000 -34.2980000
  85.5970000  69.4120000 -33.9100000  86.2830000  69.0500000 -33.2630000
  85.4360000  68.6980000 -35.1800000  84.3870000  68.7220000 -35.4780000
  85.7140000  67.6550000 -35.0300000  86.2760000  69.2430000 -36.3460000
  86.1480000  68.7360000 -37.4640000  87.1370000  70.2420000 -36.1080000
  87.1650000  70.6290000 -35.1750000  88.0110000  70.8620000 -37.1120000
  87.9750000  70.2680000 -38.0260000  87.4550000  72.2630000 -37.4310000
  86.4210000  72.1580000 -37.7570000  87.4570000  72.8500000 -36.5130000
  88.2310000  73.0480000 -38.5040000  89.2590000  73.1960000 -38.1750000
  88.2470000  72.3380000 -39.8580000  87.2280000  72.1340000 -40.1870000
  88.7430000  72.9690000 -40.5960000  88.8020000  71.4030000 -39.7840000
  87.5730000  74.4150000 -38.6920000  87.5910000  74.9670000 -37.7520000
  88.1160000  74.9880000 -39.4440000  86.5400000  74.2950000 -39.0180000
  89.4840000  70.8920000 -36.6630000  90.3700000  70.4850000 -37.4190000
  89.7480000  71.3440000 -35.4360000  88.9690000  71.6340000 -34.8620000
  91.0650000  71.3270000 -34.8050000  91.7710000  71.8040000 -35.4840000
  90.9950000  72.1730000 -33.5290000  91.9910000  72.2500000 -33.0920000
  90.6240000  73.1710000 -33.7610000  90.3230000  71.7070000 -32.8090000
  91.5430000  69.8930000 -34.4640000  90.7800000  69.1250000 -33.8640000
  92.8100000  69.5260000 -34.7480000  93.7220000  70.1840000 -35.6610000
  94.2170000  71.0110000 -35.1520000  93.2000000  70.5330000 -36.5530000
  94.7440000  69.1180000 -36.0410000  95.6960000  69.5560000 -36.3420000
  94.3400000  68.4910000 -36.8370000  94.8690000  68.3010000 -34.7560000
  95.5970000  68.7750000 -34.0980000  95.1660000  67.2730000 -34.9630000
  93.4670000  68.3710000 -34.1350000  92.9080000  67.4750000 -34.4070000
  93.5310000  68.5300000 -32.6030000  93.7610000  69.6440000 -32.1150000
  93.3560000  67.4560000 -31.8090000  93.1830000  66.0760000 -32.2400000
  93.9260000  65.7870000 -32.9820000  92.1790000  65.9450000 -32.6440000
  93.3410000  65.2350000 -30.9760000  94.3970000  65.0350000 -30.7910000
  92.7790000  64.3030000 -31.0370000  92.7920000  66.1590000 -29.8890000
  93.1940000  65.9100000 -28.9070000  91.7050000  66.0900000 -29.8770000
  93.2060000  67.5610000 -30.3550000  92.3920000  68.2500000 -30.1290000
  94.4620000  68.0720000 -29.6280000  94.3310000  68.6350000 -28.5420000
  95.6540000  67.8920000 -30.2110000  95.6630000  67.4170000 -31.1020000
  96.9640000  68.2880000 -29.6640000  96.9830000  68.0100000 -28.6100000
  98.0950000  67.5070000 -30.3680000  98.2560000  67.9120000 -31.3660000
  99.0090000  67.6830000 -29.8010000  97.9020000  65.9790000 -30.4640000
  98.8900000  65.5200000 -30.4870000  97.3910000  65.6080000 -29.5750000
  97.1500000  65.5120000 -31.7140000  96.4810000  66.2670000 -32.4070000
  97.2070000  64.2380000 -32.0390000  97.7450000  63.5880000 -31.4830000
  96.7130000  63.9350000 -32.8660000  97.2890000  69.7960000 -29.7310000
  98.1640000  70.2530000 -28.9930000  96.6450000  70.5710000 -30.6160000
  95.8940000  70.1680000 -31.1590000  96.9700000  71.9940000 -30.8270000
  98.0500000  72.0830000 -30.9450000  96.3190000  72.5260000 -32.1180000
  95.2770000  72.2080000 -32.1580000  96.3230000  73.6150000 -32.0810000
  97.0040000  72.1240000 -33.4040000  97.2220000  72.9520000 -34.4850000
  97.0030000  73.9360000 -34.5440000  97.7800000  72.2240000 -35.4660000
  98.0610000  72.6080000 -36.4360000  97.9330000  70.9510000 -35.0750000
  97.4420000  70.8770000 -33.7660000  97.4040000  69.9880000 -33.1540000
  96.5540000  72.8660000 -29.6280000  95.3970000  72.8380000 -29.2040000
  97.4870000  73.6720000 -29.0970000  98.4290000  73.6280000 -29.4580000
  97.2050000  74.6050000 -27.9950000  96.6860000  74.0420000 -27.2200000
  98.5350000  75.1230000 -27.4020000  99.1180000  74.2720000 -27.0490000
  99.1020000  75.6140000 -28.1930000  98.3610000  76.1250000 -26.2400000
  97.7710000  76.9810000 -26.5660000  97.6810000  75.4770000 -25.0340000
  98.2680000  74.6230000 -24.6960000  97.5910000  76.2070000 -24.2290000
  96.6800000  75.1380000 -25.2990000  99.7160000  76.6510000 -25.7840000
 100.2200000  77.1360000 -26.6200000  99.5710000  77.3890000 -24.9960000
 100.3330000  75.8370000 -25.4050000  96.2750000  75.7630000 -28.3980000
  95.4480000  76.1740000 -27.5900000  96.4160000  76.2930000 -29.6170000
  97.1010000  75.8820000 -30.2350000  95.6040000  77.4110000 -30.1340000
  95.0980000  77.8940000 -29.2980000  96.4910000  78.4910000 -30.8110000
  96.9710000  78.0510000 -31.6850000  95.6210000  79.6740000 -31.2830000
  95.1570000  80.1640000 -30.4280000  96.2250000  80.4020000 -31.8250000
  94.8460000  79.3430000 -31.9740000  97.5990000  78.9870000 -29.8490000
  97.1340000  79.3480000 -28.9310000  98.2460000  78.1500000 -29.5890000
  98.5020000  80.0970000 -30.4110000  97.9410000  81.0230000 -30.5350000
  99.3130000  80.2910000 -29.7100000  98.9230000  79.7880000 -31.3680000
  94.5280000  76.8820000 -31.0950000  94.8290000  76.0910000 -31.9930000
  93.2910000  77.3710000 -30.9470000  93.1260000  77.9720000 -30.1520000
  92.1770000  77.1840000 -31.9000000  92.5490000  76.7220000 -32.8150000
  91.0930000  76.2790000 -31.2880000  90.7140000  76.7460000 -30.3780000
  90.2670000  76.1980000 -31.9940000  91.5800000  74.8630000 -30.9500000
  91.9980000  74.3950000 -31.8410000  92.3460000  74.9130000 -30.1770000
  90.3970000  74.0340000 -30.4380000  89.9380000  74.5740000 -29.6100000
  89.6650000  73.9270000 -31.2390000  90.8210000  72.6960000 -29.9780000
  91.7510000  72.3970000 -30.2320000  90.0980000  71.8690000 -29.2410000
  88.8770000  72.1470000 -28.8960000  88.4500000  73.0040000 -29.2180000
  88.3150000  71.4710000 -28.3980000  90.5980000  70.7460000 -28.8200000
  91.5340000  70.4770000 -29.0870000  90.1200000  70.2160000 -28.1060000
  91.5640000  78.5260000 -32.2960000  91.6020000  79.4690000 -31.5090000
  90.9810000  78.6040000 -33.4920000  90.9790000  77.7690000 -34.0610000
  90.1710000  79.7490000 -33.9540000  90.3460000  80.5970000 -33.2920000
  90.5530000  80.2150000 -35.3700000  90.4510000  79.3920000 -36.0770000
  89.6450000  81.3740000 -35.8000000  89.6110000  82.1300000 -35.0160000
  90.0190000  81.8290000 -36.7170000  88.6320000  81.0150000 -35.9800000
  91.9980000  80.7240000 -35.4060000  92.6850000  79.9380000 -35.0940000
  92.2580000  81.0310000 -36.4190000  92.1020000  81.5780000 -34.7370000
  88.6830000  79.4000000 -33.8620000  88.1670000  78.5980000 -34.6420000
  88.0030000  79.9650000 -32.8680000  88.4620000  80.6750000 -32.3160000
  86.5760000  79.7540000 -32.6170000  86.4000000  78.6810000 -32.5460000
  86.2410000  80.3780000 -31.2540000  86.9500000  79.9840000 -30.5280000
  86.3650000  81.4600000 -31.3080000  84.8200000  80.0640000 -30.7710000
  84.1070000  80.6080000 -31.3910000  84.6390000  78.9970000 -30.9050000
  84.5960000  80.4310000 -29.2870000  85.3770000  81.2250000 -28.7060000
  83.6080000  79.9260000 -28.6980000  85.6800000  80.3200000 -33.7400000
  85.8460000  81.4630000 -34.1730000  84.6970000  79.5300000 -34.1890000
  84.6240000  78.5940000 -33.8170000  83.5980000  79.9920000 -35.0510000
  83.2290000  80.9430000 -34.6670000  82.7800000  79.2750000 -34.9850000
  83.9260000  80.1890000 -36.5400000  83.0670000  80.6730000 -37.2810000
  85.1300000  79.8210000 -36.9990000  85.7810000  79.4170000 -36.3420000
  85.5790000  80.0090000 -38.3860000  84.8360000  80.5970000 -38.9250000
  86.8820000  80.8330000 -38.3850000  86.7510000  81.6910000 -37.7250000
  87.7070000  80.2320000 -38.0030000  87.2520000  81.3400000 -39.7720000
  87.1160000  80.6540000 -40.7730000  87.7060000  82.5670000 -39.8850000
  87.7960000  83.1600000 -39.0720000  87.9180000  82.9120000 -40.8100000
  85.7250000  78.6610000 -39.1210000  86.6750000  77.9100000 -38.8940000
  84.7940000  78.3690000 -40.0380000  84.0420000  79.0290000 -40.1770000
  84.7620000  77.1200000 -40.8160000  84.8960000  76.2860000 -40.1270000
  83.3840000  76.9670000 -41.4910000  83.2510000  77.7910000 -42.1920000
  83.3870000  76.0420000 -42.0680000  82.1770000  76.9350000 -40.5330000
  82.1290000  77.8670000 -39.9700000  80.8890000  76.8010000 -41.3420000
  80.8930000  75.8670000 -41.9040000  80.0290000  76.8140000 -40.6720000
  80.8030000  77.6370000 -42.0360000  82.2400000  75.7680000 -39.5460000
  83.0870000  75.8940000 -38.8720000  81.3300000  75.7440000 -38.9460000
  82.3400000  74.8260000 -40.0850000  85.8970000  76.9960000 -41.8540000
  86.1870000  75.8860000 -42.3060000  86.5560000  78.1090000 -42.2180000
  86.2840000  78.9800000 -41.7860000  87.6990000  78.1440000 -43.1560000
  87.6990000  77.2400000 -43.7660000  87.5570000  79.3510000 -44.1050000
  87.5130000  80.2680000 -43.5180000  88.4370000  79.4010000 -44.7460000
  86.3210000  79.2510000 -45.0160000  86.3540000  78.3030000 -45.5520000
  85.4120000  79.2790000 -44.4160000  86.2840000  80.3900000 -46.0450000
  87.2070000  80.3640000 -46.6240000  85.4480000  80.2180000 -46.7230000
  86.1120000  81.7050000 -45.3940000  85.6180000  81.7090000 -44.5130000
  86.5160000  82.8820000 -45.8370000  87.1180000  83.0620000 -46.9750000
  87.2560000  82.2860000 -47.6060000  87.3910000  84.0020000 -47.2260000
  86.3350000  83.9570000 -45.1370000  85.8590000  83.9360000 -44.2470000
  86.6830000  84.8200000 -45.5300000  89.0630000  78.1600000 -42.4450000
  90.0930000  78.3030000 -43.1050000  89.0960000  77.9650000 -41.1240000
  88.2210000  77.8580000 -40.6330000  90.3320000  77.6880000 -40.3970000
  91.0460000  78.4800000 -40.6200000  90.0600000  77.7100000 -38.8880000
  90.9920000  77.5480000 -38.3470000  89.6460000  78.6760000 -38.5970000
  89.3530000  76.9240000 -38.6220000  90.9640000  76.3590000 -40.8520000
  90.2860000  75.3350000 -40.9700000  92.2770000  76.3730000 -41.0710000
  92.7620000  77.2540000 -40.9790000  93.0980000  75.1940000 -41.3530000
  92.4790000  74.2970000 -41.3320000  93.7460000  75.2910000 -42.7430000
  94.3430000  76.2010000 -42.8060000  94.4080000  74.4340000 -42.8660000
  92.7210000  75.2710000 -43.8860000  92.0020000  74.4750000 -43.6950000
  92.1820000  76.2190000 -43.9020000  93.3870000  75.0380000 -45.2570000
  94.4990000  75.5670000 -45.5070000  92.7850000  74.3410000 -46.1110000
  94.1770000  75.0430000 -40.2760000  94.7270000  76.0290000 -39.7830000
  94.4730000  73.7980000 -39.9070000  94.0200000  73.0330000 -40.3860000
  95.3650000  73.4430000 -38.8040000  95.7690000  74.3420000 -38.3370000
  94.5650000  72.6740000 -37.7460000  95.2720000  72.2450000 -37.0360000
  94.0450000  71.8460000 -38.2280000  93.5520000  73.5080000 -36.9740000
  92.3170000  73.8740000 -37.5500000  92.0700000  73.5530000 -38.5510000
  91.4030000  74.6680000 -36.8280000  90.4700000  74.9690000 -37.2820000
  91.7090000  75.0790000 -35.5130000  90.8350000  75.8480000 -34.8100000
  89.9400000  75.7580000 -35.1460000  92.9310000  74.6870000 -34.9280000
  93.1680000  74.9820000 -33.9160000  93.8450000  73.9080000 -35.6570000
  94.7750000  73.6100000 -35.1950000  96.5310000  72.6070000 -39.3460000
  96.3180000  71.6000000 -40.0280000  97.7630000  73.0440000 -39.0670000
  97.8550000  73.8530000 -38.4700000  98.9880000  72.4990000 -39.6580000
  98.7290000  71.7010000 -40.3540000  99.6750000  73.6190000 -40.4690000
  99.0130000  73.9230000 -41.2790000  99.8090000  74.4790000 -39.8120000
 101.0530000  73.2480000 -41.0590000 101.7190000  72.9180000 -40.2620000
 100.9530000  72.1470000 -42.1130000 100.2890000  72.4580000 -42.9200000
 101.9420000  71.9400000 -42.5220000 100.5720000  71.2280000 -41.6670000
 101.6920000  74.4700000 -41.7160000 101.8200000  75.2610000 -40.9770000
 102.6750000  74.2040000 -42.1050000 101.0700000  74.8270000 -42.5360000
  99.9260000  71.9120000 -38.5930000 100.3600000  72.6180000 -37.6820000
 100.3030000  70.6480000 -38.7800000  99.8440000  70.1240000 -39.5120000
 101.5260000  70.0600000 -38.2300000 101.7850000  70.5550000 -37.2940000
 101.3550000  68.5540000 -37.9490000 101.3330000  68.0120000 -38.8940000
 102.2340000  68.2070000 -37.4050000 100.0830000  68.1740000 -37.1740000
 100.1760000  67.9770000 -35.9390000  99.0180000  67.9710000 -37.8090000
 102.6600000  70.2730000 -39.2500000 102.6680000  69.6370000 -40.3100000
 103.5890000  71.2000000 -38.9900000 103.5270000  71.7420000 -38.1400000
 104.7430000  71.4180000 -39.8770000 104.3670000  71.7420000 -40.8470000
 105.6040000  72.5570000 -39.3130000 104.9660000  73.4240000 -39.1460000
 106.0010000  72.2450000 -38.3470000 106.7720000  72.9550000 -40.2360000
 107.5650000  72.0730000 -40.6410000 106.8910000  74.1620000 -40.5570000
 105.5410000  70.1100000 -40.0820000 105.9670000  69.4740000 -39.1130000
 105.7610000  69.7040000 -41.3420000 105.4000000  70.2740000 -42.0940000
 106.3640000  68.4010000 -41.6860000 105.8610000  67.6390000 -41.0900000
 106.0860000  68.1020000 -43.1720000 105.0410000  68.3320000 -43.3800000
 106.7100000  68.7420000 -43.7970000 106.3280000  66.6300000 -43.5400000
 107.3910000  66.4000000 -43.4640000 105.7740000  65.9930000 -42.8510000
 105.8630000  66.3330000 -44.9690000 104.8100000  66.6010000 -45.0570000
 106.4420000  66.9410000 -45.6640000 106.0350000  64.9030000 -45.2980000
 106.4960000  64.3270000 -44.6090000 105.6340000  64.2940000 -46.3990000
 105.0370000  64.9320000 -47.3660000 104.8810000  65.9260000 -47.2740000
 104.7370000  64.4470000 -48.1990000 105.8270000  63.0150000 -46.5530000
 106.2820000  62.4800000 -45.8280000 105.5180000  62.5490000 -47.3940000
 107.8560000  68.2990000 -41.3310000 108.3720000  67.1910000 -41.1730000
 108.5450000  69.4340000 -41.2010000 108.0300000  70.3010000 -41.2650000
 109.9800000  69.5220000 -40.9260000 110.4360000  68.5450000 -41.0850000
 110.6230000  70.5040000 -41.9220000 110.2060000  71.5010000 -41.7760000
 111.6950000  70.5560000 -41.7330000 110.4080000  70.0980000 -43.3720000
 109.6300000  70.6920000 -44.1070000 111.0760000  69.0630000 -43.8340000
 111.7290000  68.5680000 -43.2430000 110.9320000  68.7880000 -44.7950000
 110.2760000  69.9080000 -39.4660000 111.1130000  69.2690000 -38.8240000
 109.6180000  70.9470000 -38.9360000 108.9430000  71.4320000 -39.5100000
 109.8590000  71.4450000 -37.5620000 110.8980000  71.2510000 -37.2950000
 109.6510000  72.9650000 -37.4580000 110.0260000  73.3030000 -36.4920000
 110.3670000  73.7530000 -38.5530000 109.9000000  73.5730000 -39.5220000
 110.3200000  74.8190000 -38.3280000 111.4130000  73.4500000 -38.5990000
 108.2790000  73.2700000 -37.5300000 108.2020000  74.1680000 -37.8610000
 108.9890000  70.7680000 -36.4950000 109.3060000  70.8640000 -35.3080000
 107.8860000  70.1240000 -36.9010000 107.7070000  70.0990000 -37.8950000
 106.8790000  69.4630000 -36.0520000 106.1740000  68.9700000 -36.7220000
 107.4970000  68.3320000 -35.2060000 108.1990000  68.7430000 -34.4800000
 106.7030000  67.8470000 -34.6380000 108.1900000  67.2670000 -36.0370000
 109.5880000  67.2890000 -36.2100000 110.1810000  68.0570000 -35.7370000
 110.2150000  66.3160000 -37.0110000 111.2850000  66.3400000 -37.1490000
 109.4480000  65.3180000 -37.6370000 109.9290000  64.5730000 -38.2530000
 108.0530000  65.2900000 -37.4610000 107.4630000  64.5240000 -37.9420000
 107.4260000  66.2640000 -36.6640000 106.3530000  66.2440000 -36.5390000
 106.0130000  70.4510000 -35.2420000 105.2350000  70.0300000 -34.3820000
 106.0950000  71.7610000 -35.5300000 106.7210000  72.0420000 -36.2710000
 105.3320000  72.8130000 -34.8330000 105.3330000  72.5710000 -33.7700000
 106.0130000  74.1850000 -35.0040000 106.1640000  74.3960000 -36.0620000
 105.3610000  74.9550000 -34.5900000 107.3560000  74.2310000 -34.2580000
 107.1870000  73.9830000 -33.2100000 108.0380000  73.4960000 -34.6850000
 108.0120000  75.6130000 -34.3320000 108.1480000  75.8780000 -35.3810000
 107.3570000  76.3610000 -33.8850000 109.3320000  75.6080000 -33.6620000
 110.1320000  75.4810000 -34.2650000 109.5940000  75.7230000 -32.3710000
 108.6650000  75.8140000 -31.4650000 107.6960000  75.8510000 -31.7460000
 108.9090000  75.6610000 -30.4970000 110.8200000  75.7610000 -31.9530000
 111.5880000  75.6420000 -32.5980000 111.0060000  76.0160000 -30.9930000
 103.8660000  72.8600000 -35.2770000 103.5640000  72.8770000 -36.4700000
 102.9650000  72.9090000 -34.2970000 103.2980000  72.8430000 -33.3460000
 101.5450000  73.2230000 -34.4770000 101.1230000  72.5550000 -35.2270000
 100.8210000  72.9900000 -33.1410000 101.1930000  73.7050000 -32.4070000
  99.7590000  73.1900000 -33.2800000 100.9620000  71.6020000 -32.5650000
 101.2340000  71.3000000 -31.2480000 101.5330000  71.9500000 -30.5340000
 101.1150000  69.9690000 -31.1000000 101.2510000  69.4330000 -30.1720000
 100.7970000  69.3840000 -32.2650000 100.6930000  70.4190000 -33.2030000
 100.4060000  70.3120000 -34.2390000 101.3300000  74.6820000 -34.9260000
 101.9450000  75.5980000 -34.3750000 100.4020000  74.9220000 -35.8570000
  99.9990000  74.1340000 -36.3440000  99.8310000  76.2570000 -36.1190000
  99.8040000  76.8040000 -35.1760000 100.7250000  77.0570000 -37.0810000
 100.3610000  78.0830000 -37.1400000 101.7400000  77.0840000 -36.6850000
 100.7420000  76.5150000 -38.3900000 101.2010000  75.6730000 -38.3470000
  98.3840000  76.1820000 -36.6220000  97.8860000  75.1060000 -36.9620000
  97.7090000  77.3330000 -36.6740000  98.1740000  78.1700000 -36.3520000
  96.3380000  77.4930000 -37.1920000  96.1220000  76.6510000 -37.8500000
  95.2930000  77.4600000 -36.0540000  95.3830000  76.4980000 -35.5490000
  95.4820000  78.5580000 -34.9980000  95.3450000  79.5450000 -35.4400000
  94.7490000  78.4230000 -34.2030000  96.4780000  78.4920000 -34.5590000
  93.8640000  77.5740000 -36.5970000  93.6800000  76.7750000 -37.3150000
  93.1530000  77.4720000 -35.7760000  93.7000000  78.5390000 -37.0760000
  96.2590000  78.7660000 -38.0340000  96.8390000  79.7870000 -37.6620000
  95.5970000  78.7020000 -39.1910000  95.1540000  77.8250000 -39.4270000
  95.5930000  79.7530000 -40.2240000  95.8550000  80.6930000 -39.7380000
  96.6850000  79.4670000 -41.2830000  97.6440000  79.4210000 -40.7660000
  96.5040000  78.1450000 -42.0360000  95.5730000  78.1570000 -42.6030000
  97.3340000  77.9980000 -42.7280000  96.4920000  77.3100000 -41.3370000
  96.7860000  80.5730000 -42.3370000  96.9250000  81.5410000 -41.8540000
  97.6450000  80.3890000 -42.9830000  95.8850000  80.5930000 -42.9500000
  94.1990000  79.9510000 -40.8330000  93.4790000  78.9860000 -41.0820000
  93.8130000  81.2110000 -41.0590000  94.4520000  81.9490000 -40.8010000
  92.5190000  81.6260000 -41.6460000  92.0140000  80.7450000 -42.0420000
  91.5930000  82.2740000 -40.5890000  90.7510000  82.7290000 -41.1100000
  91.0070000  81.2240000 -39.6470000  91.7990000  80.6860000 -39.1250000
  90.3600000  81.7130000 -38.9180000  90.3970000  80.5300000 -40.2240000
  92.2630000  83.3720000 -39.7520000  92.6690000  84.1470000 -40.4030000
  91.5230000  83.8300000 -39.0960000  93.0650000  82.9570000 -39.1410000
  92.7230000  82.6280000 -42.7920000  93.6960000  83.3830000 -42.7630000
  91.8240000  82.6880000 -43.7950000  90.7780000  81.7190000 -44.0920000
  89.9220000  81.8880000 -43.4390000  91.1350000  80.6940000 -43.9980000
  90.3870000  81.9890000 -45.5420000  89.3610000  81.6820000 -45.7470000
  91.0830000  81.4830000 -46.2110000  90.5680000  83.5010000 -45.6580000
  89.6880000  83.9990000 -45.2510000  90.7380000  83.8090000 -46.6890000
  91.7920000  83.7750000 -44.7760000  92.6900000  83.7130000 -45.3910000
  91.7140000  85.1630000 -44.1170000  90.9440000  85.3750000 -43.1780000
  92.5070000  86.1150000 -44.6140000  93.0710000  85.8900000 -45.4220000
  92.4000000  87.5290000 -44.2530000  92.2980000  87.6070000 -43.1700000
  93.6960000  88.2330000 -44.6750000  94.5520000  87.6640000 -44.3120000
  93.7400000  88.2940000 -45.7630000  93.7510000  89.9000000 -43.9650000
  94.9990000  90.2090000 -44.3270000  91.1520000  88.1520000 -44.9110000
  90.8440000  87.8490000 -46.0670000  90.4390000  89.0290000 -44.1990000
  90.7680000  89.2960000 -43.2820000  89.1640000  89.6100000 -44.6470000
  89.1330000  89.5810000 -45.7360000  87.9770000  88.7920000 -44.1010000
  88.0510000  88.7710000 -43.0130000  87.0500000  89.3080000 -44.3490000
  87.8690000  87.3390000 -44.5950000  88.7830000  86.8010000 -44.3410000
  87.0620000  86.8640000 -44.0350000  87.5680000  87.1700000 -46.1010000
  87.3100000  88.1650000 -46.8220000  87.5170000  85.9980000 -46.5530000
  89.0050000  91.0740000 -44.1840000  89.4730000  91.4130000 -43.0880000
  88.3230000  91.9390000 -44.9630000  87.8980000  91.7230000 -46.3390000
  86.9440000  91.1950000 -46.3480000  88.6400000  91.1770000 -46.9210000
  87.7260000  93.1160000 -46.9350000  86.9930000  93.1210000 -47.7410000
  88.6890000  93.4850000 -47.2880000  87.2570000  93.9390000 -45.7390000
  86.1760000  93.8450000 -45.6460000  87.5370000  94.9880000 -45.8420000
  87.9460000  93.2860000 -44.5340000  88.8690000  93.8210000 -44.3090000
  87.0130000  93.3040000 -43.3010000  86.3310000  92.3050000 -43.0290000
  86.9340000  94.4360000 -42.5710000  87.7280000  95.6400000 -42.7570000
  87.2840000  96.2540000 -43.5400000  88.7650000  95.4050000 -42.9950000
  87.6750000  96.3740000 -41.4230000  87.8290000  97.4470000 -41.5430000
  88.4120000  95.9460000 -40.7440000  86.2660000  96.0470000 -40.9410000
  85.5590000  96.7180000 -41.4290000  86.1770000  96.1320000 -39.8570000
  86.0420000  94.6090000 -41.4230000  86.3490000  93.9150000 -40.6400000
  84.5590000  94.3880000 -41.7590000  84.1080000  94.6530000 -42.8790000
  83.7770000  93.9480000 -40.7670000  84.2110000  93.7230000 -39.8830000
  82.3100000  94.0690000 -40.7990000  81.9320000  93.4690000 -41.6260000
  81.6970000  93.5520000 -39.4850000  82.1100000  94.1210000 -38.6520000
  80.6220000  93.7340000 -39.5060000  81.9350000  92.0560000 -39.2230000
  83.0020000  91.8920000 -39.0760000  81.4340000  91.7910000 -38.2920000
  81.4160000  91.1350000 -40.3480000  80.3790000  91.4460000 -40.9850000
  82.0330000  90.0680000 -40.5890000  81.8680000  95.5260000 -41.0520000
  82.5390000  96.4710000 -40.6240000  80.7440000  95.7240000 -41.7510000
  80.2170000  94.9190000 -42.0580000  80.2770000  97.0630000 -42.1650000
  81.0420000  97.4930000 -42.8120000  78.9750000  96.9770000 -42.9880000
  78.2010000  96.4970000 -42.3890000  78.4720000  98.3630000 -43.4120000
  79.2430000  98.8860000 -43.9770000  77.5840000  98.2580000 -44.0340000
  78.2000000  98.9540000 -42.5370000  79.1820000  96.1550000 -44.2670000
  79.4570000  95.1290000 -44.0210000  78.2570000  96.1280000 -44.8420000
  79.9680000  96.6010000 -44.8770000  80.1100000  97.9920000 -40.9520000
  79.3870000  97.6760000 -40.0030000  80.7920000  99.1420000 -40.9880000
  81.3600000  99.3270000 -41.8020000  80.8180000 100.1440000 -39.9140000
  79.8850000 100.1070000 -39.3530000  80.8890000 101.1330000 -40.3670000
  81.9800000 100.0000000 -38.9150000  82.2550000 100.9470000 -38.1720000
  82.6750000  98.8580000 -38.8930000  82.4060000  98.1230000 -39.5310000
  83.8980000  98.6380000 -38.0980000  83.8270000  99.2140000 -37.1750000
  84.0330000  97.1590000 -37.7080000  84.1120000  96.5470000 -38.6060000
  84.9410000  97.0250000 -37.1200000  82.9190000  96.7350000 -36.9360000
  83.0560000  95.8160000 -36.6930000  85.1660000  99.0950000 -38.8390000
  85.1970000  99.1540000 -40.0710000  86.2410000  99.3660000 -38.0880000
  86.1410000  99.3390000 -37.0840000  87.5370000  99.8220000 -38.6320000
  87.4060000 100.1430000 -39.6650000  88.0210000 101.0460000 -37.8360000
  88.1870000 100.7430000 -36.8020000  88.9770000 101.3730000 -38.2460000
  87.0630000 102.2500000 -37.8710000  86.3880000 102.4910000 -38.9020000
  87.0160000 103.0030000 -36.8670000  88.6300000  98.7270000 -38.6520000
  89.7240000  98.9520000 -39.1760000  88.3340000  97.5300000 -38.1280000
  87.4110000  97.3980000 -37.7390000  89.2770000  96.4150000 -37.9810000
  89.9720000  96.4270000 -38.8210000  90.0870000  96.6330000 -36.6900000
  90.8510000  95.8630000 -36.5900000  90.5870000  97.5990000 -36.7600000
  89.0350000  96.6150000 -35.2070000  89.8710000  97.3160000 -34.4360000
  88.5670000  95.0450000 -37.9910000  87.3540000  94.9470000 -37.7770000
  89.3350000  93.9820000 -38.2500000  90.3230000  94.1360000 -38.3920000
  88.8580000  92.5830000 -38.2960000  87.7680000  92.5610000 -38.3080000
  89.3610000  91.8940000 -39.5810000  90.4510000  91.9080000 -39.5970000
  88.8910000  90.4460000 -39.7270000  87.8040000  90.3970000 -39.6690000
  89.2160000  90.0500000 -40.6890000  89.3260000  89.8270000 -38.9430000
  88.8780000  92.5950000 -40.7020000  89.1500000  92.1150000 -41.4880000
  89.3460000  91.8380000 -37.0510000  90.5000000  92.0070000 -36.6720000
  88.5140000  91.0100000 -36.4100000  87.5790000  90.8840000 -36.7710000
  88.8350000  90.4060000 -35.0960000  89.8580000  90.6580000 -34.8190000
  87.9300000  90.9790000 -33.9920000  86.8880000  90.7670000 -34.2310000
  88.2470000  90.4360000 -32.5970000  89.2850000  90.6490000 -32.3410000
  87.5950000  90.9120000 -31.8650000  88.0740000  89.3610000 -32.5570000
  88.1140000  92.3760000 -33.9240000  87.4020000  92.7370000 -33.3900000
  88.7380000  88.8820000 -35.1320000  87.6630000  88.3260000 -35.3660000
  89.8650000  88.2040000 -34.8910000  90.6910000  88.7340000 -34.6540000
  89.9350000  86.7440000 -34.7160000  89.1450000  86.2880000 -35.3120000
  91.2800000  86.1700000 -35.2270000  92.0970000  86.6230000 -34.6650000
  91.3020000  84.6460000 -34.9980000  90.4660000  84.1840000 -35.5220000
  92.2290000  84.2080000 -35.3700000  91.2510000  84.4080000 -33.9350000
  91.4730000  86.4800000 -36.7330000  90.6840000  85.9920000 -37.3040000
  91.3860000  87.5540000 -36.8940000  92.8310000  86.0510000 -37.3080000
  92.9510000  84.9690000 -37.2700000  92.8880000  86.3540000 -38.3540000
  93.6370000  86.5290000 -36.7510000  89.6730000  86.3920000 -33.2430000
  90.2710000  86.9840000 -32.3440000  88.7760000  85.4340000 -32.9910000
  88.2990000  85.0040000 -33.7700000  88.4950000  84.9020000 -31.6530000
  88.8130000  85.6260000 -30.9030000  86.9800000  84.7170000 -31.4770000
  86.6200000  83.9780000 -32.1930000  86.7850000  84.3340000 -30.4760000
  86.2060000  85.9970000 -31.6700000  85.5300000  86.3850000 -32.8060000
  85.3980000  85.8370000 -33.6440000  85.0390000  87.6190000 -32.6010000
  84.4540000  88.1750000 -33.3190000  85.3750000  88.0610000 -31.3750000
  86.1190000  87.0330000 -30.7800000  86.5720000  87.0560000 -29.7990000
  89.2840000  83.6060000 -31.4040000  88.8570000  82.5140000 -31.7870000
  90.4600000  83.7180000 -30.7860000  90.7660000  84.6320000 -30.4850000
  91.2570000  82.5550000 -30.3800000  91.2180000  81.8300000 -31.1930000
  92.7290000  82.9560000 -30.2060000  93.2870000  82.0980000 -29.8300000
  92.8040000  83.7470000 -29.4600000  93.3870000  83.4140000 -31.4940000
  93.7280000  82.4640000 -32.4760000  93.5220000  81.4180000 -32.3070000
  94.3220000  82.8770000 -33.6840000  94.5730000  82.1450000 -34.4380000
  94.5760000  84.2470000 -33.9120000  95.1130000  84.6570000 -35.0930000
  95.2000000  83.9340000 -35.7180000  94.2390000  85.1970000 -32.9260000
  94.4330000  86.2430000 -33.1130000  93.6390000  84.7810000 -31.7210000
  93.3640000  85.5110000 -30.9740000  90.6930000  81.8640000 -29.1260000
  90.0150000  82.4820000 -28.3030000  91.0030000  80.5780000 -28.9540000
  91.4900000  80.1210000 -29.7120000  90.8510000  79.8120000 -27.7110000
  90.6010000  80.4850000 -26.8900000  89.7390000  78.7470000 -27.8450000
  90.0040000  78.0660000 -28.6540000  89.7140000  78.1690000 -26.9210000
  88.3100000  79.2200000 -28.0950000  87.4400000  78.4200000 -28.4070000
  87.9930000  80.4860000 -27.9830000  88.7060000  81.1700000 -27.7740000
  87.0440000  80.7500000 -28.2040000  92.1920000  79.1260000 -27.3820000
  92.8060000  78.5320000 -28.2700000  92.6370000  79.2030000 -26.1220000
  92.0780000  79.6970000 -25.4420000  93.8810000  78.5790000 -25.6400000
  94.4610000  78.2180000 -26.4900000  94.7460000  79.6170000 -24.9140000
  95.5410000  79.0820000 -24.3940000  94.1510000  80.1320000 -24.1610000
  95.3920000  80.6380000 -25.8340000  94.6480000  81.7300000 -26.3230000
  93.6110000  81.8410000 -26.0440000  95.2480000  82.6650000 -27.1910000
  94.6760000  83.5010000 -27.5670000  96.5980000  82.5040000 -27.5720000
  97.1800000  83.3940000 -28.4180000  96.5270000  83.9790000 -28.8090000
  97.3430000  81.4140000 -27.0780000  98.3750000  81.2930000 -27.3710000
  96.7400000  80.4820000 -26.2130000  97.3160000  79.6460000 -25.8430000
  93.5640000  77.3820000 -24.7330000  92.8590000  77.5150000 -23.7340000
  94.0490000  76.1970000 -25.1090000  94.6270000  76.1960000 -25.9370000
  93.4480000  74.9070000 -24.7290000  92.4530000  75.1000000 -24.3290000
  93.2580000  74.0620000 -26.0050000  94.2320000  73.8020000 -26.4190000
  92.7440000  73.1370000 -25.7430000  92.4240000  74.7490000 -27.0980000
  92.9830000  75.5960000 -27.4970000  92.2930000  74.0370000 -27.9130000
  90.7820000  75.3550000 -26.6050000  90.0270000  73.8420000 -25.9440000
  90.4950000  73.5760000 -24.9960000  88.9630000  74.0080000 -25.7780000
  90.1560000  73.0190000 -26.6480000  94.1760000  74.1250000 -23.6140000
  93.8460000  72.9620000 -23.3810000  95.1180000  74.7500000 -22.9020000
  95.3360000  75.7010000 -23.1640000  95.7050000  74.2790000 -21.6320000
  95.0020000  73.6320000 -21.1070000  97.0180000  73.5180000 -21.8860000
  97.6490000  74.0870000 -22.5690000  97.5630000  73.4020000 -20.9480000
  96.7030000  71.8740000 -22.5600000  96.1010000  71.3730000 -21.4770000
  96.0480000  75.4790000 -20.7390000  96.4390000  76.5220000 -21.2580000
  96.0020000  75.3160000 -19.4110000  95.6790000  74.4370000 -19.0330000
  96.6770000  76.2420000 -18.4900000  96.3050000  77.2480000 -18.6840000
  96.3600000  75.9030000 -17.0260000  96.8970000  76.6070000 -16.3890000
  96.7480000  74.9110000 -16.7950000  94.8940000  75.9710000 -16.6440000
  94.2570000  77.2230000 -16.5350000  94.8080000  78.1250000 -16.7590000
  92.9130000  77.3040000 -16.1180000  92.4320000  78.2660000 -16.0210000
  92.1990000  76.1210000 -15.8220000  90.8990000  76.1800000 -15.4260000
  90.6040000  77.0830000 -15.2850000  92.8370000  74.8670000 -15.9390000
  92.2860000  73.9680000 -15.7080000  94.1820000  74.7930000 -16.3480000
  94.6710000  73.8320000 -16.4150000  98.1980000  76.2330000 -18.7130000
  98.7870000  75.1850000 -18.9840000  98.8640000  77.3770000 -18.5300000
  98.3420000  78.2110000 -18.2990000 100.3320000  77.4830000 -18.6230000
 100.6450000  77.1130000 -19.5990000 100.7680000  78.9490000 -18.5280000
 100.4340000  79.3660000 -17.5790000 101.8540000  79.0170000 -18.5860000
 100.1910000  79.6880000 -19.5920000 100.6800000  79.4870000 -20.3940000
 101.0590000  76.6300000 -17.5740000 102.2080000  76.2460000 -17.7710000
 100.3850000  76.2740000 -16.4780000  99.4440000  76.6210000 -16.3600000
 100.9100000  75.4300000 -15.3990000 101.9550000  75.6920000 -15.2330000
 100.1450000  75.7610000 -14.1120000 100.5100000  75.1390000 -13.2950000
 100.3140000  76.8070000 -13.8530000  98.7560000  75.5420000 -14.3010000
  98.3100000  75.7120000 -13.4680000 100.8520000  73.9140000 -15.6640000
 101.4460000  73.1650000 -14.8860000 100.1830000  73.4350000 -16.7270000
  99.7150000  74.0850000 -17.3420000  99.9410000  71.9950000 -16.9370000
  99.3430000  71.6330000 -16.1010000  99.1260000  71.7860000 -18.2260000
  99.5810000  72.3290000 -19.0540000  99.1230000  70.7230000 -18.4680000
  97.4030000  72.3210000 -17.9960000  96.8550000  71.5510000 -18.9400000
 101.2330000  71.1510000 -16.9840000 102.1430000  71.4290000 -17.7700000
 101.2700000  70.0630000 -16.2070000 100.4700000  69.8690000 -15.6210000
 102.4010000  69.1250000 -16.1370000 103.3150000  69.7000000 -15.9890000
 102.2320000  68.1730000 -14.9380000 101.3200000  67.5910000 -15.0730000
 103.0690000  67.4770000 -14.9150000 102.1460000  68.8920000 -13.5820000
 101.2580000  69.5250000 -13.5770000 102.0050000  68.1380000 -12.8090000
 103.5720000  69.9190000 -13.1170000 104.8610000  68.6520000 -12.9490000
 105.0610000  68.1910000 -13.9160000 105.7770000  69.1140000 -12.5810000
 104.5370000  67.8880000 -12.2430000 102.5390000  68.3270000 -17.4410000
 101.5580000  67.7840000 -17.9490000 103.7490000  68.2680000 -18.0070000
 104.5330000  68.6790000 -17.5190000 104.0140000  67.6120000 -19.2990000
 103.5110000  66.6450000 -19.3240000 105.0850000  67.4300000 -19.3860000
 103.5710000  68.4120000 -20.5360000 103.5970000  67.8820000 -21.6470000
 103.1640000  69.6750000 -20.3550000 103.1410000  70.0230000 -19.4070000
 102.8280000  70.6310000 -21.4200000 101.7690000  70.8830000 -21.3610000
 103.0190000  70.1960000 -22.4010000 103.6730000  71.8990000 -21.2930000
 104.9040000  71.8570000 -21.3700000 103.0280000  73.0500000 -21.0760000
 102.0180000  73.0480000 -21.0620000 103.7390000  74.3010000 -20.7670000
 104.4860000  74.4560000 -21.5460000 102.7760000  75.4980000 -20.8130000
 101.8570000  75.2440000 -20.2840000 103.2390000  76.3540000 -20.3220000
 102.4510000  75.9060000 -22.2570000 103.3810000  76.1970000 -22.7470000
 102.0400000  75.0530000 -22.7960000 101.2980000  77.2990000 -22.3990000
  99.7250000  76.4280000 -22.1700000  99.7170000  75.9080000 -21.2120000
  98.9040000  77.1450000 -22.2000000  99.5970000  75.6950000 -22.9660000
 104.5370000  74.2330000 -19.4540000 105.6440000  74.7600000 -19.4060000
 104.0440000  73.5410000 -18.4190000 103.1440000  73.0970000 -18.5310000
 104.7810000  73.2250000 -17.1800000 104.0600000  72.8230000 -16.4680000
 105.7950000  72.1000000 -17.4830000 105.2910000  71.2950000 -18.0180000
 106.5790000  72.4940000 -18.1310000 106.4470000  71.4960000 -16.2430000
 105.9820000  71.6140000 -15.1150000 107.5510000  70.8060000 -16.4180000
 107.9510000  70.7050000 -17.3410000 107.9920000  70.3840000 -15.6140000
 105.3940000  74.4760000 -16.5030000 106.5530000  74.4780000 -16.0850000
 104.6040000  75.5630000 -16.4570000 103.7100000  75.4770000 -16.9180000
 104.8770000  76.8750000 -15.8180000 103.9430000  77.4380000 -15.8070000
 105.3080000  76.7060000 -14.3410000 106.2450000  76.1510000 -14.2920000
 105.4980000  77.6860000 -13.9040000 104.2330000  76.0120000 -13.4810000
 103.4620000  76.7420000 -13.2320000 103.7660000  75.1960000 -14.0320000
 104.8050000  75.4210000 -12.1900000 105.4220000  76.1670000 -11.6880000
 103.9760000  75.1740000 -11.5270000 105.5550000  74.1800000 -12.4820000
 105.0110000  73.4020000 -12.8280000 106.8510000  73.9590000 -12.3630000
 107.6670000  74.8340000 -11.8450000 107.3010000  75.7150000 -11.5140000
 108.6560000  74.6430000 -11.7740000 107.3510000  72.8320000 -12.7790000
 106.7750000  72.2070000 -13.3250000 108.3380000  72.6430000 -12.6750000
 105.8410000  77.7640000 -16.6300000 106.2230000  78.8400000 -16.1660000
 106.1900000  77.3600000 -17.8600000 105.8270000  76.4720000 -18.1760000
 107.0200000  78.1290000 -18.8080000 107.7840000  78.6550000 -18.2360000
 107.7380000  77.1790000 -19.7830000 106.9980000  76.6530000 -20.3860000
 108.3570000  77.7710000 -20.4580000 108.6420000  76.1670000 -19.0570000
 109.4360000  76.7130000 -18.5480000 108.0780000  75.6050000 -18.3110000
 109.2770000  75.1770000 -20.0350000 109.7220000  75.7410000 -20.8550000
 110.0670000  74.6400000 -19.5090000 108.3060000  74.1980000 -20.5700000
 107.3660000  74.2280000 -20.2000000 108.5790000  73.3000000 -21.5040000
 109.7600000  73.2160000 -22.0360000 110.4980000  73.8250000 -21.7150000
 109.9450000  72.5100000 -22.7350000 107.7040000  72.4480000 -21.9420000
 106.7710000  72.3790000 -21.5620000 107.9650000  71.8730000 -22.7290000
 106.1730000  79.1540000 -19.5870000 105.1210000  78.7750000 -20.1080000
 106.6020000  80.4250000 -19.7040000 107.7750000  81.0070000 -19.0650000
 108.6670000  80.4090000 -19.2540000 107.5980000  81.0960000 -17.9930000
 107.9470000  82.3950000 -19.6740000 108.5950000  82.3200000 -20.5470000
 108.3540000  83.1050000 -18.9550000 106.5310000  82.7710000 -20.1080000
 106.5360000  83.4930000 -20.9240000 105.9880000  83.1710000 -19.2520000
 105.9120000  81.4290000 -20.5160000 104.8510000  81.4390000 -20.2650000
 106.0640000  81.1540000 -22.0210000 107.1180000  80.7110000 -22.4870000
 105.0220000  81.4690000 -22.7950000 104.2010000  81.8580000 -22.3550000
 104.9890000  81.3170000 -24.2590000 105.9750000  81.0070000 -24.6060000
 103.9820000  80.2230000 -24.6980000 103.9890000  80.2070000 -25.7870000
 104.4420000  78.8310000 -24.2290000 104.4540000  78.7780000 -23.1410000
 103.7700000  78.0610000 -24.6100000 105.4410000  78.6220000 -24.6120000
 102.5330000  80.5060000 -24.2420000 102.4040000  80.1950000 -23.2050000
 102.3290000  81.5750000 -24.2970000 101.4860000  79.8070000 -25.1170000
 101.6430000  78.7280000 -25.1060000 100.4890000  80.0230000 -24.7320000
 101.5550000  80.1710000 -26.1420000 104.6840000  82.6520000 -24.9520000
 104.0160000  83.5240000 -24.3950000 105.1590000  82.7910000 -26.1880000
 105.6890000  82.0200000 -26.5690000 104.8360000  83.8740000 -27.1120000
 104.3050000  84.6690000 -26.5900000 106.1210000  84.4590000 -27.7340000
 106.5780000  83.6970000 -28.3650000 105.8320000  85.2890000 -28.3790000
 107.1930000  84.9520000 -26.7480000 107.5730000  84.1070000 -26.1740000
 108.3550000  85.5580000 -27.5320000 108.0160000  86.4240000 -28.1000000
 109.1450000  85.8650000 -26.8470000 108.7630000  84.8160000 -28.2190000
 106.6550000  86.0080000 -25.7830000 105.9740000  85.5360000 -25.0750000
 107.4740000  86.4550000 -25.2210000 106.1340000  86.7910000 -26.3340000
 103.9330000  83.3280000 -28.2210000 104.3070000  82.3790000 -28.9150000
 102.7700000  83.9430000 -28.4160000 102.5410000  84.7300000 -27.8250000
 102.0030000  83.7970000 -29.6550000 102.1100000  82.7790000 -30.0290000
 100.5050000  84.0470000 -29.4430000 100.3530000  85.0040000 -28.9430000
  99.7240000  84.0250000 -30.7590000  99.9280000  83.1030000 -31.3040000
  98.6550000  84.0970000 -30.5610000 100.0090000  84.8800000 -31.3720000
  99.9760000  83.0080000 -28.6550000  99.0380000  83.1860000 -28.5580000
 102.5720000  84.7580000 -30.6910000 102.5870000  85.9740000 -30.4890000
 103.0390000  84.2060000 -31.8070000 102.9940000  83.2000000 -31.8850000
 103.4240000  84.9410000 -33.0140000 103.6380000  85.9800000 -32.7640000
 104.6970000  84.3160000 -33.6320000 104.5180000  83.2500000 -33.7700000
 105.0070000  84.9360000 -35.0080000 105.0750000  86.0200000 -34.9240000
 105.9490000  84.5500000 -35.3980000 104.2290000  84.6760000 -35.7260000
 105.9150000  84.4980000 -32.6940000 106.3150000  85.5060000 -32.8010000
 105.6140000  84.3710000 -31.6540000 107.0300000  83.4790000 -32.9590000
 107.3770000  83.5390000 -33.9910000 107.8690000  83.6910000 -32.2970000
 106.6650000  82.4710000 -32.7620000 102.2370000  84.9130000 -33.9840000
 101.6430000  83.8520000 -34.1990000 101.9160000  86.0640000 -34.5830000
 102.4480000  86.8910000 -34.3540000 100.8890000  86.2060000 -35.6190000
 100.4430000  85.2280000 -35.8030000  99.7460000  87.1610000 -35.2060000
 100.1610000  88.1650000 -35.1150000  98.6830000  87.1910000 -36.3230000
  98.3660000  86.1800000 -36.5760000  97.8090000  87.7590000 -36.0030000
  99.0870000  87.6630000 -37.2190000  99.0870000  86.8300000 -33.8490000
  99.8400000  86.8950000 -33.0630000  98.3350000  87.5910000 -33.6390000
  98.4000000  85.4650000 -33.7520000  99.1400000  84.6700000 -33.8370000
  97.9020000  85.3800000 -32.7860000  97.6520000  85.3570000 -34.5380000
 101.5510000  86.6930000 -36.9100000 102.1000000  87.7960000 -36.9530000
 101.5130000  85.8700000 -37.9580000 101.0560000  84.9770000 -37.8470000
 102.0430000  86.1960000 -39.2930000 102.6270000  87.1140000 -39.2310000
 102.9910000  85.0980000 -39.8220000 103.0590000  85.1810000 -40.9070000
 104.3990000  85.2620000 -39.2530000 104.3730000  85.1850000 -38.1660000
 105.0460000  84.4840000 -39.6570000 104.7980000  86.2340000 -39.5450000
 102.5560000  83.7970000 -39.4970000 102.4880000  83.3060000 -40.3190000
 100.9170000  86.4440000 -40.2990000 100.0040000  85.6290000 -40.4550000
 101.0040000  87.5750000 -41.0060000 101.7980000  88.1690000 -40.8150000
 100.2840000  87.8530000 -42.2500000  99.2960000  87.3960000 -42.2000000
 100.1340000  89.3820000 -42.3970000  99.7380000  89.7950000 -41.4700000
 101.1270000  89.8060000 -42.5460000  99.2310000  89.8260000 -43.5640000
  99.4850000  89.2650000 -44.4640000  97.7550000  89.5990000 -43.2390000
  97.5030000  90.0660000 -42.2870000  97.1320000  90.0370000 -44.0190000
  97.5510000  88.5300000 -43.1870000  99.4260000  91.3120000 -43.8620000
 100.4700000  91.5130000 -44.1040000  98.8120000  91.6010000 -44.7150000
  99.1360000  91.9080000 -42.9960000 101.0740000  87.2330000 -43.4150000
 102.2890000  87.4260000 -43.5090000 100.4110000  86.4900000 -44.2970000
  99.4180000  86.3620000 -44.1650000 101.0610000  85.6190000 -45.2890000
 102.0760000  85.9730000 -45.4690000 101.1330000  84.1760000 -44.7580000
 100.1210000  83.8280000 -44.5550000 101.5670000  83.5490000 -45.5360000
 101.9770000  84.0170000 -43.4840000 103.0050000  84.3070000 -43.7010000
 101.5910000  84.6850000 -42.7140000 101.9550000  82.5860000 -42.9160000
 101.5090000  81.6250000 -43.5890000 102.3800000  82.4100000 -41.7510000
 100.3130000  85.6120000 -46.6300000  99.0840000  85.6410000 -46.6480000
 101.0250000  85.5660000 -47.7610000 102.0320000  85.5290000 -47.7000000
 100.3910000  85.4520000 -49.0850000  99.5540000  86.1500000 -49.0900000
 101.3390000  85.9310000 -50.2060000 100.7240000  86.2000000 -51.0640000
 101.8370000  86.8420000 -49.8750000 102.4120000  84.9410000 -50.6940000
 102.5140000  83.8070000 -50.1840000 103.1690000  85.2980000 -51.6270000
  99.7720000  84.0550000 -49.3480000  99.8180000  83.1450000 -48.5110000
  99.1970000  83.8670000 -50.5410000  99.2020000  84.6230000 -51.2110000
  98.5350000  82.6170000 -50.9530000  97.8160000  82.3420000 -50.1820000
  97.7470000  82.8620000 -52.2460000  97.2480000  81.9400000 -52.5460000
  96.9870000  83.6210000 -52.0600000  98.6060000  83.3010000 -53.2870000
  98.0770000  83.4140000 -54.0800000  99.4900000  81.4180000 -51.1260000
  99.0250000  80.2820000 -51.2630000 100.8080000  81.6430000 -51.0610000
 101.1130000  82.5940000 -50.9120000 101.8670000  80.6200000 -51.0510000
 101.4290000  79.6320000 -51.1920000 102.8310000  80.8700000 -52.2210000
 103.2500000  81.8720000 -52.1300000 103.6430000  80.1450000 -52.1860000
 102.1610000  80.7520000 -53.4680000 102.7920000  80.9550000 -54.1630000
 102.6420000  80.5760000 -49.7170000 103.6590000  79.8840000 -49.6110000
 102.1540000  81.2640000 -48.6770000 101.3480000  81.8510000 -48.8410000
 102.7250000  81.2770000 -47.3260000 103.0260000  80.2650000 -47.0550000
 101.9470000  81.5830000 -46.6260000 103.9370000  82.2010000 -47.1170000
 104.5470000  82.1560000 -46.0450000 104.3080000  83.0320000 -48.0990000
 103.7190000  83.0890000 -48.9180000 105.3810000  84.0260000 -47.9560000
 106.2550000  83.5230000 -47.5410000 105.7750000  84.6100000 -49.3200000
 104.9640000  85.2370000 -49.6910000 106.6460000  85.2540000 -49.1940000
 106.1190000  83.5590000 -50.3580000 107.1330000  82.8770000 -50.2800000
 105.3000000  83.4120000 -51.3710000 104.4510000  83.9590000 -51.3860000
 105.5250000  82.7440000 -52.0940000 104.9750000  85.1530000 -46.9910000
 103.8320000  85.6120000 -47.0130000 105.9110000  85.6250000 -46.1630000
 106.8370000  85.2240000 -46.2080000 105.6690000  86.6760000 -45.1690000
 104.8750000  86.3340000 -44.5050000 106.9640000  86.8520000 -44.3510000
 107.2430000  85.8940000 -43.9120000 107.7580000  87.1470000 -45.0370000
 106.8820000  87.9060000 -43.2330000 106.4670000  88.8380000 -43.6170000
 106.0130000  87.4160000 -42.0780000 106.4230000  86.4960000 -41.6610000
 105.9880000  88.1800000 -41.3000000 104.9920000  87.2340000 -42.4140000
 108.2790000  88.2030000 -42.6950000 108.8810000  88.6590000 -43.4810000
 108.2190000  88.8970000 -41.8570000 108.7570000  87.2770000 -42.3750000
 105.2350000  88.0120000 -45.8100000 105.9180000  88.5340000 -46.6940000
 104.1520000  88.5990000 -45.2880000 103.6050000  88.0600000 -44.6310000
 103.6810000  89.9610000 -45.5900000 104.3490000  90.4310000 -46.3110000
 102.2710000  89.8910000 -46.2080000 101.5990000  89.4560000 -45.4680000
 101.9330000  90.9090000 -46.4030000 102.1340000  89.0820000 -47.5120000
 102.3920000  88.0400000 -47.3240000 100.6780000  89.1480000 -47.9710000
 100.3810000  90.1810000 -48.1510000 100.5460000  88.5770000 -48.8900000
 100.0370000  88.7190000 -47.2020000 103.0150000  89.6150000 -48.6420000
 104.0670000  89.4920000 -48.3850000 102.8220000  89.0550000 -49.5570000
 102.8090000  90.6710000 -48.8190000 103.6580000  90.8850000 -44.3510000
 103.5220000  92.0990000 -44.5000000 103.8050000  90.3300000 -43.1420000
 103.8530000  89.3230000 -43.0800000 103.7850000  91.0680000 -41.8730000
 102.8670000  91.6520000 -41.8070000 104.6310000  91.7550000 -41.8510000
 103.8500000  90.1360000 -40.6570000 103.4620000  88.9710000 -40.7530000
 104.3220000  90.6300000 -39.5090000 104.6130000  91.5970000 -39.5050000
 104.4520000  89.8720000 -38.2500000 103.6640000  89.1180000 -38.2270000
 105.8180000  89.1550000 -38.1880000 105.9920000  88.6330000 -39.1280000
 106.6060000  89.8980000 -38.0560000 105.8860000  88.1220000 -37.0440000
 105.6050000  88.5930000 -36.1020000 105.1730000  87.3220000 -37.2450000
 107.2740000  87.5130000 -36.8230000 107.9660000  88.2890000 -36.4950000
 107.1960000  86.8000000 -36.0020000 107.7920000  86.8050000 -38.0100000
 107.4610000  85.8580000 -38.1320000 108.7310000  87.2060000 -38.8480000
 109.2670000  88.3930000 -38.7980000 108.9850000  89.0520000 -38.0860000
 109.9740000  88.6660000 -39.4650000 109.1580000  86.3970000 -39.7720000
 108.7710000  85.4680000 -39.8610000 109.8990000  86.6770000 -40.3990000
 104.2810000  90.7750000 -37.0290000 104.8160000  91.8800000 -36.9830000
 103.6030000  90.2550000 -36.0150000 103.1840000  89.3450000 -36.1440000
 103.4920000  90.8360000 -34.6740000 104.3740000  91.4420000 -34.4680000
 102.2500000  91.7400000 -34.6660000 102.2270000  92.3110000 -35.5940000
 101.3750000  91.0910000 -34.6560000 102.1800000  92.7520000 -33.5050000
 103.0680000  92.7510000 -32.6180000 101.2320000  93.5750000 -33.5080000
 103.4290000  89.6940000 -33.6320000 103.2230000  88.5330000 -33.9990000
 103.6550000  89.9680000 -32.3470000 103.7400000  90.9370000 -32.0720000
 103.6880000  88.9320000 -31.2990000 102.9010000  88.2140000 -31.5280000
 105.0260000  88.1700000 -31.3210000 104.9580000  87.3210000 -30.6410000
 105.2110000  87.7830000 -32.3240000 106.1190000  88.9790000 -30.9190000
 106.3850000  89.5310000 -31.6580000 103.3970000  89.4600000 -29.8870000
 103.5420000  90.6530000 -29.6060000 102.9810000  88.5540000 -28.9960000
 102.8580000  87.6030000 -29.3130000 102.5790000  88.8390000 -27.6140000
 103.2100000  89.6360000 -27.2210000 101.1220000  89.3320000 -27.5750000
 100.8640000  89.5490000 -26.5380000 101.0610000  90.2770000 -28.1160000
 100.0790000  88.3850000 -28.1490000  99.8330000  88.3570000 -29.5360000
 100.4100000  88.9860000 -30.1990000  98.8170000  87.5400000 -30.0610000
  98.6150000  87.5390000 -31.1220000  98.0450000  86.7380000 -29.2050000
  97.2570000  86.1210000 -29.6110000  98.3030000  86.7420000 -27.8240000
  97.7170000  86.1150000 -27.1690000  99.3160000  87.5650000 -27.2970000
  99.5030000  87.5740000 -26.2330000 102.7710000  87.6120000 -26.7080000
 102.5690000  86.4700000 -27.1260000 103.2020000  87.8370000 -25.4670000
 103.2980000  88.7960000 -25.1660000 103.2620000  86.7960000 -24.4340000
 103.7740000  85.9320000 -24.8580000 104.1060000  87.3090000 -23.2550000
 105.0590000  87.6560000 -23.6550000 103.6000000  88.1550000 -22.7900000
 104.3840000  86.2390000 -22.1860000 103.4380000  85.9350000 -21.7380000
 104.8290000  85.3690000 -22.6680000 105.3330000  86.7170000 -21.0690000
 106.1460000  87.6460000 -21.2860000 105.2640000  86.1520000 -19.9530000
 101.8530000  86.3300000 -24.0190000 100.9090000  87.1200000 -24.0470000
 101.6960000  85.0690000 -23.6030000 102.4930000  84.4490000 -23.6420000
 100.4080000  84.5100000 -23.1520000  99.7260000  85.3350000 -22.9490000
  99.7330000  83.6330000 -24.2310000 100.3420000  82.7500000 -24.4200000
  98.3400000  83.1730000 -23.7720000  97.7160000  84.0330000 -23.5310000
  97.8570000  82.6000000 -24.5630000  98.4180000  82.5250000 -22.8980000
  99.5610000  84.3830000 -25.5530000 100.5340000  84.5920000 -25.9990000
  98.9860000  83.7770000 -26.2540000  99.0370000  85.3230000 -25.3770000
 100.5680000  83.7150000 -21.8570000 101.3780000  82.7880000 -21.7850000
  99.7610000  84.0600000 -20.8450000  99.1640000  84.8630000 -20.9820000
  99.5410000  83.2550000 -19.6310000 100.1800000  82.3730000 -19.6570000
  99.9270000  84.0760000 -18.3870000 100.9950000  84.2890000 -18.4370000
  99.3790000  85.0180000 -18.3860000  99.6360000  83.3220000 -17.0780000
  98.5580000  83.1980000 -16.9760000 100.1020000  82.3370000 -17.1090000
 100.1550000  84.0840000 -15.8540000 101.2450000  84.0810000 -15.8460000
  99.8260000  85.1210000 -15.9190000  99.6170000  83.5080000 -14.6070000
  98.7460000  83.8860000 -14.2640000 100.1250000  82.5740000 -13.8280000
 101.2420000  81.9560000 -14.0860000 101.7750000  82.2090000 -14.9060000
 101.5980000  81.2530000 -13.4530000  99.4680000  82.2540000 -12.7560000
  98.6200000  82.7700000 -12.5680000  99.8100000  81.5550000 -12.1120000
  98.0840000  82.7850000 -19.5850000  97.1590000  83.5940000 -19.5570000
  97.8960000  81.4690000 -19.5550000  98.7130000  80.8760000 -19.5740000
  96.5870000  80.8120000 -19.4410000  95.8210000  81.5510000 -19.6740000
  96.4140000  79.6630000 -20.4530000  97.0020000  78.8090000 -20.1170000
  94.9310000  79.2660000 -20.5220000  94.3260000  80.1280000 -20.8030000
  94.7860000  78.4870000 -21.2710000  94.5920000  78.8870000 -19.5580000
  96.8990000  80.0060000 -21.8670000  97.9630000  80.2410000 -21.8590000
  96.7630000  79.1350000 -22.5090000  96.3400000  80.8510000 -22.2690000
  96.3960000  80.3350000 -17.9980000  97.1150000  79.4400000 -17.5540000
  95.4950000  80.9540000 -17.2370000  94.9040000  81.6470000 -17.6730000
  95.4220000  80.8410000 -15.7730000  95.7720000  79.8540000 -15.4700000
  96.3770000  81.8900000 -15.1780000  96.3840000  81.8020000 -14.0920000
  97.3910000  81.7060000 -15.5350000  95.8590000  83.5770000 -15.6360000
  96.3730000  84.1540000 -14.5460000  93.9920000  81.0100000 -15.2170000
  93.0780000  81.4440000 -15.9160000  93.7900000  80.6460000 -13.9460000
  94.5670000  80.2720000 -13.4200000  92.4770000  80.6570000 -13.2890000
  91.7790000  80.0990000 -13.9130000  92.6080000  79.9120000 -11.9550000
  91.6340000  79.8590000 -11.4680000  92.9660000  78.8980000 -12.1320000
  93.3060000  80.4330000 -11.3000000  91.8780000  82.0660000 -13.0910000
  90.6660000  82.2420000 -13.2330000  92.7130000  83.0710000 -12.7920000
  93.6950000  82.8550000 -12.6990000  92.2830000  84.4480000 -12.5060000
  91.2550000  84.5820000 -12.8430000  92.2630000  84.6500000 -10.9820000
  91.7000000  83.8380000 -10.5210000  93.2810000  84.6440000 -10.5920000
  91.4490000  86.2300000 -10.5920000  91.3130000  86.0290000  -9.2780000
  93.1450000  85.4880000 -13.2610000  94.0760000  86.0640000 -12.6880000
  92.8430000  85.7430000 -14.5530000  91.8370000  85.0480000 -15.3520000
  90.8490000  85.4510000 -15.1290000  91.8530000  83.9720000 -15.1810000
  92.1970000  85.3320000 -16.8060000  91.3240000  85.2970000 -17.4580000
  92.9660000  84.6320000 -17.1330000  92.7820000  86.7340000 -16.7170000
  91.9680000  87.4560000 -16.6440000  93.4150000  86.9670000 -17.5730000
  93.5810000  86.6770000 -15.4100000  94.5620000  86.2480000 -15.6150000
  93.7820000  88.0720000 -14.8150000  94.8870000  88.6050000 -14.8580000
  92.7270000  88.6640000 -14.2440000  91.8420000  88.1770000 -14.2540000
  92.7700000  90.0120000 -13.6640000  91.7710000  90.2720000 -13.3150000
  93.0620000  90.7220000 -14.4380000  93.7430000  90.1540000 -12.4910000
  94.5190000  91.1100000 -12.4460000  93.7370000  89.1890000 -11.5590000
  93.0860000  88.4260000 -11.6780000  94.6730000  89.1380000 -10.4190000
  94.6420000  90.0940000  -9.8960000  94.2380000  88.0320000  -9.4390000
  93.2080000  88.2210000  -9.1380000  94.2850000  87.0670000  -9.9430000
  95.1130000  87.9850000  -8.1750000  96.1400000  87.7400000  -8.4480000
  95.1080000  88.9690000  -7.7060000  94.6090000  86.9590000  -7.1470000
  95.2110000  87.0350000  -6.2420000  93.5840000  87.2140000  -6.8750000
  94.6410000  85.5690000  -7.6530000  93.7490000  85.1620000  -7.8950000
  95.6940000  84.7750000  -7.7580000  96.8920000  85.1560000  -7.4140000
  97.0260000  86.0840000  -7.0360000  97.6820000  84.5380000  -7.5310000
  95.5610000  83.5590000  -8.2050000  94.6510000  83.1990000  -8.4560000
  96.3720000  82.9650000  -8.3040000  96.1150000  88.9540000 -10.8860000
  96.9900000  89.7170000 -10.4860000  96.3530000  87.9820000 -11.7630000
  95.5850000  87.3840000 -12.0330000  97.6840000  87.7210000 -12.3230000
  98.3720000  87.5510000 -11.4950000  97.6700000  86.4470000 -13.1750000
  96.8670000  86.5140000 -13.9090000  98.6120000  86.3870000 -13.7190000
  97.5140000  85.1500000 -12.3610000  97.5910000  85.1550000 -11.1100000
  97.4070000  84.0870000 -13.0140000  98.2480000  88.9230000 -13.0960000
  99.3990000  89.3050000 -12.8730000  97.4300000  89.5740000 -13.9380000
  96.5170000  89.1840000 -14.1200000  97.8050000  90.8230000 -14.6170000
  98.7100000  90.6230000 -15.1920000  96.7050000  91.2470000 -15.6090000
  96.5320000  90.4390000 -16.3200000  95.7770000  91.4480000 -15.0740000
  97.1440000  92.5060000 -16.3680000  97.2150000  93.3300000 -15.6570000
  98.1310000  92.3430000 -16.8010000  96.1860000  92.9300000 -17.4830000
  96.2940000  92.2590000 -18.3340000  95.1610000  92.8820000 -17.1150000
  96.5230000  94.3080000 -17.8740000  97.4560000  94.6270000 -17.6580000
  95.7380000  95.2800000 -18.2800000  94.4910000  95.1020000 -18.6170000
  94.1270000  94.1620000 -18.6900000  93.9460000  95.8780000 -18.9640000
  96.2550000  96.4690000 -18.3270000  97.2040000  96.5660000 -17.9960000
  95.7140000  97.2750000 -18.6060000  98.1760000  91.9310000 -13.6260000
  99.2360000  92.5340000 -13.7780000  97.3500000  92.1810000 -12.5980000
  96.4870000  91.6590000 -12.5470000  97.6550000  93.1630000 -11.5330000
  97.7920000  94.1410000 -11.9940000  96.4970000  93.2590000 -10.5210000
  96.0630000  92.2750000 -10.3470000  96.8790000  93.6390000  -9.5740000
  95.4230000  94.2340000 -11.0250000  95.8820000  95.2150000 -11.1430000
  95.0670000  93.9080000 -12.0020000  94.2380000  94.3790000 -10.0610000
  94.6060000  94.5000000  -9.0420000  93.7050000  95.2940000 -10.3210000
  93.2840000  93.2550000 -10.1710000  92.7200000  93.2280000 -11.0080000
  92.9900000  92.3320000  -9.2760000  93.6090000  92.2320000  -8.1340000
  94.3350000  92.8960000  -7.9060000  93.3350000  91.5390000  -7.4520000
  92.0460000  91.4750000  -9.5390000  91.5450000  91.5650000 -10.4110000
  91.7750000  90.7740000  -8.8640000  98.9850000  92.8690000 -10.8330000
  99.8060000  93.7750000 -10.6950000  99.2230000  91.6150000 -10.4470000
  98.4790000  90.9390000 -10.5510000 100.5000000  91.1590000  -9.8710000
 100.6740000  91.7120000  -8.9480000 100.4400000  89.6660000  -9.5050000
 100.1010000  89.0920000 -10.3670000 101.7790000  89.0950000  -9.0340000
 102.1800000  89.7040000  -8.2230000 101.6440000  88.0710000  -8.6850000
 102.4910000  89.0780000  -9.8590000  99.5320000  89.4850000  -8.4400000
  99.4660000  88.5420000  -8.2740000 101.6870000  91.4530000 -10.7930000
 102.6470000  92.0960000 -10.3680000 101.6490000  91.0040000 -12.0500000
 100.8430000  90.4850000 -12.3670000 102.7690000  91.1910000 -12.9820000
 103.6810000  90.8820000 -12.4710000 102.6220000  90.2880000 -14.2120000
 101.6490000  90.4450000 -14.6780000 103.4010000  90.5740000 -14.9190000
 102.7970000  88.8030000 -13.8480000 103.6600000  88.7040000 -13.1900000
 101.9210000  88.4640000 -13.2960000 103.0290000  87.9000000 -15.0760000
 103.7150000  88.3100000 -16.0430000 102.5660000  86.7350000 -15.0790000
 103.0110000  92.6570000 -13.3850000 104.1660000  93.0740000 -13.4610000
 101.9660000  93.4640000 -13.5960000 101.0330000  93.0800000 -13.5480000
 102.1150000  94.9080000 -13.8380000 102.8230000  95.0480000 -14.6560000
 100.7820000  95.5450000 -14.2620000 100.0010000  95.2590000 -13.5570000
 100.8970000  96.6290000 -14.2310000 100.3830000  95.1500000 -15.6940000
 101.2110000  95.3960000 -16.3590000 100.2310000  94.0720000 -15.7450000
  99.1150000  95.8600000 -16.2090000  98.3510000  96.4760000 -15.4310000
  98.8570000  95.7700000 -17.4360000 102.7060000  95.6480000 -12.6230000
 103.5690000  96.5120000 -12.7880000 102.2960000  95.2990000 -11.3990000
 101.5670000  94.6070000 -11.3040000 102.9080000  95.8300000 -10.1750000
 102.9100000  96.9170000 -10.2530000 102.0610000  95.4400000  -8.9520000
 101.0610000  95.8570000  -9.0690000 101.9670000  94.3540000  -8.9260000
 102.6260000  95.8880000  -7.5940000 101.9520000  95.5240000  -6.8190000
 103.5870000  95.3980000  -7.4370000 102.7960000  97.4130000  -7.4180000
 102.3420000  98.2250000  -8.2570000 103.3930000  97.8280000  -6.3970000
 104.3780000  95.4040000 -10.0250000 105.2280000  96.2320000  -9.7000000
 104.7120000  94.1400000 -10.3050000 103.9750000  93.4850000 -10.5260000
 106.1010000  93.6720000 -10.3240000 106.5490000  93.8990000  -9.3570000
 106.1460000  92.1450000 -10.5190000 105.5960000  91.8790000 -11.4210000
 107.1830000  91.8380000 -10.6590000 105.5930000  91.3470000  -9.3440000
 105.4090000  91.8300000  -8.2340000 105.3460000  90.0710000  -9.5430000
 105.5320000  89.6470000 -10.4410000 105.0000000  89.5230000  -8.7680000
 106.9480000  94.4150000 -11.3770000 108.0700000  94.8240000 -11.0790000
 106.4050000  94.6580000 -12.5770000 105.5010000  94.2560000 -12.7810000
 107.0390000  95.4870000 -13.6090000 108.0140000  95.0540000 -13.8320000
 106.1850000  95.4300000 -14.8900000 106.1260000  94.3930000 -15.2230000
 105.1750000  95.7590000 -14.6460000 106.6980000  96.3000000 -16.0530000
 106.8080000  97.3320000 -15.7200000 108.0390000  95.8040000 -16.5940000
 107.9560000  94.7610000 -16.9020000 108.3360000  96.4080000 -17.4510000
 108.8080000  95.8950000 -15.8270000 105.6870000  96.2920000 -17.1980000
 104.7150000  96.6240000 -16.8310000 106.0180000  96.9710000 -17.9830000
 105.5930000  95.2880000 -17.6120000 107.2810000  96.9320000 -13.1290000
 108.3460000  97.4920000 -13.3930000 106.3250000  97.5250000 -12.3960000
 105.4540000  97.0300000 -12.2720000 106.4720000  98.8490000 -11.7630000
 106.7600000  99.5660000 -12.5320000 105.1190000  99.2880000 -11.1740000
 104.3300000  99.1020000 -11.9020000 104.9080000  98.6940000 -10.2840000
 105.0920000 100.7820000 -10.8110000 105.9810000 101.0480000 -10.2400000
 105.0880000 101.3670000 -11.7310000 103.8480000 101.1420000  -9.9860000
 103.7650000 102.2270000  -9.9170000 102.9610000 100.7780000 -10.5040000
 103.8970000 100.5530000  -8.6330000 103.3600000  99.7110000  -8.4840000
 104.5680000 100.9950000  -7.5860000 105.2630000 102.0990000  -7.6080000
 105.2800000 102.6570000  -8.4500000 105.7650000 102.4090000  -6.7890000
 104.5560000 100.3130000  -6.4820000 104.0640000  99.4320000  -6.4610000
 105.0600000 100.6300000  -5.6670000 107.5830000  98.8670000 -10.6990000
 108.3740000  99.8120000 -10.6560000 107.6590000  97.8250000  -9.8590000
 106.9260000  97.1330000  -9.9260000 108.6910000  97.6500000  -8.8160000
 108.7390000  98.5530000  -8.2080000 108.3210000  96.4700000  -7.9000000
 108.0660000  95.6030000  -8.5100000 109.1930000  96.2090000  -7.3000000
 107.1650000  96.7800000  -6.9360000 107.4650000  97.5890000  -6.2700000
 106.2830000  97.0960000  -7.4930000 106.8270000  95.5340000  -6.1050000
 106.4840000  94.7410000  -6.7700000 107.7240000  95.1990000  -5.5840000
 105.7350000  95.8470000  -5.0770000 106.0630000  96.6830000  -4.4590000
 104.8330000  96.1560000  -5.6060000 105.4380000  94.6690000  -4.2180000
 106.2530000  94.3830000  -3.6940000 104.7110000  94.8840000  -3.5500000
 105.1270000  93.8790000  -4.7650000 110.1070000  97.4380000  -9.3790000
 111.0700000  97.9300000  -8.7830000 110.2350000  96.7030000 -10.4910000
 109.3870000  96.3140000 -10.8780000 111.5080000  96.3210000 -11.1320000
 112.1170000  95.8060000 -10.3890000 111.2150000  95.3280000 -12.2700000
 110.6260000  94.5030000 -11.8700000 110.6340000  95.8250000 -13.0470000
 112.4970000  94.7490000 -12.8880000 113.0470000  95.5440000 -13.3920000
 113.1200000  94.3340000 -12.0960000 112.1720000  93.6410000 -13.8980000
 111.6340000  92.8410000 -13.3900000 111.5460000  94.0450000 -14.6940000
 113.4710000  93.0880000 -14.4970000 113.9800000  93.8920000 -15.0270000
 114.1190000  92.7580000 -13.6850000 113.2100000  91.9550000 -15.4250000
 112.6170000  92.2360000 -16.1930000 114.0730000  91.6080000 -15.8190000
 112.7620000  91.1860000 -14.9480000 112.3370000  97.5280000 -11.6020000
 113.5250000  97.6090000 -11.2120000 111.8180000  98.3840000 -12.3580000
