4j28_ligand
  7087
 -14.3980000  11.8290000  30.6670000 -15.1960000  10.9630000  31.5210000
 -15.2410000   9.4850000  31.1220000 -15.6130000   9.3150000  29.7820000
 -16.3110000   8.9670000  32.0810000 -16.6550000   7.5210000  31.7740000
 -17.3640000   9.9750000  31.9120000 -16.6470000  11.2900000  31.4340000
 -17.0720000  12.4840000  32.3370000 -17.7010000  13.6120000  31.9810000
 -17.9440000  14.2980000  33.1210000 -18.5230000  15.5000000  33.3730000
 -18.6340000  15.9980000  34.6850000 -18.1330000  15.2330000  35.7310000
 -17.5300000  14.0140000  35.4140000 -17.4400000  13.5900000  34.1400000
 -16.9180000  12.4730000  33.6410000 -14.4350000  12.7190000  30.9970000
 -14.8260000  11.0680000  32.5520000 -14.2730000   8.9920000  31.2950000
 -14.9850000   9.7550000  29.2220000 -15.9470000   9.0010000  33.1180000
 -17.4260000   7.1710000  32.4760000 -15.7540000   6.8990000  31.8790000
 -17.0350000   7.4450000  30.7440000 -17.8370000  10.1350000  32.7870000
 -18.0310000   9.6700000  31.2200000 -16.9160000  11.5220000  30.3930000
 -17.9510000  13.9010000  31.0240000 -18.9070000  16.0880000  32.5470000
 -19.1000000  16.9580000  34.8750000 -18.2080000  15.5710000  36.7580000
 -17.1270000  13.3980000  36.2090000 -48.7570000   6.3060000  40.1340000
 -48.1934622   6.0178034  39.3469366 -49.7315053   6.2403880  39.8768330
 -48.4207960   5.8370963  40.9629728 -48.5080000   7.7670000  40.3760000
 -49.4750000   8.2870000  40.3120000 -47.9450000   8.0050000  41.7880000
 -47.3250000   7.1400000  42.0650000 -47.3210000   8.9100000  41.7650000
 -49.0180000   8.1880000  42.8510000 -49.0510000   9.2510000  43.1330000
 -49.9870000   7.8920000  42.4230000 -48.7730000   7.3630000  44.1060000
 -49.4690000   6.3430000  44.2760000 -47.8910000   7.7220000  44.9210000
 -47.5970000   8.3500000  39.2950000 -46.9270000   7.6160000  38.5850000
 -47.6050000   9.6740000  39.1860000 -48.0820000  10.1950000  39.8940000
 -46.9580000  10.4350000  38.0920000 -47.5330000  11.3680000  37.9940000
 -45.5110000  10.8510000  38.4640000 -44.9220000   9.9540000  38.7030000
 -44.9470618  11.7579087  37.3753702 -45.5690919  12.6484552  37.2853355
 -43.9300397  12.0505887  37.6363399 -44.9384042  11.2238228  36.4252247
 -45.5228613  11.5988350  39.7929950 -46.1451108  12.4893199  39.7038714
 -45.9258971  10.9510106  40.5714456 -44.1000141  12.0078938  40.1587852
 -43.6964486  12.6561541  39.3809720 -44.1079258  12.5424738  41.1086594
 -43.4772341  11.1178442  40.2485440 -47.0250000   9.7430000  36.6850000
 -46.1790000   8.9030000  36.3570000 -48.0410000  10.0800000  35.8430000
 -49.0050000  11.1930000  35.9050000 -48.5310000  12.1420000  35.6130000
 -49.4300000  11.2910000  36.9150000 -50.0570000  10.7920000  34.9160000
 -50.3310000  11.6610000  34.3000000 -50.9460000  10.4290000  35.4530000
 -49.5250000   9.7000000  34.0330000 -49.4750000  10.0450000  32.9900000
 -50.1720000   8.8130000  34.0950000 -48.1190000   9.3680000  34.5500000
 -48.0080000   8.2830000  34.6970000 -47.0300000   9.8590000  33.5860000
 -46.7020000  11.0430000  33.5930000 -46.4440000   8.9630000  32.7960000
 -46.7890000   8.0250000  32.7650000 -45.2810000   9.3510000  31.9620000
 -45.2980000  10.4440000  31.8430000 -43.9600000   8.9480000  32.6470000
 -43.9910000   7.8560000  32.7770000 -43.1490000   9.2120000  31.9520000
 -43.5840000   9.5460000  34.0130000 -44.4910000   9.5490000  34.6350000
 -42.5350000   8.6810000  34.7100000 -41.6350000   8.6170000  34.0800000
 -42.2730000   9.1310000  35.6790000 -42.9410000   7.6720000  34.8730000
 -43.0910000  10.9840000  33.9070000 -43.8780000  11.6090000  33.4600000
 -42.8470000  11.3630000  34.9100000 -42.1920000  11.0180000  33.2740000
 -45.3260000   8.7160000  30.5780000 -45.6510000   7.5390000  30.4300000
 -45.0010000   9.5140000  29.5710000 -44.8530000  10.4870000  29.7480000
 -44.8530000   9.0080000  28.2080000 -45.6060000   8.2230000  28.0430000
 -45.0770000  10.1300000  27.1730000 -44.3780000  10.9470000  27.4050000
 -44.8470000   9.7220000  26.1780000 -46.4830000  10.7160000  27.1250000
 -46.7420000  11.1280000  28.1110000 -46.5210000  11.5160000  26.3710000
 -47.4803185   9.6164399  26.7757887 -47.2297968   9.1935644  25.8028991
 -47.4388692   8.8336703  27.5331876 -48.8872528  10.2028310  26.7277549
 -49.1386777  10.6255147  27.7004956 -48.9296062  10.9854064  25.9702055
 -49.8486019   9.1429265  26.3911402 -49.8098216   8.4178795  27.0932104
 -50.7804075   9.5312899  26.3593263 -49.6160576   8.7514171  25.4896178
 -43.4560000   8.4000000  28.0190000 -43.3040000   7.4640000  27.2650000
 -42.4430000   8.9160000  28.7210000 -42.6400000   9.5570000  29.4630000
 -41.0450000   8.5640000  28.4280000 -41.0430000   7.7920000  27.6440000
 -40.3300000   9.7910000  27.9140000 -39.3580000   9.4910000  27.4950000
 -40.1700000  10.4900000  28.7480000 -41.1360000  10.4790000  26.8440000
 -41.4420000   9.8160000  25.6570000 -41.0950000   8.8000000  25.5050000
 -42.1830000  10.4400000  24.6720000 -42.4100000   9.9210000  23.7480000
 -42.6310000  11.7240000  24.8720000 -43.3500000  12.3210000  23.8930000
 -43.4550000  11.7190000  23.1650000 -42.3520000  12.4100000  26.0350000
 -42.7050000  13.4250000  26.1730000 -41.6130000  11.7810000  27.0240000
 -41.4020000  12.3050000  27.9490000 -40.2880000   8.0180000  29.6310000
 -39.0790000   8.2620000  29.7660000 -40.9970000   7.2760000  30.4760000
 -41.9660000   7.1220000  30.2840000 -40.4200000   6.6830000  31.6620000
 -41.1650000   6.6710000  32.4710000 -39.5430000   7.2660000  31.9790000
 -40.0020000   5.2710000  31.3340000 -39.8180000   4.9200000  30.1750000
 -39.8290000   4.4510000  32.3620000 -40.0740000   4.7640000  33.2800000
 -39.2920000   3.1050000  32.1920000 -38.2990000   3.1970000  31.7280000
 -39.1220000   2.4150000  33.5370000 -38.7170000   1.4040000  33.3820000
 -38.4280000   2.9960000  34.1620000 -40.0980000   2.3460000  34.0390000
 -40.1540000   2.2600000  31.2800000 -41.3370000   2.5120000  31.1560000
 -39.5170000   1.2520000  30.6760000 -38.5530000   1.1080000  30.8980000
 -40.1390000   0.3450000  29.7110000 -41.1940000   0.6330000  29.5960000
 -39.4540000   0.4760000  28.3350000 -39.5780000  -0.4610000  27.7730000
 -40.0920000   1.6250000  27.5630000 -40.5880000   2.3090000  28.2670000
 -39.3140000   2.1700000  27.0080000 -40.8340000   1.2250000  26.8570000
 -38.0450000   0.7520000  28.5100000 -37.6300000   0.8310000  27.6590000
 -40.0930000  -1.1010000  30.2270000 -41.1380000  -1.7140000  30.3710000
 -38.8950000  -1.6230000  30.5300000 -38.0720000  -1.1250000  30.2560000
 -38.7390000  -2.9050000  31.2530000 -39.3150000  -3.6740000  30.7170000
 -37.2530000  -3.3520000  31.3190000 -36.6990000  -2.6190000  31.9250000
 -37.2110000  -4.3370000  31.8060000 -36.5560000  -3.4640000  29.9320000
 -37.1470000  -3.9030000  28.9230000 -35.2640000  -3.0790000  29.8920000
 -34.8150000  -2.7480000  30.7220000 -34.7550000  -3.1250000  29.0320000
 -39.2840000  -2.7930000  32.7170000 -39.1050000  -1.7860000  33.3990000
 -39.9790000  -3.8160000  33.1810000 -40.3520000  -4.4820000  32.5350000
 -40.2210000  -4.0040000  34.6190000 -39.9080000  -3.1110000  35.1800000
 -41.7170000  -4.2930000  34.9240000 -41.8480000  -4.4470000  36.0050000
 -42.3290000  -3.4390000  34.5990000 -42.1941485  -5.4379678  34.0629086
 -42.0824769  -5.1735389  33.0113822 -41.6013485  -6.3269271  34.2784049
 -43.6642643  -5.7219660  34.3626289 -44.5217261  -5.1027805  33.6778152
 -43.9157817  -6.5553842  35.2735368 -39.3420000  -5.2040000  34.9820000
 -39.5120000  -6.2830000  34.4370000 -38.3700000  -5.0220000  35.8590000
 -38.2130000  -4.1170000  36.2560000 -37.5250000  -6.1510000  36.2460000
 -38.1440000  -7.0580000  36.3100000 -37.0760000  -5.9440000  37.2290000
 -36.4160000  -6.3780000  35.2320000 -36.3160000  -5.6570000  34.2600000
 -35.5920000  -7.3720000  35.4820000 -35.7590000  -7.9510000  36.2800000
 -34.4450000  -7.6540000  34.6330000 -33.9220000  -6.7100000  34.4180000
 -33.4830000  -8.6180000  35.3510000 -34.0470000  -9.5140000  35.6480000
 -32.6870000  -8.9020000  34.6470000 -32.8370000  -8.0230000  36.5930000
 -32.1750000  -7.1980000  36.2910000 -33.6250000  -7.6360000  37.2550000
 -32.0180000  -9.0640000  37.3530000 -32.6620000  -9.9200000  37.6030000
 -31.1850000  -9.4040000  36.7200000 -31.4560000  -8.4580000  38.6470000
 -30.7080000  -7.6940000  38.3870000 -32.2790000  -7.9900000  39.2080000
 -30.8150000  -9.4850000  39.5030000 -30.0620000  -9.9220000  38.9960000
 -30.4510000  -9.0490000  40.3360000 -31.4970000 -10.1820000  39.7590000
 -34.8770000  -8.2970000  33.3170000 -35.7560000  -9.1650000  33.3140000
 -34.2770000  -7.8670000  32.1990000 -33.7300000  -7.0300000  32.2230000
 -34.4120000  -8.6120000  30.9320000 -35.4780000  -8.7080000  30.6780000
 -33.6810000  -7.8780000  29.7950000 -32.7510000  -7.4560000  30.2040000
 -33.4380000  -8.6140000  29.0150000 -34.4640000  -6.7550000  29.1530000
 -35.3450000  -7.1800000  28.6490000 -34.7920000  -6.0580000  29.9380000
 -33.6370000  -5.9890000  28.1310000 -34.3040000  -5.3150000  27.5740000
 -32.8800000  -5.3970000  28.6650000 -32.9530000  -6.8710000  27.1720000
 -33.1170000  -7.8860000  27.2320000 -32.1300000  -6.4110000  26.2290000
 -31.8870000  -5.1000000  26.1290000 -32.3360000  -4.4420000  26.7820000
 -31.2510000  -4.7480000  25.3990000 -31.5580000  -7.2610000  25.3950000
 -31.7490000  -8.2700000  25.4760000 -30.9210000  -6.9150000  24.6630000
 -33.8040000  -9.9850000  31.1000000 -32.7260000 -10.1340000  31.7140000
 -34.4520000 -11.0080000  30.5540000 -35.3260000 -10.8460000  30.0970000
 -33.9170000 -12.3590000  30.6070000 -32.8920000 -12.2760000  30.9970000
 -34.7130000 -13.2210000  31.6110000 -35.7710000 -13.2140000  31.3120000
 -34.3270000 -14.2500000  31.5670000 -34.6160000 -12.7260000  33.0710000
 -34.9020000 -11.6640000  33.1020000 -35.3130000 -13.3120000  33.6880000
 -33.2100000 -12.8700000  33.6530000 -32.3540000 -13.4950000  33.0600000
 -32.9900000 -12.3190000  34.8410000 -33.7280000 -11.8370000  35.3130000
 -32.0860000 -12.3860000  35.2640000 -33.8030000 -13.0400000  29.2250000
 -33.5860000 -14.2220000  29.1130000 -33.8920000 -12.2510000  28.1850000
 -34.1420000 -11.2920000  28.3150000 -33.6340000 -12.7450000  26.8490000
 -34.2400000 -13.6400000  26.6440000 -33.9860000 -11.6480000  25.8500000
 -33.7240000 -11.9940000  24.8390000 -35.0680000 -11.4560000  25.9030000
 -33.2410000 -10.3400000  26.1310000 -32.1290000 -10.1950000  25.6330000
 -33.7620000  -9.4500000  26.8340000 -32.1310000 -13.1010000  26.7890000
 -31.3310000 -12.5890000  27.6030000 -31.7430000 -13.9480000  25.8390000
 -32.6310000 -14.7030000  24.9170000 -32.9260000 -14.0810000  24.0590000
 -33.5320000 -15.0560000  25.4400000 -31.7900000 -15.8450000  24.4800000
 -32.0510000 -16.1460000  23.4550000 -31.9200000 -16.7010000  25.1580000
 -30.3760000 -15.3380000  24.5360000 -30.1250000 -14.7710000  23.6270000
 -29.6650000 -16.1680000  24.6580000 -30.3720000 -14.4220000  25.7750000
 -30.1450000 -15.0030000  26.6810000 -29.2970000 -13.3280000  25.6300000
 -28.1690000 -13.5170000  26.1230000 -29.5950000 -12.2710000  24.8890000
 -30.4880000 -12.2070000  24.4440000 -28.6150000 -11.1990000  24.7230000
 -27.6780000 -11.6450000  24.3580000 -29.0730000 -10.1920000  23.7050000
 -28.3150000  -9.4010000  23.6050000 -29.2140000 -10.6900000  22.7340000
 -30.0250000  -9.7480000  24.0310000 -28.3290000 -10.5300000  26.0860000
 -27.1720000 -10.2810000  26.4060000 -29.3500000 -10.2670000  26.9000000
 -30.2860000 -10.4530000  26.6020000 -29.1010000  -9.7000000  28.2440000
 -28.4250000  -8.8440000  28.0990000 -30.3520000  -9.1610000  28.9110000
 -30.9940000  -8.7040000  28.1440000 -30.8870000  -9.9960000  29.3870000
 -30.0290000  -8.1040000  29.9810000 -30.9370000  -7.9140000  30.5730000
 -29.2390000  -8.4990000  30.6370000 -29.4650000  -6.5430000  29.2760000
 -28.6080000  -5.7710000  30.6870000 -27.7870000  -6.4240000  31.0190000
 -28.2000000  -4.7970000  30.3800000 -29.3190000  -5.6270000  31.5140000
 -28.3850000 -10.6790000  29.1620000 -27.4230000 -10.2890000  29.8590000
 -28.7380000 -11.9720000  29.0870000 -29.5230000 -12.2430000  28.5290000
 -27.9840000 -12.9770000  29.8130000 -28.0570000 -12.7080000  30.8770000
 -28.6140000 -14.3840000  29.6730000 -28.7240000 -14.6310000  28.6070000
 -27.9620000 -15.1260000  30.1560000 -29.9820000 -14.4030000  30.3400000
 -29.8450000 -14.1770000  31.4080000 -30.5990000 -13.6190000  29.8760000
 -30.7310000 -15.7230000  30.2280000 -30.3420000 -16.6220000  29.4910000
 -31.8500000 -15.8170000  30.9420000 -32.1490000 -15.0470000  31.5060000
 -32.3920000 -16.6570000  30.9150000 -26.5320000 -12.9740000  29.4830000
 -25.6850000 -13.1570000  30.3800000 -26.2050000 -12.7980000  28.1910000
 -26.9300000 -12.6980000  27.5100000 -24.8140000 -12.7510000  27.7670000
 -24.3060000 -13.6430000  28.1630000 -24.7300000 -12.7860000  26.2250000
 -25.2340000 -13.7020000  25.8820000 -25.2660000 -11.9060000  25.8400000
 -23.3480000 -12.7750000  25.6350000 -23.4320000 -12.8010000  24.5390000
 -22.8410000 -11.8480000  25.9420000 -22.5210000 -13.9480000  26.0830000
 -22.1300000 -13.7370000  27.0890000 -23.1660000 -14.8380000  26.1190000
 -21.3420000 -14.2390000  25.1540000 -20.7920000 -15.1090000  25.5430000
 -21.7310000 -14.4690000  24.1510000 -20.4030000 -13.0870000  25.0500000
 -20.0410000 -12.8650000  25.9640000 -19.6410000 -13.3290000  24.4370000
 -20.8920000 -12.2880000  24.6790000 -24.0840000 -11.5000000  28.3170000
 -22.9660000 -11.5930000  28.8280000 -24.6940000 -10.3480000  28.1740000
 -25.5440000 -10.3180000  27.6490000 -24.1810000  -9.1020000  28.7520000
 -23.2860000  -8.7890000  28.1940000 -25.2530000  -8.0120000  28.6460000
 -25.4940000  -7.8710000  27.5820000 -26.1490000  -8.3590000  29.1820000
 -24.8480000  -6.6620000  29.2240000 -24.9160000  -6.4190000  30.5990000
 -25.2480000  -7.2080000  31.2640000 -24.5630000  -5.1750000  31.1310000
 -24.5590000  -5.0280000  32.2050000 -24.2190000  -4.1310000  30.2890000
 -23.9850000  -3.1550000  30.7000000 -24.1740000  -4.3390000  28.9070000
 -23.8680000  -3.5370000  28.2450000 -24.5290000  -5.5990000  28.3800000
 -24.5540000  -5.7420000  27.3060000 -23.8080000  -9.3030000  30.2310000
 -22.7330000  -8.9290000  30.6540000 -24.7340000  -9.9070000  30.9800000
 -25.5690000 -10.2240000  30.5300000 -24.6010000 -10.1330000  32.4160000
 -24.3240000  -9.1890000  32.9080000 -25.9600000 -10.6130000  32.9680000
 -26.7050000  -9.8360000  32.7420000 -26.2260000 -11.5400000  32.4390000
 -26.0290000 -10.8960000  34.4510000 -25.2200000 -11.5920000  34.7190000
 -25.8970000  -9.9520000  35.0000000 -27.3670000 -11.5160000  34.8490000
 -27.4640000 -12.5010000  34.3690000 -27.3980000 -11.6360000  35.9420000
 -28.4720000 -10.6730000  34.4320000 -28.4290000  -9.6750000  34.6850000
 -29.5450000 -11.0900000  33.7430000 -29.7130000 -12.3750000  33.4630000
 -29.0150000 -13.0660000  33.7750000 -30.5410000 -12.6830000  32.9330000
 -30.4480000 -10.2200000  33.3730000 -30.3320000  -9.2250000  33.6110000
 -31.2750000 -10.5300000  32.8440000 -23.5100000 -11.1720000  32.6910000
 -22.5680000 -10.9310000  33.4640000 -23.5990000 -12.3110000  32.0300000
 -24.3030000 -12.4190000  31.3280000 -22.6910000 -13.4090000  32.3050000
 -22.7540000 -13.6310000  33.3800000 -23.0930000 -14.6670000  31.5230000
 -23.2590000 -14.3880000  30.4720000 -22.2710000 -15.3950000  31.5840000
 -24.3820000 -15.3320000  32.0660000 -24.7740000 -15.0900000  33.2390000
 -24.9730000 -16.1230000  31.2970000 -21.2640000 -13.0850000  31.9790000
 -20.3060000 -13.6660000  32.5820000 -21.0830000 -12.2200000  30.9800000
 -21.8730000 -11.8880000  30.4650000 -19.7400000 -11.7510000  30.6290000
 -19.1850000 -12.5860000  30.1760000 -19.8340000 -10.6180000  29.6300000
 -20.6770000  -9.9730000  29.9200000 -18.8980000 -10.0410000  29.6750000
 -20.0500000 -11.0650000  28.1850000 -19.7900000 -12.2200000  27.7640000
 -20.4070000 -10.0960000  27.3850000 -20.5140000  -9.1680000  27.7410000
 -20.5740000 -10.2830000  26.4170000 -18.9560000 -11.2480000  31.8870000
 -17.7960000 -11.5360000  32.0400000 -19.6150000 -10.4590000  32.7180000
 -20.5640000 -10.2510000  32.4800000 -19.1010000  -9.8550000  33.9540000
 -19.9380000  -9.2330000  34.3030000 -18.8660000 -10.8790000  35.0840000
 -18.2280000 -11.6860000  34.6950000 -18.3510000 -10.3710000  35.9130000
 -20.1620000 -11.5020000  35.6260000 -20.6430000 -12.0780000  34.8220000
 -19.9120000 -12.1740000  36.4600000 -21.1420000 -10.4370000  36.1260000
 -20.6030000  -9.7530000  36.7980000 -21.5220000  -9.8760000  35.2590000
 -22.2710000 -10.9940000  36.8450000 -22.1780000 -11.9520000  37.2130000
 -23.4270000 -10.3530000  37.0660000 -23.6420000  -9.1380000  36.5900000
 -22.9130000  -8.6650000  36.0370000 -24.5380000  -8.6650000  36.7720000
 -24.3770000 -10.9520000  37.7780000 -24.2200000 -11.8980000  38.1530000
 -25.2700000 -10.4700000  37.9550000 -17.9360000  -8.8820000  33.8560000
 -18.0420000  -7.7850000  34.4460000 -16.8260000  -9.2930000  33.2450000
 -16.8340000 -10.1780000  32.7800000 -15.6140000  -8.5120000  33.2280000
 -15.7290000  -7.6750000  33.9320000 -14.4180000  -9.3530000  33.6610000
 -14.5730000  -9.6590000  34.7060000 -14.3750000 -10.2460000  33.0200000
 -13.0770000  -8.6350000  33.5690000 -12.9690000  -8.2600000  32.5400000
 -12.9710000  -7.4280000  34.5080000 -13.1080000  -7.7590000  35.5480000
 -11.9790000  -6.9650000  34.3990000 -13.7490000  -6.6940000  34.2510000
 -11.9680000  -9.6200000  33.8280000 -12.0150000 -10.4290000  33.0840000
 -10.9980000  -9.1080000  33.7520000 -12.0820000 -10.0430000  34.8370000
 -15.3630000  -7.9500000  31.8400000 -15.2030000  -8.7100000  30.8650000
 -15.2740000  -6.6180000  31.7880000 -15.4420000  -6.0990000  32.6260000
 -14.9470000  -5.8870000  30.5800000 -15.8170000  -5.2790000  30.2920000
 -14.7260000  -6.6110000  29.7820000 -13.7660000  -4.9820000  30.7440000
 -13.2950000  -4.7580000  31.8590000 -13.2950000  -4.4740000  29.6080000
 -13.6270000  -4.8590000  28.7470000 -12.3330000  -3.4010000  29.5460000
 -12.0780000  -3.0960000  30.5720000 -11.0520000  -3.8390000  28.8350000
 -10.3430000  -2.9990000  28.8060000 -10.6000000  -4.6810000  29.3790000
 -11.2910000  -4.1520000  27.8080000 -12.9400000  -2.2280000  28.8220000
 -13.8730000  -2.3930000  28.0190000 -12.5050000  -1.0330000  29.2150000
 -11.8520000  -0.9850000  29.9710000 -12.9380000   0.1940000  28.5950000
 -13.7760000   0.0080000  27.9070000 -13.3480000   1.2030000  29.6740000
 -13.4960000   0.6630000  30.6210000 -12.5370000   1.9370000  29.7940000
 -14.5930000   1.9270000  29.3460000 -14.6720000   2.6800000  28.2000000
 -13.8150000   2.7440000  27.5400000 -15.8430000   3.3620000  27.8780000
 -15.8950000   3.9470000  26.9670000 -16.9230000   3.2950000  28.7050000
 -17.8400000   3.8070000  28.4360000 -16.8590000   2.5820000  29.8800000
 -17.7150000   2.5380000  30.5440000 -15.6650000   1.9100000  30.2080000
 -15.5900000   1.3750000  31.1480000 -11.7260000   0.7540000  27.8450000
 -10.6170000   0.6220000  28.3320000 -11.9200000   1.2770000  26.6440000
 -12.8230000   1.1900000  26.2240000 -10.8630000   1.9810000  25.9020000
  -9.9050000   1.9200000  26.4390000 -10.7290000   1.3890000  24.4850000
 -11.7450000   1.2850000  24.0760000  -9.9850000   2.3110000  23.5720000
  -8.9790000   2.4950000  23.9770000  -9.9010000   1.8520000  22.5760000
 -10.5280000   3.2640000  23.4910000 -10.1200000  -0.0200000  24.5410000
 -10.7330000  -0.6360000  25.2160000 -10.1450000  -0.4490000  23.5290000
  -8.6920000  -0.0480000  25.0350000  -8.6460000   0.3770000  26.0490000
  -8.3320000  -1.0870000  25.0560000  -8.0590000   0.5460000  24.3600000
 -11.3250000   3.4480000  25.7480000 -12.4180000   3.6980000  25.1860000
 -10.5470000   4.3840000  26.2760000  -9.8090000   4.0910000  26.8840000
 -10.7030000   5.8580000  26.0190000 -11.6570000   6.0390000  25.5030000
 -10.6680000   6.6780000  27.3040000  -9.9690000   6.1970000  28.0040000
 -10.3070000   7.6890000  27.0620000 -11.9940000   6.7990000  27.9710000
 -12.6030000   5.7480000  28.6380000 -12.2010000   4.8100000  28.7740000
 -13.7870000   6.1500000  29.0710000 -14.5010000   5.5430000  29.6260000
 -13.9580000   7.4110000  28.7170000 -12.8340000   7.8570000  28.0780000
 -12.6490000   8.8700000  27.7230000  -9.5600000   6.2770000  25.1480000
  -8.4050000   6.2480000  25.5740000  -9.8390000   6.4600000  23.8740000
 -10.7850000   6.3380000  23.5730000  -8.8310000   6.8340000  22.8740000
  -7.9520000   7.2540000  23.3850000  -8.3950000   5.6070000  22.0500000
  -8.4130000   4.7250000  22.7060000  -9.1140000   5.4680000  21.2290000
  -7.0120000   5.7290000  21.4560000  -5.9520000   6.4060000  21.9900000
  -6.0000000   7.0160000  22.8910000  -4.8350000   6.2180000  21.2510000
  -3.9000000   6.5900000  21.4700000  -5.1560000   5.4480000  20.1600000
  -4.3530000   4.9770000  19.1250000  -3.3020000   5.2360000  19.0710000
  -4.9370000   4.1720000  18.1720000  -4.3340000   3.7880000  17.3570000
  -6.2830000   3.8440000  18.2360000  -6.7230000   3.2440000  17.4480000
  -7.0980000   4.2820000  19.3210000  -8.1350000   3.9750000  19.3950000
  -6.5310000   5.1110000  20.2800000  -9.4280000   7.8830000  21.9490000
 -10.5440000   7.7170000  21.3670000  -8.7010000   8.9840000  21.8400000
  -7.8030000   9.0190000  22.2800000  -9.1780000  10.1610000  21.0880000
 -10.0160000  10.6340000  21.6210000  -9.5070000   9.8580000  20.0830000
  -8.0360000  11.1140000  20.9850000  -6.8850000  10.7840000  21.3160000
  -8.3280000  12.3060000  20.5090000  -9.2780000  12.5730000  20.3450000
  -7.1950000  13.2610000  20.2160000  -6.4810000  12.7470000  19.5560000
  -7.7270000  14.4950000  19.4930000  -8.4260000  15.0040000  20.1720000
  -6.8720000  15.1550000  19.2850000  -8.4480000  14.2550000  18.1890000
  -9.2800000  13.5580000  18.3690000  -9.0240000  15.5700000  17.7160000
  -8.2110000  16.2980000  17.5790000  -9.5460000  15.4190000  16.7600000
  -9.7340000  15.9500000  18.4650000  -7.5140000  13.6140000  17.1620000
  -7.1420000  12.6550000  17.5530000  -8.0630000  13.4400000  16.2250000
  -6.6650000  14.2860000  16.9690000  -6.4480000  13.7010000  21.4720000
  -5.2440000  14.0150000  21.4090000  -7.1580000  13.7050000  22.6050000
  -8.1440000  13.5480000  22.5480000  -6.5660000  13.9280000  23.9250000
  -6.2320000  14.9760000  23.9370000  -7.5980000  13.7810000  25.0550000
  -8.2070000  14.6960000  25.0860000  -7.0550000  13.6700000  26.0050000
  -8.5190000  12.6090000  24.9010000  -8.1190000  11.3220000  25.3080000
  -7.1520000  11.1930000  25.7810000  -8.9130000  10.2430000  25.1220000
  -8.5520000   9.2560000  25.3880000 -10.1610000  10.3900000  24.6030000
 -10.9630000   9.2570000  24.4820000 -10.5000000   8.5030000  24.8270000
 -10.5810000  11.6380000  24.1810000 -11.5600000  11.7500000  23.7290000
  -9.7640000  12.7450000  24.3300000 -10.1040000  13.7190000  23.9970000
  -5.3270000  13.0790000  24.1990000  -4.5020000  13.4820000  25.0120000
  -5.1870000  11.9150000  23.5520000  -5.8880000  11.6110000  22.9070000
  -3.9900000  11.0820000  23.7970000  -3.9050000  10.9480000  24.8850000
  -4.1270000   9.6790000  23.1620000  -3.2190000   9.0930000  23.3670000
  -4.9990000   9.1650000  23.5930000  -4.2610000   9.7800000  22.0750000
  -2.7240000  11.7420000  23.3220000  -1.6140000  11.4140000  23.8170000
  -2.8430000  12.6000000  22.3170000  -3.7460000  12.7770000  21.9260000
  -1.6720000  13.2940000  21.7700000  -0.9260000  12.5140000  21.5570000
  -1.9820000  13.9780000  20.3970000  -2.8790000  14.6060000  20.5030000
  -0.8230000  14.8460000  19.9360000   0.0800000  14.2270000  19.8310000
  -1.0700000  15.3020000  18.9660000  -0.6400000  15.6380000  20.6770000
  -2.2380000  12.8990000  19.3600000  -1.2660000  12.5450000  18.9860000
  -2.7660000  12.0690000  19.8520000  -3.0620000  13.3470000  18.1780000
  -2.5500000  14.1760000  17.6680000  -3.1870000  12.5070000  17.4790000
  -4.0500000  13.6840000  18.5260000  -1.0070000  14.2470000  22.8030000
   0.1530000  14.0410000  23.1490000  -1.7050000  15.2820000  23.2840000
  -3.0360000  15.7760000  22.9040000  -3.7670000  14.9550000  22.8720000
  -3.0060000  16.2780000  21.9260000  -3.3630000  16.7350000  23.9830000
  -3.8790000  16.2220000  24.8080000  -4.0020000  17.5420000  23.5960000
  -2.0530000  17.2880000  24.4530000  -2.1270000  17.6270000  25.4970000
  -1.7350000  18.1270000  23.8170000  -1.0890000  16.1350000  24.3340000
  -0.1070000  16.4960000  23.9930000  -0.8890000  15.3970000  25.6980000
   0.0090000  15.7310000  26.4820000  -1.6860000  14.3750000  25.9420000
  -2.4090000  14.1380000  25.2930000  -1.5120000  13.5850000  27.1680000
  -0.5450000  13.0650000  27.1050000  -2.3240000  12.8440000  27.2150000
  -1.5320000  14.3930000  28.4630000  -0.8240000  14.0820000  29.3940000
  -2.4450000  15.3420000  28.5620000  -3.0500000  15.5120000  27.7840000
  -2.6000000  16.1390000  29.7470000  -2.3030000  15.5230000  30.6090000
  -3.6630000  16.4070000  29.8360000  -1.7850000  17.4340000  29.7940000
  -1.9590000  18.2340000  30.7460000  -0.9360000  17.6460000  28.7920000
  -0.8830000  16.9750000  28.0520000  -0.0830000  18.8200000  28.7370000
  -0.2000000  19.3850000  29.6740000   1.3780000  18.4030000  28.5610000
   1.6260000  17.6700000  29.3430000   1.4880000  17.9350000  27.5720000
   2.3600000  19.5540000  28.6560000   2.2380000  20.1890000  27.7660000
   2.1240000  20.1380000  29.5580000   3.8120000  19.1150000  28.7360000
   4.0960000  17.9560000  29.1280000   4.6880000  19.9340000  28.4190000
  -0.4120000  19.7100000  27.5720000  -0.5630000  19.2250000  26.4360000
  -0.4940000  21.0180000  27.8390000  -0.3910000  21.3270000  28.7840000
  -0.7310000  22.0130000  26.7870000  -0.5200000  21.5540000  25.8100000
  -2.2140000  22.4610000  26.8240000  -2.8400000  21.5830000  27.0410000
  -2.3360000  23.2060000  27.6250000  -2.6770000  23.0740000  25.5200000
  -2.8480000  24.4220000  25.2450000  -2.6810000  25.2310000  25.9550000
  -3.2590000  24.5860000  23.9460000  -3.4720000  25.4880000  23.4960000
  -3.3410000  23.3600000  23.3440000  -3.7460000  23.0200000  22.0440000
  -4.0350000  23.7830000  21.3300000  -3.7640000  21.7000000  21.7090000
  -4.0480000  21.4100000  20.7040000  -3.4190000  20.6990000  22.6500000
  -3.4500000  19.6570000  22.3540000  -3.0410000  21.0300000  23.9490000
  -2.7960000  20.2560000  24.6670000  -2.9840000  22.3820000  24.3090000
   0.1830000  23.2150000  26.9700000   0.1060000  23.8790000  28.0180000
   1.0500000  23.4580000  25.9790000   1.0810000  22.8230000  25.2070000
   1.9540000  24.6070000  25.9720000   2.6660000  24.4660000  25.1450000
   1.1670000  25.8840000  25.6960000   0.2820000  25.9020000  26.3490000
   1.8070000  26.7490000  25.9230000   0.7020000  25.9830000  24.2300000
   1.1330000  25.2070000  23.3740000  -0.2220000  26.8830000  23.9630000
  -0.5850000  27.4590000  24.6950000  -0.5600000  26.9900000  23.0280000
   2.7720000  24.7140000  27.2620000   2.8970000  25.7810000  27.8540000
   3.3410000  23.5870000  27.6650000   3.1180000  22.7400000  27.1830000
   4.2720000  23.5300000  28.7740000   4.8900000  24.4400000  28.7460000
   4.9130000  22.6470000  28.6340000   3.6350000  23.4360000  30.1580000
   4.3550000  23.3540000  31.1220000   2.3100000  23.3970000  30.2460000
   1.7610000  23.5130000  29.4180000   1.6500000  23.1920000  31.5040000
   2.4000000  23.2420000  32.3070000   0.5740000  24.2370000  31.7550000
   1.0370000  25.2340000  31.7200000  -0.1850000  24.1570000  30.9630000
  -0.1020000  24.0670000  33.0890000  -0.7720000  23.1960000  33.0350000
   0.6690000  23.8890000  33.8530000  -0.9230000  25.2880000  33.5000000
  -0.2670000  26.1690000  33.5640000  -1.7110000  25.4710000  32.7540000
  -1.5530000  25.0250000  34.8490000  -2.3700000  24.2950000  34.7540000
  -0.8000000  24.6430000  35.5550000  -2.0750000  26.3180000  35.3100000
  -2.7490000  26.6650000  34.6450000  -2.5180000  26.2010000  36.2080000
  -1.3160000  26.9760000  35.3930000   0.9590000  21.8160000  31.5270000
   0.1730000  21.5020000  30.6280000   1.2650000  21.0480000  32.5650000
   1.9390000  21.3760000  33.2270000   0.6500000  19.7410000  32.7710000
   0.3140000  19.3350000  31.8060000   1.6380000  18.7660000  33.4100000
   1.9710000  19.1730000  34.3760000   0.9480000  17.4120000  33.6430000
   0.5950000  17.0100000  32.6820000   1.6640000  16.7080000  34.0940000
   0.0920000  17.5480000  34.3200000   2.8460000  18.5780000  32.5080000
   3.3380000  19.5490000  32.3470000   3.5540000  17.8830000  32.9830000
   2.5210000  18.1660000  31.5410000  -0.5250000  19.9330000  33.6810000
  -0.3810000  20.3330000  34.8420000  -1.7060000  19.6740000  33.1860000
  -1.7880000  19.3490000  32.2440000  -2.9020000  19.8540000  33.9920000
  -2.7180000  20.6600000  34.7170000  -4.0690000  20.2540000  33.0790000
  -4.9920000  20.2660000  33.6780000  -4.1600000  19.5030000  32.2800000
  -3.8910000  21.6350000  32.4310000  -3.0260000  21.8040000  31.3760000
  -2.4630000  20.9550000  31.0060000  -2.8630000  23.0440000  30.7780000
  -2.2270000  23.1520000  29.9070000  -3.5260000  24.1540000  31.3090000
  -3.3490000  25.3910000  30.7260000  -2.7450000  25.3140000  29.9970000
  -4.3620000  24.0210000  32.3860000  -4.8800000  24.8830000  32.7920000
  -4.5360000  22.7560000  32.9520000  -5.1850000  22.6440000  33.8130000
  -3.2740000  18.5800000  34.7610000  -3.2180000  17.4910000  34.1800000
  -3.6580000  18.7290000  36.0310000  -3.7620000  19.6570000  36.3890000
  -3.9330000  17.6130000  36.9210000  -3.9170000  17.9750000  37.9600000
  -3.1510000  16.8510000  36.7870000  -5.2790000  16.9840000  36.6450000
  -5.5040000  15.8170000  36.9680000  -6.1790000  17.7300000  36.0290000
  -5.9510000  18.6700000  35.7770000  -7.5130000  17.1950000  35.7090000
  -8.1350000  18.0160000  35.3240000  -7.9610000  16.7980000  36.6320000
  -7.4810000  16.0690000  34.6560000  -6.4400000  15.7770000  34.0730000
  -8.6420000  15.4390000  34.4140000  -9.4740000  15.7770000  34.8540000
  -8.7360000  14.2750000  33.5300000  -8.0860000  13.4770000  33.9170000
 -10.1760000  13.7620000  33.5030000 -10.2420000  12.8880000  32.8380000
 -10.4810000  13.4730000  34.5190000 -10.8410000  14.5560000  33.1320000
  -8.2590000  14.6610000  32.1400000  -8.6820000  15.6820000  31.5930000
  -7.2940000  13.9180000  31.6140000  -6.9760000  13.1140000  32.1170000
  -6.6660000  14.2390000  30.3000000  -6.1360000  15.1940000  30.4320000
  -5.6530000  13.2020000  29.9510000  -5.1960000  13.4480000  28.9810000
  -4.8740000  13.1750000  30.7270000  -6.1420000  12.2190000  29.8880000
  -7.6190000  14.4310000  29.1440000  -7.4050000  15.2740000  28.2680000
  -8.6970000  13.6640000  29.1490000  -8.8480000  13.0310000  29.9080000
  -9.6650000  13.7290000  28.0670000  -9.0840000  13.7460000  27.1330000
 -10.5580000  12.4850000  27.9980000 -11.0940000  12.5090000  27.0380000
  -9.9050000  11.6010000  28.0310000 -11.5890000  12.3390000  29.0990000
 -12.0750000  13.3160000  29.2360000 -12.3350000  11.6030000  28.7650000
 -11.0620000  11.8850000  30.4600000  -9.8590000  11.5350000  30.6280000
 -11.9080000  11.8640000  31.3600000 -10.4790000  15.0180000  28.0930000
 -11.1810000  15.3030000  27.1290000 -10.3820000  15.7680000  29.1970000
  -9.8590000  15.3900000  29.9610000 -10.9770000  17.0980000  29.3840000
 -11.7700000  17.2190000  28.6310000 -11.6040000  17.2000000  30.7870000
 -10.9660000  16.6490000  31.4930000 -11.6390000  18.2610000  31.0750000
 -12.9860000  16.6440000  30.8690000 -13.3610000  15.3130000  30.9040000
 -12.6740000  14.4680000  30.8850000 -14.7410000  15.2170000  30.9670000
 -15.2840000  14.3420000  31.0000000 -15.2600000  16.4820000  30.9780000
 -16.5830000  16.8970000  31.0060000 -17.4000000  16.1840000  30.9910000
 -16.8140000  18.2520000  31.0540000 -17.8350000  18.6090000  31.1260000
 -15.7690000  19.1850000  31.0120000 -16.0000000  20.2440000  31.0310000
 -14.4610000  18.7840000  30.9480000 -13.6600000  19.5120000  30.8990000
 -14.1800000  17.4000000  30.9470000  -9.9830000  18.2550000  29.2160000
 -10.2990000  19.4000000  29.5660000  -8.8010000  17.9920000  28.6930000
  -8.5940000  17.0590000  28.3980000  -7.7980000  19.0220000  28.5370000
  -7.5660000  19.4050000  29.5420000  -6.5330000  18.4440000  27.9470000
  -6.2160000  17.6140000  28.5960000  -6.7820000  18.0550000  26.9490000
  -5.3230000  19.3960000  27.7850000  -5.6350000  20.2330000  27.1440000
  -4.8230000  19.9970000  29.1080000  -4.5220000  19.1870000  29.7880000
  -3.9600000  20.6500000  28.9110000  -5.6290000  20.5840000  29.5720000
  -4.2470000  18.6530000  27.0920000  -4.6090000  18.3140000  26.1100000
  -3.3770000  19.3110000  26.9550000  -3.9560000  17.7810000  27.6960000
  -8.2500000  20.2250000  27.6720000  -7.8270000  21.3620000  27.9420000
  -9.1290000  19.9910000  26.6870000  -9.4210000  19.0540000  26.4950000
  -9.6720000  21.1110000  25.8800000  -8.8400000  21.5690000  25.3250000
 -10.7260000  20.6320000  24.8540000 -10.2680000  19.8690000  24.2070000
 -11.5740000  20.1910000  25.3980000 -11.2500000  21.7820000  23.9690000
 -11.5530000  22.6170000  24.6170000 -10.4400000  22.1110000  23.3010000
 -12.4370000  21.3640000  23.1260000 -12.1160000  20.5540000  22.4550000
 -13.2250000  20.9930000  23.7980000 -13.0250000  22.4910000  22.2730000
 -12.2800000  22.8000000  21.5250000 -13.9260000  22.1200000  21.7620000
 -13.3920000  23.6700000  23.1060000 -12.5720000  24.0130000  23.5820000
 -13.7660000  24.3960000  22.5150000 -14.0860000  23.3990000  23.7850000
 -10.2880000  22.1860000  26.8240000 -10.0690000  23.3860000  26.6500000
 -11.0260000  21.7120000  27.8150000 -11.1700000  20.7240000  27.8720000
 -11.6260000  22.5470000  28.8060000 -12.1320000  23.3790000  28.2940000
 -12.6540000  21.7510000  29.5470000 -13.3800000  21.3440000  28.8280000
 -12.1560000  20.9240000  30.0740000 -13.3330000  22.5460000  30.4820000
 -13.9780000  22.0180000  30.9370000 -10.6000000  23.1450000  29.7630000
 -10.5840000  24.3660000  29.9410000  -9.7180000  22.3330000  30.3720000
  -9.7340000  21.3520000  30.1800000  -8.7260000  22.8770000  31.3220000
  -9.2890000  23.3320000  32.1500000  -7.7770000  21.8070000  31.9080000
  -7.0270000  21.5610000  31.1420000  -7.2750000  22.2410000  32.7860000
  -8.4280000  20.5520000  32.3290000  -7.9720000  19.2860000  32.0950000
  -7.0550000  19.0480000  31.5580000  -8.8210000  18.3600000  32.6260000
  -8.6900000  17.3390000  32.5990000  -9.8730000  19.0150000  33.1990000
 -11.0050000  18.5010000  33.8290000 -11.1720000  17.4330000  33.9060000
 -11.8910000  19.3950000  34.3430000 -12.7640000  19.0310000  34.8730000
 -11.6970000  20.8060000  34.2000000 -12.4370000  21.4880000  34.6020000
 -10.5960000  21.3100000  33.5660000 -10.4440000  22.3800000  33.4840000
  -9.6640000  20.4060000  33.0220000  -7.8230000  23.9510000  30.7010000
  -7.5300000  24.9420000  31.3440000  -7.3340000  23.7240000  29.4830000
  -7.5750000  22.8790000  29.0050000  -6.4440000  24.6990000  28.8300000
  -5.9310000  25.2620000  29.6230000  -5.3960000  23.9700000  28.0260000
  -4.7330000  24.7010000  27.5400000  -4.8050000  23.3260000  28.6930000
  -5.8860000  23.3520000  27.2590000  -7.2070000  25.7290000  27.9550000
  -6.5910000  26.4770000  27.2300000  -8.5290000  25.7110000  27.9980000
  -8.9700000  25.0300000  28.5830000  -9.3890000  26.6300000  27.2390000
 -10.4130000  26.2320000  27.2870000  -9.3880000  28.0030000  27.9460000
  -8.3560000  28.3760000  28.0240000  -9.9930000  28.7160000  27.3670000
  -9.9790000  27.8470000  29.3370000 -10.9430000  27.3230000  29.2520000
  -9.2880000  27.2470000  29.9470000 -10.2090000  29.1740000  30.0310000
 -10.7220000  29.8640000  29.3450000 -10.8290000  29.0180000  30.9260000
  -8.8800000  29.7590000  30.4330000  -8.0840000  29.3280000  29.8080000
  -8.9030000  30.8500000  30.2970000  -8.6170000  29.4440000  31.8530000
  -8.6060000  28.4440000  31.9790000  -7.7240000  29.8260000  32.1220000
  -9.3410000  29.8470000  32.4260000  -9.0360000  26.7400000  25.7610000
  -8.8030000  27.8310000  25.2010000  -8.9700000  25.5870000  25.1270000
  -9.2100000  24.7470000  25.6140000  -8.5520000  25.5060000  23.7230000
  -7.8690000  26.3400000  23.5040000  -7.8280000  24.1800000  23.4080000
  -8.5720000  23.3710000  23.4330000  -7.1890000  24.2160000  22.0130000
  -6.4640000  25.0420000  21.9630000  -6.6730000  23.2640000  21.8210000
  -7.9720000  24.3680000  21.2550000  -6.7460000  23.8740000  24.4340000
  -7.1990000  23.8030000  25.4340000  -6.2610000  22.9190000  24.1820000
  -5.9960000  24.6790000  24.4270000  -9.8110000  25.6320000  22.8510000
 -10.7610000  24.8820000  23.0050000  -9.8350000  26.6110000  21.9250000
  -8.7690000  27.5900000  21.6490000  -7.9500000  27.1350000  21.0730000
  -8.3690000  28.0160000  22.5810000  -9.4960000  28.6410000  20.8320000
  -8.7980000  29.1680000  20.1640000  -9.9960000  29.3690000  21.4880000
 -10.5030000  27.8590000  20.0400000 -10.0530000  27.4790000  19.1110000
 -11.3740000  28.4850000  19.7970000 -10.9170000  26.6850000  20.9650000
 -11.8740000  26.8900000  21.4680000 -11.0330000  25.3820000  20.1280000
 -10.0340000  24.7180000  19.8860000 -12.2480000  25.0390000  19.7500000
 -13.0120000  25.6280000  20.0130000 -12.5380000  23.8160000  18.9500000
 -12.3640000  22.9500000  19.6050000 -14.0120000  23.8210000  18.5550000
 -14.2360000  22.9210000  17.9630000 -14.6350000  23.8280000  19.4620000
 -14.2280000  24.7170000  17.9550000 -11.6590000  23.6300000  17.7340000
 -11.0480000  22.5530000  17.5450000 -11.5090000  24.7030000  16.9280000
 -11.8910000  25.5880000  17.1950000 -10.8010000  24.5690000  15.6890000
 -11.2320000  23.7050000  15.1620000 -10.9870000  25.7880000  14.7500000
 -10.5110000  25.5530000  13.7860000 -12.0660000  25.9420000  14.5980000
 -10.3840000  27.1060000  15.2740000 -10.0120000  27.3100000  16.4760000
 -10.2800000  28.0000000  14.4030000  -9.3560000  24.2360000  15.9720000
  -8.7660000  23.3860000  15.3040000  -8.8060000  24.8400000  17.0250000
  -9.3500000  25.4790000  17.5690000  -7.4030000  24.5760000  17.3970000
  -6.7820000  24.6190000  16.4900000  -6.9490000  25.6570000  18.3610000
  -7.0570000  26.6310000  17.8600000  -7.6030000  25.6250000  19.2450000
  -5.5520000  25.5260000  18.8170000  -5.4260000  24.5580000  19.3240000
  -4.8810000  25.5740000  17.9460000  -5.1960000  26.6550000  19.7900000
  -4.1770000  26.5090000  20.4620000  -5.8960000  27.7090000  19.7910000
  -7.2350000  23.1930000  18.0330000  -6.2800000  22.4680000  17.7280000
  -8.1780000  22.8070000  18.8680000  -8.9120000  23.4420000  19.1100000
  -8.1670000  21.4310000  19.4600000  -7.2140000  21.3080000  19.9950000
  -9.3010000  21.2670000  20.4800000  -9.1970000  22.0350000  21.2610000
 -10.2670000  21.3920000  19.9690000  -9.2540000  19.9210000  21.1100000
  -9.9810000  18.8090000  20.7260000 -10.7200000  18.7910000  19.9270000
  -9.6320000  17.7290000  21.5030000 -10.0640000  16.7950000  21.4510000
  -8.6210000  18.0870000  22.3570000  -7.9090000  17.3180000  23.3000000
  -8.1190000  16.2640000  23.4430000  -6.9430000  17.9560000  24.0260000
  -6.3690000  17.3880000  24.7480000  -6.6700000  19.3270000  23.8660000
  -5.9170000  19.8000000  24.4860000  -7.3650000  20.0920000  22.9080000
  -7.1330000  21.1410000  22.7660000  -8.3570000  19.4740000  22.1450000
  -8.2360000  20.3250000  18.3660000  -7.3970000  19.4490000  18.3070000
  -9.1550000  20.4980000  17.4390000  -9.7290000  21.3160000  17.4790000
  -9.3690000  19.5470000  16.3580000  -9.4140000  18.5550000  16.8310000
 -10.7310000  19.7840000  15.7300000 -10.7730000  20.8160000  15.3510000
 -10.8640000  19.0810000  14.8940000 -11.8660000  19.5800000  16.7300000
 -11.5370000  20.0080000  17.6890000 -13.1670000  20.2920000  16.3210000
 -13.5010000  19.9130000  15.3440000 -13.9440000  20.0980000  17.0750000
 -12.9860000  21.3750000  16.2520000 -12.1540000  18.1160000  16.9460000
 -11.2500000  17.6170000  17.3250000 -12.9680000  18.0060000  17.6780000
 -12.4540000  17.6570000  15.9930000  -8.2410000  19.4540000  15.3400000
  -8.0800000  18.4170000  14.6870000  -7.3880000  20.4680000  15.2820000
  -7.5910000  21.3000000  15.7980000  -6.1680000  20.4100000  14.4940000
  -6.4480000  20.1490000  13.4630000  -5.4780000  21.7930000  14.4710000
  -6.2180000  22.5330000  14.1320000  -5.1660000  22.0300000  15.4990000
  -4.2690000  21.9130000  13.5840000  -4.5500000  21.6770000  12.5470000
  -3.8790000  22.9400000  13.6330000  -3.2034651  20.9219844  14.0402329
  -2.9211573  21.1398107  15.0702586  -3.5993978  19.9082734  13.9791862
  -1.9778095  21.0436398  13.1410143  -2.2592567  20.8254875  12.1108213
  -1.5810146  22.0570234  13.2018959  -0.9507052  20.0883643  13.5807921
  -1.3180387  19.1492447  13.5240451  -0.1389588  20.1689363  12.9852453
  -0.6894608  20.2906026  14.5352292  -5.2110000  19.3590000  14.9880000
  -4.2670000  18.9890000  14.3000000  -5.4260000  18.8470000  16.1920000
  -6.0990000  19.2690000  16.8000000  -4.6810000  17.6650000  16.6350000
  -3.6170000  17.9390000  16.6840000  -5.1460000  17.2710000  18.0440000
  -6.2460000  17.2520000  18.0400000  -4.7630000  16.2610000  18.2520000
  -4.7000000  18.1850000  19.1920000  -4.9640000  19.2210000  18.9360000
  -5.4440000  17.7960000  20.4820000  -5.2220000  16.7480000  20.7310000
  -5.1150000  18.4460000  21.3060000  -6.5270000  17.9160000  20.3310000
  -3.1860000  18.1130000  19.3920000  -2.6790000  18.4220000  18.4660000
  -2.8920000  18.7840000  20.2130000  -2.8980000  17.0810000  19.6410000
  -4.8070000  16.4700000  15.6890000  -3.9360000  15.6220000  15.6550000
  -5.9080000  16.4230000  14.9420000  -6.6400000  17.0780000  15.1290000
  -6.0950000  15.4580000  13.8610000  -6.2510000  14.4720000  14.3230000
  -7.3480000  15.8090000  13.0570000  -7.3490000  16.8920000  12.8640000
  -7.3140000  15.2670000  12.1010000  -8.6110000  15.4510000  13.7610000
  -8.6990000  14.3550000  13.7730000  -8.5470000  15.8250000  14.7930000
 -10.1000000  16.1260000  13.0090000  -9.9900000  15.3550000  11.3790000
  -9.9880000  14.2610000  11.4900000 -10.8540000  15.6600000  10.7700000
  -9.0610000  15.6750000  10.8840000  -4.8820000  15.3390000  12.9250000
  -4.5430000  14.2280000  12.5110000  -4.1870000  16.4540000  12.6530000
  -4.4910000  17.3240000  13.0420000  -2.9740000  16.4320000  11.7870000
  -3.2690000  15.9450000  10.8460000  -2.4300000  17.8270000  11.4430000
  -2.0910000  18.3080000  12.3720000  -1.5770000  17.7100000  10.7590000
  -3.4380000  18.7110000  10.7940000  -4.5280000  18.2670000  10.4020000
  -3.1250000  19.8990000  10.6770000  -1.8370000  15.6470000  12.3760000
  -0.8990000  15.3010000  11.6610000  -1.9260000  15.3550000  13.6810000
  -2.7200000  15.6920000  14.1880000  -0.9180000  14.5640000  14.4110000
  -0.0140000  14.5010000  13.7870000  -0.5570000  15.2720000  15.7500000
  -1.4850000  15.4510000  16.3140000   0.1030000  14.6100000  16.3300000
   0.1440000  16.5920000  15.5460000   1.1060000  16.4170000  15.0430000
  -0.4840000  17.2420000  14.9190000   0.3950000  17.2760000  16.8820000
  -0.2350000  18.2590000  17.2090000   1.2710000  16.7170000  17.6590000
   1.7380000  15.8830000  17.3670000   1.4790000  17.1200000  18.5500000
  -1.3950000  13.1430000  14.7120000  -0.6750000  12.3550000  15.3030000
  -2.6000000  12.8020000  14.2780000  -3.1580000  13.4640000  13.7770000
  -3.1030000  11.4780000  14.5290000  -2.8050000  11.1930000  15.5490000
  -4.6420000  11.4940000  14.4800000  -5.0020000  12.2150000  15.2290000
  -4.9500000  11.8230000  13.4770000  -5.2930000  10.1580000  14.7590000
  -5.6760000   9.2080000  13.8440000  -5.5360000   9.2800000  12.7660000
  -6.2690000   8.1430000  14.5050000  -6.6530000   7.3010000  14.0520000
  -6.2650000   8.3840000  15.8580000  -6.6860000   7.5790000  16.9200000
  -7.1110000   6.5970000  16.7490000  -6.5400000   8.0790000  18.1770000
  -6.9160000   7.5140000  19.0220000  -5.9020000   9.3310000  18.4020000
  -5.7660000   9.6830000  19.4180000  -5.4600000  10.0930000  17.3680000
  -4.9960000  11.0560000  17.5510000  -5.6130000   9.6150000  16.0660000
  -2.4990000  10.4520000  13.5820000  -2.9330000  10.3150000  12.4340000
  -1.5220000   9.7130000  14.0930000  -1.2710000   9.8410000  15.0520000
  -0.8110000   8.7320000  13.3120000  -1.5270000   8.2770000  12.6120000
   0.2900000   9.4170000  12.4930000  -0.1270000  10.3220000  12.0260000
   1.1110000   9.6980000  13.1690000   0.8410000   8.5180000  11.4060000
   0.1420000   7.6850000  10.8530000   2.1050000   8.7250000  11.0650000
   2.6350000   9.4410000  11.5190000   2.5290000   8.1650000  10.3530000
  -0.2310000   7.6190000  14.1610000   0.9860000   7.4850000  14.3060000
  -1.1000000   6.7870000  14.7270000  -2.5650000   6.9450000  14.6530000
  -2.9050000   6.9790000  13.6070000  -2.8890000   7.8580000  15.1740000
  -3.0830000   5.7190000  15.3460000  -3.2120000   4.8950000  14.6280000
  -4.0440000   5.9310000  15.8380000  -2.0370000   5.3720000  16.3630000
  -2.0690000   4.2990000  16.6030000  -2.1800000   5.9580000  17.2830000
  -0.7000000   5.7390000  15.6860000   0.0130000   6.1390000  16.4220000
  -0.0680000   4.5200000  14.9900000  -0.7090000   3.4720000  14.8190000
   1.1830000   4.6740000  14.5960000   1.6890000   5.4850000  14.8900000
   1.8520000   3.6870000  13.7380000   1.2150000   3.5280000  12.8550000
   3.2010000   4.1820000  13.2560000   3.6960000   3.3950000  12.6670000
   3.0120000   5.4310000  12.3940000   2.0430000   5.8950000  12.6280000
   3.8210000   6.1470000  12.6030000   3.0370000   5.1500000  11.3310000
   4.0030000   4.5190000  14.3830000   4.8500000   4.8300000  14.0870000
   2.0120000   2.3460000  14.4510000   2.1460000   1.3500000  13.7860000
   1.9610000   2.3160000  15.7890000   1.8620000   3.1680000  16.3030000
   2.0510000   1.0220000  16.5120000   2.6660000   0.3490000  15.8960000
   2.7810000   1.2490000  17.8240000   2.2460000   2.0130000  18.4070000
   2.8050000   0.3060000  18.3910000   4.2230000   1.7240000  17.5740000
   4.7580000   0.9750000  16.9720000   4.2060000   2.6830000  17.0360000
   4.9240000   1.9010000  18.8940000   4.5700000   2.8290000  19.3660000
   4.6860000   1.0460000  19.5430000   6.4260000   1.9810000  18.7160000
   6.7470000   1.3080000  17.9070000   6.7230000   3.0120000  18.4740000
   7.0410000   1.5620000  20.0020000   6.7510000   0.6220000  20.2230000
   8.0450000   1.5930000  19.9200000   6.7440000   2.1860000  20.7360000
   0.7120000   0.3090000  16.7360000   0.6580000  -0.8070000  17.2830000
  -0.3690000   0.9470000  16.3220000  -0.2840000   1.8710000  15.9500000
  -1.6890000   0.3190000  16.4010000  -1.9050000   0.1230000  17.4620000
  -2.7550000   1.2540000  15.8580000  -2.7190000   2.1900000  16.4340000
  -2.5260000   1.4640000  14.8030000  -4.1540000   0.7030000  15.9370000
  -4.7640000   0.5390000  17.1790000  -4.2310000   0.8300000  18.0770000
  -6.0330000   0.0130000  17.2850000  -6.5000000  -0.1010000  18.2570000
  -6.7060000  -0.3690000  16.1330000  -7.7030000  -0.7890000  16.2020000
  -6.0990000  -0.2120000  14.8860000  -6.6300000  -0.4940000  13.9840000
  -4.8130000   0.3060000  14.8040000  -4.3290000   0.3970000  13.8390000
  -1.7520000  -0.9910000  15.6630000  -1.3730000  -1.0780000  14.4900000
  -2.3020000  -1.9950000  16.3310000  -2.5730000  -1.8480000  17.2820000
  -2.5240000  -3.2890000  15.7400000  -2.7510000  -3.1840000  14.6690000
  -1.2760000  -4.1470000  15.9050000  -0.4260000  -3.6220000  15.4450000
  -1.0840000  -4.2840000  16.9790000  -1.4120000  -5.5330000  15.2490000
  -2.5240000  -6.0020000  15.0320000  -0.3840000  -6.1480000  14.9570000
  -3.7060000  -3.8860000  16.4550000  -3.6110000  -4.3250000  17.6150000
  -4.8470000  -3.8930000  15.7740000  -4.8630000  -3.5800000  14.8240000
  -6.0590000  -4.3490000  16.3990000  -6.2340000  -3.7040000  17.2730000
  -7.2320000  -4.1790000  15.4540000  -8.1520000  -4.5310000  15.9440000
  -7.3400000  -3.1160000  15.1910000  -7.0550000  -4.7660000  14.5410000
  -5.9980000  -5.8080000  16.9150000  -6.6440000  -6.1300000  17.9300000
  -5.2890000  -6.6780000  16.1990000  -4.8450000  -6.3810000  15.3540000
  -5.1570000  -8.0490000  16.6360000  -6.1630000  -8.4620000  16.8020000
  -4.4540000  -8.8890000  15.5670000  -3.4970000  -8.4070000  15.3200000
  -4.2640000  -9.8900000  15.9810000  -5.2490000  -9.0420000  14.3010000
  -6.1690000  -9.6090000  14.5070000  -5.5110000  -8.0490000  13.9060000
  -4.3960000  -9.7980000  13.2750000  -3.5360000  -9.1690000  13.0010000
  -4.0370000 -10.7300000  13.7350000  -5.1640000 -10.1450000  12.0140000
  -4.5590000 -10.7960000  11.3660000  -6.1050000 -10.6540000  12.2690000
  -5.4480000  -8.8450000  11.3230000  -4.5790000  -8.3800000  11.1110000
  -5.9520000  -9.0220000  10.4680000  -6.0040000  -8.2590000  11.9260000
  -4.3750000  -8.1160000  17.9520000  -4.6750000  -8.9420000  18.8130000
  -3.3640000  -7.2630000  18.0870000  -3.1160000  -6.6610000  17.3280000
  -2.6150000  -7.2010000  19.3360000  -2.3060000  -8.2290000  19.5760000
  -1.3600000  -6.3750000  19.1920000  -1.6350000  -5.4060000  18.7490000
  -0.9380000  -6.2130000  20.1950000  -0.2900000  -7.0050000  18.3250000
  -0.0780000  -8.0200000  18.6930000  -0.6520000  -7.0590000  17.2880000
   0.9990000  -6.1750000  18.3660000   0.7690000  -5.1340000  18.0950000
   1.4180000  -6.2060000  19.3820000   2.0160000  -6.7350000  17.3870000
   2.3550000  -7.7220000  17.7350000   1.5530000  -6.8360000  16.3940000
   3.1790000  -5.8130000  17.3000000   3.5980000  -5.7130000  18.2110000
   3.8590000  -6.1890000  16.6570000   2.8690000  -4.9120000  16.9720000
  -3.4560000  -6.6990000  20.5050000  -3.3450000  -7.2360000  21.6230000
  -4.2950000  -5.6910000  20.2570000  -4.2880000  -5.2650000  19.3520000
  -5.2330000  -5.1870000  21.2800000  -4.6550000  -4.8470000  22.1520000
  -6.0370000  -4.0200000  20.7420000  -6.4080000  -4.2930000  19.7430000
  -6.8890000  -3.8530000  21.4170000  -5.2770000  -2.7250000  20.6200000
  -3.9720000  -2.5590000  20.3280000  -3.2770000  -3.3700000  20.1160000
  -3.6410000  -1.2320000  20.3340000  -2.6980000  -0.8510000  20.1740000
  -4.7580000  -0.4950000  20.5860000  -4.9140000   0.8690000  20.7190000
  -4.0810000   1.5480000  20.5800000  -6.1520000   1.3250000  21.0300000
  -6.3210000   2.3930000  21.1030000  -7.2360000   0.4290000  21.2630000
  -8.2100000   0.8260000  21.5270000  -7.0660000  -0.9200000  21.1580000
  -7.8940000  -1.5970000  21.3320000  -5.8070000  -1.4090000  20.8230000
  -6.1710000  -6.2950000  21.7120000  -6.3870000  -6.4900000  22.8900000
  -6.6820000  -7.0640000  20.7510000  -6.3990000  -6.9150000  19.8040000
  -7.6450000  -8.1190000  21.0490000  -8.4230000  -7.6960000  21.7020000
  -8.3200000  -8.6190000  19.7780000  -9.0390000  -9.4120000  20.0320000
  -8.8490000  -7.7860000  19.2920000  -7.5590000  -9.0200000  19.0920000
  -6.9790000  -9.2510000  21.7890000  -7.5630000  -9.8210000  22.6950000
  -5.7080000  -9.5230000  21.4570000  -5.2710000  -9.0310000  20.7040000
  -4.9770000 -10.5180000  22.1820000  -5.5720000 -11.4430000  22.1850000
  -3.6580000 -10.8090000  21.4560000  -3.8870000 -11.1200000  20.4260000
  -3.0590000  -9.8860000  21.4360000  -2.8430000 -11.8940000  22.1130000
  -2.2710000 -11.4610000  22.9470000  -3.5200000 -12.6710000  22.4970000
  -1.8740000 -12.5230000  21.1140000  -2.4550000 -13.0520000  20.3440000
  -1.2840000 -11.7230000  20.6430000  -0.9140000 -13.5170000  21.7740000
  -1.4720000 -14.1320000  22.4950000  -0.4790000 -14.1650000  20.9990000
   0.1760000 -12.8100000  22.4820000  -0.2170000 -12.2090000  23.1900000
   0.7880000 -13.4840000  22.9150000   0.7000000 -12.2550000  21.8230000
  -4.7600000 -10.0960000  23.6700000  -4.8600000 -10.9310000  24.5810000
  -4.4130000  -8.8260000  23.8920000  -4.2570000  -8.2260000  23.1080000
  -4.2490000  -8.2700000  25.2630000  -3.4520000  -8.8270000  25.7770000
  -3.8570000  -6.7980000  25.1910000  -2.9050000  -6.7260000  24.6440000
  -4.6410000  -6.2640000  24.6340000  -3.6810000  -6.1070000  26.5370000
  -4.6120000  -6.1850000  27.1180000  -2.8600000  -6.5830000  27.0940000
  -3.2880000  -4.3620000  26.2450000  -3.0530000  -3.7700000  27.9220000
  -2.2400000  -4.3360000  28.4000000  -2.7930000  -2.7010000  27.9010000
  -3.9820000  -3.9090000  28.4940000  -5.5360000  -8.4130000  26.0550000
  -5.5230000  -8.8770000  27.2060000  -6.6600000  -8.0530000  25.4250000
  -6.6060000  -7.6740000  24.5010000  -7.9490000  -8.2030000  26.0560000
  -7.9160000  -7.6560000  27.0100000  -9.0180000  -7.5800000  25.2110000
  -9.9930000  -7.7020000  25.7050000  -8.8050000  -6.5090000  25.0810000
  -9.0410000  -8.0720000  24.2270000  -8.2730000  -9.6810000  26.3840000
  -8.7280000 -10.0240000  27.5210000  -8.0010000 -10.5590000  25.4430000
  -7.6040000 -10.2510000  24.5780000  -8.2770000 -12.0040000  25.6520000
  -9.3430000 -12.1270000  25.8950000  -7.9710000 -12.7940000  24.3490000
  -8.5990000 -12.3890000  23.5420000  -6.9100000 -12.6490000  24.0960000
  -8.2410000 -14.3060000  24.4620000  -7.7930000 -14.8200000  23.5990000
  -7.7900000 -14.6870000  25.3900000  -9.7490000 -14.5770000  24.4850000
 -10.1480000 -14.3000000  25.4720000 -10.2350000 -13.9680000  23.7090000
 -10.0540000 -16.0630000  24.2200000  -9.2180000 -16.6870000  24.5680000
 -10.9750000 -16.3580000  24.7450000 -10.2310000 -16.2210000  22.7570000
  -9.3890000 -15.9340000  22.2840000 -10.4240000 -17.1870000  22.5440000
 -11.0010000 -15.6490000  22.4480000  -7.4540000 -12.5420000  26.8100000
  -7.9700000 -13.1980000  27.6970000  -6.1680000 -12.2050000  26.8290000
  -5.8030000 -11.6150000  26.1090000  -5.2920000 -12.6770000  27.8730000
  -5.3980000 -13.7700000  27.9340000  -3.8880000 -12.3460000  27.5160000
  -3.8320000 -11.2940000  27.2000000  -3.2440000 -12.5000000  28.3940000
  -3.4050000 -13.2470000  26.3690000  -3.3040000 -14.2750000  26.7480000
  -4.1550000 -13.2250000  25.5650000  -2.0640000 -12.8050000  25.7960000
  -1.5950000 -11.6740000  26.1180000  -1.4850000 -13.5940000  25.0160000
  -5.5940000 -12.0990000  29.2490000  -5.3420000 -12.7720000  30.2400000
  -6.1220000 -10.8720000  29.3000000  -6.1910000 -10.3380000  28.4570000
  -6.6020000 -10.2880000  30.5510000  -5.7850000 -10.3110000  31.2870000
  -7.0220000  -8.8430000  30.2980000  -6.1320000  -8.2780000  29.9840000
  -7.7640000  -8.8400000  29.4860000  -7.6320000  -8.1350000  31.4980000
  -8.6440000  -8.5300000  31.6740000  -7.0070000  -8.3220000  32.3830000
  -7.7340000  -6.3360000  31.2070000  -9.1010000  -5.9460000  32.2530000
  -8.8630000  -6.2310000  33.2890000  -9.3020000  -4.8650000  32.2070000
  -9.9900000  -6.4990000  31.9160000  -7.8100000 -11.0390000  31.1270000
  -8.1340000 -10.9320000  32.3190000  -8.5110000 -11.7660000  30.2560000
  -8.1870000 -11.8580000  29.3150000  -9.7350000 -12.4230000  30.6580000
  -9.6450000 -12.6920000  31.7210000  -9.8450000 -13.3370000  30.0560000
 -10.9860000 -11.5970000  30.4890000 -12.0390000 -11.9650000  31.0050000
 -10.9080000 -10.4900000  29.7510000 -10.0260000 -10.1830000  29.3940000
 -12.1340000  -9.7210000  29.4650000 -12.6740000  -9.6020000  30.4160000
 -11.8250000  -8.2890000  28.9180000 -12.7560000  -7.7050000  28.8760000
 -10.8580000  -7.6140000  29.7870000 -10.3000000  -8.3640000  30.3670000
 -10.1570000  -7.0310000  29.1720000 -11.3910000  -6.9400000  30.4750000
 -11.2580000  -8.3860000  27.6190000 -11.0710000  -7.5150000  27.2890000
 -13.0630000 -10.4800000  28.4900000 -12.5850000 -11.1940000  27.5960000
 -14.3830000 -10.3410000  28.6750000 -14.7020000  -9.7750000  29.4350000
 -15.3570000 -10.9670000  27.8330000 -14.8400000 -11.7100000  27.2080000
 -16.4070000 -11.6790000  28.6490000 -16.8670000 -10.9440000  29.3250000
 -17.1680000 -12.0680000  27.9570000 -15.9080000 -12.8300000  29.4850000
 -15.1220000 -12.4620000  30.1610000 -16.7460000 -13.2260000  30.0780000
 -15.3470000 -13.9300000  28.6530000 -16.0840000 -14.2310000  27.8940000
 -14.4290000 -13.5850000  28.1560000 -15.0280000 -15.1090000  29.5480000
 -14.3220000 -14.7890000  30.3280000 -15.9560000 -15.4670000  30.0180000
 -14.4210000 -16.2140000  28.7680000 -13.5730000 -15.8900000  28.3300000
 -14.2090000 -16.9830000  29.3840000 -15.0690000 -16.5200000  28.0590000
 -16.0370000  -9.9430000  26.9090000 -16.7300000 -10.3120000  25.9390000
 -15.7890000  -8.6690000  27.1590000 -15.2870000  -8.4420000  27.9940000
 -16.1990000  -7.5880000  26.2990000 -16.1190000  -7.9280000  25.2560000
 -17.5910000  -7.2210000  26.5810000 -18.1880000  -8.1390000  26.4820000
 -17.8930000  -6.5020000  25.8060000 -17.9620000  -6.5920000  27.9430000
 -17.9890000  -7.3470000  29.1190000 -17.6750000  -8.3840000  29.0860000
 -18.4120000  -6.8000000  30.3430000 -18.3840000  -7.4000000  31.2450000
 -18.8540000  -5.5240000  30.3910000 -19.3230000  -5.0140000  31.5550000
 -19.2680000  -5.6750000  32.2350000 -18.8390000  -4.7340000  29.2600000
 -19.1790000  -3.7060000  29.3120000 -18.3830000  -5.2630000  28.0390000
 -18.3580000  -4.6300000  27.1590000 -15.3330000  -6.3320000  26.4750000
 -14.6960000  -6.1480000  27.5240000 -15.3480000  -5.4750000  25.4530000
 -15.8570000  -5.7340000  24.6320000 -14.6740000  -4.1930000  25.4570000
 -14.3020000  -4.0000000  26.4740000 -13.4970000  -4.2070000  24.5030000
 -13.8630000  -4.4000000  23.4840000 -12.7840000  -2.8850000  24.5200000
 -12.4250000  -2.6750000  25.5380000 -11.9290000  -2.9210000  23.8290000
 -13.4770000  -2.0910000  24.2050000 -12.5520000  -5.3120000  24.9090000
 -13.0800000  -6.2770000  24.8760000 -11.6980000  -5.3370000  24.2160000
 -12.1890000  -5.1270000  25.9310000 -15.6410000  -3.0560000  25.0620000
 -16.3130000  -3.1630000  24.0380000 -15.6470000  -1.9850000  25.8620000
 -15.0970000  -2.0210000  26.6960000 -16.3940000  -0.7830000  25.6010000
 -17.1840000  -0.9940000  24.8660000 -17.0540000  -0.2180000  26.8970000
 -16.2780000   0.2980000  27.4820000 -17.8310000   0.5030000  26.6020000
 -17.7040000  -1.2870000  27.7940000 -18.3170000  -1.9500000  27.1650000
 -16.9080000  -1.8730000  28.2770000 -18.6130000  -0.6690000  28.9030000
 -18.8580000  -1.4520000  29.6360000 -18.0600000   0.1400000  29.4020000
 -19.9130000  -0.1000000  28.3390000 -20.1540000   0.8360000  28.8630000
 -19.7820000   0.1040000  27.2660000 -21.0340000  -1.0640000  28.5200000
 -21.1540000  -1.2590000  29.5020000 -21.8830000  -0.6660000  28.1500000
 -20.8240000  -1.9200000  28.0310000 -15.4220000   0.2090000  25.0300000
 -14.3640000   0.4530000  25.6220000 -15.7870000   0.8130000  23.9010000
 -16.7210000   0.6850000  23.5660000 -14.8750000   1.6560000  23.1330000
 -13.9370000   1.7500000  23.6990000 -14.5570000   1.0610000  21.7380000
 -15.4880000   1.0610000  21.1520000 -13.5280000   1.9390000  20.9970000
 -12.6030000   1.9980000  21.5890000 -13.3080000   1.4960000  20.0150000
 -13.9400000   2.9500000  20.8590000 -14.0710000  -0.3760000  21.8340000
 -13.0670000  -0.3840000  22.2830000 -14.7630000  -0.9450000  22.4720000
 -14.0060000  -1.0340000  20.4690000 -13.3200000  -0.4690000  19.8220000
 -13.6420000  -2.0660000  20.5770000 -15.0100000  -1.0440000  20.0190000
 -15.4750000   3.0560000  22.9210000 -16.6340000   3.1750000  22.5240000
 -14.7130000   4.0920000  23.2190000 -13.8310000   3.9230000  23.6580000
 -15.1080000   5.5120000  22.9300000 -16.0980000   5.6930000  23.3730000
 -14.1220000   6.5670000  23.4790000 -14.4230000   7.5420000  23.0680000
 -14.1200000   6.6830000  24.9770000 -14.5220000   5.7580000  25.4170000
 -13.0900000   6.8400000  25.3310000 -14.7460000   7.5350000  25.2800000
 -12.7930000   6.2840000  23.0420000 -12.2000000   6.9410000  23.3870000
 -15.1780000   5.7030000  21.4110000 -14.1720000   5.8330000  20.7470000
 -16.3870000   5.6790000  20.8650000 -17.1790000   5.4720000  21.4400000
 -16.5850000   5.9450000  19.4610000 -15.8290000   5.3710000  18.9040000
 -17.9920000   5.4720000  18.9680000 -18.0460000   5.6220000  17.8800000
 -18.1940000   4.0330000  19.2540000 -17.5130000   3.7200000  20.0590000
 -19.2350000   3.8640000  19.5670000 -17.9840000   3.4460000  18.3480000
 -19.0300000   6.2450000  19.5850000 -19.8760000   5.9440000  19.2740000
 -16.3660000   7.4180000  19.1560000 -15.7450000   7.7830000  18.1380000
 -16.7890000   8.2520000  20.1130000 -17.2110000   7.8530000  20.9270000
 -16.6760000   9.6980000  20.0470000 -15.7220000  10.0070000  19.5950000
 -17.8710000  10.2590000  19.2460000 -17.8800000   9.7730000  18.2590000
 -18.7940000  10.0060000  19.7880000 -17.8470000  11.7350000  19.0350000
 -17.7750000  12.2370000  20.0110000 -16.9720000  11.9970000  18.4220000
 -19.1220000  12.2080000  18.3190000 -18.9350000  13.2020000  17.8860000
 -19.3590000  11.4960000  17.5140000 -20.2990000  12.3000000  19.2390000
 -20.6940000  11.2890000  19.4150000 -19.9720000  12.7370000  20.1940000
 -21.3820000  13.1500000  18.6630000 -21.6850000  12.7590000  17.7850000
 -22.1600000  13.1820000  19.3030000 -21.0320000  14.0830000  18.5120000
 -16.7980000  10.1850000  21.5040000 -17.7700000   9.8980000  22.1690000
 -15.8260000  10.9330000  21.9610000 -15.0200000  11.0830000  21.3890000
 -15.8830000  11.5580000  23.2870000 -16.6170000  11.0040000  23.8910000
 -14.5250000  11.4470000  24.0130000 -14.0350000  10.5150000  23.6960000
 -13.9030000  12.3060000  23.7220000 -14.6500000  11.4340000  25.5190000
 -14.4860000  12.5750000  26.2820000 -14.2270000  13.5030000  25.9170000
 -14.7130000  12.2900000  27.5530000 -14.6990000  13.0020000  28.3770000
 -14.9620000  10.9870000  27.6550000 -14.9190000  10.4340000  26.3950000
 -15.0730000   9.3850000  26.1470000 -16.4060000  13.0210000  23.1460000
 -16.9270000  13.4090000  22.0850000 -16.3500000  13.8040000  24.2430000
 -15.9050000  13.4620000  25.0710000 -16.9320000  15.1490000  24.2390000
 -18.0040000  15.0460000  24.0140000 -16.8050000  15.8710000  25.6020000
 -15.7500000  16.1490000  25.7430000 -17.4220000  16.7810000  25.5640000
 -17.2350000  15.0690000  26.7910000 -18.3180000  14.2150000  26.7820000
 -18.9150000  14.0230000  25.9650000 -18.4720000  13.6820000  27.9790000
 -19.2140000  12.9330000  28.2530000 -17.5750000  14.2110000  28.7870000
 -16.7800000  15.0690000  28.0690000 -15.9390000  15.6440000  28.4540000
 -16.2970000  15.9980000  23.1510000 -16.9690000  16.7850000  22.5010000
 -14.9960000  15.8290000  22.9250000 -14.4800000  15.1930000  23.4990000
 -14.3150000  16.5360000  21.8780000 -14.3590000  17.6040000  22.1380000
 -12.8350000  16.1140000  21.8390000 -12.3300000  16.6780000  21.0410000
 -12.3750000  16.3580000  22.8080000 -12.6480000  14.6060000  21.5710000
 -13.0350000  14.0510000  22.4380000 -13.2290000  14.3400000  20.6760000
 -11.2280000  14.1940000  21.3470000 -10.2840000  14.9830000  21.6790000
 -11.0540000  13.0370000  20.8250000 -14.9080000  16.3980000  20.4780000
 -14.6850000  17.2750000  19.6390000 -15.6150000  15.2890000  20.2130000
 -15.6530000  14.5690000  20.9060000 -16.3150000  15.0930000  18.9840000
 -16.6500000  16.0830000  18.6410000 -17.1910000  14.4660000  19.2070000
 -15.5880000  14.4450000  17.8270000 -16.2140000  14.1650000  16.7900000
 -14.2900000  14.1700000  17.9890000 -13.8180000  14.5380000  18.7900000
 -13.5420000  13.3620000  17.0530000 -13.6660000  13.7780000  16.0420000
 -12.0740000  13.4030000  17.4320000 -11.7270000  14.4430000  17.3410000
 -11.9830000  13.0770000  18.4780000 -11.1700000  12.5300000  16.5870000
 -10.9170000  12.8300000  15.2460000 -11.4060000  13.6820000  14.7880000
 -10.0530000  12.0560000  14.4950000  -9.8630000  12.3080000  13.4580000
  -9.4210000  10.9440000  15.0720000  -8.7450000  10.3340000  14.4830000
  -9.6670000  10.6300000  16.4000000  -9.2170000   9.7490000  16.8430000
 -10.4920000  11.4480000  17.1590000 -10.6140000  11.2440000  18.2170000
 -14.0470000  11.9020000  17.0560000 -14.0850000  11.2120000  18.1040000
 -14.3530000  11.4010000  15.8550000 -14.1750000  11.9580000  15.0440000
 -14.9300000  10.0890000  15.6810000 -15.4090000   9.7900000  16.6250000
 -15.9950000  10.1130000  14.5780000 -15.5170000  10.4230000  13.6370000
 -16.4030000   9.0980000  14.4650000 -17.3620000  11.2470000  14.9290000
 -18.0260000  11.2180000  14.1710000 -13.8490000   9.0690000  15.3390000
 -13.0590000   9.2760000  14.4240000 -13.8920000   7.9260000  16.0190000
 -14.5610000   7.8130000  16.7530000 -12.9750000   6.8380000  15.7060000
 -12.0090000   7.2960000  15.4490000 -12.7600000   5.9440000  16.9300000
 -13.7540000   5.7170000  17.3440000 -12.2900000   5.0150000  16.5740000
 -11.9110000   6.4660000  18.0700000 -12.4560000   7.2650000  18.5930000
 -11.6310000   5.2860000  19.0180000 -11.1050000   4.4910000  18.4690000
 -11.0060000   5.6290000  19.8550000 -12.5820000   4.8950000  19.4070000
 -10.5750000   6.9760000  17.6300000 -10.7140000   7.7950000  16.9090000
 -10.0180000   7.3470000  18.5030000 -10.0100000   6.1610000  17.1540000
 -13.4050000   5.9770000  14.5000000 -12.7430000   4.9890000  14.1930000
 -14.5440000   6.3170000  13.8900000 -15.0950000   7.0430000  14.3020000
 -15.0380000   5.7010000  12.6650000 -14.2800000   5.0020000  12.2810000
 -16.3200000   4.9220000  12.9140000 -16.4100000   4.1540000  12.1320000
 -16.2380000   4.4360000  13.8970000 -17.5790000   5.7480000  12.9050000
 -18.4660000   5.8490000  11.8870000 -18.3920000   5.3180000  10.9390000
 -19.4670000   6.7140000  12.2230000 -20.2420000   6.9860000  11.6010000
 -19.2970000   7.1690000  13.5010000 -20.0600000   8.0640000  14.2490000
 -20.9630000   8.5080000  13.8440000 -19.6230000   8.3660000  15.5280000
 -20.2160000   9.0260000  16.1510000 -18.4260000   7.8340000  16.0330000
 -18.0990000   8.1050000  17.0300000 -17.6410000   6.9480000  15.2570000
 -16.7120000   6.5460000  15.6450000 -18.0920000   6.6010000  13.9740000
 -15.2440000   6.8390000  11.6370000 -15.3840000   8.0260000  12.0160000
 -15.1860000   6.4900000  10.3200000 -14.9040000   5.1410000   9.7860000
 -15.6210000   4.4040000  10.1770000 -13.8800000   4.8240000  10.0340000
 -15.0710000   5.3210000   8.2860000 -16.1170000   5.1610000   7.9840000
 -14.4190000   4.6300000   7.7310000 -14.6610000   6.7380000   8.0630000
 -15.0920000   7.1240000   7.1280000 -13.5650000   6.8230000   8.0240000
 -15.2180000   7.4960000   9.2670000 -14.5730000   8.3500000   9.5220000
 -16.6390000   8.0010000   9.0200000 -17.2750000   7.6630000   7.9900000
 -17.1500000   8.7800000   9.9550000 -16.5830000   9.0570000  10.7310000
 -18.5390000   9.2450000   9.8720000 -19.2050000   8.3710000   9.8270000
 -18.9180000  10.1030000  11.0730000 -18.7160000   9.5360000  11.9940000
 -18.3070000  11.0180000  11.0640000 -20.3040000  10.4700000  11.0490000
 -20.5040000  11.0020000  11.8100000 -18.7200000  10.0880000   8.6250000
 -17.8540000  10.8960000   8.3050000 -19.8670000   9.9350000   7.9670000
 -20.5060000   9.2160000   8.2410000 -20.2020000  10.8240000   6.8310000
 -19.2460000  11.1260000   6.3780000 -21.0060000  10.1000000   5.7220000
 -21.0940000  10.7810000   4.8630000 -20.4440000   9.2030000   5.4230000
 -22.3920000   9.6720000   6.1230000 -22.3070000   8.7640000   6.7380000
 -22.8410000  10.4790000   6.7210000 -23.3280000   9.3690000   4.9510000
 -24.2930000   9.0310000   5.3560000 -23.4760000  10.2950000   4.3760000
 -22.7980000   8.2900000   4.0010000 -23.4140000   8.3270000   3.0900000
 -21.7600000   8.5560000   3.7530000 -22.7910000   6.8700000   4.4740000
 -23.7310000   6.5870000   4.7010000 -22.4270000   6.2750000   3.7460000
 -22.2090000   6.7920000   5.2940000 -20.8890000  12.1010000   7.2890000
 -21.1210000  12.9690000   6.4790000 -21.1000000  12.2910000   8.5920000
 -20.7450000  11.6200000   9.2440000 -21.8290000  13.4420000   9.0930000
 -22.3370000  13.9070000   8.2350000 -22.8930000  12.9190000  10.0490000
 -23.4500000  13.7710000  10.4650000 -22.4020000  12.3690000  10.8650000
 -23.8460000  12.0090000   9.3560000 -24.8620000  12.5350000   8.5280000
 -24.9460000  13.6090000   8.4090000 -25.7570000  11.7040000   7.8620000
 -26.5360000  12.1210000   7.2340000 -25.6360000  10.3680000   8.0140000
 -26.4980000   9.4900000   7.4040000 -27.1170000   9.9740000   6.8700000
 -24.6590000   9.8430000   8.8340000 -24.5920000   8.7690000   8.9660000
 -23.7680000  10.6630000   9.4870000 -22.9970000  10.2280000  10.1120000
 -20.9900000  14.5270000   9.7340000 -21.5110000  15.5110000  10.2500000
 -19.6630000  14.3570000   9.7100000 -19.2870000  13.5040000   9.3490000
 -18.7620000  15.3750000  10.1930000 -19.1380000  16.3590000   9.8770000
 -18.6390000  15.3790000  11.7510000 -19.6010000  15.7020000  12.1760000
 -18.2970000  13.9670000  12.3030000 -17.8440000  13.3610000  11.5050000
 -17.5880000  14.0620000  13.1390000 -19.2170000  13.4790000  12.6560000
 -17.6140000  16.2940000  12.1640000 -17.5480000  16.2890000  13.1120000
 -17.4260000  15.1300000   9.5570000 -17.1060000  13.9980000   9.1660000
 -16.6420000  16.1710000   9.4520000 -16.9860000  17.0820000   9.6810000
 -15.2570000  16.0020000   8.9980000 -15.2680000  15.1780000   8.2700000
 -14.7520000  17.2350000   8.2880000 -13.7560000  17.0150000   7.8760000
 -15.4450000  17.4710000   7.4670000 -14.6410000  18.4380000   9.1720000
 -15.6100000  18.6260000   9.6580000 -13.8750000  18.2580000   9.9400000
 -14.2440000  19.6640000   8.3300000 -13.1730000  19.6060000   8.0850000
 -14.8330000  19.6740000   7.4010000 -14.5130000  20.9380000   9.1080000
 -15.5990000  21.0920000   9.1950000 -14.0730000  20.8540000  10.1120000
 -13.9040000  22.0920000   8.3940000 -14.3010000  22.1630000   7.4700000
 -14.0910000  22.9400000   8.9060000 -12.9080000  21.9550000   8.3220000
 -14.2560000  15.6220000  10.0850000 -13.1080000  15.3150000   9.7650000
 -14.6730000  15.6270000  11.3380000 -15.6420000  15.7870000  11.5270000
 -13.7470000  15.4020000  12.4700000 -12.7440000  15.7460000  12.1770000
 -14.2070000  16.2250000  13.6880000 -13.4850000  16.0790000  14.5050000
 -15.1970000  15.8640000  14.0040000 -14.3050000  17.7080000  13.3860000
 -13.2400000  18.3880000  12.9040000 -12.3080000  17.8590000  12.7390000
 -13.3060000  19.7540000  12.6120000 -12.4260000  20.2740000  12.2510000
 -14.4720000  20.4300000  12.7810000 -14.4790000  21.7770000  12.5350000
 -13.6270000  22.0440000  12.2100000 -15.5710000  19.7700000  13.2570000
 -16.5050000  20.3010000  13.4030000 -15.4830000  18.4030000  13.5550000
 -16.3590000  17.8820000  13.9260000 -13.6650000  13.9010000  12.8050000
 -14.2720000  13.4390000  13.7850000 -13.0060000  13.1740000  11.9120000
 -12.5280000  13.6520000  11.1750000 -12.9410000  11.7490000  11.9430000
 -13.1700000  11.4390000  12.9730000 -13.9700000  11.0560000  11.0000000
 -14.1360000  10.0370000  11.3790000 -15.3020000  11.7530000  10.9860000
 -15.1760000  12.7920000  11.3240000 -15.7080000  11.7470000   9.9640000
 -15.9970000  11.2300000  11.6600000 -13.4310000  10.9520000   9.6870000
 -14.0630000  10.5290000   9.1180000 -11.5580000  11.2380000  11.5960000
 -10.7050000  11.9340000  11.0050000 -11.3380000   9.9790000  11.9800000
 -12.0340000   9.5140000  12.5280000 -10.1270000   9.2600000  11.6320000
  -9.2970000   9.7350000  12.1750000 -10.2160000   7.7570000  12.0470000
  -9.3790000   7.2330000  11.5620000 -10.0950000   7.5650000  13.5420000
 -10.9020000   8.1150000  14.0490000 -10.1740000   6.4940000  13.7820000
  -9.1210000   7.9460000  13.8830000 -11.5190000   7.0980000  11.5960000
 -11.6010000   7.1600000  10.5010000 -11.5220000   6.0420000  11.9050000
 -12.3720000   7.6180000  12.0570000  -9.7890000   9.2590000  10.1320000
  -8.6090000   9.1500000   9.7640000 -10.8060000   9.3490000   9.2860000
 -11.7400000   9.4060000   9.6390000 -10.5760000   9.3660000   7.8460000
 -10.0180000   8.4570000   7.5760000 -11.8960000   9.3620000   7.0810000
 -11.6930000   9.3750000   6.0000000 -12.4650000   8.4560000   7.3360000
 -12.4810000  10.2520000   7.3550000  -9.7390000  10.5770000   7.4510000
  -8.9810000  10.4860000   6.5230000  -9.8880000  11.7100000   8.1500000
 -10.5070000  11.7120000   8.9360000  -9.1740000  12.9550000   7.8050000
  -8.8320000  12.8640000   6.7630000 -10.1670000  14.1350000   7.8760000
 -10.6270000  14.1560000   8.8750000  -9.6210000  15.0740000   7.7040000
 -11.2650000  13.9990000   6.8250000 -10.9890000  13.5530000   5.7020000
 -12.4800000  14.3160000   7.1730000 -12.6670000  14.6360000   8.1020000
 -13.2260000  14.2400000   6.5110000  -7.9260000  13.2010000   8.6660000
  -7.6720000  14.2900000   9.1080000  -7.1660000  12.1430000   8.8930000
  -7.4630000  11.2620000   8.5250000  -5.9200000  12.1890000   9.6490000
  -5.6330000  13.2230000   9.8920000  -6.0410000  11.3320000  10.9330000
  -5.0980000  11.4040000  11.4940000  -7.1730000  11.8240000  11.8070000
  -7.8830000  12.4020000  11.1970000  -7.6910000  10.9630000  12.2550000
  -6.7690000  12.4650000  12.6040000  -6.2850000   9.9580000  10.5980000
  -6.3570000   9.4460000  11.3950000  -4.9160000  11.5180000   8.7550000
  -5.3060000  10.8040000   7.8440000  -3.6190000  11.6440000   9.0660000
  -3.0300000  12.6640000   9.9740000  -3.1970000  12.3940000  11.0270000
  -3.4590000  13.6580000   9.7780000  -1.5700000  12.6370000   9.6410000
  -0.9680000  12.7500000  10.5540000  -1.3240000  13.4450000   8.9370000
  -1.3150000  11.3050000   9.0130000  -1.0590000  10.5590000   9.7800000
  -0.4970000  11.3740000   8.2810000  -2.6360000  10.9290000   8.3140000
  -2.6380000  11.2750000   7.2700000  -2.8210000   9.4100000   8.3270000
  -2.4080000   8.7280000   7.4000000  -3.3960000   8.8640000   9.3880000
  -3.7670000   9.4540000  10.1050000  -3.4960000   7.4200000   9.5280000
  -2.5390000   6.9660000   9.2290000  -3.8130000   7.0460000  10.9830000
  -4.8840000   7.2220000  11.1620000  -3.2190000   7.6930000  11.6460000
  -3.5000000   5.5920000  11.3200000  -2.2060000   5.1290000  11.3060000
  -1.4050000   5.8090000  11.0400000  -1.9000000   3.8180000  11.6230000
  -0.8710000   3.4790000  11.5840000  -2.8950000   2.9450000  11.9870000
  -2.5750000   1.6280000  12.3450000  -1.6410000   1.4900000  12.2400000
  -4.1880000   3.3910000  12.0540000  -4.9790000   2.7180000  12.3650000
  -4.4860000   4.7110000  11.7220000  -5.5130000   5.0540000  11.7800000
  -4.6100000   6.8620000   8.6670000  -4.5220000   5.7260000   8.2370000
  -5.6790000   7.6340000   8.5150000  -5.7280000   8.4630000   9.0710000
  -6.8080000   7.3680000   7.5870000  -7.4010000   8.2940000   7.5650000
  -6.3070000   7.1070000   6.1210000  -5.5640000   6.2970000   6.1480000
  -7.1680000   6.7950000   5.5110000  -5.6640000   8.3300000   5.4590000
  -6.3970000   9.1500000   5.4580000  -4.7850000   8.6240000   6.0520000
  -5.2060000   8.0770000   3.9930000  -6.0710000   7.7710000   3.3860000
  -4.7760000   9.0010000   3.5790000  -4.1646036   6.9631646   3.9708625
  -3.3054465   7.2562911   4.5742085  -4.5994307   6.0503604   4.3780640
  -3.7320763   6.7242383   2.5864010  -3.3287330   7.5698208   2.2090364
  -3.0423656   5.9865500   2.5717385  -4.5279687   6.4521939   2.0272532
  -7.7490000   6.2800000   7.9960000  -8.9550000   6.3680000   7.7260000
  -7.2230000   5.2280000   8.5970000  -6.2800000   5.2860000   8.9240000
  -7.9620000   3.9780000   8.8050000  -8.4210000   3.7050000   7.8440000
  -6.9640000   2.8810000   9.1980000  -6.3220000   3.2600000  10.0070000
  -7.5240000   2.0040000   9.5550000  -6.0640000   2.4490000   8.0040000
  -6.5810000   1.6590000   7.4400000  -5.9020000   3.3190000   7.3510000
  -4.6900000   1.9110000   8.4640000  -4.1110000   1.6180000   7.5750000
  -4.1600000   2.7120000   8.9990000  -4.8050000   0.7400000   9.3600000
  -5.7510000   0.4460000   9.6410000  -3.7840000   0.0420000   9.8280000
  -2.5440000   0.3450000   9.4960000  -2.3590000   1.1360000   8.8630000
  -1.7610000  -0.2090000   9.8700000  -3.9900000  -0.9580000  10.6620000
  -4.9490000  -1.1980000  10.9510000  -3.1920000  -1.4990000  11.0240000
  -9.0840000   4.0420000   9.8370000  -9.0360000   4.8320000  10.7810000
 -10.0840000   3.1800000   9.6290000 -10.0130000   2.5840000   8.8290000
 -11.2410000   3.0360000  10.4460000 -11.5800000   4.0360000  10.7550000
 -12.3890000   2.3500000   9.6620000 -12.6580000   2.9840000   8.8040000
 -12.0340000   1.3740000   9.3000000 -13.6390000   2.1310000  10.5210000
 -13.6390000   2.5340000  11.7130000 -14.6460000   1.5570000  10.0430000
 -10.8790000   2.2190000  11.7160000 -11.0230000   0.9750000  11.7580000
 -10.3860000   2.9190000  12.7330000 -10.3020000   3.9110000  12.6440000
  -9.9710000   2.2900000  13.9560000  -9.1280000   1.6210000  13.7300000
  -9.5090000   3.3640000  14.9800000 -10.3190000   4.1050000  15.0580000
  -9.3310000   2.7520000  16.3350000  -8.5790000   1.9510000  16.2800000
  -8.9950000   3.5230000  17.0440000 -10.2890000   2.3330000  16.6770000
  -8.2390000   4.1330000  14.5300000  -8.4920000   4.6920000  13.6170000
  -7.9740000   4.8390000  15.3310000  -7.0350000   3.3060000  14.2370000
  -7.2670000   2.5930000  13.4320000  -6.2090000   3.9600000  13.9200000
  -6.7400000   2.7550000  15.1420000 -11.0740000   1.4790000  14.5920000
 -10.8600000   0.3400000  15.0040000 -12.2700000   2.0540000  14.6650000
 -12.4010000   2.9710000  14.2880000 -13.3900000   1.3660000  15.2870000
 -13.0920000   1.1130000  16.3150000 -14.6210000   2.2780000  15.3760000
 -14.3060000   3.2380000  15.8110000 -14.9990000   2.4440000  14.3560000
 -15.7510000   1.7320000  16.2120000 -16.0120000   0.7420000  15.8090000
 -15.3680000   1.5520000  17.6840000 -15.0660000   2.5220000  18.1060000
 -16.2320000   1.1620000  18.2430000 -14.5310000   0.8420000  17.7610000
 -16.9780000   2.6190000  16.1170000 -17.3040000   2.6830000  15.0680000
 -17.7870000   2.1920000  16.7270000 -16.7320000   3.6250000  16.4870000
 -13.7110000   0.0570000  14.5690000 -13.8850000  -1.0040000  15.2200000
 -13.7380000   0.1000000  13.2400000 -13.5850000   0.9730000  12.7770000
 -13.9910000  -1.1240000  12.4220000 -13.9870000  -0.8310000  11.3620000
 -14.9840000  -1.5140000  12.6910000 -12.9830000  -2.2420000  12.6030000
 -13.3400000  -3.4120000  12.6850000 -11.7050000  -1.8450000  12.6850000
 -11.4880000  -0.8740000  12.5860000 -10.6360000  -2.7840000  12.9130000
 -10.7330000  -3.5740000  12.1530000  -9.2590000  -2.1350000  12.7160000
  -9.1750000  -1.2680000  13.3880000  -8.4800000  -2.8700000  12.9670000
  -9.0470000  -1.6600000  11.2570000  -9.2800000  -2.5020000  10.5880000
  -9.7460000  -0.8330000  11.0630000  -7.6540000  -1.1780000  10.9340000
  -6.7190000  -1.4410000  11.7330000  -7.4840000  -0.5420000   9.8480000
 -10.7520000  -3.4540000  14.2680000 -10.5710000  -4.6350000  14.3700000
 -11.0210000  -2.6800000  15.3000000 -11.0900000  -1.6930000  15.1520000
 -11.2210000  -3.1930000  16.6360000 -10.3270000  -3.7710000  16.9140000
 -11.3610000  -2.0280000  17.6240000 -12.0940000  -1.3190000  17.2110000
 -11.7390000  -2.4330000  18.5740000 -10.0530000  -1.2440000  17.9240000
  -9.6740000  -0.8610000  16.9650000 -10.3420000  -0.0690000  18.8030000
 -10.7860000  -0.4180000  19.7470000  -9.4060000   0.4690000  19.0150000
 -11.0460000   0.6050000  18.2940000  -8.9630000  -2.1060000  18.5230000
  -8.7180000  -2.9230000  17.8280000  -8.0670000  -1.4930000  18.7000000
  -9.3120000  -2.5290000  19.4770000 -12.4250000  -4.1360000  16.7130000
 -12.3760000  -5.1910000  17.3390000 -13.5250000  -3.7430000  16.1140000
 -13.5400000  -2.8630000  15.6380000 -14.7160000  -4.5640000  16.1320000
 -15.0290000  -4.6790000  17.1800000 -15.8840000  -3.8920000  15.3640000
 -15.5120000  -3.5690000  14.3800000 -17.0500000  -4.8560000  15.1540000
 -17.4200000  -5.2020000  16.1300000 -17.8600000  -4.3410000  14.6170000
 -16.7100000  -5.7200000  14.5640000 -16.3820000  -2.6820000  16.1220000
 -15.5600000  -1.9620000  16.2440000 -17.2020000  -2.2100000  15.5610000
 -16.7460000  -2.9940000  17.1120000 -14.4110000  -5.9650000  15.5750000
 -14.7050000  -6.9920000  16.2080000 -13.7990000  -5.9990000  14.4110000
 -13.5980000  -5.1360000  13.9480000 -13.3990000  -7.2590000  13.7640000
 -14.3050000  -7.8670000  13.6190000 -12.8080000  -6.9620000  12.3840000
 -13.5760000  -6.4270000  11.8070000 -11.9390000  -6.3050000  12.5350000
 -12.3460000  -8.1370000  11.5400000 -11.9250000  -7.7610000  10.5960000
 -11.5730000  -8.6950000  12.0890000 -13.5030000  -9.0590000  11.2360000
 -13.7530000  -9.6180000  12.1490000 -14.3660000  -8.4480000  10.9330000
 -13.1980000 -10.0710000  10.1090000 -14.0800000 -10.7100000   9.9550000
 -12.9790000  -9.5190000   9.1830000 -12.0400000 -10.9250000  10.4420000
 -12.2300000 -11.4320000  11.2920000 -11.8760000 -11.5770000   9.6910000
 -11.2230000 -10.3480000  10.5700000 -12.4480000  -8.0620000  14.6280000
 -12.7060000  -9.2430000  14.8620000 -11.3900000  -7.4190000  15.1500000
 -11.3070000  -6.4320000  15.0130000 -10.3610000  -8.1140000  15.9080000
 -10.0230000  -8.9660000  15.2990000  -9.1720000  -7.2010000  16.1380000
  -8.4020000  -7.7380000  16.7120000  -8.7560000  -6.8890000  15.1690000
  -9.4950000  -6.3130000  16.7010000 -10.8680000  -8.6790000  17.2490000
 -10.5640000  -9.8220000  17.5980000 -11.6640000  -7.9000000  17.9730000
 -11.8810000  -6.9800000  17.6460000 -12.2290000  -8.3660000  19.2420000
 -11.4110000  -8.7660000  19.8590000 -12.9270000  -7.2430000  20.0220000
 -13.5240000  -7.7070000  20.8210000 -13.5940000  -6.7130000  19.3260000
 -12.0200000  -6.2280000  20.6550000 -10.9700000  -6.5960000  21.4790000
 -10.7650000  -7.6470000  21.6480000 -10.1610000  -5.6160000  22.1040000
  -9.3610000  -5.9190000  22.7700000 -10.3870000  -4.2880000  21.8690000
  -9.5550000  -3.3040000  22.4340000  -8.8710000  -3.7220000  22.9440000
 -11.4610000  -3.9070000  21.0770000 -11.6700000  -2.8560000  20.9150000
 -12.2640000  -4.8720000  20.4950000 -13.1110000  -4.5580000  19.8950000
 -13.2480000  -9.4760000  18.9780000 -13.2000000 -10.5330000  19.6070000
 -14.1470000  -9.2500000  18.0270000 -14.1700000  -8.3640000  17.5630000
 -15.1060000 -10.2950000  17.6550000 -15.7280000 -10.5080000  18.5370000
 -16.0300000  -9.8600000  16.5150000 -15.4170000  -9.4200000  15.7150000
 -16.5540000 -10.7470000  16.1300000 -17.0380000  -8.8630000  16.9410000
 -17.1860000  -8.4930000  18.1520000 -17.7200000  -8.3610000  15.9890000
 -17.5510000  -8.6490000  15.0470000 -18.4240000  -7.6790000  16.1840000
 -14.3720000 -11.6060000  17.2430000 -14.8220000 -12.6730000  17.5940000
 -13.2640000 -11.5150000  16.5310000 -12.9140000 -10.6140000  16.2750000
 -12.5380000 -12.7220000  16.1090000 -13.2440000 -13.3660000  15.5650000
 -11.3940000 -12.3850000  15.1870000 -10.8710000 -11.5040000  15.5870000
 -10.7030000 -13.2400000  15.1610000 -11.8380000 -12.0800000  13.7680000
 -13.0370000 -12.2260000  13.4250000 -11.0250000 -11.5620000  13.0010000
 -11.9950000 -13.5070000  17.3040000 -11.8300000 -14.7200000  17.2380000
 -11.7550000 -12.8330000  18.4160000 -11.8520000 -11.8380000  18.4080000
 -11.3540000 -13.4930000  19.6540000 -10.7860000 -14.3960000  19.3870000
 -10.4620000 -12.5690000  20.4620000 -10.9730000 -11.6000000  20.5600000
 -10.3240000 -13.0130000  21.4590000  -9.0960000 -12.3210000  19.8660000
  -9.2080000 -12.2060000  18.7780000  -8.6950000 -11.3900000  20.2940000
  -8.0980000 -13.4380000  20.1290000  -8.4760000 -14.4510000  20.7300000
  -6.9110000 -13.2960000  19.7740000 -12.5230000 -13.9100000  20.5330000
 -12.3230000 -14.3880000  21.6420000 -13.7340000 -13.7340000  20.0690000
 -13.8580000 -13.3310000  19.1620000 -14.8950000 -14.1100000  20.8410000
 -14.6900000 -15.0680000  21.3420000 -15.7490000 -14.2290000  20.1580000
 -15.2610000 -13.0520000  21.9180000 -15.9270000 -13.3610000  22.8720000
 -14.8520000 -11.8250000  21.7140000 -14.3540000 -11.6310000  20.8690000
 -15.0780000 -10.7200000  22.6450000 -15.4190000 -11.1410000  23.6030000
 -13.7380000  -9.9550000  22.9060000 -13.3080000  -9.6500000  21.9410000
 -13.9720000  -8.7090000  23.7620000 -14.4120000  -9.0040000  24.7260000
 -13.0130000  -8.1990000  23.9370000 -14.6590000  -8.0280000  23.2380000
 -12.7590000 -10.8760000  23.6260000 -13.1690000 -11.0940000  24.6230000
 -12.6840000 -11.8090000  23.0490000 -11.3480000 -10.3210000  23.8080000
 -11.3930000  -9.3880000  24.3890000 -10.7310000 -11.0570000  24.3440000
 -10.9040000 -10.1190000  22.8220000 -16.1820000  -9.7950000  22.1200000
 -16.1350000  -9.3140000  20.9680000 -17.2020000  -9.5710000  22.9390000
 -17.2370000 -10.0310000  23.8260000 -18.2640000  -8.6660000  22.5560000
 -18.5950000  -8.9280000  21.5400000 -19.4590000  -8.7480000  23.5040000
 -19.0900000  -8.6220000  24.5330000 -20.1490000  -7.9270000  23.2580000
 -20.2300000 -10.0490000  23.4350000 -20.2130000 -10.7280000  22.3980000
 -20.8970000 -10.3740000  24.4440000 -17.7560000  -7.1990000  22.5680000
 -16.8730000  -6.8390000  23.3450000 -18.3630000  -6.3390000  21.7540000
 -19.1040000  -6.6670000  21.1690000 -17.9800000  -4.9280000  21.6880000
 -17.2240000  -4.7430000  22.4660000 -17.3580000  -4.5770000  20.3250000
 -18.0710000  -4.8550000  19.5350000 -17.0860000  -3.0900000  20.2220000
 -16.3960000  -2.7870000  21.0230000 -16.6330000  -2.8670000  19.2450000
 -18.0310000  -2.5370000  20.3230000 -16.0880000  -5.3550000  20.1180000
 -16.3070000  -6.4320000  20.1560000 -15.6590000  -5.1030000  19.1370000
 -15.3680000  -5.0990000  20.9090000 -19.1620000  -4.0480000  21.9630000
 -20.3010000  -4.2960000  21.4800000 -18.9170000  -3.0770000  22.8300000
 -17.9960000  -3.0100000  23.2130000 -19.9090000  -2.1020000  23.2580000
 -20.8750000  -2.3060000  22.7730000 -20.0620000  -2.1330000  24.7740000
 -19.0840000  -1.8930000  25.2170000 -20.7910000  -1.3590000  25.0550000
 -20.5210000  -3.4250000  25.3530000 -20.8700000  -3.5120000  26.6810000
 -20.7900000  -2.7460000  27.3650000 -21.3210000  -4.7180000  26.9460000
 -21.6760000  -5.0670000  27.9150000 -21.2700000  -5.4340000  25.8390000
 -20.7680000  -4.6510000  24.8210000 -20.6010000  -4.9560000  23.7890000
 -19.4070000  -0.7460000  22.8870000 -18.1650000  -0.4950000  22.8710000
 -20.3320000   0.1460000  22.5650000 -21.2990000  -0.0960000  22.6490000
 -19.9610000   1.4870000  22.0860000 -18.8770000   1.4890000  21.9000000
 -20.6950000   1.8540000  20.7780000 -21.7670000   1.6530000  20.9220000
 -20.5450000   2.9280000  20.5940000 -20.2360000   1.0950000  19.5350000
 -19.0480000   0.3960000  19.5010000 -18.4210000   0.3610000  20.3850000
 -18.6410000  -0.2700000  18.3360000 -17.7280000  -0.8550000  18.3410000
 -19.3790000  -0.1880000  17.2060000 -19.0530000  -0.6930000  16.3040000
 -20.5500000   0.5420000  17.2070000 -21.1440000   0.6180000  16.3040000
 -20.9650000   1.1800000  18.3730000 -21.8830000   1.7560000  18.3640000
 -20.2900000   2.5880000  23.0990000 -21.4310000   2.8290000  23.4070000
 -19.2740000   3.2840000  23.5790000 -18.3460000   2.9500000  23.4130000
 -19.4420000   4.5110000  24.3360000 -20.2570000   4.4090000  25.0670000
 -18.1070000   4.8530000  25.0660000 -17.2830000   4.7270000  24.3480000
 -17.9810000   4.1430000  25.8970000 -18.0280000   6.2570000  25.6310000
 -17.9690000   7.3750000  24.7840000 -18.0010000   7.2330000  23.7100000
 -17.8710000   8.6480000  25.2950000 -17.7520000   9.4940000  24.6280000
 -17.9250000   8.8450000  26.6650000 -17.8730000  10.1330000  27.1370000
 -17.8740000  10.7390000  26.4050000 -17.9360000   7.7820000  27.5070000
 -17.8850000   7.9360000  28.5790000 -18.0140000   6.4850000  26.9860000
 -18.0640000   5.6420000  27.6660000 -19.7640000   5.6090000  23.3160000
 -19.1290000   5.7000000  22.2640000 -20.7200000   6.4680000  23.6490000
 -21.2180000   6.3430000  24.5070000 -21.0530000   7.5900000  22.7810000
 -20.1800000   7.8270000  22.1550000 -22.2290000   7.2240000  21.8800000
 -21.9740000   6.3030000  21.3360000 -23.1090000   7.0430000  22.5150000
 -22.5880000   8.3040000  20.8570000 -23.4420000   9.3270000  21.1890000
 -23.8310000   9.3960000  22.1990000 -23.8190000  10.2920000  20.2260000
 -24.4990000  11.0920000  20.4960000 -23.3120000  10.2110000  18.9250000
 -23.6000000  10.9460000  18.1820000 -22.4290000   9.1750000  18.5850000
 -22.0160000   9.1130000  17.5850000 -22.0930000   8.2390000  19.5340000
 -21.4290000   7.4270000  19.2600000 -21.4150000   8.8180000  23.6140000
 -22.2820000   8.7400000  24.4750000 -20.6930000   9.9090000  23.4050000
 -19.9220000   9.8590000  22.7700000 -20.9780000  11.1860000  24.0660000
 -21.3990000  10.9680000  25.0580000 -19.7170000  12.0100000  24.2380000
 -18.9990000  11.4610000  24.8650000 -19.2670000  12.2070000  23.2540000
 -20.0650000  13.2780000  24.8830000 -19.2810000  13.8020000  24.9950000
 -21.9900000  12.0400000  23.2760000 -21.7080000  12.4250000  22.1600000
 -23.1660000  12.2790000  23.8530000 -23.3750000  11.8480000  24.7310000
 -24.1550000  13.1530000  23.2380000 -24.3140000  12.8060000  22.2060000
 -25.5080000  13.0970000  23.9480000 -25.3670000  13.3340000  25.0130000
 -26.4740000  14.1070000  23.3290000 -26.6090000  13.8780000  22.2620000
 -27.4450000  14.0480000  23.8430000 -26.0630000  15.1210000  23.4370000
 -26.1000000  11.6970000  23.8140000 -25.4130000  10.9640000  24.2610000
 -27.0680000  11.6570000  24.3340000 -26.2460000  11.4610000  22.7500000
 -23.6030000  14.5700000  23.1730000 -23.4650000  15.1270000  22.0870000
 -23.2210000  15.1410000  24.3220000 -23.4580000  14.7040000  25.1900000
 -22.4580000  16.4020000  24.3310000 -23.1320000  17.2110000  24.0130000
 -21.9450000  16.7370000  25.7310000 -22.8130000  16.8430000  26.3980000
 -21.3170000  15.9020000  26.0760000 -21.1280000  18.0070000  25.8140000
 -20.1460000  17.8270000  25.3520000 -21.6520000  18.8010000  25.2630000
 -20.8740000  18.5570000  27.5360000 -19.6880000  17.3300000  28.0760000
 -18.7910000  17.3830000  27.4420000 -19.4090000  17.5250000  29.1220000
 -20.1350000  16.3280000  27.9960000 -21.2960000  16.3290000  23.3380000
 -20.5050000  15.3750000  23.3590000 -21.1590000  17.3540000  22.5240000
 -21.7440000  18.1540000  22.6600000 -20.1890000  17.3750000  21.4290000
 -19.3420000  16.7250000  21.6930000 -20.8400000  16.8220000  20.1360000
 -21.2930000  15.8470000  20.3680000 -21.6240000  17.5240000  19.8170000
 -19.8770000  16.6360000  18.9890000 -18.8610000  17.3670000  18.9140000
 -20.1220000  15.7140000  18.1320000 -19.6680000  18.7920000  21.2480000
 -20.3670000  19.6620000  20.7170000 -18.4090000  18.9850000  21.6250000
 -17.8870000  18.1970000  21.9490000 -17.7580000  20.2630000  21.5920000
 -18.4610000  21.0120000  21.9860000 -16.4990000  20.2300000  22.4840000
 -15.8380000  19.4310000  22.1170000 -15.9880000  21.2000000  22.3930000
 -16.7780000  19.9760000  23.9610000 -17.9460000  20.2290000  24.6440000
 -18.8420000  20.6620000  24.2020000 -17.8240000  19.8600000  25.9550000
 -18.5600000  19.9360000  26.6710000 -16.5530000  19.3690000  26.1590000
 -15.9540000  18.8800000  27.3240000 -16.4800000  18.8840000  28.2720000
 -14.6610000  18.3900000  27.2200000 -14.1690000  18.0000000  28.1040000
 -13.9730000  18.3880000  25.9930000 -12.9610000  18.0010000  25.9520000
 -14.5710000  18.8780000  24.8210000 -14.0460000  18.8480000  23.8730000
 -15.8740000  19.4110000  24.9120000 -17.3240000  20.6990000  20.1930000
 -16.7780000  21.7890000  20.0530000 -17.4860000  19.8340000  19.1880000
 -17.9080000  18.9460000  19.3710000 -17.0600000  20.1560000  17.8250000
 -16.2950000  20.9440000  17.8910000 -16.4360000  18.9210000  17.1320000
 -15.8870000  19.2540000  16.2390000 -15.7390000  18.4350000  17.8310000
 -17.4270000  17.9750000  16.7380000 -17.0080000  17.2330000  16.3180000
 -18.1970000  20.6700000  16.9580000 -17.9600000  21.0980000  15.8460000
 -19.4240000  20.4930000  17.4210000 -19.5290000  20.0890000  18.3300000
 -20.6400000  20.8530000  16.6820000 -20.3550000  21.0660000  15.6410000
 -21.6570000  19.7070000  16.6770000 -21.1560000  18.7900000  16.3340000
 -22.0300000  19.5590000  17.7010000 -22.8460000  19.9940000  15.7560000
 -23.1500000  21.1590000  15.5050000 -23.4840000  18.9560000  15.2260000
 -23.1830000  18.0250000  15.4330000 -24.2650000  19.1060000  14.6200000
 -21.2980000  22.1350000  17.2850000 -21.8530000  22.1040000  18.4030000
 -21.2260000  23.2500000  16.5470000 -20.6170000  23.4200000  15.2050000
 -21.1260000  22.7870000  14.4630000 -19.5460000  23.1690000  15.2280000
 -20.8150000  24.8710000  14.8900000 -21.5930000  24.9810000  14.1200000
 -19.8720000  25.3030000  14.5230000 -21.2350000  25.5670000  16.1260000
 -22.0320000  26.2900000  15.8980000 -20.3780000  26.0940000  16.5700000
 -21.7560000  24.5040000  17.0980000 -21.3140000  24.6750000  18.0910000
 -23.3010000  24.5200000  17.2780000 -23.8200000  25.4030000  17.9160000
 -24.0160000  23.5300000  16.7810000 -23.5830000  22.8720000  16.1650000
 -25.4390000  23.3780000  17.1170000 -25.8870000  24.3820000  17.0840000
 -26.1450000  22.5030000  16.0790000 -25.5380000  21.6020000  15.9090000
 -27.1290000  22.2130000  16.4760000 -26.3500000  23.2100000  14.7420000
 -26.2160000  24.4330000  14.6670000 -26.6440000  22.5150000  13.7680000
 -25.7090000  22.8010000  18.5050000 -26.8540000  22.7580000  18.9560000
 -24.6950000  22.2680000  19.1770000 -23.7850000  22.2100000  18.7660000
 -24.9330000  21.7720000  20.5190000 -25.7470000  21.0330000  20.4820000
 -23.6830000  21.1010000  21.1520000 -22.8910000  21.8550000  21.2650000
 -23.3320000  20.2980000  20.4870000 -24.0010000  20.5110000  22.5130000
 -24.8730000  19.4530000  22.6430000 -25.3060000  19.0090000  21.7540000
 -25.2060000  18.9470000  23.8840000 -25.9030000  18.1210000  23.9590000
 -24.6540000  19.4890000  25.0370000 -25.0210000  18.9670000  26.2800000
 -25.6160000  18.2370000  26.1540000 -23.8020000  20.5480000  24.9380000
 -23.3640000  20.9790000  25.8310000 -23.4950000  21.0750000  23.6840000
 -22.8480000  21.9430000  23.6180000 -25.3540000  22.9540000  21.3980000
 -24.8750000  24.0590000  21.2170000 -26.2390000  22.6970000  22.3380000
 -26.6740000  21.7970000  22.3630000 -26.6050000  23.6940000  23.3500000
 -25.8640000  24.5070000  23.3390000 -27.9900000  24.2690000  23.0690000
 -28.7020000  23.4320000  23.0140000 -28.2620000  24.9280000  23.9070000
 -28.1060000  25.0690000  21.7860000 -27.7060000  24.4770000  20.9500000
 -29.1640000  25.3020000  21.5970000 -27.3210000  26.3610000  21.9070000
 -27.6540000  26.8960000  22.8090000 -26.2520000  26.1190000  21.9980000
 -27.5080000  27.2200000  20.7600000 -28.1910000  27.9870000  20.8410000
 -26.8640000  27.0880000  19.6180000 -25.9830000  26.0960000  19.4220000
 -25.7970000  25.4160000  20.1730000 -25.4920000  26.0140000  18.5200000
 -27.1100000  27.9360000  18.6360000 -27.7990000  28.6900000  18.7670000
 -26.6130000  27.8430000  17.7390000 -26.6260000  23.0400000  24.7250000
 -27.1180000  21.9230000  24.8910000 -26.1120000  23.7620000  25.7070000
 -25.6710000  24.6310000  25.4830000 -26.1630000  23.3410000  27.1070000
 -25.9470000  22.2630000  27.1500000 -25.0800000  24.0960000  27.9070000
 -25.1800000  23.8350000  28.9710000 -25.2350000  25.1770000  27.7790000
 -23.6830000  23.7490000  27.4520000 -23.0760000  24.3910000  26.3770000
 -23.5870000  25.2080000  25.8820000 -21.8090000  23.9910000  25.9280000
 -21.3540000  24.4810000  25.0750000 -21.1340000  22.9540000  26.5870000
 -19.8810000  22.5620000  26.1800000 -19.6120000  23.0860000  25.4340000
 -21.7080000  22.3170000  27.6600000 -21.1760000  21.5260000  28.1750000
 -22.9830000  22.6990000  28.0800000 -23.4460000  22.1760000  28.9090000
 -27.5250000  23.5730000  27.7310000 -27.9420000  22.8490000  28.6580000
 -28.2160000  24.6040000  27.2400000 -27.7770000  25.2120000  26.5790000
 -29.6110000  24.8720000  27.6460000 -30.1000000  23.9130000  27.8730000
 -29.6530000  25.7430000  28.9080000 -28.8420000  25.4270000  29.5800000
 -29.4990000  26.7920000  28.6160000 -30.9650000  25.6370000  29.6520000
 -31.9470000  25.0280000  29.1540000 -31.0140000  26.1390000  30.7840000
 -30.3600000  25.5370000  26.4940000 -29.7600000  26.0380000  25.5600000
 -31.6720000  25.4680000  26.5400000 -32.0990000  24.9750000  27.2980000
 -32.5340000  26.0830000  25.5280000 -31.9350000  26.3370000  24.6410000
 -33.6460000  25.1080000  25.1280000 -34.2950000  24.9510000  26.0020000
 -34.4900000  25.6830000  24.0080000 -33.8520000  25.8840000  23.1340000
 -35.2740000  24.9620000  23.7320000 -34.9570000  26.6200000  24.3450000
 -33.0570000  23.7390000  24.7090000 -32.6230000  23.2690000  25.6040000
 -33.8820000  23.1170000  24.3320000 -31.9840000  23.7860000  23.6410000
 -31.1410000  24.3980000  23.9940000 -31.6320000  22.7650000  23.4300000
 -32.3990000  24.2280000  22.7230000 -33.1620000  27.3710000  26.1170000
 -34.0790000  27.2970000  26.9450000 -32.6180000  28.5190000  25.7420000
 -31.8940000  28.5170000  25.0520000 -33.0610000  29.8030000  26.3250000
 -33.8250000  29.5860000  27.0860000 -31.8950000  30.5280000  27.0130000
 -32.2480000  31.4880000  27.4180000 -31.5080000  29.9040000  27.8320000
 -30.8009722  30.8157431  25.9902921 -30.4447887  29.8775580  25.5648008
 -31.2019355  31.4452980  25.1959426 -29.6431320  31.5356670  26.6734763
 -29.9984697  32.4742295  27.0988403 -29.2413212  30.9064906  27.4676958
 -28.5491054  31.8234116  25.6507668 -28.1929219  30.8852272  25.2252743
 -28.9500692  32.4529681  24.8564207 -27.4330230  32.5173690  26.3093124
 -27.0610591  31.9339961  27.0451240 -26.7084548  32.7079422  25.6319775
 -27.7627665  33.3869419  26.7032811 -33.6940000  30.6980000  25.2560000
 -34.0460000  31.8150000  25.5520000 -33.8620000  30.1980000  24.0290000
 -33.5740000  29.2570000  23.8510000 -34.4500000  30.9700000  22.9350000
 -35.2610000  31.5880000  23.3490000 -33.3970000  31.8940000  22.3190000
 -33.9030000  32.6590000  21.7120000 -32.8320000  32.3820000  23.1270000
 -32.4990000  31.1760000  21.4990000 -31.8590000  31.7740000  21.1310000
 -35.0470000  30.0600000  21.8410000 -34.9370000  28.8260000  21.9110000
 -35.6910000  30.6730000  20.8410000 -35.8310000  31.6620000  20.8960000
 -36.2010000  29.9540000  19.6640000 -36.7640000  29.0730000  20.0060000
 -37.1570000  30.8360000  18.7810000 -37.4890000  30.2550000  17.9080000
 -38.0320000  31.1370000  19.3760000 -36.4222290  32.0977216  18.3407789
 -36.1137852  32.6643995  19.2193228 -35.5423292  31.8222390  17.7594118
 -37.3495778  32.9532897  17.4842438 -37.6580942  32.3874072  16.6052139
 -38.2295480  33.2295697  18.0651236 -36.6148051  34.2150103  17.0440214
 -36.3063601  34.7816884  17.9225646 -35.7349083  33.9395262  16.4626527
 -37.5087095  35.0397223  16.2183796 -38.3239032  35.2954589  16.7570424
 -37.0220734  35.8753532  15.9268211 -37.7942969  34.5149614  15.4040303
 -35.0070000  29.4960000  18.8480000 -35.0190000  28.3920000  18.3120000
 -33.9890000  30.3560000  18.7460000 -34.0500000  31.2350000  19.2180000
 -32.7970000  30.0570000  17.9730000 -33.1080000  29.8280000  16.9430000
 -31.8160000  31.2430000  17.9290000 -31.6770000  31.6060000  18.9580000
 -30.8570000  30.8750000  17.5370000 -32.2550000  32.4320000  17.0640000
 -31.3790000  33.0740000  16.8890000 -32.6220000  32.0430000  16.1030000
 -33.3670000  33.2930000  17.6930000 -33.8020000  33.0580000  18.8600000
 -33.8180000  34.2230000  17.0000000 -32.0730000  28.8260000  18.5540000
 -31.5150000  28.0460000  17.8090000 -32.0910000  28.6890000  19.8770000
 -32.5310000  29.3960000  20.4310000 -31.4870000  27.5370000  20.5480000
 -30.4580000  27.4160000  20.1790000 -31.4620000  27.7230000  22.0600000
 -32.4580000  28.0580000  22.3850000 -31.2310000  26.7530000  22.5250000
 -30.4370000  28.7380000  22.5350000 -29.5210000  29.1160000  21.7950000
 -30.5770000  29.1430000  23.7020000 -32.2650000  26.2890000  20.2720000
 -31.6980000  25.2060000  20.0820000 -33.5770000  26.4020000  20.2810000
 -33.9980000  27.3000000  20.4080000 -34.4200000  25.2230000  20.1060000
 -34.0990000  24.4550000  20.8250000 -35.8890000  25.5480000  20.3710000
 -36.4670000  24.6130000  20.4100000 -35.9770000  26.0740000  21.3330000
 -36.3990000  26.3710000  19.3380000 -37.3120000  26.5680000  19.5110000
 -34.2530000  24.6730000  18.6970000 -34.3000000  23.4560000  18.4900000
 -34.0520000  25.5640000  17.7300000 -34.0200000  26.5380000  17.9560000
 -33.8770000  25.1400000  16.3400000 -34.6430000  24.3820000  16.1200000
 -34.0710000  26.3110000  15.3680000 -33.3830000  27.1210000  15.6510000
 -33.8010000  25.9020000  13.9230000 -34.4860000  25.0900000  13.6380000
 -33.9610000  26.7660000  13.2610000 -32.7610000  25.5550000  13.8280000
 -35.5080000  26.8160000  15.4270000 -36.1730000  26.0490000  15.0040000
 -35.7790000  26.9980000  16.4770000 -35.6810000  28.0950000  14.6490000
 -35.4080000  27.9240000  13.5970000 -36.7300000  28.4210000  14.7070000
 -35.0310000  28.8740000  15.0750000 -32.4900000  24.5010000  16.1200000
 -32.3650000  23.4760000  15.4420000 -31.4660000  25.1240000  16.6740000
 -31.6290000  25.9690000  17.1830000 -30.1060000  24.6140000  16.5640000
 -29.8640000  24.5130000  15.4960000 -29.1230000  25.5940000  17.1810000
 -28.1020000  25.1950000  17.0900000 -29.1880000  26.5580000  16.6560000
 -29.3670000  25.7380000  18.2440000 -29.9800000  23.2390000  17.2070000
 -29.4380000  22.3200000  16.6020000 -30.5720000  23.0910000  18.3850000
 -31.0430000  23.8760000  18.7870000 -30.5630000  21.8490000  19.1050000
 -29.5140000  21.5250000  19.1700000 -31.0840000  22.0250000  20.5290000
 -30.7000000  22.9770000  20.9250000 -32.1830000  22.0580000  20.4970000
 -30.6680000  20.9200000  21.4580000 -29.3130000  20.7040000  21.7260000
 -28.5660000  21.3350000  21.2590000 -28.9160000  19.6870000  22.5860000
 -27.8640000  19.5410000  22.8030000 -29.8480000  18.8740000  23.1570000
 -29.5360000  18.0870000  23.8330000 -31.2060000  19.0510000  22.8740000
 -31.9410000  18.3840000  23.3090000 -31.6130000  20.0770000  22.0390000
 -32.6680000  20.2250000  21.8370000 -31.3400000  20.7340000  18.4120000
 -30.9450000  19.5710000  18.5020000 -32.4470000  21.0620000  17.7540000
 -32.7800000  22.0040000  17.7950000 -33.1880000  20.0750000  16.9720000
 -33.4890000  19.2560000  17.6420000 -34.4530000  20.6980000  16.3660000
 -34.2350000  21.7220000  16.0290000 -34.7880000  20.0940000  15.5100000
 -35.4710000  20.7290000  17.3550000 -36.2580000  21.1140000  16.9870000
 -32.3080000  19.4980000  15.8650000 -32.3640000  18.3050000  15.5800000
 -31.5250000  20.3610000  15.2350000 -31.5790000  21.3290000  15.4810000
 -30.5980000  19.9560000  14.2080000 -31.1370000  19.4410000  13.4000000
 -29.8500000  21.1690000  13.6590000 -30.3450000  22.0760000  14.0360000
 -28.8160000  21.1330000  14.0330000 -29.8020000  21.2510000  12.1420000
 -28.8790000  20.7610000  11.7990000 -30.6730000  20.7130000  11.7400000
 -29.8220000  22.6680000  11.5930000 -29.5850000  22.6250000  10.5200000
 -30.8340000  23.0760000  11.7290000 -28.8740000  23.5730000  12.2350000
 -27.9470000  23.1970000  12.4790000 -29.1190000  24.8480000  12.5280000
 -30.2870000  25.4080000  12.2220000 -31.0170000  24.8530000  11.7520000
 -30.4610000  26.3960000  12.4550000 -28.1930000  25.5740000  13.1100000
 -27.2800000  25.1570000  13.3390000 -28.3800000  26.5610000  13.3380000
 -29.5420000  19.0350000  14.8240000 -29.1380000  18.0220000  14.2210000
 -29.0840000  19.4230000  16.0100000 -29.4270000  20.2710000  16.4140000
 -28.0920000  18.6380000  16.7330000 -27.1990000  18.5620000  16.0960000
 -27.6910000  19.3420000  18.0300000 -27.2900000  20.3360000  17.7850000
 -28.5830000  19.4530000  18.6640000 -26.6490000  18.5740000  18.7900000
 -25.3280000  18.6560000  18.3970000 -25.0500000  19.3150000  17.5820000
 -24.3590000  17.9080000  19.0310000 -23.3250000  17.9770000  18.7130000
 -24.7060000  17.0720000  20.0700000 -23.9360000  16.5170000  20.5940000
 -26.0130000  16.9380000  20.4450000 -26.2900000  16.2390000  21.2260000
 -27.0020000  17.7230000  19.8010000 -28.0380000  17.6490000  20.1100000
 -28.5690000  17.2290000  17.0290000 -27.8230000  16.2580000  16.8870000
 -29.8140000  17.1190000  17.4920000 -30.3420000  17.9520000  17.6580000
 -30.4260000  15.8460000  17.7610000 -29.7620000  15.3110000  18.4560000
 -31.7490000  16.0090000  18.4530000 -32.3740000  16.6790000  17.8450000
 -32.2270000  15.0200000  18.5180000 -31.6580000  16.6000000  19.8910000
 -31.2000000  17.5990000  19.8400000 -33.0770000  16.7230000  20.4380000
 -33.5510000  15.7310000  20.4540000 -33.0420000  17.1300000  21.4600000
 -33.6610000  17.3980000  19.7950000 -30.8180000  15.7300000  20.8040000
 -29.8020000  15.6410000  20.3930000 -30.7710000  16.1860000  21.8040000
 -31.2720000  14.7310000  20.8780000 -30.5440000  14.9750000  16.4950000
 -30.3420000  13.7790000  16.5590000 -30.8200000  15.5800000  15.3590000
 -30.9840000  16.5670000  15.3580000 -30.8930000  14.8450000  14.1000000
 -31.5380000  13.9660000  14.2460000 -31.5070000  15.7330000  13.0260000
 -32.5160000  16.0310000  13.3470000 -30.8800000  16.6290000  12.9070000
 -31.6090000  15.0340000  11.6970000 -30.5940000  14.8260000  11.3270000
 -32.1500000  14.0860000  11.8360000 -32.3480000  15.8740000  10.6580000
 -32.4460000  15.3770000   9.5280000 -32.8110000  17.0020000  10.9630000
 -29.4850000  14.3530000  13.6380000 -29.3330000  13.2200000  13.2060000
 -28.5000000  15.2400000  13.7450000 -28.7340000  16.1890000  13.9560000
 -27.1090000  14.8960000  13.5700000 -26.9540000  14.6080000  12.5200000
 -26.2590000  16.1090000  13.8670000 -26.2880000  16.7700000  12.9880000
 -26.6960000  16.6290000  14.7320000 -24.8000000  15.8050000  14.1840000
 -23.8450000  15.6970000  13.1810000 -24.1430000  15.8020000  12.1440000
 -22.5220000  15.4580000  13.4890000 -21.7920000  15.3530000  12.6940000
 -22.1220000  15.3510000  14.8180000 -21.0770000  15.1870000  15.0550000
 -23.0340000  15.4510000  15.8200000 -22.7240000  15.3410000  16.8530000
 -24.3730000  15.6960000  15.5100000 -25.0940000  15.8040000  16.3120000
 -26.6880000  13.7000000  14.4620000 -26.0640000  12.7500000  14.0090000
 -27.0910000  13.7580000  15.7120000 -27.5980000  14.5660000  16.0120000
 -26.8330000  12.6960000  16.6850000 -25.7460000  12.5340000  16.7320000
 -27.2990000  13.1490000  18.1060000 -28.3660000  13.4150000  18.0770000
 -27.0840000  12.0400000  19.1000000 -26.3260000  11.3430000  18.7130000
 -26.7390000  12.4650000  20.0540000 -28.0300000  11.5020000  19.2590000
 -26.5210000  14.2960000  18.5060000 -26.7970000  14.5800000  19.3700000
 -27.4670000  11.3910000  16.2240000 -26.8000000  10.3390000  16.2080000
 -28.7410000  11.4390000  15.8440000 -29.2330000  12.3070000  15.9080000
 -29.4400000  10.2720000  15.3400000 -29.4650000   9.5110000  16.1330000
 -30.8950000  10.6210000  14.9330000 -30.8810000  11.5430000  14.3340000
 -31.2980000   9.7960000  14.3270000 -31.8100000  10.8350000  16.1360000
 -31.4280000  10.5300000  17.2940000 -32.9450000  11.2540000  15.9170000
 -28.7220000   9.7020000  14.1300000 -28.5730000   8.4780000  14.0200000
 -28.2410000  10.5770000  13.2530000 -28.3490000  11.5570000  13.4190000
 -27.5590000  10.1180000  12.0530000 -28.2510000   9.4480000  11.5210000
 -27.2270000  11.2660000  11.1180000 -26.7960000  12.0910000  11.7040000
 -26.4920000  10.9210000  10.3760000 -28.4810000  11.7790000  10.3800000
 -29.4350000  11.0380000  10.2080000 -28.4830000  13.0180000   9.9950000
 -27.6910000  13.6000000  10.1800000 -29.2760000  13.3910000   9.5130000
 -26.2950000   9.3080000  12.3840000 -26.0990000   8.2490000  11.8290000
 -25.4770000   9.8260000  13.2960000 -25.6850000  10.7280000  13.6740000
 -24.2870000   9.1230000  13.7630000 -23.6680000   8.8800000  12.8870000
 -23.4580000  10.0260000  14.6940000 -24.1320000  10.4490000  15.4530000
 -22.6950000   9.4050000  15.1860000 -22.7470000  11.1870000  13.9820000
 -22.2220000  10.7950000  13.0980000 -23.4990000  11.9250000  13.6650000
 -21.7480000  11.8650000  14.8830000 -22.0080000  12.0670000  16.0530000
 -20.6070000  12.2390000  14.3360000 -20.4380000  12.0680000  13.3650000
 -19.9110000  12.6930000  14.8920000 -24.6640000   7.8230000  14.4400000
 -24.0060000   6.8180000  14.2140000 -25.6970000   7.8130000  15.2820000
 -26.2300000   8.6470000  15.4230000 -26.0510000   6.6150000  15.9880000
 -25.1570000   6.2690000  16.5280000 -27.1650000   6.8710000  17.0280000
 -27.9900000   7.3960000  16.5240000 -27.5200000   5.8970000  17.3960000
 -26.7290000   7.7180000  18.2490000 -26.3000000   8.6610000  17.8800000
 -27.9290000   8.0420000  19.0870000 -28.4010000   7.1090000  19.4280000
 -27.6180000   8.6350000  19.9600000 -28.6490000   8.6200000  18.4890000
 -25.6530000   6.9980000  19.0720000 -24.7750000   6.8050000  18.4380000
 -25.3590000   7.6290000  19.9230000 -26.0540000   6.0440000  19.4440000
 -26.4890000   5.4800000  15.0010000 -26.0940000   4.3240000  15.1600000
 -27.3220000   5.8440000  14.0170000 -27.6600000   6.7850000  14.0040000
 -27.7590000   4.9370000  12.9660000 -28.2710000   4.0860000  13.4390000
 -28.7490000   5.6420000  12.0190000 -28.3440000   6.6330000  11.7660000
 -28.8440000   5.0400000  11.1030000 -30.1110000   5.8230000  12.6120000
 -30.5180000   4.8250000  12.8300000 -29.9980000   6.3860000  13.5500000
 -31.1450000   6.5760000  11.7270000 -31.0790000   6.1790000  10.7030000
 -32.1510000   6.3850000  12.1300000 -30.9270000   8.0820000  11.6730000
 -30.7920000   8.4570000  12.6980000 -30.0200000   8.2880000  11.0850000
 -32.0800000   8.7980000  11.0460000 -32.9180000   8.6140000  11.5750000
 -31.8970000   9.7890000  11.0400000 -32.2030000   8.4730000  10.1000000
 -26.5870000   4.4040000  12.1610000 -26.5430000   3.2430000  11.8130000
 -25.6270000   5.2680000  11.9060000 -25.7230000   6.2130000  12.2190000
 -24.4480000   4.8820000  11.1890000 -24.7330000   4.4690000  10.2100000
 -23.5990000   6.0880000  10.9890000 -24.2680000   6.9360000  10.7820000
 -23.0550000   6.2720000  11.9270000 -22.6040000   6.0260000   9.8990000
 -21.9010000   5.2050000  10.1010000 -23.1240000   5.8380000   8.9480000
 -21.8250000   7.3340000   9.7900000 -21.4790000   7.6940000   8.6400000
 -21.5930000   8.0310000  10.8350000 -23.6740000   3.8050000  11.9870000
 -23.1940000   2.8200000  11.4250000 -23.5130000   4.0340000  13.2860000
 -23.9170000   4.8560000  13.6870000 -22.7560000   3.1110000  14.1560000
 -21.7500000   2.9580000  13.7390000 -22.6150000   3.6930000  15.5800000
 -23.5960000   4.0920000  15.8760000 -22.3370000   2.8680000  16.2520000
 -21.5810000   4.8130000  15.7660000 -21.7700000   5.5990000  15.0200000
 -21.6790000   5.4290000  17.1550000 -21.5060000   4.6520000  17.9140000
 -20.9210000   6.2190000  17.2600000 -22.6810000   5.8620000  17.2940000
 -20.2120000   4.2510000  15.5480000 -20.1440000   3.8360000  14.5320000
 -19.4650000   5.0490000  15.6690000 -20.0210000   3.4550000  16.2830000
 -23.4970000   1.7950000  14.1630000 -22.9200000   0.7340000  14.1020000
 -24.8170000   1.8620000  14.2850000 -25.2740000   2.7520000  14.2790000
 -25.6020000   0.6440000  14.4280000 -25.1530000   0.0520000  15.2390000
 -27.0230000   1.0060000  14.8250000 -27.6190000   0.0880000  14.9340000
 -27.0090000   1.5500000  15.7810000 -27.4700000   1.6430000  14.0470000
 -25.6290000  -0.2470000  13.1560000 -25.8440000  -1.4490000  13.2560000
 -25.5020000   0.3950000  12.0070000 -25.3360000   1.3810000  12.0300000
 -25.5920000  -0.2670000  10.6960000 -26.1390000  -1.2100000  10.8380000
 -26.3980000   0.5820000   9.6980000 -26.4140000   0.0750000   8.7220000
 -27.7870000   0.7410000  10.2060000 -27.8020000   0.5670000  11.2920000
 -28.1410000   1.7600000   9.9930000 -28.4450000   0.0130000   9.7090000
 -25.8300000   1.8780000   9.5480000 -26.3460000   2.3800000   8.9280000
 -24.2020000  -0.6230000  10.1690000 -24.0190000  -1.6690000   9.5940000
 -23.2160000   0.2430000  10.4020000 -23.4170000   1.1270000  10.8240000
 -21.8420000  -0.0990000  10.0410000 -21.8690000  -0.4570000   9.0010000
 -20.8970000   1.0890000  10.1010000 -21.0260000   1.5700000  11.0820000
 -19.8700000   0.7040000  10.0140000 -21.0810000   2.1540000   9.0380000
 -20.9330000   1.6960000   8.0490000 -22.1040000   2.5510000   9.1080000
 -20.1080000   3.2930000   9.1950000 -20.3240000   4.0530000   8.4300000
 -20.2350000   3.7330000  10.1950000 -18.6940000   2.8430000   9.0420000
 -18.1330000   2.7330000   9.8990000 -18.1000000   2.5710000   7.8740000
 -18.7550000   2.7310000   6.7370000 -19.7290000   3.0670000   6.7460000
 -18.2920000   2.5200000   5.8420000 -16.8350000   2.1480000   7.8360000
 -16.3060000   2.0280000   8.7110000 -16.3880000   1.9420000   6.9310000
 -21.2390000  -1.2040000  10.8950000 -20.3900000  -1.9450000  10.4170000
 -21.6700000  -1.3330000  12.1390000 -22.4210000  -0.7590000  12.4640000
 -21.0580000  -2.3090000  13.0470000 -20.4410000  -2.9940000  12.4470000
 -20.1110000  -1.6260000  14.0770000 -19.4960000  -2.3950000  14.5680000
 -20.7160000  -1.1030000  14.8320000 -19.2110000  -0.6370000  13.3960000
 -18.1650000  -1.0640000  12.5810000 -17.9680000  -2.1260000  12.4860000
 -17.3740000  -0.1670000  11.8920000 -16.5650000  -0.5290000  11.2680000
 -17.6070000   1.1730000  11.9940000 -16.8500000   2.0550000  11.2420000
 -16.2090000   1.5700000  10.7360000 -18.6250000   1.6380000  12.8290000
 -18.8050000   2.7020000  12.9290000 -19.4060000   0.7280000  13.5310000
 -20.1810000   1.0920000  14.1960000 -22.1520000  -3.1170000  13.6800000
 -22.4680000  -2.9770000  14.8790000 -22.7800000  -3.9800000  12.8590000
 -22.5070000  -4.3200000  11.4450000 -21.4650000  -4.6460000  11.3130000
 -22.7080000  -3.4610000  10.7880000 -23.4660000  -5.4520000  11.1610000
 -22.9950000  -6.4210000  11.3830000 -23.7850000  -5.4320000  10.1080000
 -24.6280000  -5.2180000  12.0630000 -25.1380000  -6.1650000  12.2920000
 -25.3420000  -4.5200000  11.6020000 -24.0130000  -4.6020000  13.3500000
 -24.6780000  -3.8230000  13.7510000 -23.8250000  -5.6570000  14.4410000
 -24.7990000  -6.0650000  15.0180000 -22.5930000  -6.0890000  14.7410000
 -21.8260000  -5.8000000  14.1670000 -22.3330000  -6.9650000  15.8740000
 -23.1600000  -7.6890000  15.9200000 -21.0070000  -7.7380000  15.7130000
 -20.8560000  -8.3790000  16.5940000 -21.0460000  -8.6250000  14.4760000
 -21.8110000  -8.2500000  13.7800000 -20.0630000  -8.6100000  13.9830000
 -21.2920000  -9.6560000  14.7710000 -19.9380000  -6.7790000  15.6480000
 -19.1100000  -7.2340000  15.5490000 -22.2500000  -6.2240000  17.2620000
 -21.9470000  -6.8730000  18.2900000 -22.4740000  -4.9050000  17.2800000
 -22.6820000  -4.4380000  16.4200000 -22.4230000  -4.1050000  18.5430000
 -21.4310000  -4.2490000  18.9960000 -22.5950000  -2.6000000  18.2870000
 -21.8060000  -2.2770000  17.5920000 -23.9600000  -2.2680000  17.6570000
 -24.7650000  -2.6020000  18.3280000 -24.0380000  -1.1820000  17.5030000
 -24.0520000  -2.7830000  16.6890000 -22.4430000  -1.8270000  19.6000000
 -21.4470000  -2.0200000  20.0260000 -22.5570000  -0.7500000  19.4070000
 -23.2150000  -2.1560000  20.3110000 -23.4580000  -4.6390000  19.5060000
 -24.5840000  -4.9140000  19.0940000 -23.0870000  -4.8340000  20.7800000
 -22.1540000  -4.6090000  21.0610000 -24.0250000  -5.3710000  21.7660000
 -24.8640000  -5.8070000  21.2040000 -23.3370000  -6.4770000  22.5410000
 -22.4820000  -6.0400000  23.0780000 -24.0550000  -6.8870000  23.2660000
 -22.8240000  -7.6200000  21.6830000 -22.0190000  -7.2390000  21.0380000
 -22.4240000  -8.4020000  22.3450000 -23.9080000  -8.2430000  20.7930000
 -24.7220000  -8.6150000  21.4320000 -24.2990000  -7.4700000  20.1140000
 -23.3600000  -9.4100000  19.9550000 -22.3400000  -9.1850000  19.6110000
 -23.3500000 -10.3350000  20.5510000 -24.2760000  -9.5580000  18.7900000
 -24.2900000  -8.6990000  18.2620000 -23.9520000 -10.3090000  18.2010000
 -25.2060000  -9.7660000  19.1180000 -24.6230000  -4.3790000  22.7600000
 -25.4950000  -4.7480000  23.5220000 -24.1470000  -3.1370000  22.7540000
 -23.5250000  -2.8680000  22.0180000 -24.4900000  -2.1510000  23.7700000
 -25.5790000  -2.1630000  23.9260000 -23.7910000  -2.5090000  25.0910000
 -24.2930000  -3.3880000  25.5210000 -22.7420000  -2.7570000  24.8710000
 -23.8130000  -1.3870000  26.1300000 -24.8290000  -1.2560000  26.8320000
 -22.7990000  -0.6750000  26.3170000 -24.0710000  -0.7510000  23.3200000
 -23.0620000  -0.5910000  22.6180000 -24.8860000   0.2390000  23.7010000
 -25.7790000  -0.0030000  24.0810000 -24.5510000   1.6120000  23.5950000
 -23.5320000   1.6920000  23.1890000 -25.5060000   2.4460000  22.6830000
 -26.5430000   2.1940000  22.9510000 -25.3250000   3.5130000  22.8820000
 -25.3330000   2.2090000  21.2100000 -25.7900000   1.0260000  20.6220000
 -26.2780000   0.2770000  21.2350000 -25.6280000   0.8010000  19.2730000
 -25.9720000  -0.1270000  18.8300000 -25.0270000   1.7610000  18.4900000
 -24.9130000   1.5930000  17.4250000 -24.5680000   2.9390000  19.0520000
 -24.0810000   3.6860000  18.4350000 -24.7380000   3.1570000  20.4210000
 -24.3960000   4.0860000  20.8630000 -24.5910000   2.1950000  24.9980000
 -25.6190000   2.1390000  25.6770000 -23.4660000   2.7970000  25.3650000
 -22.7330000   2.8590000  24.6870000 -23.2170000   3.3740000  26.6770000
 -24.0720000   3.1780000  27.3400000 -21.9660000   2.7230000  27.2910000
 -22.0270000   1.6370000  27.1250000 -21.0810000   3.1240000  26.7750000
 -21.8000000   2.9650000  28.7670000 -22.1580000   2.1050000  29.7920000
 -22.6300000   1.1330000  29.6550000 -21.8300000   2.6580000  31.0090000
 -22.0170000   2.2280000  31.9260000 -21.2180000   3.8660000  30.8150000
 -20.7000000   4.7900000  31.7550000 -20.7310000   4.5860000  32.8190000
 -20.1570000   5.9530000  31.2700000 -19.7760000   6.6890000  31.9680000
 -20.0820000   6.2150000  29.8860000 -19.6210000   7.1330000  29.5400000
 -20.5990000   5.2970000  28.9440000 -20.5520000   5.5110000  27.8820000
 -21.1760000   4.1010000  29.4070000 -23.0830000   4.8880000  26.4700000
 -22.0870000   5.3990000  26.0020000 -24.1670000   5.6070000  26.7410000
 -24.9840000   5.1460000  27.0870000 -24.1930000   7.0420000  26.5470000
 -23.6140000   7.2710000  25.6400000 -25.6290000   7.5050000  26.3470000
 -26.2470000   7.0910000  27.1570000 -25.6530000   8.6040000  26.3920000
 -26.2040000   7.0710000  25.0420000 -26.7990000   5.8320000  24.9270000
 -26.8380000   5.1710000  25.7860000 -27.3440000   5.4290000  23.7270000
 -27.8210000   4.4580000  23.6530000 -27.2890000   6.2490000  22.6180000
 -27.7310000   5.9270000  21.6820000 -26.6750000   7.4710000  22.7020000
 -26.6000000   8.1030000  21.8250000 -26.1450000   7.9000000  23.9260000
 -25.6880000   8.8800000  24.0040000 -23.6020000   7.8170000  27.6850000
 -23.7660000   7.4360000  28.8620000 -22.9590000   8.9120000  27.3170000
 -22.8580000   9.0880000  26.3380000 -22.3950000   9.8660000  28.2320000
 -22.7980000   9.6900000  29.2400000 -20.8680000   9.6940000  28.2610000
 -20.6360000   8.6290000  28.1110000 -20.4370000  10.2830000  27.4380000
 -20.2210000  10.1470000  29.5650000 -20.9510000  10.4250000  30.5540000
 -18.9770000  10.2400000  29.5640000 -22.7690000  11.2680000  27.7830000
 -23.2070000  11.4680000  26.6630000 -22.5490000  12.2670000  28.6490000
 -22.2400000  12.0560000  29.5760000 -22.7540000  13.6590000  28.2590000
 -22.1370000  13.8690000  27.3730000 -22.4350000  14.3060000  29.0890000
 -24.2020000  13.9760000  27.9270000 -24.4980000  14.6450000  26.9340000
 -25.0840000  13.4590000  28.7620000 -24.7460000  12.9100000  29.5270000
 -26.5110000  13.6430000  28.6310000 -26.7280000  14.1940000  27.7040000
 -27.1690000  12.2540000  28.5950000 -28.2600000  12.3660000  28.6760000
 -26.8420000  11.5190000  27.3000000 -25.9310000  11.9470000  26.8560000
 -26.6790000  10.4530000  27.5150000 -27.6800000  11.6280000  26.5950000
 -26.6790000  11.5110000  29.7110000 -27.0710000  10.6460000  29.7120000
 -27.0990000  14.4100000  29.8440000 -28.3140000  14.3510000  30.0790000
 -26.2380000  15.0440000  30.6370000 -25.2750000  15.0870000  30.3690000
 -26.6640000  15.6950000  31.9170000 -27.5210000  15.1220000  32.3010000
 -25.5380000  15.6440000  32.9770000 -25.8460000  16.2290000  33.8560000
 -25.3710000  14.5980000  33.2730000 -24.2940000  16.1940000  32.4510000
 -24.0470000  17.4960000  32.1700000 -24.7480000  18.3120000  32.3370000
 -22.7990000  17.6380000  31.6500000 -22.3590000  18.5320000  31.3890000
 -22.2210000  16.4030000  31.5280000 -20.9630000  16.0380000  31.0510000
 -20.2660000  16.7770000  30.6730000 -20.6410000  14.6900000  31.0800000
 -19.6760000  14.3700000  30.7030000 -21.5250000  13.7330000  31.5810000
 -21.2230000  12.6930000  31.6180000 -22.7950000  14.0990000  32.0360000
 -23.4950000  13.3500000  32.3880000 -23.1420000  15.4610000  32.0260000
 -27.1230000  17.1670000  31.7510000 -27.6680000  17.7470000  32.6770000
 -26.8750000  17.7760000  30.5980000 -26.4650000  17.2670000  29.8410000
 -27.2020000  19.1950000  30.4340000 -26.8170000  19.7320000  31.3130000
 -26.5280000  19.7740000  29.1930000 -26.6330000  19.0560000  28.3660000
 -27.0280000  20.7170000  28.9260000 -25.0830000  20.0440000  29.4120000
 -24.7430000  20.5670000  30.5010000 -24.2880000  19.7920000  28.4880000
 -28.7090000  19.4190000  30.3700000 -29.4920000  18.4990000  30.0330000
 -29.1070000  20.6510000  30.7100000 -28.4170000  21.3450000  30.9170000
 -30.5440000  21.0170000  30.7880000 -31.0220000  20.3650000  31.5340000
 -30.7150000  22.4750000  31.2540000 -31.7860000  22.7210000  31.3030000
 -30.2640000  22.5970000  32.2500000 -30.2170000  23.1490000  30.5410000
 -31.2270000  20.7780000  29.4480000 -32.3910000  20.3250000  29.4000000
 -30.4920000  21.0490000  28.3660000 -29.5740000  21.4240000  28.4950000
 -30.9770000  20.8180000  26.9770000 -31.8220000  21.5010000  26.8040000
 -29.8900000  21.1460000  25.9560000 -30.2370000  20.8500000  24.9550000
 -29.6970000  22.2290000  25.9720000 -28.6950000  20.4620000  26.2490000
 -28.0370000  20.6830000  25.6010000 -31.4780000  19.4040000  26.7660000
 -32.5600000  19.1900000  26.1760000 -30.7420000  18.4230000  27.2980000
 -29.8960000  18.6500000  27.7800000 -31.1480000  17.0370000  27.1890000
 -31.5450000  16.8850000  26.1750000 -29.9100000  16.1070000  27.3570000
 -29.4650000  16.3050000  28.3430000 -30.2940000  14.6480000  27.3090000
 -30.7740000  14.4270000  26.3440000 -29.3930000  14.0280000  27.4210000
 -30.9950000  14.4260000  28.1270000 -28.8810000  16.4370000  26.2980000
 -28.5750000  17.4890000  26.3990000 -28.0030000  15.7860000  26.4240000
 -29.3160000  16.2760000  25.3010000 -32.2730000  16.6820000  28.1780000
 -33.2030000  15.9120000  27.8450000 -32.1980000  17.2160000  29.3930000
 -31.4360000  17.8280000  29.6020000 -33.1930000  16.9410000  30.4420000
 -33.2490000  15.8520000  30.5860000 -32.7920000  17.5920000  31.7860000
 -32.4980000  18.6310000  31.5780000 -33.6790000  17.5850000  32.4370000
 -31.6480000  16.9330000  32.5570000 -32.0100000  15.9910000  32.9960000
 -30.8240000  16.7200000  31.8600000 -31.1190000  17.8510000  33.6980000
 -31.9400000  18.0820000  34.3930000 -30.3140000  17.3340000  34.2410000
 -30.5870410  19.1493049  33.1004636 -29.7750734  18.9255484  32.4085516
 -31.3887100  19.6593212  32.5663201 -30.0876184  20.0159734  34.1776645
 -29.3444734  19.5437374  34.6724660 -29.7353055  20.8758349  33.7819200
 -30.8399547  20.2237796  34.8186839 -34.5670000  17.4480000  30.0230000
 -35.5830000  16.8230000  30.3050000 -34.5830000  18.5490000  29.2900000
 -33.7280000  19.0440000  29.1340000 -35.8360000  19.0650000  28.6960000
 -36.6160000  18.9960000  29.4690000 -35.6760000  20.5450000  28.2930000
 -34.7500000  20.6480000  27.7080000 -36.5370000  20.8320000  27.6710000
 -35.6040000  21.4850000  29.4710000 -36.5900000  21.5250000  29.9560000
 -34.8590000  21.1050000  30.1850000 -35.2070000  22.8900000  29.0460000
 -34.1540000  22.8960000  28.7280000 -35.8440000  23.2170000  28.2110000
 -35.3890000  23.8290000  30.2230000 -36.3530000  24.3500000  30.1230000
 -35.3830000  23.2440000  31.1550000 -34.2970000  24.8320000  30.2720000
 -34.2930000  25.3670000  29.4180000 -34.4430000  25.4500000  31.0550000
 -33.4120000  24.3610000  30.3770000 -36.3210000  18.2910000  27.4790000
 -37.3800000  18.5880000  26.9480000 -35.5320000  17.3430000  26.9890000
 -34.6670000  17.1430000  27.4490000 -35.8920000  16.5900000  25.8040000
 -36.9290000  16.8310000  25.5260000 -34.9750000  16.9860000  24.6450000
 -33.9490000  17.0880000  25.0270000 -35.0060000  16.1920000  23.8850000
 -35.3820000  18.2930000  23.9970000 -36.3380000  18.3280000  23.2390000
 -34.6780000  19.3620000  24.3010000 -33.9090000  19.2900000  24.9370000
 -34.9110000  20.2460000  23.8960000 -35.8060000  15.1030000  26.1150000
 -35.1670000  14.3240000  25.4010000 -36.4340000  14.7270000  27.2200000
 -36.8330000  15.4290000  27.8100000 -36.5620000  13.3440000  27.6020000
 -37.2740000  13.2760000  28.4370000 -35.5770000  12.9790000  27.9290000
 -37.0570000  12.4540000  26.4700000 -36.6410000  11.2750000  26.3470000
 -37.9920000  12.9950000  25.6870000 -38.2630000  13.9430000  25.8550000
 -38.6440000  12.2650000  24.5880000 -39.2120000  11.4190000  25.0020000
 -39.6280000  13.2040000  23.8080000 -40.2070000  12.5980000  23.0960000
 -40.3120000  13.6780000  24.5280000 -38.9000000  14.2820000  23.0480000
 -38.5720000  15.5180000  23.4900000 -38.8450000  15.9230000  24.4630000
 -37.8440000  16.1920000  22.5340000 -37.4820000  17.1520000  22.6220000
 -37.6820000  15.3750000  21.4490000 -37.0240000  15.6040000  20.2420000
 -36.5290000  16.5470000  20.0390000 -37.0290000  14.5850000  19.3190000
 -36.5120000  14.7220000  18.3760000 -37.6900000  13.3680000  19.5700000
 -37.6980000  12.5970000  18.8080000 -38.3310000  13.1430000  20.7780000
 -38.8180000  12.1950000  20.9770000 -38.3370000  14.1640000  21.7370000
 -37.5490000  11.7290000  23.6360000 -37.6760000  10.6320000  23.0970000
 -36.4900000  12.5160000  23.4580000 -36.4120000  13.3610000  23.9860000
 -35.4480000  12.1700000  22.5130000 -35.9260000  11.8910000  21.5630000
 -34.5070000  13.3590000  22.2240000 -35.0740000  14.1700000  21.7430000
 -34.0740000  13.7240000  23.1670000 -33.4040000  12.8990000  21.3060000
 -33.4310000  12.8250000  19.9260000 -34.2570000  13.1640000  19.3030000
 -32.2670000  12.2630000  19.4490000 -32.0310000  12.1180000  18.4570000
 -31.4750000  11.9290000  20.5210000 -30.1950000  11.3490000  20.5560000
 -29.6760000  11.0810000  19.6430000 -29.6220000  11.1330000  21.7890000
 -28.6440000  10.6690000  21.8450000 -30.2760000  11.5000000  22.9750000
 -29.7880000  11.3310000  23.9280000 -31.5630000  12.0870000  22.9450000
 -32.0680000  12.3600000  23.8650000 -32.1710000  12.3080000  21.7050000
 -34.6910000  10.9420000  23.0460000 -34.3310000  10.0530000  22.2810000
 -34.4670000  10.9210000  24.3640000 -34.8200000  11.6640000  24.9320000
 -33.7130000   9.8300000  24.9960000 -32.7680000   9.7370000  24.4400000
 -33.3260000  10.0970000  26.4900000 -32.5970000   9.3280000  26.7860000
 -32.6730000  11.4220000  26.6350000 -32.9450000  12.0600000  25.7810000
 -33.0090000  11.8960000  27.5690000 -31.5810000  11.2920000  26.6630000
 -34.4660000   9.9830000  27.3780000 -34.1900000  10.1520000  28.2710000
 -34.4420000   8.5370000  24.8490000 -33.8310000   7.4950000  24.5440000
 -35.7600000   8.5760000  25.0450000 -36.1900000   9.4280000  25.3440000
 -36.5820000   7.3920000  24.8290000 -36.1890000   6.5770000  25.4550000
 -38.0240000   7.6660000  25.2250000 -38.6290000   6.7630000  25.0560000
 -38.0660000   7.9410000  26.2890000 -38.4210000   8.4920000  24.6170000
 -36.5470000   6.9490000  23.3710000 -36.5120000   5.7510000  23.0790000
 -36.6630000   7.9240000  22.4820000 -36.7910000   8.8630000  22.8010000
 -36.6080000   7.6560000  21.0340000 -37.4120000   6.9500000  20.7800000
 -36.8560000   8.9640000  20.2950000 -37.9360000   9.0580000  20.1080000
 -36.5220000   9.7930000  20.9360000 -36.1470000   9.0610000  18.9970000
 -36.5660000   8.3790000  17.8720000 -37.3960000   7.7720000  17.8160000
 -35.7320000   8.6290000  16.8780000 -35.7940000   8.2130000  15.8730000
 -34.8120000   9.4690000  17.3120000 -35.0420000   9.7510000  18.6370000
 -34.4480000  10.4050000  19.2740000 -35.2550000   7.0170000  20.6020000
 -35.2220000   6.0310000  19.8370000 -34.1510000   7.5760000  21.1140000
 -34.2320000   8.3880000  21.6930000 -32.8230000   7.0130000  20.8370000
 -32.6720000   7.0540000  19.7480000 -31.7290000   7.8450000  21.4750000
 -30.7500000   7.3980000  21.2490000 -31.7660000   8.8690000  21.0740000
 -31.8770000   7.8720000  22.5650000 -32.7270000   5.5400000  21.2510000
 -32.2760000   4.6990000  20.4830000 -33.2560000   5.2080000  22.4200000
 -33.6500000   5.9230000  22.9970000 -33.2780000   3.8130000  22.8900000
 -32.2430000   3.4390000  22.8820000 -33.8080000   3.7250000  24.3510000
 -33.0550000   4.1730000  25.0160000 -34.7420000   4.3040000  24.4120000
 -34.0890000   2.3320000  24.8340000 -34.8230000   1.8690000  24.1580000
 -33.1520000   1.7570000  24.8070000 -34.6480000   2.2890000  26.2680000
 -35.1940000   3.2960000  26.7530000 -34.5460000   1.2190000  26.8910000
 -34.0980000   2.9310000  21.9710000 -33.6580000   1.8510000  21.5870000
 -35.3060000   3.3850000  21.6220000 -35.6120000   4.2810000  21.9430000
 -36.1880000   2.5740000  20.7680000 -36.3060000   1.5870000  21.2380000
 -37.5730000   3.2200000  20.6560000 -37.8980000   3.5440000  21.6560000
 -37.5070000   4.0940000  19.9910000 -38.6070000   2.2420000  20.0900000
 -38.6690000   1.3570000  20.7400000 -39.5900000   2.7330000  20.0440000
 -38.2199443   1.7843249  18.6909982 -37.1911548   2.1986303  18.1614863
 -39.0488221   0.9261097  18.0921228 -38.8387001   0.5908237  17.1628578
 -39.8822408   0.6160352  18.5710469 -35.5700000   2.3680000  19.3680000
 -35.5770000   1.2490000  18.8520000 -35.0080000   3.4510000  18.8220000
 -34.9760000   4.2910000  19.3630000 -34.4410000   3.4730000  17.4830000
 -35.2220000   3.2280000  16.7480000 -33.9090000   4.8630000  17.1910000
 -34.7660000   5.5520000  17.1540000 -33.2430000   5.1510000  18.0180000
 -33.1280000   5.0130000  15.8850000 -32.2900000   4.3010000  15.8900000
 -33.7980000   4.7840000  15.0430000 -32.4720000   6.6820000  15.6680000
 -31.1850000   6.7010000  16.9380000 -30.4580000   5.9010000  16.7350000
 -30.6720000   7.6740000  16.9260000 -31.6420000   6.5400000  17.9260000
 -33.3510000   2.4320000  17.4100000 -33.2840000   1.6040000  16.4770000
 -32.4780000   2.4430000  18.4290000 -32.5980000   3.0850000  19.1860000
 -31.3350000   1.4990000  18.4280000 -30.8710000   1.5410000  17.4320000
 -30.2750000   1.9210000  19.4430000 -30.7670000   2.0800000  20.4140000
 -29.5380000   1.1100000  19.5340000 -29.5390000   3.2000000  19.0600000
 -30.2890000   3.9720000  18.8330000 -28.6800000   3.6990000  20.2020000
 -27.9440000   2.9270000  20.4710000 -28.1550000   4.6150000  19.8930000
 -29.3170000   3.9170000  21.0720000 -28.6970000   2.9780000  17.8230000
 -29.3440000   2.6660000  16.9900000 -28.1830000   3.9130000  17.5570000
 -27.9520000   2.1940000  18.0230000 -31.8030000   0.0680000  18.6510000
 -31.2760000  -0.8490000  18.0460000 -32.7850000  -0.1290000  19.5180000
 -33.1510000   0.6410000  20.0410000 -33.3380000  -1.4780000  19.7130000
 -32.4830000  -2.1380000  19.9230000 -34.2350000  -1.5340000  20.9360000
 -34.9630000  -0.7110000  20.8840000 -34.7690000  -2.4950000  20.9440000
 -33.4210000  -1.4020000  22.2410000 -32.6880000  -2.2210000  22.2830000
 -32.8930000  -0.4370000  22.2310000 -34.3040000  -1.4670000  23.4950000
 -34.8610000  -0.5230000  23.5920000 -35.0120000  -2.3020000  23.3930000
 -33.4560000  -1.6800000  24.7540000 -32.9270000  -2.6410000  24.6670000
 -32.7230000  -0.8640000  24.8300000 -34.2810000  -1.6980000  25.9890000
 -34.9590000  -2.4410000  25.9290000 -33.6860000  -1.8490000  26.7880000
 -34.7580000  -0.8150000  26.0870000 -34.0170000  -2.0440000  18.4410000
 -33.9530000  -3.2550000  18.1950000 -34.5980000  -1.1740000  17.6200000
 -34.6790000  -0.2130000  17.8850000 -35.1250000  -1.6280000  16.3130000
 -35.7380000  -2.5260000  16.4810000 -36.0020000  -0.5360000  15.7080000
 -35.4610000   0.4200000  15.7560000 -36.2080000  -0.7880000  14.6570000
 -37.3180000  -0.3890000  16.4410000 -37.9800000  -1.2120000  16.1350000
 -37.1240000  -0.4570000  17.5220000 -38.0310000   0.9340000  16.1610000
 -37.5240000   1.7650000  15.3500000 -39.1030000   1.1460000  16.7880000
 -33.9960000  -1.9880000  15.3160000 -34.1240000  -2.9250000  14.5550000
 -32.8770000  -1.2550000  15.3480000 -32.8030000  -0.5000000  15.9990000
 -31.7550000  -1.5400000  14.4430000 -32.1940000  -1.7930000  13.4670000
 -30.8870000  -0.3020000  14.2630000 -30.6000000   0.0670000  15.2580000
 -29.9840000  -0.5900000  13.7040000 -31.5740000   0.8260000  13.5140000
 -32.5730000   0.9710000  13.9520000 -30.8070000   2.0880000  13.6500000
 -29.7940000   1.9470000  13.2460000 -31.3160000   2.8880000  13.0930000
 -30.7430000   2.3650000  14.7130000 -31.7370000   0.5010000  12.0350000
 -32.3360000  -0.4150000  11.9250000 -32.2460000   1.3350000  11.5300000
 -30.7460000   0.3480000  11.5820000 -30.8760000  -2.6890000  14.8400000
 -30.3210000  -3.3540000  13.9830000 -30.7070000  -2.9170000  16.1470000
 -31.2240000  -2.3720000  16.8070000 -29.7900000  -3.9390000  16.6350000
 -29.4390000  -4.5390000  15.7830000 -28.5630000  -3.3020000  17.3330000
 -28.9170000  -2.8210000  18.2570000 -27.5530000  -4.3410000  17.7280000
 -27.2130000  -4.8810000  16.8320000 -26.6940000  -3.8520000  18.2100000
 -28.0130000  -5.0510000  18.4310000 -27.9560000  -2.2250000  16.4620000
 -28.7080000  -1.4470000  16.2640000 -27.0940000  -1.7780000  16.9790000
 -27.6250000  -2.6660000  15.5100000 -30.5280000  -4.8400000  17.6090000
 -30.7110000  -4.4730000  18.7980000 -30.9150000  -6.0470000  17.1420000
 -30.8950000  -6.4810000  15.7330000 -29.8960000  -6.8420000  15.4470000
 -31.1930000  -5.6600000  15.0650000 -31.9020000  -7.5990000  15.6940000
 -31.5920000  -8.3730000  14.9770000 -32.8940000  -7.2150000  15.4130000
 -31.9270000  -8.1510000  17.0840000 -31.1130000  -8.8760000  17.2320000
 -32.8920000  -8.6350000  17.2960000 -31.7280000  -6.9210000  17.9720000
 -32.6920000  -6.4460000  18.2080000 -31.0260000  -7.2980000  19.2720000
 -29.8720000  -7.7730000  19.2510000 -31.7070000  -7.1060000  20.4000000
 -32.6060000  -6.6700000  20.3700000 -31.1450000  -7.5310000  21.6840000
 -30.6350000  -8.4950000  21.5380000 -31.9700000  -7.6570000  22.4000000
 -30.1340000  -6.5300000  22.2780000 -29.5510000  -6.8090000  23.3460000
 -29.8970000  -5.4080000  21.5990000 -30.3970000  -5.2290000  20.7520000
 -28.9000000  -4.4200000  22.0840000 -27.9180000  -4.9140000  22.1280000
 -28.7730000  -3.2070000  21.1320000 -28.7560000  -3.6040000  20.1060000
 -29.9720000  -2.2610000  21.2350000 -30.0570000  -1.8880000  22.2660000
 -29.8300000  -1.4130000  20.5490000 -30.8900000  -2.8020000  20.9640000
 -27.4650000  -2.4350000  21.3450000 -26.6110000  -3.1060000  21.1710000
 -27.4180000  -1.5920000  20.6400000 -27.4280000  -2.0540000  22.3760000
 -29.2890000  -3.9860000  23.5120000 -30.4710000  -3.9060000  23.8460000
 -28.2810000  -3.7250000  24.3360000 -27.3570000  -3.9780000  24.0490000
 -28.4480000  -3.0950000  25.6260000 -29.4880000  -3.2380000  25.9550000
 -27.5150000  -3.7510000  26.6420000 -27.6440000  -3.2700000  27.6230000
 -27.7560000  -4.8210000  26.7240000 -26.4720000  -3.6350000  26.3110000
 -28.1650000  -1.5960000  25.5470000 -27.3490000  -1.1240000  24.7390000
 -28.8810000  -0.8430000  26.3860000 -29.5240000  -1.2960000  27.0030000
 -28.7700000   0.5970000  26.4430000 -27.8900000   0.9290000  25.8730000
 -30.0480000   1.2600000  25.8760000 -30.8940000   0.9390000  26.5010000
 -29.9440000   2.7770000  25.9760000 -29.0670000   3.1230000  25.4080000
 -30.8540000   3.2350000  25.5610000 -29.8360000   3.0680000  27.0310000
 -30.3440000   0.8200000  24.4450000 -30.3410000  -0.2800000  24.4180000
 -31.3430000   1.1910000  24.1730000 -29.3680000   1.3150000  23.4190000
 -28.3590000   0.9530000  23.6680000 -29.6580000   0.9400000  22.4260000
 -29.3710000   2.4150000  23.4100000 -28.6400000   1.0020000  27.9150000
 -29.3850000   0.5030000  28.7660000 -27.6720000   1.8510000  28.2320000
 -27.0950000   2.2440000  27.5160000 -27.4510000   2.2120000  29.6350000
 -27.6200000   1.2960000  30.2200000 -25.9850000   2.6620000  29.9010000
 -25.8310000   2.7220000  30.9890000 -25.3070000   1.9080000  29.4750000
 -25.6480000   4.0020000  29.2970000 -26.2650000   4.4700000  28.3450000
 -24.6440000   4.6720000  29.9080000 -24.1850000   4.2710000  30.7010000
 -24.3610000   5.5680000  29.5670000 -28.4290000   3.2710000  30.1770000
 -29.0590000   4.0230000  29.4180000 -28.5300000   3.3280000  31.5030000
 -27.9650000   2.7200000  32.0610000 -29.4560000   4.2680000  32.1740000
 -30.4480000   4.1300000  31.7200000 -29.5750000   3.9390000  33.6580000
 -30.3520000   4.5750000  34.1070000 -29.8560000   2.8820000  33.7720000
 -28.3340000   4.1690000  34.3300000 -28.4290000   3.9580000  35.2510000
 -29.0730000   5.6930000  31.9770000 -29.9280000   6.5780000  31.9410000
 -27.7890000   5.9550000  31.8280000 -27.1300000   5.2050000  31.7710000
 -27.3310000   7.3270000  31.7460000 -27.6430000   7.8390000  32.6680000
 -25.7920000   7.3450000  31.6780000 -25.4050000   6.7870000  32.5430000
 -25.4840000   6.8420000  30.7490000 -25.1750000   8.7210000  31.6930000
 -25.3000000   9.1790000  30.7010000 -25.6890000   9.3350000  32.4480000
 -23.7020000   8.6640000  32.0260000 -23.2480000   7.8160000  31.4930000
 -23.2260000   9.6000000  31.6990000 -23.4800000   8.4950000  33.4680000
 -23.8760000   9.2230000  34.0800000 -22.8230000   7.5040000  34.0750000
 -22.2730000   6.5370000  33.3810000 -22.3450000   6.5350000  32.3530000
 -21.7690000   5.7790000  33.8630000 -22.7020000   7.4980000  35.4090000
 -23.1160000   8.2580000  35.9670000 -22.1950000   6.7330000  35.8770000
 -27.9240000   8.1040000  30.5660000 -27.9760000   9.3500000  30.5680000
 -28.2860000   7.3820000  29.5170000 -28.1060000   6.3980000  29.5040000
 -28.9510000   8.0180000  28.3720000 -28.2590000   8.7290000  27.8980000
 -29.3620000   6.9400000  27.3650000 -28.4490000   6.5590000  26.8840000
 -29.8510000   6.1260000  27.9200000 -30.3250000   7.4050000  26.2560000
 -31.2030000   7.8670000  26.7310000 -29.6750000   8.4470000  25.3780000
 -28.7700000   8.0250000  24.9170000 -30.3790000   8.7540000  24.5900000
 -29.4030000   9.3220000  25.9870000 -30.7970000   6.2040000  25.4660000
 -31.3100000   5.5010000  26.1390000 -31.4930000   6.5330000  24.6800000
 -29.9320000   5.7050000  25.0050000 -30.2030000   8.7450000  28.8120000
 -30.5150000   9.8250000  28.3190000 -30.9410000   8.1050000  29.7160000
 -30.5020000   7.4790000  30.3610000 -32.3780000   8.3070000  29.7740000
 -32.6950000   8.6580000  28.7810000 -33.0800000   6.9820000  30.0290000
 -32.6360000   6.5230000  30.9250000 -34.1450000   7.1860000  30.2110000
 -32.9730000   5.9780000  28.8710000 -31.9390000   5.9850000  28.4970000
 -33.2170000   4.9760000  29.2540000 -33.9260000   6.3000000  27.6900000
 -33.9450000   7.3850000  27.5120000 -33.5800000   5.7860000  26.7810000
 -35.2560000   5.8360000  28.0400000 -35.4520000   4.8350000  27.8960000
 -36.2450000   6.5770000  28.5280000 -36.1640000   7.8860000  28.5930000
 -35.3160000   8.3670000  28.2600000 -36.9480000   8.4320000  28.9770000
 -37.3570000   5.9580000  28.9060000 -37.4330000   4.9350000  28.8160000
 -38.1440000   6.5010000  29.2890000 -32.7980000   9.3930000  30.7780000
 -32.3480000   9.4230000  31.9320000 -33.6670000  10.2790000  30.2830000
 -33.8260000  10.2610000  29.2960000 -34.4100000  11.2790000  31.0650000
 -34.2570000  11.0890000  32.1380000 -33.9220000  12.6780000  30.7320000
 -34.4860000  13.4140000  31.3240000 -32.8510000  12.7590000  30.9700000
 -34.0750000  12.8740000  29.6610000 -35.8950000  11.1600000  30.7360000
 -36.2680000  10.9770000  29.5610000 -36.7450000  11.2720000  31.7600000
 -36.3920000  11.4710000  32.6740000 -38.1830000  11.1080000  31.5640000
 -38.3200000  10.4480000  30.6950000 -38.8370000  10.4010000  32.7700000
 -39.8230000  10.0250000  32.4610000 -38.1990000   9.5560000  33.0670000
 -39.0280000  11.3290000  34.0000000 -38.5420000  12.4820000  34.0110000
 -39.6550000  10.8460000  34.9580000 -38.8660000  12.4700000  31.2120000
 -38.1780000  13.4720000  30.9820000 -40.2050000  12.4620000  31.1430000
 -40.6860000  11.5990000  31.3000000 -41.0080000  13.6790000  30.8440000
 -40.8020000  13.9710000  29.8040000 -42.5220000  13.4160000  30.9890000
 -42.7770000  13.4260000  32.0590000 -43.0670000  14.2220000  30.4750000
 -42.9600000  12.0900000  30.4030000 -42.2440000  11.0820000  30.5810000
 -44.0550000  12.0320000  29.7970000 -40.6390000  14.8430000  31.7550000
 -40.6740000  15.9870000  31.3370000 -40.2610000  14.5440000  33.0020000
 -40.2050000  13.5830000  33.2730000 -39.9260000  15.5800000  33.9870000
 -40.4830000  16.4890000  33.7140000 -40.3530000  15.1430000  35.3750000
 -39.6610000  14.3600000  35.7180000 -40.2850000  16.0120000  36.0460000
 -41.7770000  14.5900000  35.4500000 -41.8050000  13.6060000  34.9590000
 -42.0640000  14.4810000  36.5060000 -42.7770000  15.5250000  34.7540000
 -42.4880000  15.6520000  33.7000000 -43.7850000  15.0890000  34.8080000
 -42.7675803  16.8844031  35.4450574 -43.0510551  16.7630690  36.4905336
 -41.7677633  17.3147404  35.3878289 -43.7247458  17.7793502  34.7788721
 -44.6513312  17.3809798  34.8321655 -43.7185069  18.6796767  35.2365547
 -43.4620072  17.8922545  33.8102029 -38.4520000  15.9330000  34.0450000
 -38.0620000  16.7870000  34.8380000 -37.6210000  15.2880000  33.2250000
 -37.9780000  14.6210000  32.5710000 -36.1720000  15.5620000  33.2860000
 -36.0270000  16.6380000  33.4620000 -35.7230000  15.2850000  32.3210000
 -35.4520000  14.7830000  34.4020000 -34.2730000  15.0270000  34.6330000
 -36.1370000  13.8380000  35.0700000 -37.1200000  13.7440000  34.9120000
 -35.4620000  12.9250000  36.0430000 -34.7810000  13.5240000  36.6650000
 -36.4560000  12.2190000  36.9770000 -35.9090000  11.5470000  37.6540000
 -37.0010000  12.9700000  37.5670000 -37.4515420  11.4160828  36.1464313
 -37.9934481  12.0867287  35.4795935 -36.9165020  10.6720092  35.5563561
 -38.4385230  10.7150705  37.0738337 -37.8973619  10.0438607  37.7407079
 -38.9743093  11.4585780  37.6639431 -39.4340636   9.9121516  36.2432640
 -39.9759694  10.5827965  35.5764252 -38.8990227   9.1680776  35.6531924
 -40.3854493   9.2364237  37.1372193 -40.8816418   9.9257483  37.6837761
 -41.0447904   8.7046534  36.5871379 -39.8835520   8.6146207  37.7549241
 -34.6290000  11.8910000  35.2470000 -35.1340000  11.2830000  34.2900000
 -33.3740000  11.6940000  35.6540000 -33.0700000  12.1330000  36.5000000
 -32.4260000  10.8660000  34.9180000 -32.8630000  10.6550000  33.9310000
 -31.1430000  11.6650000  34.7010000 -30.8470000  12.1370000  35.6500000
 -30.3460000  10.9840000  34.3660000 -31.3530000  12.7590000  33.6360000
 -31.7150000  12.2770000  32.7160000 -32.1160000  13.4590000  34.0080000
 -30.0970000  13.5610000  33.2920000 -30.3460000  14.3080000  32.5240000
 -29.7370000  14.0720000  34.1970000 -29.0420000  12.6890000  32.7850000
 -29.1870000  12.2640000  31.8580000 -27.9070000  12.3950000  33.4190000
 -27.6030000  12.9310000  34.6070000 -28.2540000  13.5910000  35.0560000
 -26.7180000  12.6840000  35.0720000 -27.0450000  11.5640000  32.8390000
 -27.2600000  11.1600000  31.9160000 -26.1620000  11.3240000  33.3130000
 -32.1600000   9.5090000  35.5900000 -32.3380000   9.3570000  36.8090000
 -31.7800000   8.5210000  34.7700000 -31.6850000   8.7390000  33.7990000
 -31.4930000   7.1460000  35.1850000 -31.0930000   6.6280000  34.3010000
 -30.4240000   7.0750000  36.2980000 -30.7640000   7.6960000  37.1390000
 -30.3400000   6.0280000  36.6260000 -29.0580000   7.5480000  35.8900000
 -28.0990000   6.6920000  35.3660000 -28.2360000   5.6900000  35.1700000
 -26.9810000   7.3670000  35.1590000 -26.0520000   6.9550000  34.7670000
 -27.1820000   8.6300000  35.5090000 -28.4710000   8.7650000  35.9730000
 -28.9330000   9.6810000  36.3390000 -32.7110000   6.3670000  35.6580000
 -33.0440000   5.3220000  35.1110000 -33.3390000   6.8590000  36.7310000
 -32.9460000   7.6540000  37.1940000 -34.5770000   6.2830000  37.2560000
 -34.8280000   5.3550000  36.7220000 -34.4420000   5.9810000  38.7730000
 -34.1180000   6.9010000  39.2810000 -35.4280000   5.6790000  39.1550000
 -33.4440000   4.8770000  39.0990000 -32.0990000   5.1610000  39.2200000
 -31.7520000   6.1800000  39.0890000 -31.1760000   4.1450000  39.5110000
 -30.1180000   4.3760000  39.5550000 -31.6070000   2.8520000  39.7420000
 -30.8940000   2.0750000  39.9920000 -32.9660000   2.5570000  39.6500000
 -33.3210000   1.5490000  39.8330000 -33.8710000   3.5770000  39.3180000
 -34.9260000   3.3430000  39.2310000 -35.6430000   7.3540000  37.0010000
 -35.3950000   8.5460000  37.1950000 -36.8110000   6.9270000  36.5490000
 -36.9760000   5.9470000  36.4340000 -37.8660000   7.8950000  36.2160000
 -37.3790000   8.7390000  35.7050000 -38.8810000   7.2980000  35.2230000
 -39.5440000   8.1050000  34.8770000 -38.3280000   6.8860000  34.3660000
 -39.7270000   6.2080000  35.8090000 -39.8880000   6.1110000  37.0640000
 -40.2820000   5.4290000  34.9970000 -38.5420000   8.4760000  37.4970000
 -38.1450000   8.1720000  38.6360000 -39.5320000   9.3340000  37.2810000
 -39.8000000   9.5310000  36.3380000 -40.2370000   9.9940000  38.3580000
 -39.4890000  10.4980000  38.9880000 -41.1430000  11.0540000  37.7510000
 -41.7270000  10.6130000  36.9300000 -41.8270000  11.4390000  38.5220000
 -40.3460000  12.1150000  37.2510000 -40.9070000  12.7800000  36.8700000
 -41.0350000   9.0380000  39.2740000 -41.3810000   9.4000000  40.3980000
 -41.2940000   7.8340000  38.8120000 -41.1140000   7.6420000  37.8470000
 -41.8300000   6.7730000  39.6420000 -42.3520000   7.2450000  40.4870000
 -42.8330000   5.9900000  38.8350000 -42.3220000   5.5400000  37.9710000
 -43.2550000   5.1940000  39.4660000 -43.9750000   6.8810000  38.3290000
 -44.5810000   7.6330000  39.1020000 -44.2600000   6.8100000  37.0410000
 -43.7400000   6.1960000  36.4470000 -44.9960000   7.3700000  36.6600000
 -40.7790000   5.8170000  40.2300000 -41.1160000   4.7240000  40.6710000
 -39.5130000   6.2180000  40.2250000 -39.2790000   7.1080000  39.8330000
 -38.4480000   5.3690000  40.7890000 -38.7660000   5.0540000  41.7940000
 -37.5370000   5.9800000  40.8670000 -38.1000000   4.1090000  39.9920000
 -37.4020000   3.2440000  40.4990000 -38.5440000   4.0110000  38.7370000
 -39.0950000   4.7540000  38.3560000 -38.2450000   2.8390000  37.8980000
 -38.0090000   1.9940000  38.5610000 -39.4440000   2.4530000  37.0270000
 -39.7710000   3.3450000  36.4720000 -39.1210000   1.6770000  36.3170000
 -40.6260000   1.9190000  37.8130000 -40.3420000   0.9720000  38.2940000
 -40.9080000   2.6510000  38.5840000 -41.8220000   1.6750000  36.8910000
 -41.9980000   2.5860000  36.3000000 -41.5780000   0.8410000  36.2160000
 -43.0570000   1.3430000  37.6140000 -43.1750000   0.3650000  37.9160000
 -44.0420000   2.1980000  37.9150000 -43.9860000   3.4900000  37.5830000
 -43.1660000   3.8570000  37.0790000 -44.7630000   4.1200000  37.8310000
 -45.1130000   1.7560000  38.5640000 -45.1800000   0.7630000  38.8310000
 -45.8760000   2.4060000  38.8000000 -37.0280000   3.1070000  36.9900000
 -36.8890000   4.1820000  36.3910000 -36.1790000   2.0940000  36.8960000
 -36.3820000   1.2460000  37.3860000 -34.9660000   2.1730000  36.1070000
 -34.4120000   3.0770000  36.4000000 -34.0950000   0.9430000  36.4010000
 -33.8000000   0.9880000  37.4600000 -34.7110000   0.0480000  36.2290000
 -32.7890000   0.7920000  35.5490000 -33.0700000   0.8460000  34.4870000
 -31.8400000   1.9170000  35.8290000 -31.5790000   1.9190000  36.8980000
 -30.9280000   1.7850000  35.2290000 -32.3170000   2.8730000  35.5660000
 -32.1380000  -0.5620000  35.7870000 -32.8430000  -1.3610000  35.5130000
 -31.2310000  -0.6460000  35.1710000 -31.8700000  -0.6580000  36.8490000
 -35.2950000   2.2700000  34.6020000 -36.0200000   1.4500000  34.0640000
 -34.7540000   3.2920000  33.9500000 -34.2630000   3.9880000  34.4740000
 -34.8460000   3.4440000  32.4860000 -35.7370000   2.9090000  32.1250000
 -34.9910000   4.9210000  32.1460000 -34.1170000   5.4590000  32.5410000
 -35.0220000   5.0270000  31.0520000 -36.2540000   5.5510000  32.7310000
 -37.1340000   5.0190000  32.3410000 -36.2260000   5.4590000  33.8270000
 -36.3760000   7.2660000  32.2980000 -35.1400000   8.0730000  33.3210000
 -34.1480000   7.6530000  33.0980000 -35.1370000   9.1520000  33.1100000
 -35.3780000   7.9080000  34.3820000 -33.5880000   2.8240000  31.8110000
 -32.5630000   2.6620000  32.4630000 -33.6670000   2.4420000  30.5360000
 -34.4520000   2.7130000  29.9790000 -32.6040000   1.6260000  29.9550000
 -31.6310000   2.0880000  30.1790000 -32.7430000   1.5750000  28.8650000
 -32.6310000   0.2080000  30.5320000 -33.5420000  -0.1660000  31.2690000
 -31.6110000  -0.5740000  30.2180000 -30.8360000  -0.1580000  29.7420000
 -31.5370000  -1.9930000  30.5150000 -32.5570000  -2.3630000  30.6990000
 -30.9480000  -2.7020000  29.2900000 -29.9450000  -2.2970000  29.0920000
 -30.8730000  -3.7780000  29.5030000 -31.8080000  -2.5050000  28.0590000
 -33.0260000  -2.7980000  28.1710000 -31.2980000  -2.0490000  27.0120000
 -30.6680000  -2.3370000  31.7450000 -30.7130000  -3.4490000  32.2460000
 -29.8670000  -1.3670000  32.1780000 -29.8690000  -0.4860000  31.7050000
 -28.9800000  -1.5580000  33.3320000 -29.5340000  -2.0990000  34.1140000
 -27.7440000  -2.4110000  32.9530000 -28.1030000  -3.3790000  32.5750000
 -27.1500000  -2.5710000  33.8650000 -26.8360000  -1.8080000  31.9040000
 -27.1010000  -1.9730000  30.5470000 -27.9650000  -2.5520000  30.2420000
 -26.2860000  -1.4140000  29.5800000 -26.5320000  -1.5270000  28.5300000
 -25.1620000  -0.7140000  29.9520000 -24.3640000  -0.1430000  29.0220000
 -24.6670000  -0.3830000  28.1540000 -24.8930000  -0.4880000  31.2950000
 -24.0490000   0.1270000  31.5860000 -25.7060000  -1.0510000  32.2560000
 -25.4690000  -0.9070000  33.3040000 -28.5980000  -0.1930000  33.8760000
 -28.5810000   0.8090000  33.1600000 -28.3150000  -0.1510000  35.1710000
 -28.4060000  -0.9860000  35.7130000 -27.8870000   1.0420000  35.8130000
 -28.4180000   1.8910000  35.3580000 -28.1890000   1.0170000  37.3350000
 -29.2550000   0.7980000  37.4980000 -27.5770000   0.2430000  37.8220000
 -27.8520000   2.3740000  37.9150000 -26.8930000   2.6990000  37.4840000
 -28.6440000   3.0760000  37.6170000 -27.7270000   2.4240000  39.4150000
 -27.8410000   1.3690000  40.1070000 -27.5350000   3.5720000  39.8880000
 -26.3880000   1.2370000  35.6350000 -25.6180000   0.3420000  35.8600000
 -26.0100000   2.3990000  35.1630000 -26.7140000   3.0870000  34.9840000
 -24.6540000   2.7390000  34.8900000 -23.9810000   1.9060000  35.1400000
 -24.4690000   3.1440000  33.4060000 -23.4060000   3.3550000  33.2200000
 -24.7960000   2.3140000  32.7620000 -25.2390000   4.3080000  33.0980000
 -25.1120000   4.5390000  32.1850000 -24.3930000   3.9360000  35.7620000
 -24.6740000   5.0550000  35.3840000 -23.8660000   3.7370000  36.9360000
 -23.5570000   2.8280000  37.2150000 -23.7390000   4.8860000  37.8360000
 -24.5870000   4.8780000  38.5360000 -23.7680000   5.8070000  37.2350000
 -22.4720000   4.8710000  38.6230000 -21.8910000   5.9370000  38.9070000
 -22.0310000   3.6770000  38.9890000 -22.4420000   2.8500000  38.6050000
 -20.9570000   3.5740000  39.9420000 -21.0270000   4.3750000  40.6930000
 -21.0550000   2.2170000  40.6440000 -20.1710000   2.0820000  41.2850000
 -21.0820000   1.4220000  39.8840000 -22.2920000   2.1230000  41.4920000
 -22.3110000   2.6980000  42.7480000 -21.4230000   3.1990000  43.1170000
 -23.4340000   2.6480000  43.5400000 -23.4230000   3.0920000  44.5290000
 -24.5630000   2.0370000  43.0770000 -25.6420000   2.0220000  43.9300000
 -25.4050000   2.4420000  44.7480000 -24.6210000   1.4950000  41.8130000
 -25.5380000   1.0510000  41.4420000 -23.4760000   1.5300000  41.0230000
 -23.4980000   1.0930000  40.0310000 -19.6760000   3.7340000  39.1370000
 -19.5020000   3.0200000  38.1530000 -18.8540000   4.7170000  39.4940000
 -19.1530000   5.3300000  40.2250000 -17.5300000   4.9670000  38.8870000
 -17.2840000   4.1050000  38.2500000 -17.5430000   6.2180000  38.0230000
 -17.8770000   7.0500000  38.6590000 -16.5090000   6.3990000  37.6960000
 -18.4260000   6.2230000  36.7650000 -18.1900000   5.3310000  36.1660000
 -19.4810000   6.1880000  37.0750000 -18.2090000   7.4870000  35.8820000
 -17.3520000   8.3160000  36.2290000 -18.8550000   7.7000000  34.8250000
 -16.4300000   5.1190000  39.9410000 -15.3820000   4.4850000  39.8670000
 -16.6660000   5.9550000  40.9390000 -17.5430000   6.4330000  40.9820000
 -15.6660000   6.1930000  41.9820000 -14.6610000   6.1400000  41.5380000
 -15.8540000   7.6050000  42.6200000 -15.1060000   7.7510000  43.4130000
 -15.7240000   8.3770000  41.8470000 -17.2691621   7.7277423  43.1748647
 -17.9893187   7.5953336  42.3674347 -17.4301104   6.9620596  43.9337638
 -17.4528501   9.1073458  43.7982249 -16.7332941   9.2403189  44.6060964
 -17.2925051   9.8735923  43.0397691 -18.8178484   9.2632147  44.3485754
 -19.4620569   8.4897470  44.2658556 -19.2349419  10.3752856  44.9471001
 -18.4453058  11.4354066  45.0937930 -17.4980364  11.4078907  44.7444741
 -18.7965543  12.2631040  45.5538376 -20.4830104  10.4071844  45.4055849
 -21.0800455   9.6004163  45.2925609 -20.8280224  11.2380295  45.8646731
 -15.8050000   5.1120000  43.0150000 -14.7960000   4.5310000  43.4590000
 -17.0520000   4.8340000  43.4170000 -17.8240000   5.3070000  42.9920000
 -17.3000000   3.8500000  44.4670000 -16.3780000   3.2580000  44.5670000
 -17.5650000   4.4930000  45.8340000 -17.0190000   5.4460000  45.8910000
 -18.6440000   4.6820000  45.9350000 -17.1110000   3.5930000  46.9840000
 -16.0350000   3.3850000  46.8840000 -17.2990000   4.0990000  47.9420000
 -17.8829765   2.2787000  46.9361166 -18.9499844   2.4797566  47.0318735
 -17.6917563   1.7787975  45.9865737 -17.4691201   1.3800981  48.0368612
 -16.7577961   1.7000080  48.6785583 -17.9911130   0.1705461  48.2196391
 -18.9312727  -0.3199996  47.4169155 -19.2676103   0.2327615  46.6413949
 -19.3045717  -1.2430247  47.5865387 -17.5453226  -0.5539159  49.2420513
 -16.8312970  -0.1784327  49.8497354 -17.9228621  -1.4762255  49.4060866
 -18.4090000   2.8820000  44.0970000 -19.2590000   3.1660000  43.3140000
 -18.3400000   1.7220000  44.6800000 -17.6450000   1.5840000  45.3860000
 -19.2130000   0.6300000  44.3590000 -19.6550000   0.7460000  43.3580000
 -18.3850000  -0.6410000  44.4210000 -17.7560000  -0.6030000  45.3230000
 -19.0690000  -1.5000000  44.4870000 -17.4720000  -0.8390000  43.1990000
 -16.8450000   0.0540000  43.0600000 -16.5750000  -2.0580000  43.4240000
 -17.2000000  -2.9510000  43.5730000 -15.9290000  -2.2050000  42.5460000
 -15.9510000  -1.8940000  44.3150000 -18.3320000  -1.0510000  41.9620000
 -18.9800000  -0.1750000  41.8110000 -17.6840000  -1.1830000  41.0830000
 -18.9540000  -1.9480000  42.0970000 -20.2870000   0.6610000  45.4200000
 -20.0720000   1.2500000  46.4610000 -21.4130000  -0.0240000  45.1980000
 -21.7600000  -0.7530000  43.9630000 -21.0050000  -1.5210000  43.7390000
 -21.8430000  -0.0610000  43.1120000 -23.0690000  -1.3770000  44.2600000
 -22.9780000  -2.4710000  44.1910000 -23.8160000  -1.0250000  43.5330000
 -23.4950000  -1.0030000  45.6250000 -23.6150000  -1.9050000  46.2430000
 -24.4480000  -0.4560000  45.5860000 -22.3910000  -0.1010000  46.2130000
 -22.7740000   0.9000000  46.4620000 -21.8560000  -0.7860000  47.4640000
 -21.0670000  -1.7170000  47.4050000 -22.3330000  -0.3060000  48.6040000
 -22.9730000   0.4620000  48.5790000 -21.9570000  -0.8570000  49.8680000
 -20.8580000  -0.8860000  49.9150000 -22.4650000   0.0280000  51.0230000
 -22.1070000   1.0580000  50.8760000 -23.5650000   0.0190000  51.0300000
 -21.9460000  -0.5010000  52.3660000 -20.8490000  -0.1010000  52.7450000
 -22.5150000  -1.4350000  52.9380000 -22.4710000  -2.2680000  50.0190000
 -23.6790000  -2.5080000  49.8810000 -21.6000000  -3.2310000  50.3550000
 -20.1570000  -3.1770000  50.6010000 -19.9390000  -2.9570000  51.6570000
 -19.6700000  -2.4260000  49.9620000 -19.7270000  -4.5690000  50.2330000
 -18.7950000  -4.8370000  50.7520000 -19.5800000  -4.6560000  49.1460000
 -20.8410000  -5.4340000  50.6800000 -20.7340000  -5.6840000  51.7460000
 -20.8730000  -6.3600000  50.0880000 -22.0940000  -4.6070000  50.4480000
 -22.5610000  -4.8720000  49.4880000 -23.0890000  -4.9530000  51.5600000
 -23.7160000  -6.0010000  51.4830000 -23.2350000  -4.0840000  52.5430000
 -22.6420000  -3.2790000  52.5720000 -24.2440000  -4.2660000  53.5950000
 -24.5670000  -5.3180000  53.5850000 -23.6510000  -3.9540000  54.9800000
 -23.2280000  -2.9390000  54.9530000 -24.7380000  -3.9970000  56.0740000
 -25.1970000  -4.9970000  56.0960000 -24.2830000  -3.7810000  57.0520000
 -25.5100000  -3.2440000  55.8540000 -22.5360000  -4.9320000  55.3120000
 -21.7460000  -4.8590000  54.5500000 -22.1170000  -4.6890000  56.2990000
 -22.9380000  -5.9560000  55.3270000 -25.4720000  -3.3800000  53.3310000
 -26.6030000  -3.8460000  53.4260000 -25.2530000  -2.1150000  53.0010000
 -24.3220000  -1.8120000  52.7960000 -26.3630000  -1.1490000  52.9320000
 -27.1460000  -1.5000000  53.6200000 -25.8560000   0.2170000  53.4020000
 -25.0140000   0.5220000  52.7630000 -26.6710000   0.9490000  53.3090000
 -25.3920000   0.1850000  54.8350000 -26.2540000  -0.0310000  55.4830000
 -24.6400000  -0.6100000  54.9480000 -24.7800000   1.5000000  55.2570000
 -23.8850000   1.7060000  54.6520000 -25.5100000   2.3120000  55.1200000
 -24.3970000   1.3950000  56.7240000 -25.1290000   0.7580000  57.2420000
 -23.3970000   0.9440000  56.8040000 -24.3790000   2.7280000  57.3620000
 -25.2920000   3.1490000  57.2870000 -24.1320000   2.6320000  58.3350000
 -23.7010000   3.3130000  56.8990000 -27.0060000  -0.9480000  51.5650000
 -28.0660000  -0.3050000  51.4700000 -26.3500000  -1.4030000  50.4920000
 -25.4970000  -1.9110000  50.6120000 -26.8750000  -1.1620000  49.1250000
 -27.7560000  -0.5110000  49.2250000 -25.8230000  -0.4180000  48.2700000
 -24.8740000  -0.9710000  48.3220000 -26.1740000  -0.3900000  47.2280000
 -25.5800000   1.0040000  48.7360000 -26.5160000   1.6410000  49.2160000
 -24.4540000   1.5080000  48.6680000 -27.3220000  -2.4170000  48.4090000
 -27.1960000  -2.5020000  47.1740000 -27.9380000  -3.3560000  49.1350000
 -28.0680000  -3.2070000  50.1150000 -28.4310000  -4.6060000  48.5260000
 -27.5880000  -5.0160000  47.9500000 -28.8370000  -5.6790000  49.5440000
 -29.6350000  -5.2610000  50.1750000 -29.2250000  -6.5440000  48.9860000
 -27.7170000  -6.1790000  50.4700000 -27.2440000  -5.3020000  50.9360000
 -28.3350000  -7.0520000  51.5950000 -28.8640000  -7.9060000  51.1470000
 -27.5350000  -7.4200000  52.2540000 -29.0440000  -6.4480000  52.1800000
 -26.6390000  -6.9340000  49.7130000 -26.1950000  -6.2750000  48.9520000
 -25.8580000  -7.2610000  50.4150000 -27.0830000  -7.8130000  49.2230000
 -29.5800000  -4.3910000  47.5420000 -29.8710000  -5.2750000  46.7770000
 -30.1620000  -3.2000000  47.5190000 -29.9070000  -2.5130000  48.1990000
 -31.1790000  -2.8770000  46.5050000 -32.0420000  -3.5400000  46.6670000
 -31.6360000  -1.4290000  46.6520000 -32.4910000  -1.2550000  45.9830000
 -31.9440000  -1.2550000  47.6940000 -30.5180000  -0.4490000  46.2950000
 -29.6280000  -0.7250000  46.8790000 -30.3010000  -0.5600000  45.2220000
 -30.8150000   1.0110000  46.5610000 -31.5530000   1.3830000  45.8350000
 -31.2090000   1.1350000  47.5800000 -29.5080000   1.7730000  46.4120000
 -28.7780000   1.3570000  47.1220000 -29.1390000   1.6380000  45.3850000
 -29.6490000   3.2340000  46.6770000 -29.9880000   3.3740000  47.6160000
 -28.7520000   3.6820000  46.5730000 -30.3020000   3.6330000  46.0210000
 -30.6720000  -3.0820000  45.0610000 -31.4700000  -3.4190000  44.1980000
 -29.3680000  -2.9000000  44.8100000 -28.7510000  -2.6490000  45.5560000
 -28.8310000  -3.0670000  43.4420000 -29.4320000  -2.4110000  42.7950000
 -27.3440000  -2.6430000  43.2810000 -27.0850000  -2.7680000  42.2190000
 -27.1410000  -1.2030000  43.6290000 -27.4490000  -1.0310000  44.6710000
 -26.0780000  -0.9440000  43.5130000 -27.7470000  -0.5750000  42.9590000
 -26.3910000  -3.5170000  44.0880000 -26.4880000  -4.5630000  43.7620000
 -25.3570000  -3.1780000  43.9270000 -26.6400000  -3.4410000  45.1570000
 -28.9570000  -4.4810000  42.9040000 -28.8500000  -4.6960000  41.6960000
 -29.1680000  -5.4550000  43.7610000 -29.2330000  -5.2480000  44.7370000
 -29.3090000  -6.8380000  43.3050000 -28.4750000  -7.0470000  42.6190000
 -29.2250000  -7.8360000  44.4660000 -29.3330000  -8.8580000  44.0730000
 -27.8670000  -7.7070000  45.1730000 -27.4350000  -6.7180000  44.9600000
 -28.0060000  -7.8200000  46.2580000 -27.1870000  -8.4910000  44.8070000
 -30.2790000  -7.5750000  45.4070000 -30.2240000  -8.1950000  46.1250000
 -30.6330000  -7.0520000  42.5280000 -30.8490000  -8.1000000  41.9550000
 -31.4960000  -6.0530000  42.5540000 -31.2440000  -5.2060000  43.0220000
 -32.7880000  -6.1480000  41.9290000 -33.1490000  -7.1840000  42.0100000
 -33.7550000  -5.2050000  42.6280000 -33.3440000  -4.1870000  42.5560000
 -34.7160000  -5.2510000  42.0950000 -34.0220000  -5.4980000  44.0960000
 -34.6310000  -6.4100000  44.1750000 -33.0630000  -5.6520000  44.6110000
 -34.7690000  -4.3380000  44.7670000 -35.8930000  -4.5270000  45.2010000
 -34.1540000  -3.1200000  44.8270000 -33.2400000  -3.0020000  44.4390000
 -34.6180000  -2.3460000  45.2590000 -32.7430000  -5.7420000  40.4630000
 -33.7370000  -5.8850000  39.7800000 -31.6350000  -5.1610000  39.9980000
 -30.8630000  -5.0020000  40.6130000 -31.5390000  -4.7500000  38.5820000
 -32.2340000  -5.3780000  38.0060000 -31.9660000  -3.3010000  38.3820000
 -31.8060000  -3.0380000  37.3260000 -33.0370000  -3.2220000  38.6210000
 -31.2360000  -2.3320000  39.2130000 -29.9550000  -1.9150000  39.0470000
 -29.2930000  -2.2400000  38.2450000 -29.6140000  -1.0270000  40.0330000
 -28.6990000  -0.5630000  40.1280000 -30.6850000  -0.8540000  40.8730000
 -30.8180000  -0.0600000  42.0260000 -30.0000000   0.5510000  42.3890000
 -32.0200000  -0.0920000  42.6670000 -32.1640000   0.5140000  43.5540000
 -33.0900000  -0.9030000  42.1980000 -34.0350000  -0.9000000  42.7280000
 -32.9410000  -1.6920000  41.0790000 -33.7600000  -2.3100000  40.7290000
 -31.7200000  -1.6840000  40.4020000 -30.1320000  -5.0070000  38.0470000
 -29.2200000  -5.2180000  38.8200000 -29.9680000  -5.0910000  36.7200000
 -30.7620000  -5.0580000  36.1120000 -28.6380000  -5.2300000  36.1710000
 -28.0910000  -5.9920000  36.7460000 -28.6570000  -5.6580000  34.6900000
 -29.3710000  -5.0220000  34.1470000 -27.6500000  -5.5200000  34.2690000
 -29.0610000  -7.0950000  34.5160000 -28.3320000  -7.9550000  35.0130000
 -30.0910000  -7.3750000  33.8600000 -27.9540000  -3.9060000  36.3220000
 -28.5650000  -2.8430000  36.2830000 -26.6370000  -3.9730000  36.5100000
 -26.1920000  -4.8670000  36.5590000 -25.8570000  -2.7970000  36.6420000
 -26.2330000  -2.0630000  35.9140000 -25.9930000  -2.1540000  38.0500000
 -25.4240000  -1.2130000  38.0520000 -27.0570000  -1.9390000  38.2260000
 -25.4910000  -3.0100000  39.1950000 -26.1620000  -4.0110000  39.8410000
 -27.1800000  -4.3250000  39.6170000 -25.3610000  -4.5650000  40.8180000
 -25.6220000  -5.3530000  41.4280000 -24.1640000  -3.9000000  40.8470000
 -23.0540000  -4.1040000  41.6470000 -23.0490000  -4.8800000  42.4040000
 -21.9660000  -3.3030000  41.4590000 -21.0860000  -3.4500000  42.0740000
 -21.9640000  -2.2930000  40.4850000 -21.0970000  -1.6520000  40.3770000
 -23.0850000  -2.1050000  39.6420000 -23.0810000  -1.3390000  38.8750000
 -24.1950000  -2.9300000  39.8220000 -24.4030000  -3.1110000  36.2760000
 -23.9610000  -4.2620000  36.2570000 -23.7250000  -2.0360000  35.9200000
 -24.1770000  -1.1460000  35.9800000 -22.3580000  -2.0840000  35.4470000
 -21.8940000  -3.0210000  35.7890000 -22.3260000  -2.0430000  33.9210000
 -22.8820000  -2.9120000  33.5390000 -22.8180000  -1.1170000  33.5880000
 -20.9430000  -2.0760000  33.3440000 -20.3550000  -1.2520000  33.7740000
 -20.4700000  -3.0360000  33.6000000 -20.9730000  -1.9260000  31.8240000
 -21.3030000  -0.8310000  31.4230000 -20.6620000  -2.9100000  31.0910000
 -21.5660000  -0.8950000  36.0190000 -21.9460000   0.2710000  35.8520000
 -20.4340000  -1.2220000  36.6550000 -20.2180000  -2.1880000  36.7950000
 -19.5180000  -0.2240000  37.1440000 -20.0390000   0.7440000  37.1920000
 -19.0310000  -0.5930000  38.5520000 -18.3330000   0.1770000  38.9120000
 -19.8920000  -0.6550000  39.2330000 -18.5190000  -1.5660000  38.5200000
 -18.3600000  -0.1030000  36.2120000 -17.9190000  -1.0830000  35.6300000
 -17.8550000   1.1100000  36.0600000 -18.3020000   1.8830000  36.5100000
 -16.6660000   1.3510000  35.2550000 -16.2530000   0.3810000  34.9410000
 -17.0290000   2.1280000  33.9860000 -17.3830000   3.1210000  34.3010000
 -16.1080000   2.2380000  33.3950000 -18.3110000   1.4170000  32.8730000
 -18.4480000   2.0290000  32.0840000 -15.6100000   2.0500000  36.1450000
 -15.9480000   2.8810000  36.9600000 -14.3320000   1.7130000  35.9930000
 -14.0550000   1.0950000  35.2580000 -13.3380000   2.2600000  36.9170000
 -13.7520000   3.1710000  37.3730000 -13.0170000   1.2550000  38.0280000
 -12.2610000   1.6970000  38.6940000 -13.9360000   1.0560000  38.5980000
 -12.4840000  -0.0570000  37.4960000 -13.3180000  -0.6420000  37.0800000
 -11.7490000   0.1480000  36.7030000 -11.6920000  -1.0080000  38.7980000
 -10.0220000  -0.4770000  38.4750000  -9.9590000   0.6170000  38.5760000
  -9.3400000  -0.9520000  39.1960000  -9.7360000  -0.7680000  37.4540000
 -12.0660000   2.6170000  36.1910000 -11.7190000   2.0120000  35.1920000
 -11.3980000   3.6310000  36.7170000 -11.8160000   4.1480000  37.4640000
 -10.0670000   4.0240000  36.2450000  -9.9380000   3.6830000  35.2070000
  -9.9540000   5.5480000  36.2940000  -8.9270000   5.8450000  36.0340000
 -10.9250000   6.1800000  35.3380000 -11.7350000   5.4700000  35.1150000
 -11.3480000   7.0880000  35.7920000 -10.4030000   6.4450000  34.4070000
 -10.2830000   6.0220000  37.6070000 -10.2100000   6.9690000  37.6290000
  -8.9860000   3.4000000  37.1050000  -9.2110000   3.0400000  38.2530000
  -7.7720000   3.3130000  36.5590000  -7.6480000   3.6260000  35.6170000
  -6.6290000   2.7870000  37.2660000  -7.0040000   1.9930000  37.9290000
  -5.6290000   2.1040000  36.3180000  -5.3770000   2.7980000  35.5030000
  -4.3590000   1.7400000  37.0650000  -4.6030000   1.0590000  37.8940000
  -3.6580000   1.2440000  36.3770000  -3.8950000   2.6530000  37.4650000
  -6.2750000   0.8250000  35.7140000  -6.4760000   0.1150000  36.5290000
  -7.2220000   1.1050000  35.2300000  -5.3870000   0.1450000  34.6860000
  -4.4340000  -0.1400000  35.1560000  -5.8910000  -0.7550000  34.3040000
  -5.1930000   0.8380000  33.8540000  -6.0210000   3.8700000  38.1930000
  -5.9660000   3.6560000  39.4130000  -5.6890000   5.0480000  37.6470000
  -5.5690000   5.4800000  36.2260000  -6.5420000   5.7990000  35.8240000
  -5.1600000   4.6740000  35.5990000  -4.6040000   6.6470000  36.3190000
  -4.7870000   7.3630000  35.5040000  -3.5640000   6.2910000  36.2680000
  -4.8690000   7.2750000  37.6240000  -5.5830000   8.1040000  37.5060000
  -3.9320000   7.6570000  38.0560000  -5.4710000   6.1820000  38.5420000
  -4.7740000   5.9190000  39.3510000  -6.7630000   6.6390000  39.1200000
  -7.8510000   6.1210000  38.7690000  -6.7070000   7.6720000  39.9530000
  -5.8400000   8.1350000  40.1380000  -7.9400000   8.1130000  40.5900000
  -8.3940000   7.2120000  41.0280000  -7.7050000   9.1010000  41.7630000
  -7.1800000   8.5800000  42.5770000  -7.0910000   9.9430000  41.4110000
  -9.0220000   9.6260000  42.2770000  -9.4960000  10.2170000  41.4790000
  -9.6640000   8.7690000  42.5290000  -8.8890000  10.4990000  43.5030000
  -7.7670000  11.0650000  43.7270000  -9.9260000  10.6300000  44.1940000
  -8.9390000   8.6630000  39.6200000 -10.1570000   8.4040000  39.7540000
  -8.4930000   9.4610000  38.6630000  -7.5120000   9.6220000  38.5510000
  -9.4520000  10.1000000  37.7770000 -10.2430000   9.3680000  37.5570000
 -10.1090000  11.3270000  38.4230000 -10.4780000  11.0460000  39.4200000
  -9.3540000  12.1210000  38.5220000 -11.2800000  11.8620000  37.5980000
 -11.8590000  11.1750000  36.7440000 -11.5970000  13.1190000  37.8130000
 -11.0820000  13.6570000  38.4800000 -12.3530000  13.5370000  37.3090000
  -8.7930000  10.5060000  36.4500000  -8.6770000  11.6750000  36.1350000
  -8.3410000   9.5150000  35.7110000  -8.3720000   8.5900000  36.0900000
  -7.7990000   9.6910000  34.3740000  -8.0730000  10.6830000  33.9850000
  -6.2840000   9.5280000  34.3570000  -6.0360000   8.5750000  34.8470000
  -5.9540000   9.4980000  33.3080000  -5.5210000  10.6330000  35.0610000
  -5.8360000  10.6590000  36.1150000  -4.4460000  10.4060000  35.0050000
  -5.7570000  12.0020000  34.4540000  -6.0970000  12.0870000  33.2920000
  -5.5130000  13.0820000  35.2380000  -5.1910000  12.9560000  36.1760000
  -5.6550000  14.0040000  34.8780000  -8.3850000   8.5880000  33.5030000
  -8.2060000   7.3820000  33.7860000  -9.1280000   8.9900000  32.4680000
  -9.3050000   9.9650000  32.3340000  -9.6800000   8.0260000  31.5380000
  -9.6190000   7.0330000  32.0060000 -11.1610000   8.3230000  31.2740000
 -11.2290000   9.3310000  30.8400000 -11.5270000   7.5840000  30.5460000
 -12.0350000   8.2780000  32.4280000 -12.3310000   9.3130000  33.2870000
 -11.8910000  10.3080000  33.2450000 -13.2510000   8.9070000  34.1910000
 -13.6510000   9.5000000  34.9320000 -13.5740000   7.5920000  33.9790000
 -14.5020000   6.7620000  34.6470000 -15.1120000   7.1390000  35.4590000
 -14.6010000   5.4500000  34.2240000 -15.2470000   4.7630000  34.7600000
 -13.8830000   4.9970000  33.1190000 -13.9940000   3.9670000  32.7990000
 -13.0200000   5.8470000  32.4130000 -12.4930000   5.4920000  31.5350000
 -12.8500000   7.1600000  32.8610000  -8.8630000   7.9780000  30.2550000
  -8.3520000   6.9040000  29.8710000  -8.7150000   9.1260000  29.5700000
  -9.2730000   9.9210000  29.8100000  -7.7420000   9.2250000  28.4730000
  -7.8760000  10.1910000  27.9640000  -7.9240000   8.4070000  27.7610000
  -6.3260000   9.1300000  28.9740000  -6.0590000   9.2630000  30.1690000
  -5.4180000   8.8930000  28.0490000  -5.7210000   8.7390000  27.1090000
  -3.9630000   8.8450000  28.3450000  -3.7670000   8.0150000  29.0400000
  -3.1990000   8.6180000  27.0420000  -3.4440000   9.4270000  26.3380000
  -3.5040000   7.6530000  26.6120000  -1.7000000   8.6030000  27.2720000
  -1.0820000   7.4720000  27.7830000  -1.6720000   6.5850000  27.9860000
   0.3040000   7.4610000  28.0420000   0.7960000   6.5510000  28.3660000
   1.0230000   8.6210000  27.8780000   2.3760000   8.6080000  28.1280000
   2.6360000   7.7420000  28.4190000   0.4250000   9.7780000  27.4430000
   0.9990000  10.6940000  27.3600000  -0.9280000   9.7630000  27.1090000
  -1.3910000  10.6610000  26.7170000  -3.4550000  10.1700000  28.9790000
  -3.5860000  11.2440000  28.3690000  -2.9550000  10.0950000  30.2060000
  -3.0590000   9.2380000  30.7100000  -2.2590000  11.2050000  30.8580000
  -2.3070000  12.0930000  30.2100000  -2.8960000  11.5530000  32.1880000
  -3.9880000  11.5480000  32.0590000  -2.6090000  10.7830000  32.9190000
  -2.4960000  12.8840000  32.7300000  -1.2070000  13.1770000  33.1250000
  -0.4150000  12.5190000  33.1040000  -1.1440000  14.4350000  33.5350000
  -0.2450000  14.9580000  33.8570000  -2.3640000  14.9460000  33.4860000
  -3.2190000  14.0130000  32.9430000  -4.2770000  14.1540000  32.7250000
  -0.8150000  10.7880000  31.0200000  -0.5370000   9.6870000  31.5650000
   0.1140000  11.6470000  30.5900000  -0.1570000  12.5320000  30.2110000
   1.5390000  11.2850000  30.6760000   1.6340000  10.3000000  30.1950000
   2.4150000  12.2710000  29.9020000   3.4450000  11.8850000  29.8760000
   2.0290000  12.3560000  28.8750000   2.4270000  13.6560000  30.5380000
   1.4010000  14.0520000  30.5430000   2.7910000  13.5670000  31.5720000
   3.3270000  14.6330000  29.7820000   3.1510000  15.6350000  30.2000000
   4.3690000  14.3350000  29.9690000   3.1460000  14.7250000  28.3040000
   3.2970000  13.7360000  27.8460000   2.1330000  15.0850000  28.0730000
   4.1740000  15.7020000  27.7730000   5.0990000  15.3730000  28.0010000
   4.0810000  15.7770000  26.7720000   4.0260000  16.6060000  28.1930000
   2.1200000  11.1490000  32.0850000   3.1920000  10.5960000  32.2240000
   1.4780000  11.7010000  33.0930000   0.5780000  12.1100000  32.9390000
   2.0580000  11.7250000  34.4280000   2.9770000  11.1220000  34.3950000
   2.4530000  13.1380000  34.8490000   3.0770000  13.5790000  34.0570000
   1.5380000  13.7370000  34.9710000   3.2360000  13.1710000  36.1620000
   3.4250000  12.1100000  36.8240000   3.6100000  14.3090000  36.5540000
   1.1380000  11.0950000  35.4550000   0.3140000  11.7420000  36.0880000
   1.3320000   9.8070000  35.6350000   2.0030000   9.3330000  35.0660000
   0.5880000   9.0430000  36.6520000  -0.4450000   9.4220000  36.6330000
   0.5430000   7.5500000  36.2610000   1.4800000   7.2930000  35.7440000
   0.4540000   6.9490000  37.1780000  -0.6450000   7.2100000  35.3290000
  -1.3740000   8.0940000  34.5890000  -1.1990000   9.1680000  34.5550000
  -2.3610000   7.4370000  33.8910000  -3.0590000   7.8870000  33.2820000
  -2.2710000   6.0950000  34.1320000  -3.0710000   5.0270000  33.6650000
  -3.8900000   5.1960000  32.9750000  -2.7690000   3.7600000  34.1220000
  -3.3650000   2.9170000  33.7910000  -1.7020000   3.5450000  35.0090000
  -1.4860000   2.5360000  35.3410000  -0.9150000   4.5950000  35.4720000
  -0.1020000   4.4110000  36.1650000  -1.1920000   5.9000000  35.0250000
   1.0760000   9.2020000  38.0840000   0.4540000   8.6450000  39.0020000
   2.1510000   9.9590000  38.3180000   2.6810000  10.3180000  37.5500000
   2.5620000  10.2690000  39.6950000   2.5530000   9.3320000  40.2710000
   3.9840000  10.8470000  39.7330000   4.3600000  10.8140000  40.7660000
   4.6370000  10.2430000  39.0860000   3.9890000  12.2130000  39.2700000
   4.8750000  12.5540000  39.3000000   1.6180000  11.2310000  40.3470000
   1.6890000  11.4380000  41.5610000   0.7040000  11.8440000  39.6000000
   0.5770000  11.5770000  38.6450000  -0.1190000  12.9140000  40.1790000
   0.5540000  13.5290000  40.7950000  -0.7100000  13.8040000  39.0760000
  -1.2950000  13.1560000  38.4070000  -1.3790000  14.5300000  39.5610000
   0.2600000  14.5850000  38.2160000   0.9370000  13.8760000  37.7170000
  -0.5170000  15.3810000  37.1400000  -1.2190000  16.0720000  37.6300000
   0.1920000  15.9540000  36.5250000  -1.0760000  14.6830000  36.5000000
   1.1010000  15.5540000  39.0670000   1.6660000  14.9850000  39.8200000
   1.8020000  16.0990000  38.4170000   0.4360000  16.2710000  39.5710000
  -1.2550000  12.4720000  41.0650000  -1.8400000  13.3030000  41.7630000
  -1.6300000  11.1960000  41.0060000  -1.1880000  10.5720000  40.3620000
  -2.6770000  10.7180000  41.8760000  -2.6390000  11.2820000  42.8200000
  -4.0870000  10.8980000  41.2620000  -4.8410000  10.7730000  42.0530000
  -4.1660000  11.9090000  40.8370000  -4.3370000   9.9180000  40.2080000
  -5.2070000  10.0520000  39.8510000  -2.3990000   9.2430000  42.1600000
  -1.4880000   8.6630000  41.6110000  -3.2150000   8.6840000  43.0480000
  -3.9740000   9.2190000  43.4190000  -3.0310000   7.3240000  43.4880000
  -1.9730000   7.1910000  43.7580000  -3.8730000   6.9890000  44.7200000
  -4.9400000   7.0950000  44.4750000  -3.6150000   7.6760000  45.5390000
  -3.5930000   5.5710000  45.1460000  -2.3910000   5.2560000  45.7420000
  -1.6890000   6.0540000  45.9570000  -2.0530000   3.9750000  46.0710000
  -1.1000000   3.7650000  46.5420000  -2.9510000   2.9300000  45.7940000
  -2.5500000   1.6560000  46.0670000  -1.6790000   1.6720000  46.4450000
  -4.1830000   3.2010000  45.2380000  -4.8970000   2.4040000  45.0650000
  -4.4990000   4.5340000  44.8980000  -5.4550000   4.7570000  44.4390000
  -3.3650000   6.3640000  42.3100000  -4.4070000   6.4870000  41.6750000
  -2.4930000   5.4000000  42.0870000  -1.6730000   5.3580000  42.6590000
  -2.6660000   4.3890000  41.0450000  -3.5290000   4.6590000  40.4180000
  -1.4030000   4.3190000  40.1680000  -0.5450000   4.1130000  40.8250000
  -1.4880000   3.1850000  39.1490000  -2.3630000   3.3400000  38.5000000
  -0.5750000   3.1740000  38.5360000  -1.5880000   2.2250000  39.6760000
  -1.1620000   5.6670000  39.4890000  -1.0380000   6.4460000  40.2550000
  -0.2520000   5.6100000  38.8730000  -2.0220000   5.9150000  38.8500000
  -2.9160000   3.0120000  41.6930000  -2.0880000   2.4760000  42.4480000
  -4.0750000   2.4430000  41.4040000  -4.6980000   2.9000000  40.7690000
  -4.4650000   1.1680000  41.9870000  -4.4030000   1.2570000  43.0820000
  -5.8980000   0.8550000  41.6040000  -5.9590000   0.8130000  40.5070000
  -6.1590000  -0.1280000  42.0240000  -6.9120000   1.8630000  42.0950000
  -7.0170000   1.7740000  43.1860000  -6.5720000   2.8780000  41.8410000
  -8.2610000   1.5990000  41.4320000  -8.1000000   1.4260000  40.3580000
  -8.7090000   0.7020000  41.8850000  -9.2090000   2.7470000  41.5980000
 -10.1910000   2.4510000  41.2000000  -9.3010000   2.9740000  42.6700000
  -8.7590000   3.9820000  40.8870000  -8.6690000   3.7890000  39.9020000
  -9.4370000   4.7150000  41.0250000  -7.8670000   4.2750000  41.2550000
  -3.5500000   0.0220000  41.5490000  -3.1080000  -0.0390000  40.3840000
  -3.2600000  -0.8930000  42.4850000  -3.5740000  -0.7310000  43.4210000
  -2.4960000  -2.1370000  42.2030000  -1.6920000  -1.9230000  41.4830000
  -1.9000000  -2.6920000  43.4970000  -1.2770000  -3.5670000  43.2620000
  -1.0170000  -1.6150000  44.2060000  -1.3090000  -0.6140000  43.8570000
  -1.1620000  -1.6810000  45.2940000   0.0420000  -1.7930000  43.9660000
  -2.9730000  -3.0900000  44.3650000  -2.6140000  -3.4370000  45.1730000
  -3.4530000  -3.1920000  41.6270000  -4.6710000  -3.0450000  41.7270000
  -2.9260000  -4.2190000  40.9570000  -1.5190000  -4.3870000  40.5310000
  -0.8880000  -4.7310000  41.3630000  -1.1100000  -3.4510000  40.1240000
  -1.6390000  -5.4330000  39.4720000  -0.7070000  -6.0120000  39.3910000
  -1.8720000  -4.9760000  38.4990000  -2.7570000  -6.2990000  39.9260000
  -2.4270000  -6.9860000  40.7190000  -3.1730000  -6.8780000  39.0890000
  -3.7720000  -5.3010000  40.4560000  -4.3970000  -4.9250000  39.6320000
  -4.7090000  -5.9310000  41.5010000  -5.9220000  -6.1360000  41.2020000
  -4.2310000  -6.1480000  42.7360000  -3.2840000  -5.9240000  42.9640000
  -5.1430000  -6.7300000  43.7580000  -5.6100000  -7.6180000  43.3070000
  -4.3970000  -7.1980000  45.0110000  -3.7320000  -6.3910000  45.3530000
  -5.3610000  -7.5450000  46.1310000  -6.0380000  -8.3460000  45.7980000
  -4.7940000  -7.8860000  47.0100000  -5.9500000  -6.6550000  46.3970000
  -3.5530000  -8.4350000  44.6540000  -4.2340000  -9.2860000  44.5010000
  -3.0120000  -8.2260000  43.7190000  -2.5430000  -8.8180000  45.7130000
  -3.0650000  -9.0330000  46.6570000  -1.9910000  -9.7120000  45.3870000
  -1.8380000  -7.9870000  45.8650000  -6.2410000  -5.7770000  44.1110000
  -7.4060000  -6.1910000  44.3030000  -5.9390000  -4.4860000  44.1830000
  -4.9970000  -4.1660000  44.0840000  -7.0630000  -3.5310000  44.4170000
  -7.5570000  -3.8210000  45.3560000  -6.5220000  -2.1170000  44.5790000
  -5.8020000  -1.9230000  43.7700000  -7.3610000  -1.4100000  44.5000000
  -5.8100000  -1.8860000  45.9380000  -6.5630000  -1.9220000  46.7390000
  -5.0750000  -2.6900000  46.0900000  -5.0770000  -0.5310000  46.0140000
  -4.1680000  -0.2860000  45.1650000  -5.3850000   0.2570000  46.9490000
  -8.1220000  -3.5640000  43.3040000  -9.3140000  -3.3480000  43.5370000
  -7.6820000  -3.7490000  42.0630000  -6.7010000  -3.8320000  41.8890000
  -8.6250000  -3.8310000  40.9590000  -9.3450000  -3.0040000  41.0500000
  -7.8620000  -3.6780000  39.6020000  -7.0780000  -4.4470000  39.5510000
  -8.8140000  -3.8770000  38.4200000  -9.6210000  -3.1310000  38.4690000
  -8.2590000  -3.7550000  37.4780000  -9.2460000  -4.8880000  38.4630000
  -7.2020000  -2.3010000  39.5320000  -6.4980000  -2.1890000  40.3700000
  -6.6590000  -2.2030000  38.5810000  -7.9750000  -1.5210000  39.5950000
  -9.3930000  -5.1400000  41.0120000 -10.5860000  -5.1770000  40.7810000
  -8.7190000  -6.2500000  41.2950000  -7.7330000  -6.2020000  41.4550000
  -9.4080000  -7.5510000  41.3760000  -9.9250000  -7.7320000  40.4220000
  -8.3490000  -8.6880000  41.5690000  -7.6640000  -8.4080000  42.3820000
  -9.0580000  -9.9970000  41.9470000  -9.7630000 -10.2750000  41.1500000
  -8.3120000 -10.7950000  42.0720000  -9.6070000  -9.8580000  42.8900000
  -7.5520000  -8.8560000  40.2930000  -8.1770000  -9.3960000  39.5670000
  -7.3160000  -7.8550000  39.9010000  -6.2430000  -9.6230000  40.4580000
  -6.4550000 -10.6300000  40.8460000  -5.7400000  -9.7040000  39.4830000
  -5.5910000  -9.0880000  41.1640000 -10.4600000  -7.5110000  42.4690000
 -11.6130000  -8.0330000  42.3250000 -10.1280000  -6.8360000  43.5760000
  -9.2160000  -6.4330000  43.6490000 -11.0690000  -6.6770000  44.6760000
 -11.3100000  -7.6740000  45.0720000 -10.4590000  -5.8330000  45.8280000
  -9.4800000  -6.2570000  46.0970000 -10.3260000  -4.7990000  45.4760000
 -11.3500000  -5.8170000  47.0800000 -12.4170000  -5.2330000  47.0580000
 -11.0100000  -6.4930000  48.0680000 -12.3660000  -6.0300000  44.1590000
 -13.4570000  -6.4950000  44.4500000 -12.2280000  -4.9760000  43.3560000
 -11.3120000  -4.6700000  43.0980000 -13.3860000  -4.2660000  42.8510000
 -14.0420000  -4.0400000  43.7040000 -12.9660000  -2.9330000  42.2120000
 -12.1210000  -3.1230000  41.5340000 -13.8170000  -2.5400000  41.6360000
 -12.5410000  -1.8740000  43.2280000 -13.4410000  -1.4110000  43.6580000
 -11.9610000  -2.3590000  44.0270000 -11.6900000  -0.7930000  42.5900000
 -10.6920000  -1.2070000  42.3820000 -12.1630000  -0.4830000  41.6460000
 -11.5400000   0.3870000  43.4510000 -10.7220000   0.4160000  44.0770000
 -12.3770000   1.4220000  43.4870000 -13.4580000   1.4630000  42.6970000
 -13.6520000   0.6860000  42.0490000 -14.0950000   2.2710000  42.7380000
 -12.1050000   2.4420000  44.3000000 -11.2590000   2.4210000  44.8870000
 -12.7410000   3.2510000  44.3410000 -14.1720000  -5.1160000  41.8770000
 -15.3870000  -5.0520000  41.8350000 -13.4660000  -5.9050000  41.0680000
 -12.4670000  -5.8990000  41.1140000 -14.1420000  -6.7750000  40.1170000
 -14.7790000  -6.1560000  39.4680000 -13.1250000  -7.5570000  39.2260000
 -12.3730000  -8.0240000  39.8790000 -13.8650000  -8.6480000  38.4550000
 -14.6420000  -8.1900000  37.8260000 -13.1530000  -9.1940000  37.8190000
 -14.3320000  -9.3460000  39.1650000 -12.4050000  -6.6340000  38.2320000
 -13.0790000  -6.4410000  37.3840000 -12.1750000  -5.6860000  38.7400000
 -11.1000000  -7.2220000  37.6900000 -11.3110000  -8.1720000  37.1770000
 -10.6460000  -6.5150000  36.9800000 -10.4050000  -7.4020000  38.5230000
 -15.0160000  -7.7860000  40.8630000 -16.2280000  -7.9520000  40.6050000
 -14.4230000  -8.4790000  41.8220000 -13.4580000  -8.3260000  42.0370000
 -15.2140000  -9.4910000  42.5770000 -15.6740000 -10.1790000  41.8520000
 -14.2920000 -10.3160000  43.5050000 -13.7930000  -9.6260000  44.2010000
 -15.0800000 -11.3160000  44.3290000 -15.6160000 -12.0030000  43.6580000
 -14.3910000 -11.8890000  44.9670000 -15.8050000 -10.7810000  44.9600000
 -13.2240000 -11.0010000  42.6580000 -12.6400000 -10.2410000  42.1190000
 -12.5560000 -11.5830000  43.3100000 -13.7060000 -11.6740000  41.9340000
 -16.3280000  -8.8220000  43.3650000 -17.4490000  -9.3270000  43.4150000
 -16.0510000  -7.6610000  43.9660000 -15.1220000  -7.2960000  43.9070000
 -17.0640000  -6.9050000  44.7090000 -17.3670000  -7.4850000  45.5930000
 -16.4260000  -5.5700000  45.1830000 -15.5750000  -5.8200000  45.8330000
 -16.0620000  -5.0390000  44.2910000 -17.3110000  -4.6350000  45.9360000
 -16.7870000  -3.6000000  46.6880000 -15.7830000  -3.4180000  46.8310000
 -17.7750000  -2.8800000  47.1950000 -17.6650000  -1.9860000  47.8080000
 -18.9160000  -3.4330000  46.8290000 -18.6630000  -4.5290000  46.0440000
 -19.4030000  -5.1880000  45.5930000 -18.2950000  -6.6710000  43.8480000
 -19.4140000  -6.9150000  44.2850000 -18.1170000  -6.1710000  42.6330000
 -17.1920000  -5.9480000  42.3240000 -19.2520000  -5.9400000  41.7340000
 -19.9310000  -5.2210000  42.2160000 -18.7460000  -5.3340000  40.4150000
 -19.5980000  -5.1610000  39.7410000 -18.2410000  -4.3790000  40.6200000
 -18.0380000  -6.0290000  39.9400000 -20.0390000  -7.2170000  41.4480000
 -21.2320000  -7.2380000  41.5850000 -19.3540000  -8.3050000  41.0900000
 -18.3560000  -8.2630000  41.0410000 -20.0460000  -9.5720000  40.7650000
 -20.7900000  -9.3730000  39.9800000 -19.0490000 -10.6160000  40.2420000
 -18.2610000 -10.7590000  40.9960000 -19.7570000 -11.9400000  40.0270000
 -20.5720000 -11.8060000  39.3000000 -19.0400000 -12.6810000  39.6430000
 -20.1720000 -12.2930000  40.9820000 -18.4020000 -10.1290000  38.9590000
 -17.8760000  -9.1820000  39.1500000 -17.6840000 -10.8820000  38.6020000
 -19.1770000  -9.9700000  38.1950000 -20.7710000 -10.1130000  42.0020000
 -21.9600000 -10.5470000  41.9140000 -20.1760000  -9.9080000  43.1850000
 -19.2880000  -9.4500000  43.2220000 -20.8310000 -10.3590000  44.4480000
 -21.0290000 -11.4380000  44.3650000 -19.8870000 -10.1090000  45.6500000
 -20.2120000 -10.7410000  46.4900000 -18.8640000 -10.3870000  45.3570000
 -19.8840000  -8.7500000  46.0780000 -19.2920000  -8.6510000  46.8140000
 -22.1480000  -9.6460000  44.7220000 -22.9590000 -10.0700000  45.5280000
 -22.3410000  -8.5190000  44.0860000 -21.6270000  -8.1670000  43.4810000
 -23.5910000  -7.7630000  44.2480000 -24.2070000  -8.2990000  44.9850000
 -23.2900000  -6.3760000  44.8040000 -22.5420000  -5.8900000  44.1600000
 -24.2170000  -5.7840000  44.8010000 -22.7480000  -6.4350000  46.2310000
 -23.5110000  -6.8870000  46.8810000 -21.8420000  -7.0590000  46.2400000
 -22.3400000  -4.8280000  46.8620000 -24.0210000  -4.4100000  47.2350000
 -24.4300000  -5.1390000  47.9500000 -24.0590000  -3.4030000  47.6760000
 -24.6170000  -4.4280000  46.3110000 -24.4060000  -7.6580000  42.9690000
 -25.2380000  -6.7460000  42.8100000 -24.1590000  -8.5810000  42.0700000
 -23.3800000  -9.1920000  42.2090000 -24.9790000  -8.7490000  40.8740000
 -26.0280000  -8.5800000  41.1600000 -24.8570000  -9.7860000  40.5270000
 -24.6680000  -7.8430000  39.7240000 -25.5320000  -7.5970000  38.8800000
 -23.4560000  -7.2860000  39.7250000 -22.8000000  -7.5500000  40.4320000
 -23.0570000  -6.2950000  38.7160000 -22.8620000  -5.3410000  39.2280000
 -23.8900000  -6.1680000  38.0090000 -21.8100000  -6.6770000  37.9230000
 -21.0620000  -7.5530000  38.3180000 -21.6350000  -6.0020000  36.7840000
 -22.3680000  -5.3860000  36.4950000 -20.4770000  -6.0930000  35.9450000
 -20.0460000  -7.1020000  36.0210000 -20.8750000  -5.7960000  34.4960000
 -21.5120000  -4.9000000  34.4880000 -19.9600000  -5.6000000  33.9180000
 -21.6400000  -6.9390000  33.8170000 -22.3690000  -7.7060000  34.4530000
 -21.4620000  -7.0510000  32.4990000 -20.8610000  -6.4120000  32.0200000
 -21.9300000  -7.7740000  31.9910000 -19.4430000  -5.0550000  36.3540000
 -19.8000000  -4.0190000  36.9430000 -18.1740000  -5.3250000  36.0320000
 -17.9620000  -6.2220000  35.6440000 -17.0890000  -4.3780000  36.2180000
 -17.5300000  -3.4030000  36.4720000 -16.1360000  -4.7990000  37.3600000
 -16.7180000  -4.8300000  38.2930000 -15.7570000  -5.8060000  37.1310000
 -14.9280000  -3.8810000  37.5880000 -14.3720000  -4.2770000  38.4510000
 -14.2970000  -3.9380000  36.6890000 -15.2540000  -2.1350000  37.9100000
 -16.0140000  -2.3490000  39.4800000 -15.3070000  -2.8400000  40.1660000
 -16.2980000  -1.3670000  39.8870000 -16.9120000  -2.9740000  39.3700000
 -16.2670000  -4.2280000  34.9430000 -15.8760000  -5.2270000  34.3320000
 -15.9390000  -2.9780000  34.6190000 -16.2450000  -2.2400000  35.2210000
 -15.1640000  -2.6230000  33.4440000 -14.8230000  -3.5410000  32.9440000
 -16.0560000  -1.8190000  32.4790000 -16.2740000  -0.8420000  32.9340000
 -15.3390000  -1.5990000  31.1630000 -15.0930000  -2.5720000  30.7120000
 -15.9900000  -1.0330000  30.4810000 -14.4130000  -1.0320000  31.3400000
 -17.3730000  -2.5480000  32.2220000 -17.9050000  -2.6900000  33.1740000
 -17.9960000  -1.9510000  31.5400000 -17.1670000  -3.5280000  31.7670000
 -13.9420000  -1.7870000  33.8440000 -14.0770000  -0.7510000  34.5200000
 -12.7660000  -2.2970000  33.5040000 -12.7530000  -3.1510000  32.9840000
 -11.4850000  -1.6760000  33.8490000 -11.6140000  -1.0440000  34.7400000
 -10.3950000  -2.7410000  34.1310000 -10.2540000  -3.3450000  33.2220000
  -9.0870000  -2.0570000  34.4680000  -9.2240000  -1.4200000  35.3540000
  -8.3190000  -2.8160000  34.6770000  -8.7670000  -1.4370000  33.6170000
 -10.8040000  -3.6620000  35.2570000 -11.7420000  -4.1720000  34.9920000
 -10.0150000  -4.4100000  35.4240000 -10.9530000  -3.0750000  36.1750000
 -11.0350000  -0.8180000  32.6580000 -10.8620000  -1.3410000  31.5490000
 -10.8260000   0.4700000  32.9000000 -10.9510000   0.8180000  33.8290000
 -10.4130000   1.4010000  31.8320000 -10.9810000   1.1240000  30.9320000
 -10.7560000   2.8230000  32.2050000 -11.8300000   2.8840000  32.4340000
 -10.1750000   3.1100000  33.0940000 -10.4390000   3.7760000  31.0830000
 -11.1310000   3.7720000  30.0590000  -9.3390000   4.5500000  31.2100000
  -8.7680000   4.4780000  32.0280000  -9.0950000   5.1950000  30.4860000
  -8.9360000   1.3950000  31.4640000  -8.0670000   1.3050000  32.3460000
  -8.6780000   1.5910000  30.1640000  -9.4600000   1.6250000  29.5410000
  -7.3550000   1.7580000  29.5840000  -6.6060000   1.8670000  30.3830000
  -7.0190000   0.5120000  28.7140000  -7.8370000   0.3560000  27.9950000
  -6.0840000   0.7070000  28.1690000  -6.8480000  -0.7380000  29.5210000
  -7.9460000  -1.4670000  29.9200000  -8.9410000  -1.1570000  29.6220000
  -7.7740000  -2.6190000  30.7180000  -8.6370000  -3.2000000  31.0230000
  -6.5030000  -3.0070000  31.1110000  -6.3760000  -3.8810000  31.7390000
  -5.4070000  -2.2920000  30.7100000  -4.4110000  -2.6050000  31.0020000
  -5.5870000  -1.1530000  29.9190000  -4.7200000  -0.5810000  29.6100000
  -7.3610000   3.0040000  28.7060000  -8.3240000   3.1930000  27.9740000
  -6.2960000   3.8080000  28.7640000  -5.5720000   3.5870000  29.4180000
  -6.1280000   5.0040000  27.9180000  -6.0000000   5.8870000  28.5610000
  -7.0230000   5.1330000  27.2920000  -4.9300000   4.8580000  27.0390000
  -3.8140000   5.2150000  27.4210000  -5.1090000   4.2490000  25.8580000
  -6.3740000   3.7540000  25.2900000  -6.9830000   4.5820000  24.8990000
  -6.9530000   3.1960000  26.0400000  -5.9170000   2.8550000  24.1850000
  -6.6310000   2.8890000  23.3490000  -5.8290000   1.8210000  24.5490000
  -4.6020000   3.3540000  23.7510000  -4.7210000   4.1090000  22.9600000
  -3.9820000   2.5260000  23.3770000  -3.9610000   3.9810000  24.9950000
  -3.2820000   3.2660000  25.4830000  -3.1580000   5.2380000  24.6190000
  -3.6870000   6.3480000  24.5230000  -1.8740000   5.0310000  24.4380000
  -1.5050000   4.1190000  24.6180000  -0.9870000   6.0520000  23.9960000
  -1.0470000   6.8970000  24.6970000   0.4680000   5.4960000  23.9880000
   0.5060000   4.6300000  23.3110000   1.1390000   6.2830000  23.6140000
   0.9640000   5.0520000  25.3710000   0.9690000   5.9310000  26.0320000
   0.2610000   4.3020000  25.7630000   2.3620000   4.4430000  25.3790000
   2.9510000   4.2690000  26.4450000   2.8640000   4.0660000  24.2250000
   2.3320000   4.1830000  23.3860000   3.7780000   3.6620000  24.1850000
  -1.3360000   6.5460000  22.6190000  -1.9690000   5.8560000  21.8180000
  -0.8770000   7.7490000  22.3190000  -0.4050000   8.2810000  23.0220000
  -1.0450000   8.3250000  20.9720000  -2.1240000   8.4640000  20.8090000
  -0.3840000   9.6910000  20.8870000  -0.5210000  10.1020000  19.8760000
  -0.8430000  10.3670000  21.6230000   0.6910000   9.5920000  21.1000000
  -0.5320000   7.4100000  19.8600000  -1.0840000   7.4060000  18.7850000
   0.5710000   6.6960000  20.1150000   0.9810000   6.7410000  21.0260000
   1.1740000   5.8750000  19.1240000   1.1260000   6.4520000  18.1890000
   2.6910000   5.6330000  19.4160000   3.1350000   5.1250000  18.5480000
   3.1780000   6.6090000  19.5580000   2.9520000   4.7690000  20.6750000
   2.0160000   4.2650000  21.3950000   4.1510000   4.5700000  20.9250000
   0.4400000   4.5660000  18.8430000   0.8430000   3.8320000  17.9440000
  -0.5920000   4.2560000  19.6320000  -0.8460000   4.8830000  20.3690000
  -1.3480000   3.0450000  19.4510000  -1.2890000   2.7690000  18.3880000
  -2.3940000   3.2610000  19.7160000  -0.9030000   1.8420000  20.2660000
  -1.4240000   0.7460000  20.0730000   0.0750000   2.0340000  21.1450000
   0.5550000   2.9110000  21.1570000   0.4630000   1.0050000  22.0850000
   0.0290000   0.0420000  21.7770000   1.9880000   0.8830000  22.0930000
   2.3540000   1.0010000  21.0630000   2.4000000   1.6850000  22.7230000
   2.4780000  -0.4630000  22.6340000   1.6710000  -1.3710000  23.0060000
   3.7070000  -0.5670000  22.7500000  -0.0880000   1.3840000  23.4860000
  -0.6250000   2.4830000  23.6570000  -0.0070000   0.4340000  24.4190000
   0.3160000  -0.4710000  24.1420000  -0.3600000   0.6360000  25.8130000
  -1.0150000   1.5180000  25.8710000  -1.1220000  -0.5700000  26.3650000
  -0.5050000  -1.4690000  26.2170000  -1.2900000  -0.4130000  27.4410000
  -2.4550000  -0.7930000  25.7030000  -2.5210000  -1.4200000  24.4570000
  -1.6150000  -1.7920000  23.9930000  -3.7410000  -1.5700000  23.8080000
  -3.7830000  -2.0260000  22.8250000  -4.9060000  -1.1330000  24.4240000
  -5.8600000  -1.2460000  23.9210000  -4.8510000  -0.5500000  25.6850000
  -5.7640000  -0.2520000  26.1880000  -3.6290000  -0.3530000  26.2930000
  -3.5860000   0.1550000  27.2500000   0.8670000   0.8940000  26.6850000
   1.9120000   0.2700000  26.5070000   0.7190000   1.7920000  27.6620000
  -0.1500000   2.2820000  27.7360000   1.7740000   2.0870000  28.6250000
   2.6850000   2.3710000  28.0780000   1.3380000   3.2470000  29.4700000
   2.2170000   3.6350000  30.0050000   0.9390000   4.0280000  28.8060000
   0.2770000   2.9010000  30.4880000  -0.4510000   2.2200000  30.0220000
   0.7570000   2.3970000  31.3400000  -0.4520000   4.1130000  30.9930000
  -1.0060000   4.5680000  30.1590000  -1.1590000   3.8020000  31.7770000
   0.4610000   5.1040000  31.5480000   1.3490000   4.7650000  31.9440000
   0.2320000   6.4190000  31.5810000  -0.9150000   6.9160000  31.1690000
  -1.6510000   6.2880000  30.8150000  -1.0770000   7.9330000  31.2010000
   1.1330000   7.2440000  32.1060000   2.0120000   6.8690000  32.4900000
   0.9510000   8.2580000  32.1290000   2.0970000   0.8440000  29.4910000
   1.2560000  -0.0540000  29.6260000   3.3440000   0.7660000  30.0100000
   4.3760000   1.8190000  29.9160000   4.1410000   2.6600000  30.5860000
   4.4680000   2.1870000  28.8840000   5.6270000   1.1280000  30.3480000
   6.2610000   1.8210000  30.9210000   6.1810000   0.7680000  29.4680000
   5.2280000  -0.0170000  31.2000000   5.2340000   0.2760000  32.2600000
   5.9150000  -0.8620000  31.0490000   3.8100000  -0.4000000  30.7620000
   3.8350000  -1.2840000  30.1080000   2.9390000  -0.7100000  31.9700000
   2.6990000  -1.8770000  32.2350000   2.4060000   0.3090000  32.6410000
   2.5760000   1.2470000  32.3370000   1.5700000   0.0650000  33.8250000
   2.1500000  -0.5630000  34.5170000   1.1520000   1.3420000  34.5750000
   0.5330000   1.9430000  33.8930000   0.5510000   1.0380000  35.4450000
   2.3000000   2.2430000  35.0870000   1.9450000   2.7900000  35.9730000
   3.1480000   1.6010000  35.3680000   2.7860000   3.2640000  34.0470000
   2.5520000   3.1330000  32.8120000   3.4650000   4.2300000  34.4350000
   0.2860000  -0.6880000  33.4280000  -0.2260000  -1.5150000  34.1900000
  -0.2650000  -0.3490000  32.2660000   0.1690000   0.3570000  31.7070000
  -1.5000000  -0.9900000  31.7840000  -2.2000000  -1.0640000  32.6290000
  -2.1480000  -0.1400000  30.6950000  -1.3570000   0.2730000  30.0520000
  -2.8110000  -0.7800000  30.0950000  -2.9630000   1.0080000  31.2640000
  -3.7990000   0.5850000  31.8400000  -2.3150000   1.5930000  31.9340000
  -3.5300000   1.9410000  30.2200000  -3.2660000   1.6910000  28.9970000
  -4.2140000   2.9290000  30.6190000  -1.2280000  -2.4170000  31.2590000
  -2.0480000  -3.3070000  31.4710000  -0.0850000  -2.6270000  30.6020000
   0.5280000  -1.8670000  30.3850000   0.2530000  -4.0080000  30.2030000
  -0.5780000  -4.4080000  29.6040000   1.5080000  -4.0410000  29.3480000
   2.3050000  -3.4950000  29.8740000   1.8110000  -5.0890000  29.2110000
   1.3130000  -3.4200000  27.9990000   0.4840000  -3.9310000  27.4880000
   1.0640000  -2.3560000  28.1290000   2.5620000  -3.5320000  27.1440000
   3.3710000  -2.9350000  27.5910000   2.8740000  -4.5850000  27.0820000
   2.2530000  -3.0100000  25.7530000   1.4440000  -3.6230000  25.3300000
   1.9130000  -1.9680000  25.8470000   3.3930000  -3.0380000  24.8100000
   3.7200000  -3.9860000  24.7060000   3.0970000  -2.6850000  23.9140000
   4.1390000  -2.4630000  25.1680000   0.4140000  -4.8800000  31.4450000
  -0.0040000  -6.0340000  31.4280000   1.0260000  -4.3260000  32.5110000
   1.3390000  -3.3780000  32.4580000   1.2430000  -5.0910000  33.7560000
   1.7390000  -6.0360000  33.4890000   2.1490000  -4.3490000  34.7430000
   2.2790000  -4.9580000  35.6500000   3.1300000  -4.1700000  34.2780000
   1.6890000  -3.3860000  35.0100000  -0.0570000  -5.4130000  34.3900000
  -0.2600000  -6.5430000  34.8420000  -0.9710000  -4.4370000  34.4280000
  -0.7450000  -3.5360000  34.0580000  -2.2730000  -4.6640000  34.9930000
  -2.1340000  -4.9820000  36.0370000  -3.0910000  -3.3630000  34.9790000
  -2.5700000  -2.6270000  35.6090000  -3.1300000  -2.9970000  33.9430000
  -4.5180000  -3.4910000  35.4870000  -5.0530000  -2.5530000  35.2790000
  -5.0100000  -4.3190000  34.9560000  -4.5850000  -3.8190000  37.2720000
  -3.8590000  -2.3190000  37.9950000  -4.4530000  -1.4430000  37.6960000
  -3.8580000  -2.4040000  39.0920000  -2.8260000  -2.2020000  37.6350000
  -3.0640000  -5.7400000  34.2760000  -3.7030000  -6.5820000  34.9080000
  -3.1240000  -5.6500000  32.9640000  -2.6470000  -4.9030000  32.5010000
  -3.8700000  -6.6160000  32.1750000  -4.9200000  -6.6040000  32.5030000
  -3.8110000  -6.2260000  30.6930000  -4.3760000  -6.9590000  30.0980000
  -4.2510000  -5.2270000  30.5590000  -2.7630000  -6.2130000  30.3590000
  -3.3120000  -8.0320000  32.3770000  -4.0310000  -8.9790000  32.5240000
  -2.0010000  -8.1570000  32.4410000  -1.4320000  -7.3380000  32.3660000
  -1.3530000  -9.4530000  32.6180000  -1.7710000 -10.1490000  31.8760000
   0.1710000  -9.2990000  32.3420000   0.5800000  -8.4950000  32.9720000
   0.9110000 -10.6000000  32.6400000   0.2020000 -11.4410000  32.6080000
   1.6980000 -10.7550000  31.8870000   1.3660000 -10.5420000  33.6400000
   0.3400000  -8.9680000  30.9560000   1.2650000  -8.8690000  30.7650000
  -1.6040000 -10.0390000  33.9910000  -1.9440000 -11.2020000  34.1270000
  -1.5750000  -9.2040000  35.0130000  -1.3490000  -8.2430000  34.8500000
  -1.8680000  -9.6520000  36.3960000  -1.2330000 -10.5260000  36.6010000
  -1.5210000  -8.5690000  37.4000000  -1.7470000  -8.9250000  38.4160000
  -0.4500000  -8.3290000  37.3250000  -2.1140000  -7.6680000  37.1870000
  -3.2800000 -10.0650000  36.5870000  -3.5670000 -11.0890000  37.1940000
  -4.2040000  -9.2680000  36.0500000  -3.9310000  -8.4100000  35.6160000
  -5.6080000  -9.6440000  36.0940000  -5.8730000  -9.7950000  37.1510000
  -6.5400000  -8.5200000  35.5460000  -6.1570000  -8.2070000  34.5640000
  -7.9500000  -9.0170000  35.3470000  -8.3510000  -9.3760000  36.3060000
  -8.5780000  -8.1960000  34.9710000  -7.9490000  -9.8420000  34.6190000
  -6.4820000  -7.2880000  36.5010000  -6.9150000  -7.5810000  37.4690000
  -5.4270000  -7.0090000  36.6410000  -7.2310000  -6.0720000  35.9950000
  -8.2910000  -6.3280000  35.8510000  -7.1470000  -5.2580000  36.7300000
  -6.7980000  -5.7470000  35.0370000  -5.8330000 -10.9680000  35.3760000
  -6.5800000 -11.8650000  35.8640000  -5.2540000 -11.0970000  34.2030000
  -4.6870000 -10.3580000  33.8390000  -5.4430000 -12.3300000  33.4300000
  -4.8850000 -12.2330000  32.4870000  -6.5160000 -12.4380000  33.2120000
  -4.9690000 -13.6030000  34.1380000  -5.5850000 -14.6760000  34.0190000
  -3.8200000 -13.5020000  34.7720000  -3.3230000 -12.6350000  34.7530000
  -3.2600000 -14.6330000  35.5010000  -3.1610000 -15.4810000  34.8070000
  -1.8950000 -14.3060000  36.0640000  -1.9110000 -13.2770000  36.4530000
  -1.6760000 -15.0050000  36.8850000  -0.8100000 -14.4140000  35.0400000
  -0.7690000 -15.4500000  34.6720000  -1.0400000 -13.7370000  34.2040000
   0.5570000 -14.0390000  35.6210000   0.4560000 -13.1070000  36.1970000
   0.8960000 -14.8470000  36.2860000   1.5990000 -13.8320000  34.5220000
   1.9880000 -14.8030000  34.1830000   1.1490000 -13.3000000  33.6710000
   2.7020000 -13.0150000  35.1110000   3.0970000 -13.5030000  35.8990000
   3.4170000 -12.8640000  34.4160000   2.3360000 -12.1260000  35.4150000
  -4.1850000 -15.0310000  36.6390000  -4.4490000 -16.2290000  36.8370000
  -4.7080000 -14.0420000  37.3660000  -4.4300000 -13.0990000  37.1850000
  -5.7000000 -14.3200000  38.4450000  -5.2560000 -15.0720000  39.1140000
  -5.9990000 -13.0540000  39.2770000  -5.0470000 -12.5450000  39.4870000
  -6.6450000 -12.3930000  38.6810000  -6.6880000 -13.3330000  40.5910000
  -6.0850000 -13.6350000  41.7960000  -5.0090000 -13.6740000  41.9600000
  -7.0220000 -13.8770000  42.7480000  -6.8300000 -14.1370000  43.7260000
  -8.2680000 -13.7190000  42.1940000  -9.5040000 -13.8970000  42.7490000
  -9.6170000 -14.2040000  43.7820000 -10.5890000 -13.6740000  41.9560000
 -11.5800000 -13.7540000  42.3880000 -10.4620000 -13.3400000  40.5810000
 -11.3500000 -13.1730000  39.9820000  -9.2270000 -13.2290000  40.0110000
  -9.1230000 -13.0000000  38.9560000  -8.0940000 -13.4170000  40.8190000
  -7.0030000 -14.8810000  37.9140000  -7.5460000 -15.8910000  38.4450000
  -7.5110000 -14.2940000  36.8370000  -7.0330000 -13.5220000  36.4180000
  -8.7790000 -14.7780000  36.2560000  -9.5300000 -14.7930000  37.0590000
  -9.2790000 -13.8390000  35.1540000  -8.4500000 -13.6540000  34.4550000
 -10.1030000 -14.3370000  34.6220000  -9.7880000 -12.4810000  35.6720000
  -8.9570000 -11.9880000  36.1980000 -10.0810000 -11.8760000  34.8010000
 -11.1910000 -12.5460000  36.7950000 -12.4080000 -13.1770000  35.6640000
 -12.0770000 -14.1510000  35.2740000 -13.3670000 -13.2990000  36.1880000
 -12.5330000 -12.4720000  34.8290000  -8.6480000 -16.2170000  35.6980000
  -9.5750000 -16.9780000  35.7450000  -7.5090000 -16.5520000  35.1580000
  -6.7700000 -15.8800000  35.1030000  -7.3020000 -17.9060000  34.6310000
  -8.0860000 -18.1250000  33.8910000  -5.9460000 -17.9950000  33.9490000
  -5.8910000 -17.2240000  33.1670000  -5.1600000 -17.8150000  34.6970000
  -5.7160000 -19.3510000  33.3150000  -6.4660000 -19.7730000  32.4730000
  -4.7190000 -20.0470000  33.7720000  -4.1480000 -19.6800000  34.5070000
  -4.5220000 -20.9500000  33.3890000  -7.4000000 -18.9290000  35.7740000
  -7.9100000 -20.0170000  35.5810000  -6.9540000 -18.5550000  36.9740000
  -6.5470000 -17.6470000  37.0740000  -7.0380000 -19.4210000  38.1480000
  -6.7880000 -20.4430000  37.8260000  -6.0670000 -18.9860000  39.2260000
  -6.0080000 -17.8880000  39.2180000  -6.4520000 -19.3260000  40.1990000
  -4.6910000 -19.5330000  39.0470000  -4.7620000 -20.6180000  38.8810000
  -4.2340000 -19.0570000  38.1670000  -3.7950000 -19.2790000  40.2650000
  -3.8180000 -18.2150000  40.5450000  -4.1230000 -19.8900000  41.1190000
  -2.4690000 -19.6630000  39.8500000  -2.4050000 -20.3580000  39.0930000
  -1.3240000 -19.2130000  40.3430000  -1.2990000 -18.3100000  41.2980000
  -2.1810000 -17.9380000  41.6780000  -0.3970000 -17.9750000  41.6660000
  -0.1820000 -19.6710000  39.8490000  -0.1920000 -20.3680000  39.0910000
   0.7150000 -19.3290000  40.2230000  -8.3760000 -19.4400000  38.7960000
  -8.8600000 -20.5120000  39.2110000  -8.9800000 -18.2620000  38.9310000
  -8.6480000 -17.4780000  38.4060000 -10.1120000 -18.0930000  39.8260000
 -10.3140000 -19.0700000  40.2900000  -9.7180000 -17.1010000  40.9450000
 -10.5750000 -16.9760000  41.6230000  -9.4700000 -16.1330000  40.4860000
  -8.5160000 -17.5780000  41.7600000  -8.6180000 -18.6590000  42.6560000
  -9.5610000 -19.1850000  42.7520000  -7.5190000 -19.0660000  43.4260000
  -7.6050000 -19.9240000  44.0830000  -6.3470000 -18.3850000  43.3480000
  -5.2580000 -18.7570000  44.1030000  -5.4810000 -19.5180000  44.6270000
  -6.2440000 -17.2910000  42.5030000  -5.3070000 -16.7500000  42.4360000
  -7.3270000 -16.8820000  41.7430000  -7.2380000 -15.9970000  41.1230000
 -11.3780000 -17.6580000  39.1460000 -12.3830000 -17.4100000  39.7950000
 -11.3590000 -17.5830000  37.8340000 -10.5690000 -17.9240000  37.3240000
 -12.4770000 -17.0090000  37.1320000 -12.1780000 -16.8780000  36.0820000
 -12.6810000 -16.0250000  37.5800000 -13.7510000 -17.7820000  37.1440000
 -14.8000000 -17.2240000  36.8070000 -13.7430000 -19.0430000  37.5780000
 -12.8810000 -19.5090000  37.7750000 -15.0330000 -19.7360000  37.7610000
 -15.5650000 -19.6840000  36.8000000 -14.8910000 -21.2350000  38.1390000
 -14.0550000 -21.3350000  38.8460000 -15.8230000 -21.5580000  38.6250000
 -14.6270000 -22.1540000  36.9530000 -15.4260000 -22.0130000  36.2100000
 -13.6590000 -21.8860000  36.5050000 -14.5900000 -23.6240000  37.3640000
 -14.5220000 -23.6870000  38.4600000 -15.5150000 -24.1130000  37.0260000
 -13.3970000 -24.3460000  36.7520000 -13.5520000 -25.4330000  36.8130000
 -13.2860000 -24.0500000  35.6980000 -12.1570000 -23.9670000  37.5180000
 -12.2660000 -24.2290000  38.4850000 -11.3610000 -24.4470000  37.1280000
 -12.0140000 -22.9710000  37.4540000 -15.8810000 -19.0590000  38.7990000
 -17.0640000 -19.2590000  38.7820000 -15.2860000 -18.2500000  39.6950000
 -14.2910000 -18.1560000  39.6750000 -16.0630000 -17.4880000  40.7190000
 -16.9790000 -18.0590000  40.9290000 -15.2580000 -17.3850000  42.0150000
 -15.8370000 -16.8230000  42.7630000 -15.0480000 -18.3950000  42.3970000
 -14.3100000 -16.8630000  41.8170000 -16.4880000 -16.0980000  40.2580000
 -17.1310000 -15.3610000  41.0130000 -16.1530000 -15.7450000  38.9990000
 -15.6390000 -16.3930000  38.4370000 -16.5130000 -14.4600000  38.4340000
 -17.0060000 -13.8720000  39.2220000 -15.2410000 -13.7190000  37.9960000
 -14.7030000 -14.3390000  37.2630000 -15.6050000 -12.3830000  37.3490000
 -16.1610000 -11.7660000  38.0700000 -14.6860000 -11.8580000  37.0490000
 -16.2300000 -12.5630000  36.4620000 -14.3380000 -13.4680000  39.1890000
 -14.0630000 -14.4280000  39.6490000 -13.4280000 -12.9460000  38.8570000
 -14.8680000 -12.8470000  39.9260000 -17.4850000 -14.5700000  37.2540000
 -18.6210000 -14.0640000  37.2840000 -17.0520000 -15.2550000  36.2080000
 -16.1470000 -15.6790000  36.2400000 -17.8760000 -15.4040000  35.0010000
 -18.1090000 -14.4010000  34.6130000 -17.1250000 -16.1870000  33.9210000
 -17.7470000 -16.2110000  33.0140000 -16.9660000 -17.2130000  34.2840000
 -15.7660000 -15.5880000  33.5580000 -15.6500000 -14.2700000  33.0380000
 -16.5390000 -13.6740000  32.8670000 -14.3840000 -13.7410000  32.7460000
 -14.2870000 -12.7150000  32.4100000 -13.2710000 -14.5270000  32.8870000
 -12.0300000 -14.0290000  32.5790000 -12.1180000 -13.1450000  32.2430000
 -13.3740000 -15.8190000  33.4010000 -12.4850000 -16.4220000  33.5490000
 -14.6260000 -16.3250000  33.7210000 -14.7020000 -17.3330000  34.1110000
 -19.1610000 -16.1090000  35.3170000 -19.1480000 -17.1150000  36.0250000
 -20.2650000 -15.5520000  34.8140000 -20.1930000 -14.6750000  34.3380000
 -21.5760000 -16.1870000  34.9390000 -22.3120000 -15.5450000  34.4330000
 -21.5780000 -17.5560000  34.2400000 -22.5700000 -18.0190000  34.3440000
 -21.3450000 -17.4230000  33.1730000 -20.8200000 -18.2050000  34.7030000
 -22.0030000 -16.3210000  36.4200000 -22.7970000 -17.1790000  36.7530000
 -21.4590000 -15.4720000  37.3010000 -20.8230000 -14.7700000  36.9790000
 -21.7770000 -15.5530000  38.7200000 -22.3730000 -16.4640000  38.8790000
 -20.5310000 -15.6700000  39.5850000 -19.8240000 -14.8850000  39.2790000
 -20.8230000 -15.5120000  40.6340000 -19.6910000 -17.2690000  39.4650000
 -18.8800000 -17.2680000  40.0640000 -22.6220000 -14.3730000  39.1170000
 -22.8470000 -13.4220000  38.3430000 -23.1110000 -14.4100000  40.3570000
 -22.8120000 -15.1230000  40.9920000 -24.0720000 -13.4210000  40.7830000
 -23.7840000 -12.4280000  40.4090000 -25.4200000 -13.8280000  40.1990000
 -25.2440000 -14.3110000  39.2260000 -25.8910000 -14.5470000  40.8850000
 -26.3880000 -12.6590000  39.9880000 -26.3510000 -11.5940000  40.6510000
 -27.2200000 -12.8210000  39.0700000 -24.1440000 -13.3880000  42.3350000
 -23.3740000 -14.0560000  43.0290000 -25.0460000 -12.5830000  42.8320000
 -25.6460000 -12.1000000  42.1950000 -25.2320000 -12.3440000  44.2710000
 -24.2860000 -11.9930000  44.7090000 -26.3070000 -11.2690000  44.4690000
 -27.1840000 -11.5500000  43.8670000 -25.9030000 -10.3130000  44.1040000
 -26.7700000 -11.0650000  45.9080000 -25.9100000 -10.5590000  46.8840000
 -24.8900000 -10.3130000  46.6130000 -26.3310000 -10.3620000  48.1980000
 -25.6430000  -9.9720000  48.9400000 -27.6300000 -10.6670000  48.5460000
 -28.0440000 -10.4600000  49.8280000 -27.3170000 -10.1370000  50.3470000
 -28.5290000 -11.1440000  47.5870000 -29.5560000 -11.3620000  47.8560000
 -28.0820000 -11.3360000  46.2750000 -28.7760000 -11.7050000  45.5280000
 -25.6400000 -13.6350000  44.9420000 -26.5290000 -14.3220000  44.4400000
 -24.9950000 -13.9720000  46.0640000 -24.3290000 -13.3400000  46.4600000
 -25.2510000 -15.2440000  46.7130000 -25.6030000 -15.9310000  45.9290000
 -23.9380000 -15.8010000  47.2610000 -24.1270000 -16.7660000  47.7540000
 -23.2270000 -15.9450000  46.4340000 -23.5150000 -15.0930000  47.9890000
 -26.3380000 -15.2400000  47.8040000 -26.7350000 -16.3140000  48.2730000
 -26.7600000 -14.0700000  48.2760000 -26.3900000 -13.2320000  47.8740000
 -27.7460000 -13.9510000  49.3630000 -28.5710000 -14.6460000  49.1480000
 -28.1260000 -12.9190000  49.3630000 -27.2210000 -14.2620000  50.7750000
 -27.9960000 -14.4980000  51.6860000 -25.9060000 -14.2640000  50.9710000
 -25.3030000 -14.0950000  50.1910000 -25.3040000 -14.5060000  52.2940000
 -26.0350000 -15.0300000  52.9270000 -24.0430000 -15.3580000  52.1590000
 -23.5070000 -15.0330000  51.2550000 -23.4140000 -15.1780000  53.0430000
 -24.2820000 -16.8370000  52.0510000 -25.1760000 -17.3670000  51.1230000
 -25.7610000 -16.6980000  50.5020000 -25.3280000 -18.7320000  50.9830000
 -26.0510000 -19.1270000  50.2780000 -24.5570000 -19.5970000  51.7430000
 -24.6780000 -20.6690000  51.6380000 -23.6300000 -19.0850000  52.6380000
 -23.0150000 -19.7530000  53.2310000 -23.4970000 -17.7110000  52.7680000
 -22.7550000 -17.3150000  53.4520000 -24.9040000 -13.1780000  52.9670000
 -24.5810000 -12.1610000  52.2980000 -24.9230000 -13.1900000  54.2840000
 -25.2620000 -14.0000000  54.7630000 -24.4670000 -12.0640000  55.0400000
 -25.0210000 -11.1720000  54.7120000 -24.7120000 -12.2660000  56.5410000
 -25.7960000 -12.3280000  56.7190000 -24.2340000 -13.2060000  56.8560000
 -24.1430000 -11.1250000  57.3680000 -23.0540000 -11.2590000  57.4460000
 -24.3600000 -10.1780000  56.8530000 -24.7200000 -11.0570000  58.7610000
 -23.9580000 -11.3570000  59.6880000 -25.9370000 -10.7320000  58.9180000
 -22.9830000 -11.8470000  54.7780000 -22.1860000 -12.7810000  54.7890000
 -22.6370000 -10.6060000  54.5090000 -23.3490000  -9.9040000  54.4920000
 -21.2490000 -10.2060000  54.2320000 -20.8890000 -10.7620000  53.3540000
 -21.2130000  -8.7060000  53.9300000 -21.8500000  -8.5230000  53.0520000
 -21.6260000  -8.1760000  54.8010000 -19.8070000  -8.1110000  53.6320000
 -19.8700000  -7.0130000  53.6320000 -19.1020000  -8.4380000  54.4100000
 -19.3080000  -8.5900000  52.2620000 -19.0590000  -9.6600000  52.3220000
 -20.1020000  -8.4400000  51.5160000 -18.0750000  -7.8160000  51.8380000
 -17.8410000  -8.0830000  50.7970000 -18.3040000  -6.7420000  51.8980000
 -16.8780000  -8.0820000  52.6650000 -16.6500000  -9.0630000  52.6210000
 -16.1020000  -7.5410000  52.3170000 -17.0660000  -7.8230000  53.6210000
 -20.3270000 -10.5050000  55.4130000 -20.6230000 -10.1130000  56.5460000
 -19.1670000 -11.0960000  55.1150000 -19.0230000 -11.4000000  54.1730000
 -18.1000000 -11.3250000  56.0780000 -18.4440000 -10.9730000  57.0620000
 -17.8150000 -12.8070000  56.1660000 -17.4410000 -13.1490000  55.1900000
 -17.0420000 -12.9690000  56.9320000 -19.0370000 -13.6350000  56.5320000
 -19.8600000 -13.3610000  55.8550000 -18.7910000 -14.6990000  56.3980000
 -19.5030000 -13.4230000  57.9730000 -18.7260000 -13.0730000  58.8420000
 -20.8000000 -13.6480000  58.2250000 -21.4090000 -13.9390000  57.4880000
 -21.1580000 -13.5250000  59.1500000 -16.8280000 -10.5730000  55.7280000
 -16.6130000 -10.2250000  54.5770000 -15.9470000 -10.3990000  56.7230000
 -16.1110000 -10.8500000  57.6000000 -14.7360000  -9.5580000  56.5620000
 -15.0750000  -8.6180000  56.1030000 -14.1360000  -9.2260000  57.9360000
 -13.8430000 -10.1650000  58.4290000 -13.2460000  -8.5970000  57.7890000
 -15.1130000  -8.4850000  58.8400000 -16.0500000  -7.8170000  58.3700000
 -14.9500000  -8.6010000  60.0520000 -13.6340000 -10.0920000  55.6830000
 -12.7720000  -9.3200000  55.2250000 -13.5890000 -11.4070000  55.4830000
 -14.3130000 -11.9840000  55.8610000 -12.5300000 -12.0140000  54.7400000
 -11.5910000 -11.5780000  55.1120000 -12.4560000 -13.5580000  54.9740000
 -11.8680000 -14.0030000  54.1580000 -11.9480000 -13.7380000  55.9330000
 -13.7790000 -14.2290000  55.0150000 -14.4060000 -14.6770000  56.1280000
 -14.0280000 -14.5750000  57.1440000 -15.6080000 -15.2880000  55.7770000
 -16.2650000 -15.7430000  56.4270000 -15.7690000 -15.1790000  54.4090000
 -16.8140000 -15.5900000  53.5960000 -17.7030000 -16.0450000  54.0170000
 -16.6880000 -15.4010000  52.2250000 -17.4780000 -15.7420000  51.5660000
 -15.5540000 -14.7760000  51.6780000 -15.4970000 -14.5940000  50.6110000
 -14.5030000 -14.3910000  52.5070000 -13.6030000 -13.9610000  52.0820000
 -14.6160000 -14.5640000  53.8980000 -12.6020000 -11.7250000  53.2470000
 -11.6330000 -11.9230000  52.5450000 -13.7680000 -11.3040000  52.7580000
 -14.5170000 -11.0860000  53.3830000 -13.9580000 -11.1610000  51.3430000
 -13.4050000 -11.9660000  50.8370000 -13.5500000 -10.1870000  51.0360000
 -15.3850000 -11.2290000  50.9130000 -16.2680000 -10.7210000  51.6040000
 -15.6060000 -11.8430000  49.7440000 -14.8590000 -12.3370000  49.3000000
 -16.9310000 -11.8030000  49.1010000 -17.6450000 -11.3480000  49.8040000
 -16.8910000 -10.9500000  47.7840000 -17.9240000 -10.8380000  47.4240000
 -16.3020000 -11.5070000  47.0400000 -16.2970000  -9.5780000  47.9050000
 -17.0650000  -8.5020000  48.2810000 -18.1140000  -8.6510000  48.5110000
 -16.5210000  -7.2240000  48.3720000 -17.1440000  -6.3790000  48.6430000
 -15.2090000  -7.0520000  48.1180000 -14.6660000  -5.7850000  48.2480000
 -15.3480000  -5.1720000  48.4980000 -14.4050000  -8.1280000  47.7580000
 -13.3510000  -7.9760000  47.5550000 -14.9440000  -9.3660000  47.6620000
 -14.3120000 -10.2040000  47.3920000 -17.4160000 -13.2010000  48.7360000
 -16.6270000 -14.0990000  48.4650000 -18.7300000 -13.3830000  48.7260000
 -19.3290000 -12.6790000  49.1080000 -19.3060000 -14.5870000  48.1700000
 -18.5600000 -15.3950000  48.1720000 -20.5360000 -15.0060000  48.9090000
 -20.9500000 -15.8790000  48.3830000 -21.2500000 -14.1710000  48.8520000
 -20.4050000 -15.3820000  50.3640000 -19.9750000 -16.6590000  50.7300000
 -19.6730000 -17.3610000  49.9610000 -19.9280000 -17.0410000  52.0560000
 -19.6320000 -18.0510000  52.3150000 -20.2580000 -16.1400000  53.0610000
 -20.1830000 -16.5240000  54.4310000 -19.8820000 -17.4230000  54.4920000
 -20.6770000 -14.8560000  52.7170000 -20.9740000 -14.1540000  53.4880000
 -20.7120000 -14.4780000  51.3700000 -20.9840000 -13.4620000  51.1090000
 -19.7840000 -14.2750000  46.7510000 -20.3120000 -13.1850000  46.4820000
 -19.6710000 -15.2660000  45.8890000 -19.0650000 -16.0310000  46.1050000
 -20.3990000 -15.2780000  44.6400000 -21.1620000 -14.4870000  44.6900000
 -19.5180000 -14.9900000  43.4190000 -20.1700000 -14.8760000  42.5400000
 -18.6940000 -13.6860000  43.5960000 -18.6100000 -13.4480000  44.6670000
 -17.6890000 -13.8270000  43.1710000 -19.2000000 -12.8590000  43.0750000
 -18.6290000 -16.0720000  43.1950000 -18.0870000 -15.8850000  42.4370000
 -21.1130000 -16.6260000  44.4800000 -20.7090000 -17.6260000  45.0380000
 -22.2040000 -16.5970000  43.7110000 -22.5110000 -15.7170000  43.3490000
 -22.9620000 -17.7870000  43.3790000 -22.5650000 -18.6340000  43.9580000
 -24.3850000 -17.5290000  43.7780000 -24.4010000 -17.2640000  44.8450000
 -24.7610000 -16.6830000  43.1850000 -25.3080000 -18.6980000  43.5690000
 -25.3240000 -18.9700000  42.5030000 -24.9580000 -19.5560000  44.1610000
 -26.6900000 -18.3090000  44.0120000 -26.6470000 -17.9690000  45.0570000
 -27.0520000 -17.4890000  43.3740000 -27.6100000 -19.4170000  43.9170000
 -27.2850000 -20.2710000  43.4410000 -28.8580000 -19.4110000  44.4060000
 -29.3490000 -18.3470000  45.0530000 -28.7650000 -17.5090000  45.1840000
 -30.3110000 -18.3660000  45.4200000 -29.6200000 -20.4970000  44.2680000
 -29.2480000 -21.3300000  43.7890000 -30.5800000 -20.5030000  44.6400000
 -22.9010000 -18.1530000  41.8820000 -23.1030000 -17.3030000  41.0400000
 -22.5700000 -19.4080000  41.5850000 -22.3330000 -20.0260000  42.3350000
 -22.5340000 -19.9360000  40.2010000 -21.8600000 -20.8050000  40.1710000
 -22.1500000 -19.1510000  39.5320000 -23.9100000 -20.3660000  39.7130000
 -24.9160000 -20.1880000  40.3980000 -23.9580000 -20.9220000  38.5110000
 -23.1100000 -21.1660000  38.0410000 -25.2670000 -21.1850000  37.8590000
 -25.9190000 -20.3210000  38.0530000 -25.1080000 -21.3410000  36.3340000
 -24.2300000 -21.9760000  36.1450000 -26.0100000 -21.8360000  35.9450000
 -24.9190000 -20.0280000  35.5700000 -24.0120000 -19.5310000  35.9430000
 -24.7980000 -20.2570000  34.5010000 -26.1050000 -19.0740000  35.7360000
 -27.0230000 -19.6060000  35.4470000 -26.1700000 -18.7790000  36.7940000
 -25.9900000 -17.8000000  34.8810000 -26.9330000 -17.2380000  34.9400000
 -25.1680000 -17.1780000  35.2660000 -25.7140000 -18.1540000  33.4490000
 -26.4620000 -18.7300000  33.0950000 -25.6510000 -17.3110000  32.9010000
 -24.8440000 -18.6590000  33.3900000 -25.9350000 -22.4110000  38.4130000
 -27.1640000 -22.5210000  38.3370000 -25.1470000 -23.2940000  39.0190000
 -24.1620000 -23.1240000  39.0580000 -25.6880000 -24.5120000  39.6320000
 -26.7600000 -24.5650000  39.3900000 -24.9900000 -25.7050000  38.9970000
 -23.9180000 -25.6620000  39.2400000 -25.4220000 -26.6300000  39.4060000
 -25.1530000 -25.7110000  37.4920000 -24.1760000 -25.6870000  36.7430000
 -26.3950000 -25.6810000  37.0410000 -27.1600000 -25.6560000  37.6840000
 -26.5700000 -25.6830000  36.0560000 -25.5630000 -24.5480000  41.1620000
 -25.1730000 -25.5400000  41.7000000 -25.8810000 -23.4340000  41.8120000
 -26.1700000 -22.6450000  41.2690000 -25.8380000 -23.2790000  43.2760000
 -26.1230000 -22.2370000  43.4810000 -26.9000000 -24.1810000  43.9360000
 -26.6840000 -25.2280000  43.6770000 -26.8430000 -24.0540000  45.0270000
 -28.3140000 -23.8450000  43.4780000 -28.6190000 -22.6540000  43.3040000
 -29.1140000 -24.7690000  43.2780000 -24.4650000 -23.4830000  43.9400000
 -24.3940000 -23.7300000  45.1430000 -23.3830000 -23.3590000  43.1750000
 -23.4790000 -23.3160000  42.1810000 -22.0760000 -23.2860000  43.7720000
 -21.9330000 -24.1310000  44.4610000 -20.9570000 -23.2770000  42.7500000
 -21.0080000 -22.3290000  42.1940000 -20.0000000 -23.3350000  43.2890000
 -21.0060000 -24.4200000  41.7460000 -19.9750000 -24.6760000  41.4610000
 -21.4790000 -25.2870000  42.2300000 -21.7830000 -24.0920000  40.4870000
 -22.7010000 -23.2580000  40.4980000 -21.5090000 -24.7340000  39.4690000
 -22.0410000 -21.9430000  44.5350000 -22.5540000 -20.9110000  44.0420000
 -21.4760000 -21.9710000  45.7330000 -21.2420000 -22.8530000  46.1420000
 -21.1830000 -20.7230000  46.4810000 -21.5280000 -19.8690000  45.8800000
 -21.9010000 -20.6480000  47.8380000 -21.6220000 -21.5340000  48.4280000
 -21.5010000 -19.3890000  48.6200000 -21.7580000 -18.4950000  48.0320000
 -22.0410000 -19.3650000  49.5780000 -20.4180000 -19.4040000  48.8100000
 -23.4110000 -20.6400000  47.6400000 -23.7170000 -21.5560000  47.1140000
 -23.9090000 -20.5960000  48.6200000 -23.6980000 -19.7610000  47.0440000
 -19.6620000 -20.6370000  46.6210000 -18.9980000 -21.5420000  47.1860000
 -19.1220000 -19.5420000  46.1080000 -19.7100000 -18.8430000  45.7020000
 -17.6680000 -19.3470000  46.1310000 -17.1680000 -20.3050000  46.3350000
 -17.2060000 -18.8050000  44.8010000 -16.1230000 -18.6210000  44.8530000
 -17.7300000 -17.8580000  44.6060000 -17.4850000 -19.7690000  43.6400000
 -16.7300000 -20.9100000  43.4650000 -15.9130000 -21.1210000  44.1450000
 -17.0070000 -21.7970000  42.4210000 -16.4110000 -22.6940000  42.2980000
 -18.0530000 -21.5260000  41.5370000 -18.2600000 -22.3850000  40.4810000
 -17.6440000 -23.1060000  40.5340000 -18.8140000 -20.4110000  41.6850000
 -19.6260000 -20.2050000  40.9970000 -18.5340000 -19.5250000  42.7440000
 -19.1430000 -18.6370000  42.8680000 -17.3210000 -18.3360000  47.2240000
 -17.9910000 -17.3110000  47.3690000 -16.2800000 -18.6270000  47.9690000
 -15.8390000 -19.5170000  47.8550000 -15.7470000 -17.7030000  48.9510000
 -16.4720000 -16.8990000  49.1480000 -15.4000000 -18.4130000  50.2630000
 -14.6500000 -19.1870000  50.0450000 -14.9710000 -17.6700000  50.9510000
 -16.5570000 -19.0660000  50.9460000 -17.2210000 -18.2880000  51.3510000
 -17.1090000 -19.6750000  50.2150000 -15.9910000 -20.1400000  52.3120000
 -15.2410000 -18.9650000  53.4560000 -15.9940000 -18.2260000  53.7680000
 -14.8660000 -19.5020000  54.3400000 -14.4060000 -18.4500000  52.9580000
 -14.4850000 -17.1460000  48.3470000 -13.5990000 -17.8930000  48.0940000
 -14.4480000 -15.8230000  48.1030000 -15.2540000 -15.2730000  48.3200000
 -13.3080000 -15.1750000  47.5490000 -12.5980000 -15.9500000  47.2240000
 -13.6420000 -14.2970000  46.3000000 -14.1220000 -13.3600000  46.6200000
 -12.3680000 -13.9990000  45.5630000 -11.8960000 -14.9420000  45.2510000
 -12.5920000 -13.3890000  44.6750000 -11.6830000 -13.4470000  46.2230000
 -14.5770000 -15.0670000  45.3580000 -15.5040000 -15.3240000  45.8910000
 -14.8170000 -14.4400000  44.4860000 -14.0800000 -15.9890000  45.0210000
 -12.6530000 -14.3570000  48.6640000 -13.1780000 -13.3210000  49.0890000
 -11.4550000 -14.8070000  49.0600000 -10.9980000 -15.4910000  48.4910000
 -10.7850000 -14.3640000  50.2590000 -11.5280000 -13.8860000  50.9140000
 -10.1480000 -15.5560000  51.0100000  -9.4460000 -16.0730000  50.3390000
  -9.3900000 -15.0500000  52.2370000 -10.0850000 -14.5190000  52.9040000
  -8.9480000 -15.9030000  52.7720000  -8.5920000 -14.3640000  51.9180000
 -11.2330000 -16.5290000  51.4460000 -11.7760000 -16.8940000  50.5610000
 -10.7730000 -17.3800000  51.9710000 -11.9340000 -16.0170000  52.1210000
  -9.6970000 -13.3610000  49.9400000  -8.7270000 -13.6920000  49.2450000
  -9.9370000 -12.1190000  50.3520000 -10.8150000 -11.9260000  50.7910000
  -8.9640000 -11.0000000  50.1930000  -8.2180000 -11.3260000  49.4530000
  -9.7040000  -9.7810000  49.6300000 -10.6380000  -9.6490000  50.1960000
  -9.0660000  -8.8950000  49.7630000 -10.0470000  -9.9050000  48.1680000
 -11.2230000 -10.5090000  47.7710000 -11.9130000 -10.8780000  48.5210000
 -11.5360000 -10.6520000  46.4240000 -12.4480000 -11.1580000  46.1300000
 -10.6900000 -10.1520000  45.4690000 -10.9520000 -10.2300000  44.4200000
  -9.4930000  -9.5440000  45.8430000  -8.7940000  -9.1970000  45.0910000
  -9.2080000  -9.3880000  47.2030000  -8.3140000  -8.8530000  47.5030000
  -8.2010000 -10.5880000  51.4360000  -7.0820000  -9.9920000  51.3330000
  -8.7730000 -10.9150000  52.5990000  -9.6190000 -11.4470000  52.5660000
  -8.2460000 -10.5470000  53.9330000  -7.2410000 -10.1130000  53.8240000
  -9.1490000  -9.5410000  54.5610000 -10.0930000 -10.0350000  54.8340000
  -8.6650000  -9.1490000  55.4680000  -9.4590000  -8.3720000  53.6260000
  -8.5530000  -7.7550000  53.1090000 -10.7330000  -8.1170000  53.3780000
 -11.4460000  -8.6790000  53.7960000 -10.9830000  -7.3620000  52.7720000
  -8.1590000 -11.8380000  54.8230000  -9.1800000 -12.3890000  55.1920000
  -6.9350000 -12.3360000  54.9800000  -6.1630000 -11.7950000  54.6460000
  -6.6520000 -13.6030000  55.6000000  -7.4000000 -14.3460000  55.2860000
  -5.2520000 -14.0670000  55.1830000  -5.2320000 -14.1450000  54.0860000
  -4.5300000 -13.3040000  55.5090000  -4.8160000 -15.4010000  55.7560000
  -3.7190000 -15.4670000  55.7030000  -5.1360000 -15.4560000  56.8070000
  -5.4230000 -16.5970000  54.9890000  -6.5210000 -16.5060000  54.3940000
  -4.7080000 -17.7100000  55.0120000  -3.8380000 -17.7350000  55.5040000
  -5.0380000 -18.5260000  54.5370000  -6.6930000 -13.4340000  57.1610000
  -5.8930000 -12.7490000  57.7370000  -7.6370000 -14.0770000  57.8110000
  -8.6640000 -14.9310000  57.2100000  -8.2090000 -15.7840000  56.6850000
  -9.2890000 -14.3600000  56.5080000  -9.4660000 -15.3930000  58.3850000
  -9.3380000 -16.4790000  58.5060000 -10.5280000 -15.1660000  58.2090000
  -9.0160000 -14.7030000  59.6340000  -8.8560000 -15.4380000  60.4370000
  -9.7700000 -13.9680000  59.9540000  -7.7220000 -14.0080000  59.3010000
  -7.7650000 -12.9550000  59.6160000  -6.5750000 -14.6640000  60.0110000
  -6.2120000 -15.7980000  59.7010000  -5.9500000 -13.9250000  60.9270000
  -6.1720000 -12.9550000  61.0230000  -4.9370000 -14.5340000  61.7930000
  -4.1370000 -14.9360000  61.1540000  -4.3030000 -13.4880000  62.7430000
  -3.7710000 -14.0170000  63.5470000  -5.1050000 -12.8720000  63.1770000
  -3.3340000 -12.5890000  62.0340000  -2.1050000 -13.0530000  61.6390000
  -1.8170000 -14.0690000  61.8840000  -1.2390000 -12.2620000  60.9440000
  -0.2810000 -12.6540000  60.6230000  -1.5920000 -10.9470000  60.6480000
  -0.7340000 -10.1850000  59.9500000   0.0510000 -10.6850000  59.7600000
  -2.7990000 -10.4490000  61.0400000  -3.0800000  -9.4310000  60.7970000
  -3.6570000 -11.2630000  61.7520000  -4.6020000 -10.8620000  62.0990000
  -5.5600000 -15.7040000  62.5730000  -4.8580000 -16.5880000  62.9730000
  -6.8700000 -15.7020000  62.8230000  -7.4220000 -14.9130000  62.5540000
  -7.5200000 -16.8540000  63.4940000  -7.0290000 -17.0110000  64.4660000
  -9.0010000 -16.5440000  63.7130000  -9.4300000 -17.2940000  64.3940000
  -9.0980000 -15.5440000  64.1610000  -9.7080000 -16.5730000  62.4850000
 -10.6240000 -16.3780000  62.6430000  -7.4380000 -18.1700000  62.6750000
  -7.7250000 -19.2540000  63.2120000  -7.1530000 -18.0410000  61.3650000
  -6.9590000 -17.1230000  61.0200000  -7.1070000 -19.1450000  60.4160000
  -6.8570000 -18.7090000  59.4370000  -5.9730000 -20.1320000  60.7660000
  -6.1300000 -20.5220000  61.7830000  -5.9810000 -20.9660000  60.0490000
  -4.6210000 -19.4190000  60.6990000  -4.5180000 -18.9600000  59.7050000
  -4.6030000 -18.6340000  61.4690000  -3.4390000 -20.3410000  60.9260000
  -3.6540000 -21.5360000  61.0910000  -2.2900000 -19.8840000  60.9430000
  -8.4260000 -19.8240000  60.2500000  -8.5100000 -20.9520000  59.7830000
  -9.4710000 -19.0670000  60.5230000  -9.3120000 -18.1310000  60.8370000
 -10.8420000 -19.5280000  60.3890000 -10.8740000 -20.4800000  59.8400000
 -11.4250000 -19.7160000  61.8030000 -11.1200000 -18.8680000  62.4340000
 -12.5230000 -19.7480000  61.7380000 -10.9140000 -21.0390000  62.4460000
 -11.6150000 -21.8550000  62.2150000  -9.9200000 -21.2840000  62.0430000
 -10.8210000 -20.8600000  63.9540000 -10.0780000 -20.0800000  64.1760000
 -11.8040000 -20.5500000  64.3380000 -10.4210000 -22.0980000  64.6190000
 -11.1690000 -22.6510000  65.0620000  -9.1920000 -22.5780000  64.7080000
  -8.1300000 -21.9470000  64.2240000  -8.2420000 -21.0380000  63.7520000
  -7.1940000 -22.3660000  64.3200000  -9.0270000 -23.7070000  65.3860000
  -9.8390000 -24.1720000  65.8170000  -8.0870000 -24.1180000  65.4810000
 -11.6240000 -18.4730000  59.6390000 -11.5030000 -17.2900000  59.9580000
 -12.3960000 -18.8990000  58.6410000 -12.3960000 -19.8770000  58.4350000
 -13.2460000 -18.0260000  57.8250000 -12.9680000 -16.9780000  58.0110000
 -13.0620000 -18.3330000  56.3240000 -13.4830000 -19.3300000  56.1270000
 -13.6220000 -17.5790000  55.7520000 -11.6360000 -18.3250000  55.8350000
 -11.0010000 -18.7450000  56.6280000 -11.4170000 -19.1350000  54.5730000
 -12.0490000 -18.7350000  53.7660000 -10.3600000 -19.0720000  54.2760000
 -11.6830000 -20.1860000  54.7610000 -11.2050000 -16.8680000  55.5580000
 -11.2910000 -16.2780000  56.4820000 -10.1610000 -16.8540000  55.2100000
 -11.8550000 -16.4340000  54.7840000 -14.6820000 -18.2340000  58.2190000
 -15.2440000 -19.3120000  58.0440000 -15.2830000 -17.2140000  58.7970000
 -14.8040000 -16.3400000  58.8720000 -16.6250000 -17.3370000  59.3250000
 -16.6890000 -18.2790000  59.8900000 -16.9810000 -16.1730000  60.2690000
 -16.7700000 -15.2270000  59.7500000 -18.4440000 -16.2050000  60.6090000
 -18.6860000 -17.1610000  61.0970000 -18.6800000 -15.3750000  61.2910000
 -19.0370000 -16.1030000  59.6880000 -16.1010000 -16.2330000  61.5420000
 -16.4800000 -17.0400000  62.1860000 -15.0690000 -16.4600000  61.2380000
 -16.0880000 -14.9250000  62.3610000 -17.1130000 -14.6800000  62.6770000
 -15.4510000 -15.0540000  63.2490000 -15.6910000 -14.1080000  61.7410000
 -17.6310000 -17.3730000  58.1930000 -17.5900000 -16.5200000  57.3010000
 -18.5600000 -18.3350000  58.2440000 -18.4940000 -19.0230000  58.9670000
 -19.6580000 -18.4290000  57.3020000 -19.6860000 -17.5020000  56.7110000
 -19.4960000 -19.6220000  56.3320000 -19.3970000 -20.5420000  56.9270000
 -20.7450000 -19.7520000  55.4420000 -20.8840000 -18.8240000  54.8670000
 -20.6150000 -20.5970000  54.7490000 -21.6280000 -19.9280000  56.0730000
 -18.2520000 -19.4690000  55.4920000 -17.3710000 -19.4140000  56.1480000
 -18.1550000 -20.3340000  54.8190000 -18.3230000 -18.5470000  54.8960000
 -20.9530000 -18.5700000  58.0470000 -21.1950000 -19.5940000  58.7140000
 -21.7720000 -17.5330000  57.9420000 -21.4370000 -16.7080000  57.4860000
 -23.1350000 -17.5330000  58.4560000 -23.2470000 -18.3460000  59.1880000
 -23.4690000 -16.2050000  59.1380000 -22.7090000 -15.9970000  59.9060000
 -23.4570000 -15.4040000  58.3840000 -24.8340000 -16.2410000  59.7950000
 -25.6000000 -16.2530000  59.0050000 -24.9080000 -17.1620000  60.3920000
 -25.1030000 -15.0550000  60.7070000 -24.3780000 -15.0600000  61.5340000
 -24.9980000 -14.1230000  60.1330000 -26.5120000 -15.1430000  61.2720000
 -27.1680000 -15.6360000  60.5400000 -26.4960000 -15.7280000  62.2030000
 -27.0280000 -13.7800000  61.5560000 -27.0360000 -13.2400000  60.7050000
 -27.9650000 -13.8450000  61.9210000 -26.4340000 -13.3300000  62.2350000
 -24.0720000 -17.7690000  57.2920000 -24.1460000 -16.9580000  56.3600000
 -24.7990000 -18.8860000  57.3490000 -24.7210000 -19.4710000  58.1560000
 -25.7150000 -19.2900000  56.2630000 -25.3090000 -18.9230000  55.3090000
 -25.8500000 -20.8210000  56.2000000 -26.6810000 -21.0790000  55.5270000
 -24.6240000 -21.4250000  55.7100000 -23.7860000 -20.7280000  55.8610000
 -24.4290000 -22.3570000  56.2600000 -24.7280000 -21.6470000  54.6380000
 -26.1080000 -21.3510000  57.5030000 -26.1890000 -22.2960000  57.4500000
 -27.1130000 -18.7040000  56.4700000 -27.5400000 -18.5360000  57.6110000
 -27.8550000 -18.4540000  55.3840000 -27.4290000 -18.4340000  53.9730000
 -27.4580000 -19.4450000  53.5400000 -26.4140000 -18.0220000  53.8750000
 -28.4330000 -17.5420000  53.3130000 -28.5510000 -17.8000000  52.2500000
 -28.1410000 -16.4850000  53.4030000 -29.7000000 -17.8190000  54.0790000
 -30.2160000 -18.6960000  53.6610000 -30.3690000 -16.9470000  54.0390000
 -29.2670000 -18.0930000  55.5220000 -29.3760000 -17.1930000  56.1450000
 -30.1190000 -19.2420000  56.1320000 -29.6780000 -20.3780000  56.1400000
 -31.3210000 -18.9270000  56.6270000 -31.6160000 -17.9720000  56.6090000
 -32.2250000 -19.9400000  57.1980000 -31.7930000 -20.3200000  58.1360000
 -33.6260000 -19.3680000  57.4910000 -34.2700000 -20.1630000  57.8950000
 -33.5430000 -18.5540000  58.2270000 -34.2106794 -18.7757407  56.2131098
 -33.5613732 -17.9784890  55.8513198 -34.2876989 -19.5537289  55.4535676
 -35.5967958 -18.2098151  56.5029969 -36.2468415 -19.0066310  56.8644162
 -35.5205168 -17.4313908  57.2621653 -36.1814753 -17.6175578  55.2251053
 -35.5321693 -16.8203067  54.8633140 -36.2584967 -18.3955470  54.4655662
 -37.5175995 -17.0720411  55.5045384 -37.4463946 -16.3508220  56.2080103
 -37.9048310 -16.6797929  54.6581974 -38.1195380 -17.8107184  55.8393890
 -32.3500000 -21.0640000  56.2070000 -32.5490000 -20.8210000  55.0400000
 -32.1760000 -22.2910000  56.6640000 -31.8490000 -22.4180000  57.6010000
 -32.4470000 -23.4710000  55.8410000 -33.2920000 -23.2340000  55.1780000
 -32.7290000 -24.2950000  56.5130000 -31.3000000 -23.9450000  54.9810000
 -31.4040000 -24.9990000  54.3440000 -30.1920000 -23.2030000  54.9700000
 -30.1450000 -22.3770000  55.5310000 -29.0590000 -23.5800000  54.1560000
 -29.3820000 -24.3150000  53.4040000 -28.4730000 -22.3310000  53.4320000
 -28.0890000 -21.6490000  54.2050000 -27.3160000 -22.7140000  52.5430000
 -27.6570000 -23.4400000  51.7900000 -26.9290000 -21.8170000  52.0380000
 -26.5190000 -23.1640000  53.1530000 -29.5440000 -21.5770000  52.6440000
 -30.3430000 -21.2880000  53.3420000 -29.0840000 -20.6730000  52.2190000
 -30.1640000 -22.3570000  51.5220000 -30.6350000 -23.2660000  51.9240000
 -30.9250000 -21.7390000  51.0230000 -29.3860000 -22.6370000  50.7970000
 -27.9860000 -24.2000000  55.0430000 -27.6420000 -23.6390000  56.0790000
 -27.3960000 -25.3080000  54.6100000 -27.7470000 -25.7440000  53.7810000
 -26.2710000 -25.9100000  55.2830000 -25.9780000 -25.2470000  56.1110000
 -26.6230000 -27.3020000  55.8600000 -25.7250000 -27.7350000  56.3240000
 -27.7130000 -27.1790000  56.9180000 -28.2630000 -26.2380000  56.7700000
 -28.4070000 -28.0270000  56.8290000 -27.2550000 -27.1830000  57.9180000
 -27.0590000 -28.1570000  54.8010000 -27.2760000 -29.0120000  55.1530000
 -25.0940000 -26.0870000  54.3670000 -25.2380000 -26.2390000  53.1610000
 -23.9030000 -26.1290000  54.9500000 -23.8420000 -26.0370000  55.9440000
 -22.6910000 -26.3040000  54.1820000 -22.8990000 -26.0650000  53.1290000
 -21.5510000 -25.3720000  54.6790000 -21.3950000 -25.5390000  55.7550000
 -20.2670000 -25.6790000  53.9390000 -20.4210000 -25.5300000  52.8600000
 -19.4710000 -25.0070000  54.2920000 -19.9760000 -26.7230000  54.1270000
 -21.9310000 -23.9280000  54.4520000 -22.8590000 -23.7030000  54.9980000
 -21.1240000 -23.2750000  54.8160000 -22.0870000 -23.7550000  53.3770000
 -22.2860000 -27.7350000  54.2870000 -22.1000000 -28.2230000  55.3920000
 -22.1310000 -28.4040000  53.1500000 -22.2240000 -27.9180000  52.2810000
 -21.8280000 -29.8320000  53.1390000 -22.0840000 -30.2310000  54.1320000
 -22.6600000 -30.5750000  52.0970000 -22.5370000 -30.0730000  51.1260000
 -22.2920000 -31.6090000  52.0250000 -24.1290000 -30.6090000  52.4400000
 -24.2400000 -30.8830000  53.4990000 -24.5560000 -29.6090000  52.2730000
 -24.8930000 -31.6210000  51.5850000 -24.2540000 -32.4110000  50.8390000
 -26.1420000 -31.6120000  51.6550000 -20.3960000 -30.1130000  52.8880000
 -19.8730000 -31.1260000  53.3480000 -19.7280000 -29.2200000  52.1790000
 -20.1840000 -28.3810000  51.8820000 -18.3270000 -29.4470000  51.8240000
 -17.8010000 -29.8920000  52.6820000 -18.2170000 -30.4010000  50.5980000
 -18.9150000 -31.2380000  50.7500000 -18.5080000 -29.8390000  49.6980000
 -16.8370000 -30.9720000  50.3720000 -16.1080000 -30.1490000  50.3940000
 -16.6130000 -31.6820000  51.1820000 -16.7100000 -31.7050000  49.0280000
 -17.4500000 -32.5180000  48.9970000 -16.9150000 -30.9920000  48.2160000
 -15.3020000 -32.3060000  48.8190000 -15.2350000 -33.2010000  49.4550000
 -15.2300000 -32.6020000  47.7620000 -14.0890000 -31.4490000  49.1250000
 -14.1120000 -31.1670000  50.0920000 -13.2500000 -31.9790000  48.9500000
 -14.0980000 -30.6310000  48.5360000 -17.6840000 -28.1090000  51.4620000
 -18.3440000 -27.2000000  50.9860000 -16.3760000 -28.0430000  51.6370000
 -15.9190000 -28.7930000  52.1150000 -15.5910000 -26.9510000  51.1740000
 -16.1800000 -26.3520000  50.4640000 -15.1630000 -26.0440000  52.3630000
 -14.5580000 -25.2060000  51.9860000 -16.0590000 -25.6520000  52.8660000
 -14.5690000 -26.6330000  53.0780000 -14.3780000 -27.5200000  50.4680000
 -13.7440000 -28.4740000  50.9390000 -14.0300000 -26.8870000  49.3730000
 -14.5580000 -26.0840000  49.0970000 -12.8970000 -27.3060000  48.5340000
 -12.2530000 -27.9930000  49.1030000 -13.4700000 -28.0360000  47.2770000
 -13.9440000 -27.2860000  46.6270000 -12.3970000 -28.6950000  46.5040000
 -11.5240000 -28.8580000  47.1540000 -12.7590000 -29.6630000  46.1260000
 -12.1090000 -28.0550000  45.6570000 -14.4810000 -28.9850000  47.6890000
 -14.8290000 -29.4290000  46.9250000 -12.0790000 -26.1090000  48.0880000
 -12.6050000 -25.1200000  47.6290000 -10.7680000 -26.2170000  48.1220000
 -10.3430000 -27.0020000  48.5720000  -9.9540000 -25.2150000  47.5180000
 -10.3180000 -24.2290000  47.8420000  -8.4820000 -25.3580000  47.9300000
  -8.4500000 -25.4960000  49.0210000  -8.0800000 -26.2550000  47.4360000
  -7.5600000 -24.1740000  47.5780000  -7.6090000 -24.0040000  46.4920000
  -7.9880000 -22.9010000  48.2920000  -7.9590000 -23.0630000  49.3800000
  -7.3030000 -22.0830000  48.0250000  -9.0110000 -22.6360000  47.9880000
  -6.1410000 -24.4920000  47.9620000  -5.8080000 -25.3920000  47.4240000
  -5.4910000 -23.6450000  47.6970000  -6.0860000 -24.6720000  49.0460000
 -10.0500000 -25.3070000  45.9840000  -9.7000000 -26.3390000  45.3910000
 -10.4910000 -24.2150000  45.3540000 -10.6630000 -23.3830000  45.8820000
 -10.7310000 -24.2070000  43.8920000 -11.5850000 -24.8760000  43.7110000
 -11.1200000 -22.8130000  43.3660000 -11.9000000 -22.4070000  44.0270000
 -10.2280000 -22.1720000  43.4150000 -11.6570000 -22.7710000  41.9150000
 -10.9010000 -23.2160000  41.2520000 -12.9700000 -23.5490000  41.7660000
 -13.7300000 -23.1180000  42.4350000 -13.3190000 -23.4840000  40.7250000
 -12.8040000 -24.6030000  42.0310000 -11.9180000 -21.3290000  41.4850000
 -10.9830000 -20.7530000  41.5460000 -12.2890000 -21.3170000  40.4490000
 -12.6700000 -20.8790000  42.1490000  -9.5710000 -24.7390000  43.0870000
  -9.7710000 -25.6060000  42.2690000  -8.3720000 -24.2170000  43.2940000
  -8.2340000 -23.5850000  44.0570000  -7.2700000 -24.5450000  42.4410000
  -7.5860000 -24.3300000  41.4090000  -6.0370000 -23.6850000  42.7590000
  -5.1690000 -24.0880000  42.2170000  -6.2620000 -22.2160000  42.3290000
  -7.3410000 -22.0170000  42.2530000  -5.8170000 -21.5430000  43.0770000
  -5.7880000 -22.0430000  41.3520000  -5.7820000 -23.7310000  44.1680000
  -5.0200000 -23.2000000  44.3690000  -6.8410000 -26.0110000  42.5030000
  -6.4510000 -26.5680000  41.4970000  -6.8360000 -26.6110000  43.6910000
  -7.2740000 -26.1580000  44.4670000  -6.2010000 -27.9270000  43.8930000
  -5.6260000 -28.1720000  42.9880000  -5.2730000 -27.9270000  45.1020000
  -4.7840000 -28.9090000  45.1790000  -4.2000000 -26.8550000  44.9640000
  -4.5380000 -26.0880000  44.2520000  -4.0180000 -26.3900000  45.9440000
  -3.2700000 -27.3130000  44.5960000  -6.0530000 -27.6970000  46.2770000
  -5.4850000 -27.6950000  47.0390000  -7.1970000 -29.0130000  44.1580000
  -6.8500000 -30.1800000  44.1330000  -8.4400000 -28.6620000  44.4140000
  -8.7060000 -27.7000000  44.3550000  -9.4300000 -29.6620000  44.7820000
  -9.3390000 -30.5060000  44.0820000 -10.4270000 -29.2080000  44.6820000
  -9.2970000 -30.2090000  46.2060000 -10.0720000 -31.0560000  46.6010000
  -8.3540000 -29.7020000  46.9920000  -7.7640000 -28.9710000  46.6490000
  -8.1700000 -30.2030000  48.3550000  -8.0930000 -31.2980000  48.2890000
  -6.8600000 -29.6940000  48.9340000  -6.5430000 -30.3870000  49.7270000
  -6.1090000 -29.6890000  48.1300000  -6.9290000 -28.2930000  49.5280000
  -7.5300000 -27.6580000  48.8610000  -7.4150000 -28.3530000  50.5130000
  -5.5500000 -27.6530000  49.7010000  -4.7780000 -27.6270000  48.6760000
  -5.2580000 -27.1720000  50.8390000  -9.3650000 -29.8990000  49.2690000
 -10.0530000 -28.8810000  49.1360000  -9.6700000 -30.8380000  50.1560000
  -9.0760000 -31.6360000  50.2570000 -10.8480000 -30.7170000  50.9730000
 -11.6670000 -30.2710000  50.3900000 -11.2870000 -32.0840000  51.4720000
 -11.5030000 -32.7240000  50.6040000 -10.4670000 -32.5250000  52.0580000
 -12.4560000 -32.0190000  52.2960000 -13.5510000 -31.6350000  51.8600000
 -12.2930000 -32.3480000  53.4630000 -10.4680000 -29.7840000  52.1320000
  -9.3510000 -29.8220000  52.6270000 -11.3910000 -28.9190000  52.4980000
 -12.2830000 -28.9430000  52.0460000 -11.1530000 -27.9130000  53.5550000
 -10.1110000 -27.9640000  53.9040000 -11.4710000 -26.5000000  53.0470000
 -12.5130000 -26.5030000  52.6960000 -11.3530000 -25.4890000  54.1670000
 -10.3300000 -25.5080000  54.5720000 -11.5750000 -24.4840000  53.7790000
 -12.0680000 -25.7400000  54.9640000 -10.5850000 -26.0680000  51.8730000
 -10.7050000 -26.8090000  51.0690000 -10.9410000 -25.0870000  51.5240000
  -9.1100000 -25.9450000  52.1730000  -8.7240000 -26.9150000  52.5190000
  -8.5740000 -25.6410000  51.2610000  -8.9570000 -25.1890000  52.9570000
 -12.1160000 -28.2300000  54.6790000 -13.3120000 -28.3960000  54.4500000
 -11.6260000 -28.2190000  55.9010000 -10.6650000 -27.9810000  56.0440000
 -12.4670000 -28.5510000  57.0580000 -12.9980000 -29.4920000  56.8510000
 -11.5940000 -28.7270000  58.3090000 -11.0560000 -27.7900000  58.5160000
 -12.4290000 -29.1170000  59.5300000 -13.3810000 -29.5560000  59.1980000
 -11.8760000 -29.8530000  60.1320000 -12.6300000 -28.2220000  60.1380000
 -10.6670000 -29.7840000  58.0560000 -10.1150000 -29.9110000  58.8190000
 -13.4730000 -27.4680000  57.3220000 -13.1640000 -26.2620000  57.2930000
 -14.6940000 -27.9040000  57.5570000 -14.8580000 -28.8880000  57.4820000
 -15.8190000 -27.0580000  57.9170000 -15.5180000 -26.0000000  57.9250000
 -16.9840000 -27.2770000  56.9390000 -17.2660000 -28.3400000  56.9560000
 -18.1780000 -26.4500000  57.3080000 -17.9030000 -25.3850000  57.3000000
 -18.9850000 -26.6260000  56.5810000 -18.5230000 -26.7320000  58.3140000
 -16.5510000 -26.8940000  55.5420000 -15.6900000 -27.5100000  55.2430000
 -17.3830000 -27.0610000  54.8420000 -16.2650000 -25.8320000  55.5250000
 -16.2930000 -27.5010000  59.2900000 -16.5500000 -28.6790000  59.4900000
 -16.4020000 -26.5870000  60.2390000 -16.2170000 -25.6320000  60.0090000
 -16.7850000 -26.9200000  61.6190000 -17.0500000 -27.9860000  61.6850000
 -15.6270000 -26.6150000  62.6200000 -15.3290000 -25.5650000  62.4860000
 -16.0750000 -26.8040000  64.0640000 -16.4100000 -27.8410000  64.2110000
 -15.2340000 -26.5910000  64.7400000 -16.9050000 -26.1160000  64.2840000
 -14.4260000 -27.4890000  62.3420000 -14.0720000 -27.3110000  61.3160000
 -13.6230000 -27.2460000  63.0540000 -14.7080000 -28.5460000  62.4540000
 -17.9970000 -26.0530000  61.9620000 -17.9700000 -24.8230000  61.8060000
 -19.0530000 -26.6580000  62.4500000 -19.0630000 -27.6560000  62.5150000
 -20.1940000 -25.9080000  62.8920000 -20.4090000 -25.1180000  62.1580000
 -21.3940000 -26.8240000  62.9810000 -21.4740000 -27.3870000  62.0390000
 -21.2380000 -27.5240000  63.8150000 -22.6860000 -26.0910000  63.2100000
 -22.6440000 -25.5910000  64.1890000 -22.8140000 -25.3380000  62.4190000
 -23.8820000 -27.0400000  63.1890000 -23.7350000 -28.2230000  63.5820000
 -24.9610000 -26.5820000  62.7870000 -19.8910000 -25.2490000  64.2450000
 -19.3600000 -25.8940000  65.1320000 -20.1570000 -23.9630000  64.3810000
 -20.5880000 -23.4670000  63.6270000 -19.8250000 -23.2410000  65.6390000
 -19.2050000 -23.9200000  66.2430000 -19.0110000 -21.9430000  65.4140000
 -18.9190000 -21.3990000  66.3660000 -17.6430000 -22.2870000  64.8950000
 -17.6640000 -23.2890000  64.4420000 -17.3420000 -21.5490000  64.1370000
 -16.9220000 -22.2750000  65.7260000 -19.6730000 -21.1200000  64.4550000
 -19.1710000 -20.3250000  64.3200000 -21.0610000 -22.9080000  66.4400000
 -21.0140000 -22.9380000  67.6620000 -22.1370000 -22.5830000  65.7420000
 -22.0580000 -22.5590000  64.7450000 -23.4420000 -22.2550000  66.3360000
 -23.5300000 -22.7150000  67.3310000 -23.6900000 -20.7300000  66.4180000
 -24.5810000 -20.5530000  67.0390000 -22.5110000 -19.9200000  67.0080000
 -21.5820000 -20.5010000  66.9110000 -22.4080000 -18.9710000  66.4620000
 -22.7040000 -19.7120000  68.0710000 -23.9220000 -20.2560000  65.0840000
 -24.0780000 -19.3190000  65.1040000 -24.5230000 -22.7710000  65.3760000
 -24.2060000 -23.2730000  64.2940000 -25.7890000 -22.5140000  65.7440000
 -25.9310000 -22.1080000  66.6470000 -26.9760000 -22.7790000  64.9330000
 -27.1640000 -23.8620000  64.9620000 -28.1920000 -22.0510000  65.5500000
 -29.0820000 -22.2320000  64.9290000 -28.3700000 -22.4320000  66.5660000
 -27.9483876 -20.5457521  65.5275049 -27.0541878 -20.3132041  66.1058034
 -27.8109934 -20.2147466  64.4981069 -29.1480664 -19.8275219  66.1362258
 -30.0426246 -20.0592352  65.5581483 -29.2858184 -20.1576895  67.1658438
 -28.9469300 -18.3612609  66.1313364 -28.0871965 -17.9940230  65.7491139
 -29.8465866 -17.5051048  66.6072727 -31.0015706 -17.9122860  67.1260366
 -31.2139772 -18.8989054  67.1656043 -31.6609501 -17.2330086  67.4780316
 -29.5628014 -16.2068594  66.5531856 -28.6848155 -15.9009963  66.1586115
 -30.2265835 -15.5328024  66.9069359 -26.8320000 -22.3660000  63.4460000
 -27.1330000 -23.1450000  62.5620000 -26.3940000 -21.1640000  63.1460000
 -26.1080000 -20.5170000  63.8530000 -26.3450000 -20.8150000  61.6960000
 -26.6740000 -21.7060000  61.1410000 -27.3180000 -19.6970000  61.3950000
 -27.2150000 -18.9210000  62.1680000 -27.0720000 -19.2700000  60.4110000
 -28.7670000 -20.1770000  61.3730000 -29.1880000 -20.8780000  60.4450000
 -29.5330000 -19.8000000  62.3860000 -29.1540000 -19.2290000  63.1140000
 -30.4910000 -20.0860000  62.4220000 -24.9630000 -20.4590000  61.1810000
 -24.8230000 -19.6940000  60.2190000 -23.9400000 -21.0270000  61.7990000
 -24.0880000 -21.7890000  62.4290000 -22.6110000 -20.5320000  61.5520000
 -22.5990000 -20.1130000  60.5350000 -22.3690000 -19.3760000  62.5240000
 -23.1410000 -18.6130000  62.3450000 -22.4690000 -19.7650000  63.5480000
 -21.0210000 -18.7130000  62.4060000 -20.2510000 -19.4250000  62.7370000
 -20.8500000 -18.4520000  61.3510000 -20.9000000 -17.4260000  63.2570000
 -21.8150000 -16.5630000  63.1750000 -19.8780000 -17.2840000  63.9930000
 -21.5430000 -21.6070000  61.5740000 -21.6020000 -22.5640000  62.3620000
 -20.5730000 -21.4460000  60.6680000 -20.6400000 -20.6710000  60.0400000
 -19.4350000 -22.3250000  60.5430000 -19.4440000 -23.0340000  61.3840000
 -19.4960000 -23.0960000  59.2260000 -18.6690000 -23.8210000  59.2290000
 -19.3450000 -22.3720000  58.4120000 -20.7790000 -23.8660000  58.9220000
 -21.8790000 -23.2440000  58.3400000 -21.8400000 -22.1830000  58.1200000
 -23.0310000 -23.9680000  58.0360000 -23.8770000 -23.4710000  57.5760000
 -23.0960000 -25.3230000  58.3210000 -24.2140000 -25.9990000  57.9890000
 -24.8540000 -25.3960000  57.6300000 -22.0210000 -25.9760000  58.8620000
 -22.0610000 -27.0450000  59.0380000 -20.8660000 -25.2450000  59.1870000
 -20.0270000 -25.7520000  59.6500000 -18.1240000 -21.5480000  60.5550000
 -18.0760000 -20.3830000  60.1550000 -17.0530000 -22.2400000  60.9400000
 -17.1950000 -23.0710000  61.4780000 -15.7250000 -21.8630000  60.6290000
 -15.7090000 -20.8090000  60.3150000 -14.7650000 -22.0670000  61.7810000
 -14.9740000 -23.0480000  62.2330000 -13.7410000 -22.0590000  61.3800000
 -14.8570000 -21.0080000  62.8750000 -15.3810000 -19.9160000  62.6960000
 -14.2860000 -21.3610000  64.0320000 -13.8480000 -22.2560000  64.1210000
 -14.2970000 -20.7300000  64.8080000 -15.2280000 -22.7770000  59.4970000
 -15.1810000 -24.0120000  59.6380000 -14.9080000 -22.1640000  58.3800000
 -15.1310000 -21.1940000  58.2880000 -14.2480000 -22.8280000  57.2770000
 -14.4430000 -23.9100000  57.2970000 -14.7450000 -22.2450000  55.9500000
 -14.5420000 -21.1640000  55.9490000 -14.0290000 -22.8620000  54.7550000
 -14.1970000 -23.9490000  54.7480000 -14.4220000 -22.4240000  53.8260000
 -12.9510000 -22.6580000  54.8290000 -16.2460000 -22.4570000  55.8390000
 -16.7500000 -21.9600000  56.6810000 -16.6080000 -22.0300000  54.8920000
 -16.4670000 -23.5340000  55.8640000 -12.8020000 -22.5560000  57.4950000
 -12.3650000 -21.3690000  57.5660000 -12.0090000 -23.5980000  57.5930000
 -12.3960000 -24.5190000  57.5470000 -10.5760000 -23.4290000  57.7670000
 -10.4140000 -22.7680000  58.6310000  -9.9210000 -24.7970000  58.0830000
 -10.1550000 -25.5000000  57.2700000  -8.8310000 -24.6630000  58.1500000
 -10.3970000 -25.3390000  59.3150000  -9.9760000 -26.1750000  59.4770000
  -9.9330000 -22.7520000  56.5330000 -10.3810000 -22.9520000  55.4100000
  -8.8320000 -21.9970000  56.7580000  -8.5920000 -21.7540000  57.6980000
  -7.9800000 -21.5250000  55.6590000  -8.6290000 -21.1340000  54.8610000
  -6.9980000 -20.4010000  56.0530000  -6.4220000 -20.1400000  55.1530000
  -7.7510000 -19.1500000  56.4950000  -8.3890000 -19.3920000  57.3580000
  -7.0300000 -18.3690000  56.7800000  -8.3770000 -18.7870000  55.6660000
  -5.9940000 -20.8510000  57.1180000  -5.4130000 -21.7040000  56.7370000
  -5.3140000 -20.0200000  57.3550000  -6.5350000 -21.1530000  58.0270000
  -7.2270000 -22.7450000  55.1360000  -7.1490000 -23.7400000  55.8440000
  -6.6890000 -22.6840000  53.9190000  -6.8610000 -21.6190000  52.9030000
  -6.1910000 -20.7700000  53.1040000  -7.9020000 -21.2650000  52.8750000
  -6.4910000 -22.3040000  51.6180000  -6.0300000 -21.5870000  50.9230000
  -7.3840000 -22.7450000  51.1510000  -5.5330000 -23.3540000  51.9730000
  -4.5080000 -22.9550000  51.9730000  -5.6010000 -24.1920000  51.2630000
  -5.9300000 -23.8150000  53.3880000  -6.5530000 -24.7210000  53.3560000
  -4.6880000 -24.0840000  54.1740000  -4.2000000 -23.1970000  54.8760000
  -4.1590000 -25.2970000  54.0570000  -4.5300000 -25.9340000  53.3810000
  -3.0560000 -25.7090000  54.8930000  -3.3240000 -25.5580000  55.9490000
  -2.7540000 -27.2120000  54.6560000  -2.6340000 -27.3840000  53.5760000
  -1.8190000 -27.4720000  55.1750000  -3.8740000 -28.1140000  55.1770000
  -4.8180000 -27.8540000  54.6750000  -3.6250000 -29.1650000  54.9680000
  -4.0333285 -27.9100292  56.6798757  -3.0998103 -28.1632098  57.1824115
  -4.2828175 -26.8682488  56.8812418  -5.1500144 -28.8093631  57.1993340
  -6.0840126 -28.5564442  56.6975572  -4.9010042 -29.8514048  56.9987296
  -5.3035975 -28.6127467  58.6480070  -5.5347618 -27.6473236  58.8340745
  -6.0431720 -29.2083716  58.9920425  -4.4383757 -28.8474614  59.1131943
  -1.8630000 -24.8870000  54.5700000  -1.0790000 -24.5830000  55.4630000
  -1.6940000 -24.5430000  53.2890000  -2.3100000 -24.9310000  52.6030000
  -0.6320000 -23.6110000  52.8450000   0.0800000 -23.4360000  53.6650000
   0.1000000 -24.2050000  51.6390000   0.1160000 -25.2970000  51.7680000
  -0.4820000 -23.9500000  50.7410000   1.5390000 -23.7500000  51.3970000
   2.1520000 -23.9890000  52.2780000   1.9450000 -24.2690000  50.5160000
   1.5654280 -22.2404987  51.1817504   0.9536330 -21.9855977  50.3164000
   1.1701412 -21.7399494  52.0656611   3.0011339 -21.7865416  50.9403024
   3.6134789 -22.0407057  51.8054814   3.3969697 -22.2863515  50.0562191
   3.0266084 -20.3314813  50.7328181   2.6602577 -19.8681397  51.5520869
   3.9774688 -20.0308272  50.5729070   2.4595999 -20.0957981  49.9309117
  -1.2940000 -22.2730000  52.4200000  -2.2560000 -22.2780000  51.6730000
  -0.7420000 -21.1570000  52.8650000   0.0680000 -21.2120000  53.4490000
  -1.2910000 -19.8380000  52.5220000  -2.3580000 -19.8020000  52.7850000
  -0.5470000 -18.7490000  53.2950000  -0.5350000 -19.0220000  54.3600000
   0.4850000 -18.6960000  52.9180000  -1.1900000 -17.3640000  53.1540000
  -1.7430000 -17.0090000  52.1210000  -1.1030000 -16.5910000  54.2010000
  -0.6390000 -16.9160000  55.0250000  -1.5000000 -15.6740000  54.1800000
  -1.1310000 -19.6370000  51.0270000  -0.0360000 -19.6960000  50.5010000
  -2.2260000 -19.4330000  50.3060000  -3.6410000 -19.5600000  50.6720000
  -4.0320000 -18.6130000  51.0730000  -3.7870000 -20.3600000  51.4130000
  -4.2950000 -19.9030000  49.3800000  -5.3470000 -19.5820000  49.3780000
  -4.2410000 -20.9850000  49.1900000  -3.5100000 -19.1480000  48.3650000
  -3.8190000 -18.0930000  48.3350000  -3.6290000 -19.5940000  47.3660000
  -2.0540000 -19.2810000  48.8580000  -1.5770000 -20.1820000  48.4440000
  -1.2550000 -18.0670000  48.4120000  -0.8940000 -17.9980000  47.2580000
  -1.0760000 -17.0650000  49.2680000  -1.5410000 -17.0870000  50.1530000
  -0.2060000 -15.9240000  48.9380000   0.6950000 -16.3130000  48.4410000
   0.0790000 -15.4280000  49.8780000  -0.8340000 -14.8880000  48.0310000
  -0.1720000 -14.0090000  47.5780000  -2.1320000 -14.9780000  47.7960000
  -2.6520000 -15.6940000  48.2620000  -2.8340000 -14.0900000  46.8970000
  -2.5410000 -13.0460000  47.0840000  -2.5500000 -14.4480000  45.4190000
  -3.1200000 -13.7590000  44.7790000  -1.4740000 -14.3180000  45.2300000
  -2.9330000 -15.8710000  45.0540000  -2.3260000 -16.5590000  45.6600000
  -3.9970000 -16.0150000  45.2910000  -2.7200000 -16.2100000  43.5880000
  -2.5120000 -15.2890000  42.7720000  -2.9120000 -17.4090000  43.2740000
  -4.3060000 -14.2960000  47.2050000  -4.6720000 -15.3070000  47.8270000
  -5.1760000 -13.3700000  46.7740000  -5.0150000 -12.1090000  46.0300000
  -4.8330000 -12.3010000  44.9620000  -4.1880000 -11.5110000  46.4410000
  -6.3220000 -11.4250000  46.2350000  -6.5530000 -10.7710000  45.3820000
  -6.3050000 -10.8290000  47.1600000  -7.3210000 -12.5190000  46.3380000
  -7.6890000 -12.7970000  45.3390000  -8.1680000 -12.2070000  46.9670000
  -6.5870000 -13.6920000  46.9790000  -6.8120000 -13.7390000  48.0550000
  -6.9760000 -15.0190000  46.3470000  -6.5570000 -15.2850000  45.2370000
  -7.8140000 -15.8020000  47.0140000  -8.3180000 -15.4410000  47.7990000
  -8.0010000 -17.1870000  46.6050000  -7.7440000 -17.2750000  45.5390000
  -7.0630000 -18.0780000  47.3940000  -6.0350000 -17.7180000  47.2390000
  -7.1550000 -19.1030000  47.0050000  -7.3360000 -18.1130000  48.9100000
  -8.2240000 -19.0390000  49.4610000  -8.7690000 -19.7090000  48.8060000
  -8.4220000 -19.1160000  50.8440000  -9.1110000 -19.8450000  51.2540000
  -7.7360000 -18.2590000  51.6870000  -7.8990000 -18.3110000  53.0400000
  -8.5560000 -18.9630000  53.2550000  -6.8190000 -17.3700000  51.1570000
  -6.2300000 -16.7430000  51.8170000  -6.6510000 -17.2790000  49.7810000
  -5.9690000 -16.5390000  49.3790000  -9.4520000 -17.6000000  46.7750000
 -10.2370000 -16.8550000  47.3560000  -9.8240000 -18.7610000  46.2140000
  -9.1350000 -19.3490000  45.7910000 -11.2260000 -19.1750000  46.2140000
 -11.7940000 -18.4180000  46.7750000 -11.8160000 -19.2500000  44.7910000
 -11.1830000 -19.9050000  44.1750000 -13.2460000 -19.7890000  44.8090000
 -13.8780000 -19.1320000  45.4240000 -13.6390000 -19.8200000  43.7820000
 -13.2500000 -20.8040000  45.2340000 -11.8740000 -17.8520000  44.1730000
 -10.8600000 -17.4270000  44.1310000 -12.2860000 -17.9180000  43.1550000
 -12.5170000 -17.2060000  44.7880000 -11.4110000 -20.5080000  46.9060000
 -10.6870000 -21.4870000  46.6030000 -12.4270000 -20.5640000  47.7870000
 -12.8750000 -19.7130000  48.0610000 -12.9040000 -21.8400000  48.3640000
 -12.2630000 -22.6630000  48.0150000 -12.8880000 -21.8180000  49.9090000
 -13.3700000 -20.8900000  50.2510000 -13.6480000 -22.9870000  50.4990000
 -13.1960000 -23.9290000  50.1550000 -13.6020000 -22.9380000  51.5970000
 -14.6980000 -22.9440000  50.1730000 -11.4320000 -21.8190000  50.3820000
 -10.9900000 -22.7930000  50.1270000 -10.8970000 -21.0220000  49.8450000
 -11.2460000 -21.5900000  51.8830000 -11.7700000 -22.3790000  52.4420000
 -10.1740000 -21.6180000  52.1280000 -11.6600000 -20.6090000  52.1580000
 -14.2910000 -22.0370000  47.8710000 -15.1250000 -21.1350000  47.9920000
 -14.5660000 -23.2180000  47.2980000 -13.8540000 -23.9150000  47.2140000
 -15.9120000 -23.4770000  46.7980000 -16.4160000 -22.5160000  46.6200000
 -15.8220000 -24.2520000  45.4680000 -15.2350000 -23.6580000  44.7530000
 -15.3150000 -25.2100000  45.6520000 -17.2050000 -24.5360000  44.8550000
 -17.7950000 -25.1480000  45.5530000 -17.7250000 -23.5840000  44.6720000
 -17.0420000 -25.2960000  43.5180000 -15.9810000 -25.2870000  42.8800000
 -18.1080000 -25.9380000  43.1030000 -18.9490000 -25.9130000  43.6440000
 -18.0800000 -26.4530000  42.2460000 -16.7150000 -24.2670000  47.7980000
 -16.2820000 -25.2750000  48.2900000 -17.9150000 -23.8060000  48.0860000
 -18.2320000 -22.9640000  47.6490000 -18.7760000 -24.4800000  49.0090000
 -18.1770000 -25.1890000  49.6000000 -19.4520000 -23.4920000  49.9330000
 -20.0640000 -22.8230000  49.3100000 -20.1060000 -24.0650000  50.6070000
 -18.5530000 -22.6160000  50.8010000 -17.9390000 -21.9810000  50.1450000
 -19.4620000 -21.7160000  51.6240000 -20.1280000 -22.3350000  52.2430000
 -18.8500000 -21.0730000  52.2740000 -20.0650000 -21.0890000  50.9500000
 -17.6080000 -23.4490000  51.6440000 -16.9770000 -24.0650000  50.9870000
 -16.9710000 -22.7840000  52.2460000 -18.1900000 -24.1020000  52.3110000
 -19.9060000 -25.2460000  48.2670000 -20.4950000 -24.7240000  47.3120000
 -20.1670000 -26.4520000  48.7630000 -19.5230000 -26.8480000  49.4170000
 -21.3500000 -27.2250000  48.3970000 -21.7530000 -26.8710000  47.4370000
 -20.9780000 -28.7180000  48.2810000 -20.1900000 -28.8190000  47.5200000
 -20.5920000 -29.0540000  49.2550000 -22.1480000 -29.6270000  47.8870000
 -22.8680000 -29.6950000  48.7160000 -22.6520000 -29.2260000  46.9950000
 -21.5660000 -31.0110000  47.5830000 -21.5820000 -31.1660000  46.4940000
 -20.5270000 -31.0400000  47.9420000 -22.3420000 -32.1460000  48.2470000
 -21.8550000 -33.1030000  48.0090000 -22.3400000 -31.9950000  49.3370000
 -23.7490000 -32.1790000  47.7610000 -23.7560000 -32.3110000  46.7620000
 -24.2400000 -32.9400000  48.2040000 -24.2030000 -31.3080000  47.9880000
 -22.3610000 -27.0180000  49.4870000 -22.1230000 -27.3920000  50.6460000
 -23.4850000 -26.4140000  49.1480000 -23.6290000 -26.1690000  48.1890000
 -24.5040000 -26.0970000  50.1000000 -24.1570000 -26.4200000  51.0920000
 -24.8130000 -24.5740000  50.1600000 -25.5280000 -24.4050000  50.9780000
 -23.5430000 -23.7850000  50.4550000 -22.8000000 -23.9770000  49.6670000
 -23.7770000 -22.7110000  50.4840000 -23.1350000 -24.0970000  51.4270000
 -25.4380000 -24.0540000  48.8650000 -26.3770000 -24.5920000  48.6690000
 -25.6450000 -22.9780000  48.9640000 -24.7410000 -24.2180000  48.0300000
 -25.7860000 -26.8400000  49.7620000 -25.9370000 -27.2870000  48.6290000
 -26.6910000 -26.9610000  50.7430000 -26.4960000 -26.5420000  51.6300000
 -27.9790000 -27.6950000  50.5660000 -28.1920000 -27.8000000  49.4920000
 -27.9190000 -29.0990000  51.1860000 -27.1360000 -29.6680000  50.6640000
 -27.6490000 -28.9910000  52.2470000 -29.2070000 -29.8950000  51.1090000
 -30.0200000 -29.2840000  51.5280000 -29.4200000 -30.1140000  50.0520000
 -29.1480000 -31.2200000  51.8780000 -28.9300000 -31.0200000  52.9370000
 -30.1160000 -31.7360000  51.7940000 -28.0821711 -32.0966030  51.3432318
 -27.5263225 -31.7621712  50.5690954 -27.8228860 -33.3046351  51.8355021
 -28.5112047 -33.8135286  52.8534143 -29.2558895 -33.2764283  53.2742086
 -28.2860640 -34.7347420  53.2009445 -26.8414578 -34.0084420  51.2784067
 -26.3207016 -33.6190607  50.5055579 -26.6214294 -34.9290592  51.6307562
 -29.0500000 -26.8590000  51.2030000 -28.8120000 -26.2290000  52.2510000
 -30.2010000 -26.7750000  50.5400000 -30.2830000 -27.2350000  49.6560000
 -31.3500000 -26.0330000  51.0590000 -31.0320000 -25.3840000  51.8880000
 -31.9690000 -25.1900000  49.9630000 -32.8310000 -24.6380000  50.3670000
 -31.2230000 -24.4770000  49.5830000 -32.3030000 -25.8430000  49.1430000
 -32.3750000 -27.0510000  51.5540000 -32.6670000 -28.0290000  50.8370000
 -32.9210000 -26.8140000  52.7470000 -32.5270000 -26.1010000  53.3280000
 -34.0880000 -27.5710000  53.2360000 -33.8130000 -28.6330000  53.3120000
 -34.4990000 -27.0700000  54.6180000 -35.3700000 -27.6420000  54.9710000
 -33.6630000 -27.2040000  55.3200000 -34.7610000 -26.0030000  54.5580000
 -35.2540000 -27.4360000  52.2650000 -36.1790000 -28.2490000  52.3030000
 -35.2779605 -26.5235333  51.4420359
