Cpptraj Generated Restart                                                       
 7087
 -14.4480000  12.3420000  30.5930000 -15.0940000  11.3190000  31.3420000
 -15.1160000   9.9460000  30.6030000 -15.7670000  10.0130000  29.3180000
 -15.9460000   9.1900000  31.6890000 -16.3940000   7.7540000  31.3940000
 -17.1450000  10.1250000  31.8110000 -16.6260000  11.5540000  31.5430000
 -16.8940000  12.5810000  32.6200000 -17.4620000  13.8120000  32.3100000
 -17.6750000  14.4490000  33.4960000 -18.2390000  15.7010000  33.7710000
 -18.3430000  16.0910000  35.1220000 -17.8950000  15.2260000  36.1490000
 -17.3420000  13.9650000  35.8310000 -17.2420000  13.6020000  34.4800000
 -16.7520000  12.4120000  33.9500000 -13.5090000  12.3070000  30.8470000
 -14.6040000  11.2180000  32.3180000 -14.1090000   9.5210000  30.5070000
 -15.2210000  10.5840000  28.7510000 -15.4090000   9.1750000  32.6390000
 -16.9840000   7.3510000  32.2250000 -15.5230000   7.1010000  31.2690000
 -16.9950000   7.6930000  30.4790000 -17.6370000  10.0520000  32.7170000
 -17.8570000   9.8980000  31.0960000 -17.0810000  11.8900000  30.6090000
 -17.6830000  14.1420000  31.3820000 -18.5920000  16.3540000  32.9780000
 -18.7710000  17.0570000  35.3750000 -17.9810000  15.5310000  37.1880000
 -17.0070000  13.2890000  36.6120000 -49.6380000   6.7050000  40.6010000
 -48.8780000   6.0410000  40.6280000 -50.1730000   6.5320000  39.7620000
 -50.2290000   6.5310000  41.4010000 -49.1030000   8.0990000  40.6170000
 -49.9450000   8.7900000  40.6600000 -48.1930000   8.3780000  41.8420000
 -47.2890000   7.7720000  41.7810000 -47.8800000   9.4200000  41.7760000
 -48.8280000   8.2150000  43.2350000 -48.3640000   8.9510000  43.8920000
 -49.8900000   8.4540000  43.1860000 -48.6270000   6.8210000  43.8610000
 -48.7650000   5.7990000  43.1480000 -48.3530000   6.7380000  45.0830000
 -48.3320000   8.4050000  39.3180000 -48.0380000   7.4870000  38.5540000
 -48.0020000   9.6880000  39.0870000 -48.3480000  10.3650000  39.7520000
 -47.1460000  10.2520000  38.0130000 -47.5730000  11.2200000  37.7510000
 -45.7250000  10.5770000  38.5570000 -45.2140000   9.6400000  38.7770000
 -44.9040000  11.3490000  37.5010000 -45.3440000  12.3310000  37.3280000
 -43.8740000  11.4710000  37.8350000 -44.8710000  10.8090000  36.5540000
 -45.7800000  11.4090000  39.8640000 -46.2890000  12.3540000  39.6720000
 -46.3520000  10.8660000  40.6160000 -44.4140000  11.7050000  40.4970000
 -43.8450000  12.4010000  39.8810000 -44.5650000  12.1600000  41.4760000
 -43.8550000  10.7770000  40.6220000 -47.1180000   9.4120000  36.7050000
 -46.1800000   8.6320000  36.4910000 -48.1360000   9.5490000  35.8260000
 -49.3500000  10.3370000  36.0250000 -49.1220000  11.3650000  36.3050000
 -49.9670000   9.8670000  36.7910000 -50.0920000  10.3300000  34.6890000
 -49.7880000  11.1920000  34.0950000 -51.1730000  10.3250000  34.8270000
 -49.6030000   9.0460000  34.0220000 -49.6870000   9.0950000  32.9370000
 -50.1670000   8.1980000  34.4100000 -48.1500000   8.9450000  34.4900000
 -47.8640000   7.8950000  34.5520000 -47.1910000   9.6730000  33.5270000
 -46.9850000  10.8850000  33.6400000 -46.5980000   8.9320000  32.5810000
 -46.8620000   7.9600000  32.5100000 -45.4760000   9.3790000  31.7340000
 -45.5140000  10.4620000  31.6110000 -44.1430000   8.9940000  32.4000000
 -44.1330000   7.9110000  32.5180000 -43.3240000   9.2580000  31.7310000
 -43.8750000   9.6400000  33.7680000 -44.7170000   9.4650000  34.4380000
 -42.6640000   8.9610000  34.3900000 -41.7760000   9.1410000  33.7840000
 -42.5190000   9.3500000  35.3980000 -42.8400000   7.8880000  34.4640000
 -43.6230000  11.1440000  33.6750000 -44.5020000  11.6510000  33.2770000
 -43.4100000  11.5480000  34.6650000 -42.7760000  11.3320000  33.0140000
 -45.5060000   8.7460000  30.3350000 -45.8350000   7.5650000  30.1880000
 -45.1180000   9.5180000  29.3150000 -44.8470000  10.4670000  29.5280000
 -44.9080000   9.0480000  27.9340000 -45.6080000   8.2420000  27.7170000
 -45.1640000  10.2030000  26.9490000 -44.4750000  11.0170000  27.1750000
 -44.9470000   9.8570000  25.9380000 -46.5950000  10.7660000  26.9710000
 -46.8010000  11.2010000  27.9490000 -46.6530000  11.5630000  26.2290000
 -47.6690000   9.7150000  26.6510000 -47.4310000   9.2340000  25.7020000
 -47.6930000   8.9640000  27.4400000 -49.0450000  10.3820000  26.5570000
 -49.2610000  10.8770000  27.5040000 -49.0120000  11.1460000  25.7790000
 -50.1100000   9.3910000  26.2490000 -50.1710000   8.6820000  26.9660000
 -51.0130000   9.8380000  26.1840000 -49.9370000   8.9280000  25.3680000
 -43.5120000   8.4560000  27.7000000 -43.3750000   7.5360000  26.8910000
 -42.4920000   8.9520000  28.4090000 -42.6940000   9.7390000  29.0080000
 -41.0710000   8.6740000  28.1320000 -40.9980000   7.9170000  27.3510000
 -40.4210000   9.9590000  27.5850000 -39.4180000   9.7320000  27.2240000
 -40.3230000  10.6690000  28.4070000 -41.1970000  10.6250000  26.4620000
 -41.3710000   9.9590000  25.2330000 -40.9320000   8.9840000  25.0770000
 -42.1320000  10.5540000  24.2080000 -42.2680000  10.0400000  23.2680000
 -42.7250000  11.8190000  24.4150000 -43.4680000  12.3970000  23.4320000
 -43.5180000  11.8410000  22.6520000 -42.5460000  12.4870000  25.6440000
 -43.0020000  13.4540000  25.7980000 -41.7800000  11.8910000  26.6640000
 -41.6580000  12.3990000  27.6100000 -40.2940000   8.1120000  29.3390000
 -39.0610000   8.1200000  29.3400000 -41.0000000   7.5880000  30.3480000
 -42.0070000   7.5970000  30.2660000 -40.4220000   6.9660000  31.5480000
 -41.2010000   6.8780000  32.3060000 -39.6370000   7.6100000  31.9450000
 -39.8220000   5.5740000  31.2960000 -39.3700000   5.2640000  30.1920000
 -39.7740000   4.7390000  32.3370000 -40.1660000   5.0450000  33.2170000
 -39.2050000   3.3880000  32.2790000 -38.1640000   3.4830000  31.9720000
 -39.2210000   2.7940000  33.6900000 -38.7650000   1.8040000  33.6770000
 -38.6540000   3.4340000  34.3660000 -40.2480000   2.7050000  34.0450000
 -39.9050000   2.4590000  31.2600000 -41.1350000   2.3960000  31.1860000
 -39.0980000   1.7150000  30.4960000 -38.1000000   1.8320000  30.6010000
 -39.5230000   0.7400000  29.4740000 -40.5190000   1.0050000  29.1190000
 -38.5740000   0.7830000  28.2610000 -38.7760000  -0.0690000  27.6110000
 -38.7840000   2.0670000  27.4630000 -38.5720000   2.9350000  28.0870000
 -38.1290000   2.0700000  26.5920000 -39.8170000   2.1190000  27.1190000
 -37.2260000   0.7450000  28.6860000 -36.6690000   0.8890000  27.9180000
 -39.6270000  -0.6740000  30.0590000 -40.7160000  -1.2510000  30.0970000
 -38.5020000  -1.2400000  30.5070000 -37.6500000  -0.7100000  30.4010000
 -38.4320000  -2.5440000  31.1810000 -38.9200000  -3.2820000  30.5450000
 -36.9540000  -2.9440000  31.3460000 -36.4410000  -2.1900000  31.9430000
 -36.8890000  -3.8870000  31.8880000 -36.2310000  -3.1390000  30.0250000
 -36.6170000  -3.9400000  29.1870000 -35.1490000  -2.4320000  29.8120000
 -34.8430000  -1.7400000  30.4810000 -34.5730000  -2.6530000  29.0130000
 -39.1480000  -2.5800000  32.5510000 -39.3800000  -1.5510000  33.1910000
 -39.4180000  -3.7960000  33.0350000 -39.2120000  -4.5920000  32.4470000
 -39.8000000  -4.0980000  34.4230000 -39.5050000  -3.2600000  35.0550000
 -41.3290000  -4.2420000  34.5590000 -41.5620000  -4.4010000  35.6120000
 -41.7850000  -3.2990000  34.2590000 -41.9710000  -5.3720000  33.7380000
 -41.6720000  -5.2780000  32.6940000 -41.6180000  -6.3350000  34.1070000
 -43.5070000  -5.3330000  33.8440000 -44.1890000  -5.1440000  32.8060000
 -44.0520000  -5.5080000  34.9620000 -39.0300000  -5.3400000  34.9200000
 -38.9920000  -6.3770000  34.2500000 -38.3620000  -5.2190000  36.0740000
 -38.4400000  -4.3520000  36.5860000 -37.3710000  -6.1950000  36.5550000
 -37.8610000  -7.1590000  36.6920000 -36.9890000  -5.8680000  37.5220000
 -36.1710000  -6.3850000  35.6080000 -35.9030000  -5.5540000  34.7330000
 -35.4200000  -7.4780000  35.7980000 -35.6920000  -8.1080000  36.5380000
 -34.3060000  -7.8830000  34.9160000 -33.6750000  -7.0140000  34.7260000
 -33.4510000  -8.9610000  35.6070000 -34.0920000  -9.7830000  35.9270000
 -32.7330000  -9.3540000  34.8880000 -32.6750000  -8.4150000  36.8150000
 -32.0180000  -7.6100000  36.4850000 -33.3810000  -8.0170000  37.5440000
 -31.8350000  -9.5140000  37.4830000 -32.4900000 -10.3380000  37.7660000
 -31.0820000  -9.8770000  36.7840000 -31.1520000  -8.9510000  38.7370000
 -30.4360000  -8.1850000  38.4380000 -31.9110000  -8.4730000  39.3550000
 -30.4680000 -10.0090000  39.5330000 -29.6780000 -10.4040000  39.0430000
 -30.1390000  -9.6210000  40.4050000 -31.0990000 -10.7620000  39.7660000
 -34.8130000  -8.3960000  33.5580000 -35.7480000  -9.1980000  33.5030000
 -34.1470000  -7.9970000  32.4670000 -33.3870000  -7.3470000  32.6120000
 -34.2970000  -8.5890000  31.1180000 -35.3580000  -8.6630000  30.8800000
 -33.6100000  -7.6780000  30.0790000 -32.8830000  -7.0350000  30.5760000
 -33.0720000  -8.3020000  29.3660000 -34.5940000  -6.7900000  29.3040000
 -35.3030000  -7.4180000  28.7630000 -35.1460000  -6.1740000  30.0140000
 -33.8710000  -5.8710000  28.3050000 -34.6110000  -5.2320000  27.8230000
 -33.1740000  -5.2400000  28.8560000 -33.1430000  -6.6360000  27.2750000
 -33.2600000  -7.6400000  27.2840000 -32.3450000  -6.1740000  26.3330000
 -32.1630000  -4.9030000  26.1240000 -32.6260000  -4.2320000  26.7200000
 -31.5460000  -4.5760000  25.3940000 -31.7080000  -7.0070000  25.5710000
 -31.8350000  -8.0010000  25.7010000 -31.0340000  -6.6940000  24.8870000
 -33.7170000 -10.0120000  31.0840000 -32.6220000 -10.2340000  31.5980000
 -34.4360000 -10.9750000  30.5030000 -35.3420000 -10.7330000  30.1280000
 -34.0200000 -12.3920000  30.4400000 -33.0050000 -12.4770000  30.8290000
 -34.9390000 -13.2470000  31.3380000 -35.9590000 -13.1670000  30.9630000
 -34.6440000 -14.2940000  31.2680000 -34.9380000 -12.8610000  32.8300000
 -35.2350000 -11.8180000  32.9430000 -35.6940000 -13.4650000  33.3300000
 -33.6110000 -13.0780000  33.5590000 -32.5710000 -13.3970000  32.9910000
 -33.5840000 -12.9070000  34.8610000 -34.4300000 -12.6700000  35.3600000
 -32.7280000 -13.1080000  35.3580000 -33.9120000 -12.9640000  29.0110000
 -33.8130000 -14.1790000  28.8290000 -33.8770000 -12.1080000  27.9870000
 -33.9310000 -11.1180000  28.1780000 -33.4930000 -12.4990000  26.6230000
 -34.1490000 -13.3120000  26.3120000 -33.7080000 -11.3210000  25.6660000
 -33.3870000 -11.6050000  24.6630000 -34.7740000 -11.0950000  25.6210000
 -32.9530000 -10.0700000  26.1170000 -31.8870000  -9.7590000  25.5430000
 -33.4260000  -9.3780000  27.0450000 -32.0190000 -12.9720000  26.5580000
 -31.1930000 -12.4970000  27.3470000 -31.6450000 -13.8580000  25.6100000
 -32.5200000 -14.5550000  24.6750000 -32.7150000 -13.9180000  23.8120000
 -33.4570000 -14.8640000  25.1380000 -31.7510000 -15.7980000  24.2390000
 -32.0410000 -16.1250000  23.2400000 -31.9000000 -16.5970000  24.9660000
 -30.3010000 -15.3260000  24.2850000 -30.0760000 -14.7700000  23.3750000
 -29.6100000 -16.1600000  24.4050000 -30.2850000 -14.3960000  25.5020000
 -30.0900000 -14.9960000  26.3910000 -29.1870000 -13.3310000  25.3830000
 -28.1320000 -13.4710000  26.0030000 -29.4250000 -12.2540000  24.6250000
 -30.3110000 -12.1880000  24.1460000 -28.4830000 -11.1400000  24.4900000
 -27.5380000 -11.5400000  24.1230000 -29.0110000 -10.1630000  23.4340000
 -28.2960000  -9.3520000  23.2970000 -29.1410000 -10.6810000  22.4840000
 -29.9670000  -9.7450000  23.7490000 -28.1850000 -10.4500000  25.8380000
 -27.0160000 -10.2750000  26.1930000 -29.2110000 -10.1080000  26.6270000
 -30.1540000 -10.2230000  26.2830000 -29.0050000  -9.5610000  27.9750000
 -28.2870000  -8.7460000  27.8760000 -30.2980000  -8.9630000  28.5450000
 -30.8160000  -8.3970000  27.7710000 -30.9520000  -9.7640000  28.8900000
 -29.9790000  -8.0150000  29.7080000 -30.9020000  -7.7840000  30.2410000
 -29.3190000  -8.5110000  30.4190000 -29.2230000  -6.4500000  29.1830000
 -28.8470000  -5.7450000  30.8080000 -28.2260000  -6.4380000  31.3760000
 -28.3080000  -4.8070000  30.6760000 -29.7720000  -5.5620000  31.3530000
 -28.3900000 -10.5770000  28.9490000 -27.5270000 -10.2160000  29.7460000
 -28.7730000 -11.8560000  28.8750000 -29.5120000 -12.1040000  28.2340000
 -28.1370000 -12.9140000  29.6720000 -28.1890000 -12.6170000  30.7190000
 -28.9040000 -14.2390000  29.5350000 -29.0450000 -14.4830000  28.4820000
 -28.3150000 -15.0290000  30.0000000 -30.2670000 -14.1670000  30.2500000
 -30.1030000 -13.8120000  31.2670000 -30.9170000 -13.4510000  29.7480000
 -30.9920000 -15.5110000  30.3340000 -30.7540000 -16.4460000  29.5780000
 -31.9010000 -15.6650000  31.2750000 -32.1180000 -14.9070000  31.9060000
 -32.3870000 -16.5490000  31.3320000 -26.6360000 -13.0630000  29.3580000
 -25.8360000 -13.1650000  30.2870000 -26.2240000 -12.9750000  28.0830000
 -26.9290000 -12.9550000  27.3600000 -24.8060000 -12.8940000  27.6760000
 -24.2900000 -13.7630000  28.0840000 -24.7140000 -12.9440000  26.1370000
 -25.2320000 -13.8370000  25.7870000 -25.2340000 -12.0830000  25.7180000
 -23.2870000 -12.9590000  25.5610000 -23.3690000 -12.9600000  24.4750000
 -22.7620000 -12.0510000  25.8590000 -22.4750000 -14.1910000  25.9960000
 -22.1950000 -14.0990000  27.0450000 -23.1010000 -15.0770000  25.8870000
 -21.2150000 -14.4010000  25.1420000 -20.7680000 -15.3520000  25.4330000
 -21.5060000 -14.4840000  24.0950000 -20.2180000 -13.3130000  25.3110000
 -20.0210000 -13.1420000  26.2870000 -19.3530000 -13.5340000  24.8400000
 -20.5450000 -12.4350000  24.9330000 -24.1150000 -11.6560000  28.2640000
 -23.0710000 -11.7900000  28.8990000 -24.7240000 -10.4730000  28.1270000
 -25.5650000 -10.4390000  27.5690000 -24.2340000  -9.2190000  28.7230000
 -23.2630000  -8.9880000  28.2850000 -25.1930000  -8.0700000  28.3630000
 -25.2350000  -7.9760000  27.2780000 -26.1980000  -8.3230000  28.7020000
 -24.8310000  -6.7200000  28.9570000 -25.2830000  -6.3700000  30.2470000
 -25.8910000  -7.0590000  30.8140000 -24.9410000  -5.1240000  30.8030000
 -25.2850000  -4.8570000  31.7910000 -24.1520000  -4.2220000  30.0700000
 -23.8860000  -3.2670000  30.4980000 -23.7160000  -4.5590000  28.7770000
 -23.1230000  -3.8560000  28.2110000 -24.0530000  -5.8060000  28.2210000
 -23.7170000  -6.0590000  27.2260000 -24.0200000  -9.3320000  30.2460000
 -22.9740000  -8.9230000  30.7520000 -24.9710000  -9.9290000  30.9770000
 -25.8260000 -10.1900000  30.5050000 -24.8520000 -10.2270000  32.4150000
 -24.5940000  -9.3080000  32.9400000 -26.2110000 -10.7260000  32.9400000
 -26.9790000 -10.0110000  32.6450000 -26.4480000 -11.6860000  32.4820000
 -26.2370000 -10.8760000  34.4730000 -25.4090000 -11.5070000  34.7960000
 -26.1270000  -9.8930000  34.9300000 -27.5400000 -11.5180000  34.9670000
 -27.6060000 -12.5240000  34.5530000 -27.5020000 -11.6020000  36.0530000
 -28.7090000 -10.7030000  34.5870000 -28.6820000  -9.7230000  34.8290000
 -29.7750000 -11.0660000  33.9050000 -30.0390000 -12.3110000  33.6230000
 -29.4340000 -13.0340000  33.9860000 -30.9270000 -12.5680000  33.2180000
 -30.5990000 -10.1590000  33.4950000 -30.4060000  -9.1860000  33.6880000
 -31.3530000 -10.3820000  32.8620000 -23.7270000 -11.2250000  32.7050000
 -22.8470000 -10.9330000  33.5030000 -23.7340000 -12.3890000  32.0630000
 -24.4910000 -12.5690000  31.4190000 -22.7890000 -13.4810000  32.3390000
 -22.8290000 -13.6870000  33.4090000 -23.2100000 -14.7590000  31.5970000
 -23.3540000 -14.5270000  30.5420000 -22.3950000 -15.4800000  31.6670000
 -24.4760000 -15.4300000  32.1610000 -24.9270000 -15.0930000  33.2810000
 -24.9750000 -16.3880000  31.5240000 -21.3240000 -13.1320000  32.0390000
 -20.4290000 -13.6260000  32.7280000 -21.0790000 -12.2750000  31.0430000
 -21.8630000 -11.9900000  30.4740000 -19.7640000 -11.7210000  30.7140000
 -19.1580000 -12.5060000  30.2640000 -19.9630000 -10.5840000  29.6900000
 -20.8050000  -9.9590000  29.9890000 -19.0760000  -9.9500000  29.7150000
 -20.1600000 -11.0090000  28.2420000 -20.0270000 -12.1640000  27.8630000
 -20.4200000 -10.0600000  27.3740000 -20.4960000  -9.0970000  27.6670000
 -20.4970000 -10.3050000  26.3970000 -18.9770000 -11.2000000  31.9390000
 -17.8220000 -11.5770000  32.1350000 -19.5790000 -10.2840000  32.7180000
 -20.5360000 -10.0680000  32.4790000 -19.0320000  -9.6410000  33.9390000
 -19.7860000  -8.9290000  34.2750000 -18.8080000 -10.6560000  35.0880000
 -18.1240000 -11.4420000  34.7680000 -18.3370000 -10.1350000  35.9210000
 -20.0950000 -11.3150000  35.6160000 -20.5090000 -11.9780000  34.8560000
 -19.8420000 -11.9090000  36.4940000 -21.1580000 -10.2890000  36.0170000
 -20.7160000  -9.5270000  36.6590000 -21.5150000  -9.7970000  35.1110000
 -22.3000000 -10.9040000  36.7140000 -22.1770000 -11.8200000  37.1210000
 -23.4550000 -10.3130000  36.9410000 -23.7580000  -9.1520000  36.4350000
 -23.1700000  -8.7400000  35.7250000 -24.5160000  -8.6150000  36.8310000
 -24.3290000 -10.8920000  37.7110000 -24.1080000 -11.8050000  38.0820000
 -25.2280000 -10.4690000  37.8890000 -17.8230000  -8.7300000  33.6990000
 -17.9760000  -7.5110000  33.7670000 -16.6470000  -9.2990000  33.4390000
 -16.6530000 -10.3000000  33.3030000 -15.3690000  -8.5890000  33.2730000
 -15.3720000  -7.7490000  33.9670000 -14.2170000  -9.5280000  33.6910000
 -14.3660000  -9.8180000  34.7310000 -14.2630000 -10.4310000  33.0820000
 -12.8100000  -8.9140000  33.5390000 -12.6170000  -8.6960000  32.4880000
 -12.6550000  -7.6240000  34.3430000 -12.9830000  -7.7960000  35.3680000
 -11.6120000  -7.3050000  34.3440000 -13.2480000  -6.8220000  33.9050000
 -11.7530000  -9.9050000  34.0140000 -11.8150000 -10.8170000  33.4210000
 -10.7580000  -9.4790000  33.8860000 -11.9080000 -10.1410000  35.0670000
 -15.1670000  -8.0180000  31.8570000 -14.9720000  -8.7720000  30.9010000
 -15.1570000  -6.6900000  31.7400000 -15.3540000  -6.1370000  32.5620000
 -14.8180000  -5.9580000  30.5130000 -15.6760000  -5.3580000  30.2110000
 -14.6050000  -6.6580000  29.7060000 -13.6260000  -5.0080000  30.6730000
 -13.2040000  -4.6930000  31.7880000 -13.1200000  -4.5010000  29.5480000
 -13.5130000  -4.8120000  28.6710000 -12.1770000  -3.3750000  29.5030000
 -11.9330000  -3.0720000  30.5210000 -10.8730000  -3.8210000  28.8300000
 -10.2130000  -2.9640000  28.6960000 -10.3620000  -4.5500000  29.4580000
 -11.0780000  -4.2590000  27.8530000 -12.8010000  -2.1590000  28.7960000
 -13.6610000  -2.3180000  27.9310000 -12.3850000  -0.9450000  29.1600000
 -11.6810000  -0.8870000  29.8820000 -12.8200000   0.3060000  28.5250000
 -13.6160000   0.0880000  27.8130000 -13.3800000   1.2900000  29.5760000
 -13.5300000   0.7730000  30.5240000 -12.6520000   2.0780000  29.7700000
 -14.6770000   1.9680000  29.1780000 -14.7890000   2.6200000  27.9340000
 -13.9480000   2.6750000  27.2600000 -16.0030000   3.2170000  27.5570000
 -16.0730000   3.7210000  26.6040000 -17.1090000   3.1690000  28.4230000
 -18.0500000   3.6210000  28.1430000 -16.9930000   2.5480000  29.6740000
 -17.8420000   2.5330000  30.3410000 -15.7780000   1.9520000  30.0550000
 -15.6980000   1.4800000  31.0230000 -11.6470000   0.9330000  27.7600000
 -10.6120000   1.2150000  28.3540000 -11.8050000   1.1720000  26.4620000
 -12.6710000   0.8750000  26.0350000 -10.8910000   1.9470000  25.6180000
  -9.8950000   1.9600000  26.0610000 -10.7930000   1.3040000  24.2120000
 -11.8070000   1.1920000  23.8290000 -10.0400000   2.1930000  23.2070000
  -9.0310000   2.4040000  23.5610000  -9.9950000   1.6860000  22.2440000
 -10.5640000   3.1360000  23.0500000 -10.1740000  -0.1140000  24.2430000
 -10.7710000  -0.7450000  24.9020000 -10.2420000  -0.5440000  23.2430000
  -8.7110000  -0.2060000  24.7010000  -8.6010000   0.1960000  25.7080000
  -8.4060000  -1.2520000  24.7090000  -8.0610000   0.3390000  24.0170000
 -11.3960000   3.3940000  25.5610000 -12.3510000   3.6900000  24.8360000
 -10.7610000   4.2870000  26.3260000 -10.0220000   3.9560000  26.9290000
 -10.8970000   5.7380000  26.1610000 -11.8200000   5.9560000  25.6230000
 -10.9830000   6.4610000  27.5140000 -10.2590000   6.0190000  28.1990000
 -10.7200000   7.5100000  27.3760000 -12.3530000   6.4060000  28.1420000
 -12.9150000   5.3190000  28.7630000 -12.4120000   4.4870000  29.0370000
 -14.1670000   5.6390000  29.1260000 -14.8430000   4.9870000  29.6590000
 -14.4450000   6.9030000  28.7670000 -13.2970000   7.3990000  28.1420000
 -13.1810000   8.3850000  27.7160000  -9.7420000   6.2680000  25.3050000
  -8.6400000   6.5050000  25.8040000  -9.9980000   6.4720000  24.0100000
 -10.9340000   6.2990000  23.6710000  -8.9900000   6.9050000  23.0360000
  -8.1640000   7.3600000  23.5840000  -8.4410000   5.6840000  22.2850000
  -8.3420000   4.8570000  22.9890000  -9.1680000   5.3780000  21.5320000
  -7.1000000   5.8500000  21.6300000  -6.0240000   6.4740000  22.1700000
  -5.9960000   6.9510000  23.1380000  -4.9320000   6.3330000  21.3370000
  -3.9960000   6.6150000  21.5900000  -5.2390000   5.5820000  20.2260000
  -4.4700000   5.1270000  19.1470000  -3.4250000   5.3920000  19.0810000
  -5.0750000   4.3140000  18.1750000  -4.5010000   3.9350000  17.3430000
  -6.4340000   3.9790000  18.2940000  -6.8820000   3.3320000  17.5540000
  -7.2040000   4.4540000  19.3740000  -8.2440000   4.1750000  19.4570000
  -6.6220000   5.2600000  20.3790000  -9.5390000   7.9670000  22.0690000
 -10.6600000   7.8590000  21.5650000  -8.7440000   9.0140000  21.8470000
  -7.8150000   9.0070000  22.2440000  -9.1190000  10.2390000  21.1400000
  -9.9620000  10.7100000  21.6450000  -9.4080000   9.9990000  20.1170000
  -7.9480000  11.2260000  21.1030000  -6.8500000  10.9100000  21.5760000
  -8.1580000  12.4180000  20.5410000  -9.1100000  12.6840000  20.3330000
  -7.0850000  13.3760000  20.2400000  -6.3740000  12.8830000  19.5770000
  -7.6390000  14.6080000  19.5060000  -8.2780000  15.1610000  20.1950000
  -6.7980000  15.2550000  19.2570000  -8.4340000  14.3160000  18.2210000
  -9.2760000  13.6640000  18.4520000  -8.9900000  15.6240000  17.6570000
  -8.1770000  16.2810000  17.3450000  -9.6300000  15.4090000  16.8010000
  -9.5830000  16.1230000  18.4230000  -7.5720000  13.6530000  17.1440000
  -7.2640000  12.6630000  17.4780000  -8.1570000  13.5290000  16.2320000
  -6.6910000  14.2590000  16.9340000  -6.2870000  13.8000000  21.4840000
  -5.0860000  14.0350000  21.3730000  -6.9120000  13.8040000  22.6680000
  -7.8990000  13.5900000  22.6620000  -6.2790000  14.0360000  23.9760000
  -5.9220000  15.0660000  24.0040000  -7.3140000  13.8630000  25.1010000
  -7.8990000  14.7800000  25.1810000  -6.7950000  13.7540000  26.0540000
  -8.2770000  12.7010000  24.9310000  -7.9230000  11.4020000  25.3490000
  -6.9510000  11.2210000  25.7830000  -8.8420000  10.3410000  25.2100000
  -8.5710000   9.3450000  25.5290000 -10.1220000  10.5840000  24.6610000
 -11.0330000   9.5820000  24.5530000 -10.7500000   8.7880000  25.0120000
 -10.4610000  11.8790000  24.2230000 -11.4340000  12.0550000  23.7880000
  -9.5430000  12.9340000  24.3600000  -9.8180000  13.9270000  24.0360000
  -5.0570000  13.1460000  24.2660000  -4.1750000  13.5690000  25.0150000
  -4.9550000  11.9500000  23.6750000  -5.6900000  11.6480000  23.0510000
  -3.7750000  11.0960000  23.8180000  -3.6320000  10.8910000  24.8790000
  -4.0410000   9.7630000  23.1070000  -3.1950000   9.0920000  23.2570000
  -4.9350000   9.2940000  23.5170000  -4.1790000   9.9270000  22.0380000
  -2.4780000  11.7640000  23.3060000  -1.4040000  11.4990000  23.8480000
  -2.5690000  12.6400000  22.2940000  -3.4900000  12.8470000  21.9330000
  -1.4310000  13.3540000  21.6860000  -0.6620000  12.6140000  21.4630000
  -1.8300000  13.9700000  20.3220000  -2.7010000  14.6100000  20.4680000
  -0.6950000  14.8350000  19.7450000   0.2120000  14.2410000  19.6370000
  -0.9770000  15.2290000  18.7680000  -0.4910000  15.6860000  20.3950000
  -2.2130000  12.8690000  19.3020000  -1.3100000  12.4470000  18.8610000
  -2.7470000  12.0590000  19.7990000  -3.1300000  13.3820000  18.1860000
  -2.6480000  14.1940000  17.6400000  -3.3410000  12.5700000  17.4910000
  -4.0690000  13.7370000  18.6110000  -0.7660000  14.3450000  22.6740000
   0.4240000  14.1710000  22.9560000  -1.4720000  15.3460000  23.2510000
  -2.8080000  15.7990000  22.8930000  -3.5170000  14.9720000  22.8750000
  -2.7750000  16.3010000  21.9260000  -3.2330000  16.7970000  23.9610000
  -3.7100000  16.2730000  24.7890000  -3.8960000  17.5630000  23.5590000
  -1.9010000  17.3790000  24.4170000  -1.9740000  17.7570000  25.4370000
  -1.5970000  18.1730000  23.7350000  -0.9230000  16.2050000  24.3070000
   0.0510000  16.5880000  24.0040000  -0.7560000  15.4810000  25.6570000
   0.1050000  15.8550000  26.4560000  -1.5590000  14.4440000  25.9290000
  -2.2810000  14.2090000  25.2640000  -1.4400000  13.5740000  27.1070000
  -0.4890000  13.0440000  27.0610000  -2.2380000  12.8320000  27.0740000
  -1.5250000  14.2960000  28.4570000  -0.8440000  13.8950000  29.4000000
  -2.3280000  15.3630000  28.5510000  -2.8870000  15.5970000  27.7430000
  -2.4750000  16.1970000  29.7570000  -2.1840000  15.6210000  30.6360000
  -3.5240000  16.4660000  29.8770000  -1.6490000  17.4930000  29.7760000
  -1.8330000  18.3170000  30.6730000  -0.7510000  17.7010000  28.8060000
  -0.6340000  16.9950000  28.0940000   0.1130000  18.8880000  28.7210000
   0.0380000  19.4440000  29.6560000   1.5760000  18.4450000  28.5720000
   1.7990000  17.6890000  29.3250000   1.7090000  17.9950000  27.5880000
   2.5620000  19.6160000  28.7310000   2.2500000  20.4390000  28.0880000
   2.5250000  19.9670000  29.7620000   4.0130000  19.2370000  28.3710000
   4.3660000  18.0320000  28.3710000   4.8130000  20.1550000  28.0720000
  -0.2920000  19.8310000  27.5750000  -0.3540000  19.4090000  26.4190000
  -0.5120000  21.1190000  27.8700000  -0.4180000  21.4160000  28.8310000
  -0.7800000  22.1480000  26.8540000  -0.5460000  21.7420000  25.8700000
  -2.2700000  22.5160000  26.8380000  -2.8580000  21.6110000  26.9900000
  -2.4940000  23.1940000  27.6630000  -2.7390000  23.1300000  25.5560000
  -2.9250000  24.4490000  25.3130000  -2.7660000  25.2410000  26.0300000
  -3.3490000  24.6240000  24.0080000  -3.5580000  25.5260000  23.6050000
  -3.4480000  23.4220000  23.3400000  -3.8200000  23.0780000  22.0330000
  -4.1050000  23.8480000  21.3310000  -3.8200000  21.7250000  21.6540000
  -4.1080000  21.4420000  20.6520000  -3.4360000  20.7400000  22.5830000
  -3.4270000  19.7000000  22.2900000  -3.0620000  21.0960000  23.8930000
  -2.7690000  20.3310000  24.5980000  -3.0610000  22.4460000  24.3060000
   0.1090000  23.3810000  27.0630000   0.1110000  23.9810000  28.1410000
   0.9080000  23.7270000  26.0450000   0.8380000  23.1880000  25.1940000
   1.8250000  24.8790000  26.0210000   2.4840000  24.7530000  25.1610000
   1.0240000  26.1780000  25.7820000   0.3020000  26.3090000  26.5880000
   1.7030000  27.0300000  25.7990000   0.2920000  26.2170000  24.4460000
   0.5880000  25.4940000  23.5030000  -0.6790000  27.0910000  24.3080000
  -0.9180000  27.7130000  25.0670000  -1.1570000  27.1370000  23.4190000
   2.7760000  24.9260000  27.2420000   3.0170000  25.9820000  27.8340000
   3.3230000  23.7640000  27.6210000   3.0970000  22.9420000  27.0780000
   4.3060000  23.6030000  28.7020000   4.9040000  24.5100000  28.7900000
   4.9860000  22.7930000  28.4370000   3.7210000  23.2900000  30.0870000
   4.4670000  22.8730000  30.9780000   2.4070000  23.4710000  30.2890000
   1.8550000  23.8030000  29.5110000   1.7050000  23.2030000  31.5570000
   2.4300000  23.2120000  32.3720000   0.7040000  24.3410000  31.8290000
   1.2580000  25.2780000  31.8870000  -0.0050000  24.4150000  31.0040000
  -0.0700000  24.1370000  33.1410000  -0.7700000  23.3100000  33.0230000
   0.6290000  23.8930000  33.9410000  -0.8440000  25.4020000  33.5340000
  -0.1340000  26.1970000  33.7610000  -1.4730000  25.7200000  32.7020000
  -1.7200000  25.1250000  34.7620000  -2.4420000  24.3490000  34.5080000
  -1.0880000  24.7460000  35.5640000  -2.4290000  26.3530000  35.2140000
  -3.0280000  26.7230000  34.4910000  -3.0060000  26.1620000  36.0210000
  -1.7760000  27.0770000  35.4760000   1.0350000  21.8270000  31.5420000
   0.2050000  21.5570000  30.6760000   1.3760000  20.9680000  32.5070000
   2.0800000  21.2630000  33.1690000   0.6640000  19.7050000  32.7850000
   0.2650000  19.3050000  31.8530000   1.5980000  18.6310000  33.3800000
   1.9950000  18.9860000  34.3310000   0.8500000  17.3130000  33.6220000
   0.4240000  16.9440000  32.6890000   1.5370000  16.5660000  34.0200000
   0.0490000  17.4560000  34.3470000   2.7800000  18.3260000  32.4530000
   3.3750000  19.2240000  32.2850000   3.4220000  17.5740000  32.9120000
   2.4190000  17.9470000  31.4970000  -0.5100000  19.9920000  33.7250000
  -0.3070000  20.3780000  34.8790000  -1.7380000  19.8440000  33.2300000
  -1.8360000  19.4720000  32.2960000  -2.9660000  20.0960000  33.9920000
  -2.7970000  20.9370000  34.6640000  -4.0940000  20.5000000  33.0290000
  -5.0280000  20.5490000  33.5880000  -4.2120000  19.7290000  32.2680000
  -3.8620000  21.8410000  32.3500000  -2.9750000  21.9420000  31.2610000
  -2.4650000  21.0630000  30.8940000  -2.7260000  23.1880000  30.6580000
  -2.0150000  23.2610000  29.8480000  -3.3960000  24.3400000  31.1180000
  -3.1740000  25.5450000  30.5270000  -2.5150000  25.4850000  29.8320000
  -4.2880000  24.2420000  32.2070000  -4.7980000  25.1270000  32.5590000
  -4.5080000  22.9980000  32.8300000  -5.1770000  22.9340000  33.6750000
  -3.3460000  18.8750000  34.8490000  -3.3040000  17.7390000  34.3780000
  -3.7320000  19.1040000  36.1110000  -3.7400000  20.0560000  36.4490000
  -4.0210000  18.0320000  37.0780000  -4.0030000  18.4510000  38.0840000
  -3.2350000  17.2780000  37.0220000  -5.3710000  17.3220000  36.8900000
  -5.5890000  16.2570000  37.4730000  -6.2790000  17.8950000  36.0900000
  -6.0330000  18.7730000  35.6550000  -7.5660000  17.2910000  35.7290000
  -8.1860000  18.0490000  35.2500000  -8.0750000  16.9690000  36.6380000
  -7.4520000  16.0820000  34.7840000  -6.3680000  15.7170000  34.3170000
  -8.5920000  15.4540000  34.4830000  -9.4500000  15.7780000  34.9050000
  -8.6650000  14.3110000  33.5700000  -7.9930000  13.5390000  33.9460000
 -10.0810000  13.7410000  33.6180000 -10.1000000  12.7990000  33.0690000
 -10.3710000  13.5410000  34.6500000 -10.7860000  14.4390000  33.1670000
  -8.2290000  14.6840000  32.1340000  -8.6920000  15.6870000  31.5850000
  -7.3400000  13.8970000  31.5210000  -6.9760000  13.1120000  32.0410000
  -6.7060000  14.2000000  30.2340000  -6.0880000  15.0900000  30.3550000
  -5.8010000  13.0300000  29.8460000  -5.2850000  13.2650000  28.9160000
  -5.0620000  12.8520000  30.6270000  -6.3930000  12.1250000  29.7080000
  -7.6980000  14.4780000  29.0920000  -7.4920000  15.3870000  28.2890000
  -8.7910000  13.7230000  29.0220000  -8.9280000  13.0010000  29.7150000
  -9.8100000  13.8570000  27.9820000  -9.2920000  13.9840000  27.0310000
 -10.5970000  12.5420000  27.8650000 -11.1380000  12.5690000  26.9190000
  -9.9000000  11.7060000  27.8090000 -11.6260000  12.2670000  28.9640000
 -12.3260000  13.1020000  28.9840000 -12.1740000  11.3670000  28.6840000
 -11.0920000  12.0520000  30.3850000  -9.9060000  11.6810000  30.5760000
 -11.9240000  12.2180000  31.3070000 -10.6920000  15.1200000  28.1340000
 -11.4790000  15.4370000  27.2400000 -10.5060000  15.8760000  29.2250000
  -9.8450000  15.5370000  29.9090000 -11.0450000  17.2240000  29.4580000
 -11.8250000  17.4370000  28.7280000 -11.6990000  17.2650000  30.8510000
 -11.0780000  16.7230000  31.5650000 -11.7530000  18.3000000  31.1870000
 -13.0910000  16.7300000  30.9210000 -13.4350000  15.4260000  30.9050000
 -12.7350000  14.6050000  30.8670000 -14.8090000  15.3080000  30.8950000
 -15.2710000  14.4130000  30.8170000 -15.4270000  16.5420000  30.9070000
 -16.7690000  16.9540000  30.8710000 -17.5600000  16.2230000  30.7960000
 -17.0690000  18.3260000  30.9320000 -18.0970000  18.6580000  30.9180000
 -16.0280000  19.2680000  31.0110000 -16.2640000  20.3210000  31.0590000
 -14.6850000  18.8460000  31.0160000 -13.8890000  19.5740000  31.0740000
 -14.3490000  17.4750000  30.9560000  -9.9950000  18.3460000  29.2950000
 -10.3070000  19.5080000  29.5590000  -8.7820000  18.0620000  28.7930000
  -8.5560000  17.0980000  28.5940000  -7.7180000  19.0680000  28.6110000
  -7.4720000  19.4670000  29.5950000  -6.4540000  18.3940000  28.0510000
  -6.1390000  17.6160000  28.7470000  -6.7140000  17.9140000  27.1070000
  -5.2620000  19.3430000  27.8100000  -5.5490000  20.1540000  27.1420000
  -4.7280000  19.9300000  29.1160000  -4.4700000  19.1320000  29.8120000
  -3.8390000  20.5270000  28.9120000  -5.4740000  20.5820000  29.5690000
  -4.1300000  18.5680000  27.1410000  -4.4620000  18.2160000  26.1650000
  -3.2660000  19.2190000  27.0010000  -3.8470000  17.7150000  27.7570000
  -8.1510000  20.2810000  27.7680000  -7.7530000  21.4040000  28.0840000
  -9.0190000  20.0850000  26.7620000  -9.2670000  19.1330000  26.5330000
  -9.6480000  21.1810000  26.0030000  -8.8700000  21.6910000  25.4350000
 -10.6820000  20.6040000  25.0150000 -10.2340000  19.7860000  24.4510000
 -11.5330000  20.2120000  25.5710000 -11.1610000  21.6780000  24.0240000
 -11.4330000  22.5820000  24.5700000 -10.3460000  21.9140000  23.3400000
 -12.3790000  21.2200000  23.2120000 -12.1260000  20.2980000  22.6880000
 -13.2070000  21.0170000  23.8910000 -12.8190000  22.2710000  22.1790000
 -11.9870000  22.4600000  21.5010000 -13.6330000  21.8440000  21.5930000
 -13.2680000  23.5490000  22.8110000 -12.4840000  24.0740000  23.1710000
 -13.7360000  24.1450000  22.1440000 -13.9190000  23.3870000  23.5660000
 -10.2980000  22.2190000  26.9320000 -10.1120000  23.4170000  26.7320000
 -11.0260000  21.7640000  27.9550000 -11.0560000  20.7640000  28.0940000
 -11.6070000  22.6110000  29.0010000 -12.1380000  23.4310000  28.5170000
 -12.6350000  21.8310000  29.8280000 -13.3870000  21.4080000  29.1620000
 -12.1390000  21.0210000  30.3640000 -13.2610000  22.6910000  30.7640000
 -13.9100000  22.1840000  31.2570000 -10.5330000  23.2320000  29.9040000
 -10.4790000  24.4580000  30.0220000  -9.6520000  22.4220000  30.5120000
  -9.7360000  21.4250000  30.3740000  -8.6470000  22.9120000  31.4750000
  -9.1830000  23.3730000  32.3040000  -7.8080000  21.7610000  32.0550000
  -7.0410000  21.4990000  31.3250000  -7.2950000  22.1320000  32.9420000
  -8.5210000  20.4960000  32.4350000  -8.0590000  19.2500000  32.1890000
  -7.1330000  19.0190000  31.6830000  -8.9610000  18.3160000  32.6490000
  -8.8730000  17.3290000  32.4560000 -10.0150000  18.9110000  33.3090000
 -11.1400000  18.3980000  33.9720000 -11.3010000  17.3320000  34.0300000
 -12.0680000  19.2900000  34.5350000 -12.9450000  18.9120000  35.0390000
 -11.8530000  20.6760000  34.4360000 -12.5680000  21.3580000  34.8720000
 -10.7160000  21.1810000  33.7740000 -10.5690000  22.2490000  33.7100000
  -9.7660000  20.3130000  33.1870000  -7.7260000  23.9990000  30.8920000
  -7.4900000  25.0260000  31.5340000  -7.2590000  23.8050000  29.6540000
  -7.4830000  22.9350000  29.1930000  -6.4140000  24.7510000  28.9250000
  -5.8310000  25.3290000  29.6420000  -5.4230000  23.9310000  28.0910000
  -4.7290000  24.6000000  27.5820000  -4.8570000  23.2630000  28.7410000
  -5.9510000  23.3300000  27.3510000  -7.2080000  25.7720000  28.0700000
  -6.6010000  26.6180000  27.4070000  -8.5520000  25.7160000  28.0950000
  -8.9660000  25.0110000  28.6880000  -9.4930000  26.6410000  27.4200000
 -10.4890000  26.2050000  27.4910000  -9.5410000  27.9940000  28.1610000
  -8.5450000  28.4370000  28.1830000 -10.2040000  28.6690000  27.6210000
 -10.0840000  27.8420000  29.5940000 -11.0630000  27.3670000  29.5420000
  -9.4260000  27.1960000  30.1760000 -10.2470000  29.1890000  30.3180000
 -10.8680000  29.8390000  29.7010000 -10.7790000  29.0230000  31.2550000
  -8.9240000  29.9130000  30.6120000  -8.3490000  30.0000000  29.6900000
  -9.1600000  30.9240000  30.9440000  -8.1230000  29.2270000  31.6640000
  -7.8560000  28.2930000  31.3870000  -7.2750000  29.7400000  31.8600000
  -8.6380000  29.1610000  32.5300000  -9.2280000  26.7670000  25.9070000
  -9.1930000  27.8630000  25.3430000  -9.0250000  25.6240000  25.2500000
  -9.1550000  24.7730000  25.7780000  -8.6160000  25.5110000  23.8390000
  -7.8730000  26.2880000  23.6590000  -7.9140000  24.1640000  23.5600000
  -8.6560000  23.3650000  23.5630000  -7.2280000  24.1810000  22.1910000
  -6.4710000  24.9650000  22.1640000  -6.7480000  23.2210000  22.0010000
  -7.9580000  24.3570000  21.4020000  -6.8580000  23.8190000  24.6170000
  -7.3420000  23.6250000  25.5750000  -6.3150000  22.9190000  24.3280000
  -6.1530000  24.6430000  24.7270000  -9.8130000  25.7020000  22.8840000
 -10.8270000  25.0150000  23.0600000  -9.7320000  26.5860000  21.8660000
  -8.6980000  27.5980000  21.6880000  -7.8100000  27.1410000  21.2520000
  -8.4480000  28.0890000  22.6280000  -9.2850000  28.6240000  20.7230000
  -8.5090000  29.1290000  20.1490000  -9.8880000  29.3440000  21.2760000
 -10.1860000  27.7720000  19.8360000  -9.5820000  27.3040000  19.0590000
 -10.9860000  28.3630000  19.3900000 -10.7340000  26.7100000  20.7970000
 -11.6580000  27.0800000  21.2410000 -11.0200000  25.3910000  20.0600000
 -10.1570000  24.5190000  19.9760000 -12.2400000  25.2260000  19.5360000
 -12.9010000  25.9860000  19.6080000 -12.6750000  23.9990000  18.8530000
 -12.6470000  23.1770000  19.5680000 -14.1310000  24.1750000  18.4040000
 -14.4780000  23.2610000  17.9230000 -14.7660000  24.3760000  19.2680000
 -14.2140000  25.0010000  17.6990000 -11.7560000  23.5920000  17.6840000
 -11.2340000  22.4780000  17.6690000 -11.5220000  24.4960000  16.7290000
 -11.9310000  25.4140000  16.8320000 -10.6080000  24.2740000  15.6000000
 -10.9360000  23.3730000  15.0820000 -10.6880000  25.4270000  14.5800000
  -9.9970000  25.2010000  13.7680000 -11.6920000  25.4230000  14.1570000
 -10.3950000  26.8540000  15.0960000 -10.3000000  27.0940000  16.3240000
 -10.2730000  27.7630000  14.2390000  -9.1580000  24.0130000  16.0490000
  -8.5300000  23.0600000  15.5860000  -8.6320000  24.8210000  16.9720000
  -9.1870000  25.6210000  17.2430000  -7.2990000  24.6570000  17.5640000
  -6.5660000  24.7400000  16.7610000  -7.0300000  25.8010000  18.5530000
  -7.1730000  26.7440000  18.0270000  -7.7460000  25.7470000  19.3730000
  -5.6080000  25.7520000  19.1310000  -5.5130000  24.8600000  19.7500000
  -4.8990000  25.6660000  18.3080000  -5.2530000  27.0060000  19.9590000
  -4.6520000  26.8610000  21.0510000  -5.5290000  28.1480000  19.5120000
  -7.0970000  23.2700000  18.2060000  -6.0730000  22.6230000  17.9710000
  -8.0670000  22.7930000  18.9940000  -8.8720000  23.3770000  19.1720000
  -8.0680000  21.4320000  19.5340000  -7.1350000  21.2750000  20.0750000
  -9.2210000  21.2610000  20.5270000  -9.1420000  22.0320000  21.2930000
 -10.1710000  21.4000000  20.0100000  -9.2210000  19.9260000  21.2020000
 -10.0130000  18.8720000  20.8870000 -10.7720000  18.8730000  20.1180000
  -9.6650000  17.7860000  21.6670000 -10.0640000  16.8620000  21.5810000
  -8.6320000  18.0870000  22.5210000  -7.9350000  17.3290000  23.4680000
  -8.2070000  16.2950000  23.6170000  -6.8900000  17.9250000  24.1910000
  -6.3340000  17.3440000  24.9120000  -6.5630000  19.2740000  23.9610000
  -5.7540000  19.7330000  24.5100000  -7.2700000  20.0270000  23.0030000
  -6.9970000  21.0570000  22.8250000  -8.3240000  19.4530000  22.2550000
  -8.1320000  20.3600000  18.4340000  -7.3040000  19.4480000  18.3910000
  -9.0870000  20.4770000  17.5040000  -9.7250000  21.2570000  17.5690000
  -9.3160000  19.4840000  16.4490000  -9.3450000  18.5030000  16.9230000
 -10.6920000  19.7240000  15.7980000 -10.7400000  20.7620000  15.4670000
 -10.7930000  19.0890000  14.9180000 -11.8620000  19.4320000  16.7660000
 -11.6360000  19.8340000  17.7530000 -13.1610000  20.0820000  16.2970000
 -13.5110000  19.6070000  15.3810000 -13.9150000  19.9690000  17.0750000
 -13.0030000  21.1450000  16.1150000 -12.1220000  17.9310000  16.9130000
 -11.2540000  17.4430000  17.3560000 -12.9800000  17.7660000  17.5650000
 -12.3230000  17.4890000  15.9370000  -8.1590000  19.4010000  15.4330000
  -7.9780000  18.3570000  14.8070000  -7.3000000  20.4280000  15.3420000
  -7.5480000  21.2800000  15.8230000  -6.0430000  20.4130000  14.5660000
  -6.3010000  20.2510000  13.5190000  -5.3610000  21.7910000  14.6800000
  -6.1080000  22.5530000  14.4540000  -5.0180000  21.9530000  15.7010000
  -4.1900000  22.0020000  13.7030000  -4.3220000  21.3620000  12.8310000
  -4.2170000  23.0370000  13.3610000  -2.8080000  21.7540000  14.3290000
  -2.6300000  22.4970000  15.1060000  -2.7630000  20.7600000  14.7740000
  -1.7320000  21.8730000  13.2430000  -1.9180000  21.1100000  12.4860000
  -1.8260000  22.8460000  12.7620000  -0.3630000  21.7140000  13.8020000
  -0.2520000  20.8230000  14.2650000   0.3330000  21.7700000  13.0710000
  -0.1530000  22.4400000  14.4720000  -5.1040000  19.2600000  14.9580000
  -4.3230000  18.8070000  14.1220000  -5.2320000  18.7070000  16.1720000
  -5.9030000  19.1170000  16.8050000  -4.5560000  17.4690000  16.5950000
  -3.4800000  17.6450000  16.5940000  -4.9960000  17.0970000  18.0220000
  -6.0860000  17.0640000  18.0320000  -4.6340000  16.0950000  18.2500000
  -4.5240000  18.0400000  19.1460000  -4.7770000  19.0720000  18.9040000
  -5.2220000  17.6530000  20.4510000  -4.9540000  16.6360000  20.7380000
  -4.9370000  18.3410000  21.2470000  -6.3020000  17.7150000  20.3230000
  -3.0120000  17.9510000  19.3640000  -2.4840000  18.3080000  18.4800000
  -2.7240000  18.5780000  20.2080000  -2.7230000  16.9200000  19.5670000
  -4.7990000  16.2760000  15.6440000  -3.9720000  15.3690000  15.5970000
  -5.8700000  16.2760000  14.8400000  -6.5350000  17.0320000  14.9230000
  -6.0730000  15.3130000  13.7450000  -6.1840000  14.3160000  14.1720000
  -7.3550000  15.6610000  12.9800000  -7.3610000  16.7240000  12.7400000
  -7.3710000  15.1010000  12.0450000  -8.6070000  15.2990000  13.7850000
  -8.6590000  14.2130000  13.8600000  -8.5020000  15.6990000  14.7940000
 -10.1770000  15.9160000  13.1200000 -10.0920000  15.3030000  11.4160000
  -9.9240000  14.2260000  11.4170000 -11.0210000  15.5290000  10.8920000
  -9.2750000  15.7990000  10.8920000  -4.8950000  15.2460000  12.7540000
  -4.5880000  14.1680000  12.2470000  -4.1840000  16.3550000  12.5190000
  -4.4610000  17.2110000  12.9780000  -2.9680000  16.3930000  11.6880000
  -3.1790000  15.9040000  10.7370000  -2.5590000  17.8480000  11.3890000
  -2.3380000  18.3480000  12.3320000  -1.6370000  17.8300000  10.8090000
  -3.5890000  18.6830000  10.6030000  -4.5610000  18.1310000  10.0320000
  -3.3860000  19.9180000  10.5050000  -1.7780000  15.6450000  12.3280000
  -0.8020000  15.3260000  11.6460000  -1.8620000  15.3540000  13.6310000
  -2.7060000  15.6300000  14.1130000  -0.8750000  14.6160000  14.4260000
   0.0280000  14.4570000  13.8370000  -0.4920000  15.4670000  15.6550000
  -1.3900000  15.6690000  16.2400000   0.2020000  14.9050000  16.2800000
   0.1650000  16.8080000  15.2770000   1.1480000  16.6120000  14.8480000
  -0.4380000  17.3240000  14.5290000   0.3250000  17.7480000  16.4710000
  -0.1810000  18.8630000  16.4820000   1.0110000  17.3450000  17.5210000
   1.4540000  16.4370000  17.5290000   1.1080000  17.9780000  18.3020000
  -1.3870000  13.2180000  14.8440000  -0.7220000  12.5180000  15.6120000
  -2.5300000  12.7670000  14.3050000  -3.0330000  13.3720000  13.6720000
  -3.0880000  11.4350000  14.5580000  -2.8600000  11.1380000  15.5810000
  -4.6170000  11.4700000  14.4400000  -5.0000000  12.2210000  15.1310000
  -4.8930000  11.7870000  13.4340000  -5.3030000  10.1700000  14.7440000
  -5.5990000   9.2020000  13.8460000  -5.3840000   9.2540000  12.7890000
  -6.2020000   8.1370000  14.4860000  -6.4950000   7.2950000  14.0110000
  -6.3240000   8.3640000  15.8410000  -6.8580000   7.6100000  16.8960000
  -7.2930000   6.6390000  16.7120000  -6.8020000   8.1280000  18.2000000
  -7.2030000   7.5600000  19.0260000  -6.2050000   9.3790000  18.4330000
  -6.1380000   9.7580000  19.4430000  -5.6840000  10.1360000  17.3660000
  -5.2360000  11.0990000  17.5580000  -5.7350000   9.6510000  16.0400000
  -2.4490000  10.4030000  13.6160000  -2.8600000  10.2300000  12.4650000
  -1.4050000   9.7320000  14.1070000  -1.0880000   9.9660000  15.0370000
  -0.6390000   8.7330000  13.3610000  -1.2840000   8.2760000  12.6110000
   0.4990000   9.4590000  12.6130000   0.0880000  10.2820000  12.0280000
   1.1960000   9.8790000  13.3380000   1.2590000   8.5470000  11.6610000
   0.7830000   7.5090000  11.2240000   2.4680000   8.9140000  11.2970000
   2.8680000   9.7730000  11.6470000   2.9810000   8.3190000  10.6630000
  -0.1460000   7.5990000  14.2910000   1.0440000   7.5370000  14.6190000
  -1.0440000   6.6950000  14.7350000  -2.4940000   6.7920000  14.5960000
  -2.7990000   6.8210000  13.5500000  -2.8520000   7.6840000  15.1110000
  -3.0750000   5.5590000  15.2800000  -3.1110000   4.7240000  14.5800000
  -4.0620000   5.7590000  15.6970000  -2.0350000   5.2930000  16.3640000
  -2.0720000   4.2650000  16.7260000  -2.1950000   5.9850000  17.1910000
  -0.7100000   5.6280000  15.6750000  -0.0150000   6.0030000  16.4270000
  -0.0520000   4.4270000  14.9660000  -0.6580000   3.3790000  14.7400000
   1.2270000   4.5710000  14.6130000   1.6730000   5.4550000  14.8130000
   1.9960000   3.5830000  13.8280000   1.4630000   3.4030000  12.8950000
   3.3870000   4.1280000  13.4640000   3.9270000   3.3590000  12.9100000
   3.3180000   5.3810000  12.5920000   2.8920000   6.2150000  13.1510000
   4.3200000   5.6510000  12.2580000   2.7000000   5.1850000  11.7160000
   4.1130000   4.4470000  14.6320000   4.9900000   4.7260000  14.3570000
   2.1660000   2.2130000  14.5050000   2.3910000   1.2220000  13.8040000
   2.0290000   2.1240000  15.8360000   1.8170000   2.9720000  16.3420000
   2.0730000   0.8710000  16.6150000   2.6300000   0.1240000  16.0510000
   2.8160000   1.0860000  17.9460000   2.2610000   1.7840000  18.5730000
   2.8630000   0.1320000  18.4730000   4.2500000   1.6010000  17.7560000
   4.7880000   0.9400000  17.0760000   4.2240000   2.6040000  17.3310000
   4.9840000   1.6460000  19.1010000   4.4120000   2.2600000  19.7970000
   5.0650000   0.6370000  19.5050000   6.3840000   2.2410000  18.9190000
   6.9640000   1.5850000  18.2700000   6.2930000   3.2080000  18.4240000
   7.0730000   2.4100000  20.2260000   7.1680000   1.5280000  20.7070000
   8.0000000   2.7900000  20.0990000   6.5600000   3.0430000  20.8230000
   0.6870000   0.2540000  16.8690000   0.6220000  -0.8490000  17.4170000
  -0.4080000   0.9080000  16.4610000  -0.2980000   1.7960000  15.9920000
  -1.7500000   0.3200000  16.5330000  -1.9710000   0.0860000  17.5750000
  -2.8100000   1.3150000  16.0400000  -2.8230000   2.1720000  16.7140000
  -2.5250000   1.6730000  15.0510000  -4.2200000   0.7590000  15.9460000
  -5.0860000   0.8440000  17.0510000  -4.7480000   1.3060000  17.9660000
  -6.3980000   0.3470000  16.9650000  -7.0560000   0.4290000  17.8170000
  -6.8510000  -0.2390000  15.7700000  -7.8620000  -0.6120000  15.6960000
  -5.9890000  -0.3330000  14.6640000  -6.3360000  -0.7820000  13.7450000
  -4.6780000   0.1680000  14.7510000  -4.0220000   0.0980000  13.8950000
  -1.8240000  -0.9850000  15.7250000  -1.4180000  -1.0420000  14.5600000
  -2.3870000  -2.0220000  16.3440000  -2.6810000  -1.9040000  17.3030000
  -2.7510000  -3.2770000  15.6930000  -3.0920000  -3.0620000  14.6800000
  -1.5320000  -4.2130000  15.5910000  -0.7260000  -3.6870000  15.0800000
  -1.1870000  -4.4560000  16.5960000  -1.8190000  -5.5200000  14.8270000
  -2.9670000  -5.7450000  14.3740000  -0.8720000  -6.3260000  14.6660000
  -3.9070000  -3.9180000  16.4670000  -3.7240000  -4.4290000  17.5760000
  -5.1080000  -3.8890000  15.8850000  -5.1970000  -3.4440000  14.9830000
  -6.3220000  -4.3700000  16.5340000  -6.4890000  -3.7650000  17.4250000
  -7.4970000  -4.1410000  15.5800000  -8.4250000  -4.4340000  16.0710000
  -7.5620000  -3.0840000  15.3220000  -7.3700000  -4.7290000  14.6710000
  -6.2140000  -5.8380000  16.9920000  -6.7420000  -6.1870000  18.0490000
  -5.4870000  -6.6920000  16.2530000  -5.0430000  -6.3310000  15.4210000
  -5.1970000  -8.0820000  16.6550000  -6.1400000  -8.6030000  16.8220000
  -4.4310000  -8.8270000  15.5470000  -3.5000000  -8.3040000  15.3300000
  -4.1820000  -9.8220000  15.9140000  -5.2470000  -8.9770000  14.2540000
  -6.1950000  -9.4640000  14.4820000  -5.4460000  -7.9920000  13.8330000
  -4.4750000  -9.8280000  13.2340000  -3.5230000  -9.3510000  12.9990000
  -4.2630000 -10.7980000  13.6830000  -5.2650000 -10.0710000  11.9390000
  -4.7560000 -10.8520000  11.3750000  -6.2560000 -10.4450000  12.1950000
  -5.3730000  -8.8480000  11.0970000  -4.4600000  -8.4960000  10.8440000
  -5.8640000  -9.0480000  10.2370000  -5.8760000  -8.1090000  11.5680000
  -4.4270000  -8.1600000  17.9770000  -4.7990000  -8.9430000  18.8480000
  -3.3990000  -7.3220000  18.1700000  -3.1910000  -6.6630000  17.4330000
  -2.6430000  -7.2280000  19.4370000  -2.3320000  -8.2300000  19.7340000
  -1.3750000  -6.3730000  19.2690000  -1.6400000  -5.3800000  18.9050000
  -0.9020000  -6.2610000  20.2440000  -0.3640000  -7.0210000  18.3130000
  -0.1320000  -8.0260000  18.6650000  -0.8010000  -7.0910000  17.3170000
   0.9320000  -6.2030000  18.2420000   0.7060000  -5.1870000  17.9210000
   1.3890000  -6.1700000  19.2310000   1.9040000  -6.8510000  17.2490000
   2.0880000  -7.8800000  17.5590000   1.4330000  -6.8780000  16.2660000
   3.1900000  -6.1070000  17.1780000   3.6520000  -6.0850000  18.0750000
   3.8230000  -6.5430000  16.5220000   3.0490000  -5.1540000  16.8750000
  -3.5070000  -6.6920000  20.5810000  -3.4510000  -7.2250000  21.6870000
  -4.3510000  -5.6940000  20.3110000  -4.3270000  -5.2880000  19.3860000
  -5.3190000  -5.1740000  21.2870000  -4.7800000  -4.8690000  22.1840000
  -6.0290000  -3.9290000  20.7280000  -6.4790000  -4.1730000  19.7660000
  -6.8490000  -3.6930000  21.4070000  -5.2230000  -2.6640000  20.5640000
  -3.9160000  -2.5460000  20.2110000  -3.2480000  -3.3660000  19.9930000
  -3.5490000  -1.2130000  20.1990000  -2.6130000  -0.8760000  20.0290000
  -4.6100000  -0.3960000  20.5100000  -4.7420000   0.9950000  20.6130000
  -3.8960000   1.6410000  20.4300000  -5.9940000   1.5360000  20.9310000
  -6.1140000   2.6080000  20.9950000  -7.0840000   0.6860000  21.1770000
  -8.0450000   1.1120000  21.4250000  -6.9340000  -0.7110000  21.1040000
  -7.7800000  -1.3520000  21.3070000  -5.6970000  -1.2910000  20.7450000
  -6.3240000  -6.2560000  21.7320000  -6.5460000  -6.4430000  22.9300000
  -6.8750000  -7.0250000  20.7870000  -6.7080000  -6.7860000  19.8200000
  -7.7100000  -8.1970000  21.0600000  -8.5470000  -7.8840000  21.6840000
  -8.2950000  -8.7090000  19.7390000  -8.9850000  -9.5290000  19.9370000
  -8.8420000  -7.9040000  19.2490000  -7.5010000  -9.0590000  19.0800000
  -6.9720000  -9.2890000  21.8540000  -7.5040000  -9.7840000  22.8460000
  -5.7290000  -9.6190000  21.4800000  -5.3780000  -9.2180000  20.6220000
  -4.8660000 -10.5750000  22.1960000  -5.3810000 -11.5350000  22.2320000
  -3.5650000 -10.7620000  21.3950000  -3.8330000 -10.9620000  20.3570000
  -2.9800000  -9.8430000  21.4250000  -2.6950000 -11.9270000  21.8920000
  -2.3260000 -11.7040000  22.8940000  -3.2960000 -12.8350000  21.9250000
  -1.5080000 -12.1390000  20.9350000  -1.8990000 -12.2580000  19.9250000
  -0.8650000 -11.2590000  20.9430000  -0.6800000 -13.3920000  21.2560000
  -1.3530000 -14.2430000  21.3670000  -0.0340000 -13.5950000  20.4030000
   0.1570000 -13.2360000  22.4730000  -0.4010000 -13.1140000  23.3060000
   0.7210000 -14.0590000  22.6290000   0.7840000 -12.4480000  22.3980000
  -4.6170000 -10.1570000  23.6510000  -4.7930000 -10.9740000  24.5500000
  -4.2930000  -8.8870000  23.9060000  -4.1330000  -8.2760000  23.1180000
  -4.1390000  -8.3360000  25.2620000  -3.3810000  -8.9250000  25.7780000
  -3.6100000  -6.8950000  25.1670000  -2.6410000  -6.9210000  24.6700000
  -4.2870000  -6.2940000  24.5610000  -3.4390000  -6.2110000  26.5310000
  -4.4250000  -5.9740000  26.9290000  -2.9440000  -6.8960000  27.2200000
  -2.4590000  -4.6860000  26.4410000  -2.9630000  -3.8600000  27.9740000
  -2.6600000  -4.4600000  28.8320000  -2.4810000  -2.8840000  28.0400000
  -4.0440000  -3.7250000  27.9850000  -5.4270000  -8.4460000  26.0990000
  -5.3810000  -8.9100000  27.2390000  -6.5870000  -8.0910000  25.5340000
  -6.5680000  -7.6820000  24.6110000  -7.8940000  -8.2740000  26.1790000
  -7.8870000  -7.7410000  27.1300000  -8.9610000  -7.6290000  25.2870000
  -9.9390000  -7.7190000  25.7590000  -8.7360000  -6.5710000  25.1500000
  -8.9920000  -8.1200000  24.3150000  -8.2060000  -9.7570000  26.4920000
  -8.6310000 -10.0920000  27.6020000  -7.9390000 -10.6590000  25.5360000
  -7.6330000 -10.3080000  24.6400000  -8.0990000 -12.1170000  25.6830000
  -9.1280000 -12.3070000  25.9870000  -7.8500000 -12.7800000  24.3130000
  -8.4310000 -12.2610000  23.5510000  -6.7980000 -12.6700000  24.0500000
  -8.2090000 -14.2710000  24.2410000  -7.9240000 -14.6300000  23.2520000
  -7.6220000 -14.8270000  24.9720000  -9.7050000 -14.5490000  24.4720000
  -9.9190000 -14.4390000  25.5350000 -10.3160000 -13.8320000  23.9240000
 -10.0770000 -15.9770000  24.0480000  -9.2810000 -16.6540000  24.3590000
 -10.9830000 -16.2710000  24.5770000 -10.3080000 -16.0840000  22.5820000
  -9.5420000 -15.7040000  22.0440000 -10.4360000 -17.0460000  22.3030000
 -11.1370000 -15.5760000  22.3100000  -7.1960000 -12.6970000  26.7800000
  -7.6690000 -13.4580000  27.6200000  -5.9250000 -12.2940000  26.8220000
  -5.5970000 -11.7100000  26.0660000  -4.9590000 -12.6590000  27.8730000
  -4.9210000 -13.7460000  27.9560000  -3.5550000 -12.1610000  27.4960000
  -3.6220000 -11.1200000  27.1820000  -2.9090000 -12.2190000  28.3720000
  -2.9310000 -13.0130000  26.3810000  -2.7640000 -14.0170000  26.7720000
  -3.6330000 -13.1000000  25.5520000  -1.5990000 -12.4540000  25.8420000
  -1.1190000 -11.3810000  26.2830000  -1.0080000 -13.1110000  24.9510000
  -5.3530000 -12.1260000  29.2610000  -5.2320000 -12.8470000  30.2510000
  -5.8870000 -10.9000000  29.3350000  -5.8930000 -10.3350000  28.4980000
  -6.5090000 -10.3320000  30.5430000  -5.7900000 -10.3890000  31.3610000
  -6.8120000  -8.8470000  30.2870000  -5.8790000  -8.3360000  30.0520000
  -7.4690000  -8.7590000  29.4220000  -7.4810000  -8.1220000  31.4590000
  -8.4180000  -8.6250000  31.7000000  -6.8300000  -8.1590000  32.3320000
  -7.8780000  -6.3990000  31.0790000  -9.0150000  -6.0480000  32.4440000
  -8.4650000  -6.0270000  33.3850000  -9.4860000  -5.0790000  32.2770000
  -9.7900000  -6.8130000  32.4940000  -7.7650000 -11.1090000  30.9880000
  -8.1510000 -11.0570000  32.1560000  -8.4030000 -11.8430000  30.0720000
  -8.0350000 -11.8510000  29.1310000  -9.5890000 -12.6540000  30.3410000
  -9.5030000 -13.1120000  31.3260000  -9.6420000 -13.4560000  29.6050000
 -10.9050000 -11.8770000  30.2820000 -11.9060000 -12.3540000  30.8200000
 -10.9380000 -10.6820000  29.6800000 -10.1190000 -10.3640000  29.1810000
 -12.2070000  -9.9650000  29.4660000 -12.7230000  -9.9330000  30.4260000
 -12.0270000  -8.5040000  29.0140000 -12.9870000  -8.0020000  29.1320000
 -10.9870000  -7.7470000  29.8340000  -9.9890000  -8.1330000  29.6270000
 -11.0180000  -6.6900000  29.5690000 -11.2040000  -7.8470000  30.8970000
 -11.6520000  -8.4040000  27.6630000 -11.8240000  -7.5050000  27.3760000
 -13.1160000 -10.7170000  28.4850000 -12.6470000 -11.3720000  27.5490000
 -14.4360000 -10.6130000  28.6870000 -14.7510000 -10.1300000  29.5160000
 -15.4530000 -11.1400000  27.7510000 -15.0020000 -11.8940000  27.1060000
 -16.5730000 -11.8260000  28.5570000 -17.0470000 -11.0830000  29.1990000
 -17.3230000 -12.2060000  27.8640000 -16.1040000 -12.9940000  29.4470000
 -15.3850000 -12.6280000  30.1810000 -16.9690000 -13.3720000  29.9920000
 -15.4800000 -14.1590000  28.6610000 -16.1890000 -14.4990000  27.9060000
 -14.5650000 -13.8250000  28.1700000 -15.1460000 -15.3190000  29.6100000
 -14.4150000 -14.9710000  30.3400000 -16.0480000 -15.6020000  30.1520000
 -14.6040000 -16.4960000  28.8760000 -13.7580000 -16.2650000  28.3750000
 -14.3830000 -17.2490000  29.5120000 -15.2710000 -16.8540000  28.2080000
 -15.9920000 -10.0740000  26.7800000 -16.6810000 -10.4110000  25.8190000
 -15.6550000  -8.7990000  27.0070000 -15.0610000  -8.5960000  27.7980000
 -16.1050000  -7.6500000  26.2130000 -16.1100000  -7.9600000  25.1680000
 -17.5390000  -7.2500000  26.5990000 -18.1850000  -8.1190000  26.4730000
 -17.8930000  -6.4900000  25.9030000 -17.7400000  -6.7490000  28.0160000
 -17.7780000  -7.6810000  29.0630000 -17.5730000  -8.7210000  28.8560000
 -18.0900000  -7.2750000  30.3700000 -18.1420000  -8.0100000  31.1590000
 -18.3340000  -5.9150000  30.6460000 -18.5820000  -5.5210000  31.9210000
 -18.2940000  -6.1770000  32.5600000 -18.2740000  -4.9710000  29.5980000
 -18.4700000  -3.9310000  29.8150000 -17.9700000  -5.3860000  28.2850000
 -17.9410000  -4.6660000  27.4810000 -15.1660000  -6.4430000  26.3330000
 -14.3770000  -6.3410000  27.2780000 -15.2750000  -5.5130000  25.3810000
 -15.9050000  -5.7010000  24.6150000 -14.5610000  -4.2270000  25.3790000
 -14.2230000  -4.0330000  26.3970000 -13.3030000  -4.2530000  24.4850000
 -13.5810000  -4.5090000  23.4630000 -12.5960000  -2.8910000  24.4820000
 -12.3530000  -2.5900000  25.5010000 -11.6750000  -2.9530000  23.9030000
 -13.2270000  -2.1320000  24.0190000 -12.2930000  -5.2830000  25.0040000
 -12.7030000  -6.2890000  24.9070000 -11.3690000  -5.2310000  24.4290000
 -12.0690000  -5.0940000  26.0540000 -15.5000000  -3.0850000  24.9820000
 -16.1740000  -3.1420000  23.9510000 -15.5510000  -2.0500000  25.8260000
 -14.9400000  -2.0880000  26.6300000 -16.2710000  -0.7880000  25.5970000
 -17.0910000  -0.9880000  24.9060000 -16.8700000  -0.2540000  26.9140000
 -16.0790000   0.1970000  27.5140000 -17.5950000   0.5230000  26.6690000
 -17.5360000  -1.3530000  27.7630000 -18.0210000  -2.0850000  27.1180000
 -16.7550000  -1.8830000  28.3090000 -18.5740000  -0.8420000  28.7700000
 -18.8200000  -1.6780000  29.4250000 -18.1600000  -0.0360000  29.3750000
 -19.8580000  -0.3740000  28.0720000 -19.7670000   0.6750000  27.7900000
 -19.9870000  -0.9560000  27.1600000 -21.0440000  -0.5890000  28.9280000
 -21.1360000   0.0840000  29.6770000 -21.8880000  -0.6510000  28.3770000
 -20.9810000  -1.4480000  29.4550000 -15.3410000   0.2300000  24.9320000
 -14.1860000   0.3190000  25.3310000 -15.8000000   0.9800000  23.9290000
 -16.7420000   0.8020000  23.6110000 -14.9320000   1.8270000  23.0810000
 -13.9690000   1.9640000  23.5730000 -14.6730000   1.1550000  21.7040000
 -15.6200000   1.1160000  21.1650000 -13.6870000   2.0090000  20.8780000
 -12.7340000   2.0970000  21.3990000 -13.5110000   1.5590000  19.9010000
 -14.0910000   3.0050000  20.6950000 -14.1490000  -0.2970000  21.8320000
 -13.1810000  -0.2940000  22.3350000 -14.8450000  -0.8810000  22.4340000
 -14.0170000  -1.0390000  20.4950000 -13.1840000  -0.6410000  19.9160000
 -13.8300000  -2.0950000  20.6900000 -14.9400000  -0.9440000  19.9240000
 -15.5500000   3.2170000  22.8830000 -16.7180000   3.3190000  22.5060000
 -14.7740000   4.2870000  23.0970000 -13.8450000   4.1420000  23.4650000
 -15.1780000   5.6880000  22.8550000 -16.1760000   5.8590000  23.2580000
 -14.2330000   6.6820000  23.5590000 -14.4930000   7.6910000  23.2400000
 -14.3620000   6.6390000  25.0750000 -14.1220000   5.6480000  25.4590000
 -13.6790000   7.3750000  25.5000000 -15.3770000   6.9030000  25.3730000
 -12.8810000   6.4470000  23.2230000 -12.7960000   6.6700000  22.2930000
 -15.2530000   6.0090000  21.3600000 -14.3390000   6.6050000  20.7920000
 -16.3600000   5.6310000  20.7090000 -17.0690000   5.1230000  21.2170000
 -16.5980000   5.9060000  19.2770000 -15.8050000   5.4200000  18.7070000
 -17.9350000   5.3290000  18.7820000 -17.9420000   5.3650000  17.6930000
 -18.1580000   3.8880000  19.2290000 -18.3910000   3.8490000  20.2930000
 -18.9840000   3.4600000  18.6610000 -17.2610000   3.2970000  19.0410000
 -19.0160000   6.0850000  19.2670000 -19.8220000   5.5970000  19.0840000
 -16.5160000   7.4060000  18.9650000 -15.8490000   7.7950000  18.0040000
 -17.1380000   8.2360000  19.8180000 -17.7530000   7.7900000  20.4850000
 -17.0490000   9.7020000  19.8530000 -16.1140000  10.0100000  19.3830000
 -18.2150000  10.3110000  19.0520000 -18.2260000   9.8770000  18.0520000
 -19.1590000  10.0760000  19.5420000 -18.0580000  11.8300000  18.8950000
 -17.9430000  12.3020000  19.8710000 -17.1550000  12.0200000  18.3150000
 -19.2470000  12.4770000  18.1740000 -18.9580000  13.4840000  17.8740000
 -19.4810000  11.9110000  17.2730000 -20.4840000  12.5660000  19.0800000
 -20.8750000  11.5640000  19.2590000 -20.1890000  12.9880000  20.0410000
 -21.5210000  13.4230000  18.4570000 -21.7900000  13.0540000  17.5560000
 -22.3380000  13.4960000  19.0470000 -21.1540000  14.3510000  18.3040000
 -17.0520000  10.1960000  21.3030000 -18.0890000  10.1510000  21.9700000
 -15.8960000  10.6380000  21.8000000 -15.0870000  10.6300000  21.1950000
 -15.7730000  11.3110000  23.1020000 -16.3570000  10.7430000  23.8270000
 -14.3080000  11.2470000  23.5720000 -13.9120000  10.2490000  23.3840000
 -13.7110000  11.9600000  23.0030000 -14.1690000  11.5260000  25.0480000
 -13.8610000  12.7350000  25.6370000 -13.4470000  13.5440000  25.1950000
 -14.1090000  12.6300000  26.9510000 -13.9840000  13.4290000  27.6670000
 -14.5220000  11.3900000  27.2540000 -14.5620000  10.6800000  26.0510000
 -14.9340000   9.6750000  25.9220000 -16.3700000  12.7390000  23.0770000
 -16.7490000  13.2280000  22.0110000 -16.4310000  13.4310000  24.2240000
 -16.1280000  12.9740000  25.0730000 -16.9580000  14.8030000  24.3490000
 -18.0370000  14.7760000  24.1910000 -16.6940000  15.3610000  25.7580000
 -15.6190000  15.4900000  25.8770000 -17.1400000  16.3550000  25.8050000
 -17.1970000  14.5720000  26.9500000 -18.3490000  13.8260000  27.0480000
 -18.9920000  13.6180000  26.2980000 -18.4680000  13.3940000  28.3160000
 -19.2740000  12.7740000  28.6790000 -17.4530000  13.8500000  29.0720000
 -16.6380000  14.5890000  28.2000000 -15.7430000  15.1320000  28.4660000
 -16.3810000  15.7960000  23.3130000 -17.0870000  16.6850000  22.8410000
 -15.1120000  15.6230000  22.9190000 -14.5840000  14.8830000  23.3590000
 -14.4240000  16.4490000  21.9140000 -14.4770000  17.4880000  22.2390000
 -12.9340000  16.0660000  21.8580000 -12.4120000  16.8100000  21.2570000
 -12.5290000  16.0980000  22.8690000 -12.6800000  14.6760000  21.2470000
 -13.2550000  13.9350000  21.8030000 -13.0400000  14.6770000  20.2180000
 -11.1950000  14.2620000  21.2440000 -10.3360000  15.0560000  21.6960000
 -10.9010000  13.1380000  20.7740000 -15.0520000  16.4080000  20.5060000
 -14.8030000  17.3140000  19.7100000 -15.8330000  15.3710000  20.1780000
 -16.0270000  14.6800000  20.8880000 -16.5690000  15.2630000  18.9150000
 -16.8210000  16.2640000  18.5650000 -17.5060000  14.7400000  19.1030000
 -15.8340000  14.5490000  17.7710000 -16.4560000  14.2140000  16.7630000
 -14.5300000  14.2880000  17.9160000 -14.0810000  14.5960000  18.7670000
 -13.7560000  13.4500000  16.9950000 -13.8890000  13.8500000  15.9900000
 -12.2670000  13.5510000  17.3480000 -11.9400000  14.5790000  17.1920000
 -12.1500000  13.3270000  18.4080000 -11.3540000  12.6250000  16.5620000
 -11.0650000  12.8960000  15.2110000 -11.5000000  13.7580000  14.7270000
 -10.1890000  12.0580000  14.4940000  -9.9510000  12.2780000  13.4640000
  -9.5960000  10.9520000  15.1280000  -8.9050000  10.3220000  14.5870000
  -9.8890000  10.6740000  16.4740000  -9.4230000   9.8320000  16.9630000
 -10.7720000  11.5050000  17.1880000 -10.9840000  11.2940000  18.2260000
 -14.2420000  11.9860000  16.9990000 -14.4740000  11.4120000  18.0670000
 -14.3570000  11.3720000  15.8160000 -14.1940000  11.9270000  14.9880000
 -14.8890000  10.0160000  15.6400000 -15.3610000   9.6880000  16.5660000
 -15.9640000  10.0340000  14.5410000 -15.5300000  10.4400000  13.6270000
 -16.2990000   9.0190000  14.3280000 -17.3960000  11.0330000  15.0360000
 -18.0370000  10.0570000  15.6850000 -13.8000000   8.9970000  15.2590000
 -13.0770000   9.1890000  14.2770000 -13.7720000   7.8570000  15.9650000
 -14.3920000   7.7860000  16.7590000 -12.9260000   6.6930000  15.6440000
 -11.9330000   7.0530000  15.3780000 -12.7780000   5.7700000  16.8720000
 -13.7690000   5.4410000  17.1840000 -12.2220000   4.8850000  16.5620000
 -12.0510000   6.3690000  18.0930000 -12.6530000   7.1730000  18.5170000
 -11.8720000   5.2680000  19.1420000 -11.2230000   4.4800000  18.7590000
 -11.4290000   5.6920000  20.0430000 -12.8420000   4.8430000  19.3990000
 -10.6600000   6.9130000  17.7560000 -10.7480000   7.7810000  17.1020000
 -10.1590000   7.2290000  18.6710000 -10.0610000   6.1460000  17.2660000
 -13.4160000   5.8850000  14.4230000 -12.7070000   4.9890000  13.9640000
 -14.6050000   6.1980000  13.8940000 -15.1160000   6.9650000  14.3090000
 -15.1250000   5.6720000  12.6260000 -14.4530000   4.8870000  12.2810000
 -16.5050000   5.0290000  12.8370000 -16.6510000   4.3040000  12.0360000
 -16.4940000   4.4650000  13.7700000 -17.7120000   5.9190000  12.8280000
 -18.5350000   6.1010000  11.7670000 -18.4130000   5.6370000  10.7990000
 -19.5610000   6.9550000  12.1180000 -20.2890000   7.2600000  11.4870000
 -19.4470000   7.3760000  13.4200000 -20.2260000   8.2310000  14.2080000
 -21.1070000   8.6930000  13.7890000 -19.8590000   8.4450000  15.5460000
 -20.4610000   9.0780000  16.1810000 -18.7150000   7.8100000  16.0620000
 -18.4630000   7.9390000  17.1040000 -17.9170000   6.9820000  15.2490000
 -17.0490000   6.4910000  15.6650000 -18.2680000   6.7360000  13.9040000
 -15.1820000   6.7740000  11.5510000 -15.2740000   7.9580000  11.8920000
 -15.1560000   6.4280000  10.2490000 -14.9420000   5.0820000   9.7290000
 -15.7460000   4.4040000  10.0140000 -13.9840000   4.7080000  10.0900000
 -14.8840000   5.2110000   8.2090000 -15.8850000   5.1070000   7.7890000
 -14.2030000   4.4840000   7.7670000 -14.3840000   6.6430000   8.0290000
 -14.6090000   7.0370000   7.0370000 -13.3090000   6.6640000   8.2040000
 -15.0960000   7.4020000   9.1570000 -14.4860000   8.2610000   9.4390000
 -16.5090000   7.9050000   8.7870000 -17.0210000   7.6590000   7.6930000
 -17.1530000   8.6050000   9.7310000 -16.6880000   8.7190000  10.6200000
 -18.4970000   9.1850000   9.5660000 -19.1880000   8.3500000   9.4540000
 -18.8990000   9.9910000  10.8100000 -18.7550000   9.3920000  11.7090000
 -18.2740000  10.8800000  10.8870000 -20.2560000  10.3870000  10.7170000
 -20.7720000   9.5790000  10.6640000 -18.6430000  10.0840000   8.3290000
 -17.7170000  10.8280000   7.9890000 -19.8310000  10.0820000   7.7040000
 -20.5040000   9.3840000   7.9850000 -20.2110000  11.0690000   6.6670000
 -19.3050000  11.4080000   6.1650000 -21.0810000  10.3920000   5.5920000
 -21.1110000  11.0340000   4.7120000 -20.5920000   9.4610000   5.3050000
 -22.5310000  10.1150000   6.0370000 -22.5310000   9.5900000   6.9920000
 -23.0440000  11.0660000   6.1830000 -23.3380000   9.3030000   5.0090000
 -24.3530000   9.1720000   5.3830000 -23.4030000   9.8810000   4.0880000
 -22.7440000   7.9250000   4.6730000 -23.3360000   7.4920000   3.8670000
 -21.7330000   8.0570000   4.2900000 -22.7400000   6.9980000   5.8390000
 -23.6810000   6.8070000   6.1530000 -22.3220000   6.1140000   5.5860000
 -22.2160000   7.3590000   6.6230000 -20.8780000  12.3400000   7.2200000
 -20.9840000  13.3360000   6.5020000 -21.3110000  12.3220000   8.4850000
 -21.1670000  11.4770000   9.0190000 -22.0990000  13.3970000   9.1110000
 -22.6470000  13.9220000   8.3290000 -23.1450000  12.7650000  10.0420000
 -23.7250000  13.5560000  10.5160000 -22.6380000  12.2080000  10.8300000
 -24.1060000  11.8520000   9.3000000 -25.0440000  12.4120000   8.4090000
 -25.0990000  13.4830000   8.2870000 -25.9000000  11.5800000   7.6610000
 -26.6130000  12.0140000   6.9750000 -25.8230000  10.1790000   7.8070000
 -26.6470000   9.3650000   7.0950000 -27.2340000   9.8630000   6.5220000
 -24.8900000   9.6200000   8.7050000 -24.8400000   8.5460000   8.8110000
 -24.0320000  10.4520000   9.4510000 -23.3140000  10.0130000  10.1280000
 -21.2500000  14.4730000   9.8160000 -21.7720000  15.5190000  10.2030000
 -19.9360000  14.2550000   9.9330000 -19.5770000  13.3780000   9.5840000
 -18.9380000  15.2630000  10.3350000 -19.3180000  16.2520000  10.0810000
 -18.7020000  15.2350000  11.8560000 -19.6500000  15.4220000  12.3610000
 -18.1010000  13.9330000  12.3860000 -17.0900000  13.7990000  12.0010000
 -18.0580000  13.9680000  13.4740000 -18.7160000  13.0840000  12.0850000
 -17.7910000  16.2470000  12.2080000 -17.9690000  16.4780000  13.1220000
 -17.6280000  15.0630000   9.5660000 -17.3450000  13.9570000   9.1000000
 -16.8030000  16.1140000   9.4580000 -17.1110000  16.9910000   9.8520000
 -15.4290000  16.0180000   8.9260000 -15.4050000  15.2310000   8.1720000
 -15.0410000  17.3260000   8.2110000 -14.0950000  17.1680000   7.6940000
 -15.7960000  17.5460000   7.4560000 -14.8920000  18.5450000   9.1390000
 -15.8290000  18.7270000   9.6640000 -14.1070000  18.3560000   9.8720000
 -14.5220000  19.7890000   8.3200000 -13.5910000  19.6040000   7.7860000
 -15.3130000  19.9900000   7.5970000 -14.3500000  21.0040000   9.2380000
 -15.2760000  21.1620000   9.7900000 -13.5630000  20.7860000   9.9600000
 -14.0070000  22.2260000   8.4620000 -14.7260000  22.4470000   7.7890000
 -13.9040000  23.0270000   9.0680000 -13.1390000  22.1110000   7.9580000
 -14.3990000  15.6130000   9.9870000 -13.3030000  15.1800000   9.6340000
 -14.7450000  15.7000000  11.2720000 -15.6700000  16.0400000  11.4920000
 -13.8420000  15.4220000  12.3940000 -12.8400000  15.7440000  12.1110000
 -14.2530000  16.2850000  13.5970000 -13.5510000  16.1080000  14.4110000
 -15.2400000  15.9730000  13.9380000 -14.2710000  17.7770000  13.2930000
 -13.0830000  18.4360000  12.9150000 -12.1550000  17.8870000  12.8510000
 -13.0910000  19.8160000  12.6300000 -12.1750000  20.3140000  12.3490000
 -14.2960000  20.5460000  12.7250000 -14.3110000  21.8810000  12.4670000
 -13.4250000  22.2520000  12.4470000 -15.4880000  19.8860000  13.0880000
 -16.4070000  20.4480000  13.1610000 -15.4740000  18.5060000  13.3710000
 -16.3900000  18.0140000  13.6630000 -13.7550000  13.9140000  12.6930000
 -14.2880000  13.4150000  13.6830000 -13.1000000  13.1640000  11.8040000
 -12.6990000  13.6230000  10.9980000 -13.0400000  11.6910000  11.8310000
 -13.2900000  11.3350000  12.8310000 -14.0400000  11.0670000  10.8360000
 -14.1400000  10.0070000  11.0710000 -15.4270000  11.7020000  10.8470000
 -15.3770000  12.7260000  10.4760000 -16.0930000  11.1330000  10.1980000
 -15.8320000  11.7040000  11.8590000 -13.5610000  11.1830000   9.5160000
 -14.3130000  11.1590000   8.9200000 -11.6410000  11.1740000  11.4960000
 -10.8370000  11.8780000  10.8810000 -11.3700000   9.9060000  11.8250000
 -12.0230000   9.4240000  12.4270000 -10.1470000   9.1830000  11.4210000
  -9.3030000   9.6520000  11.9270000 -10.1730000   7.7070000  11.8630000
  -9.3330000   7.1990000  11.3910000  -9.9670000   7.6020000  13.3760000
 -10.7130000   8.1940000  13.9060000 -10.0410000   6.5600000  13.6900000
  -8.9770000   7.9760000  13.6370000 -11.4620000   6.9740000  11.4610000
 -11.5970000   7.0130000  10.3800000 -11.3850000   5.9280000  11.7550000
 -12.3280000   7.4120000  11.9580000  -9.8360000   9.2690000   9.9200000
  -8.6610000   9.2910000   9.5600000 -10.8420000   9.3700000   9.0400000
 -11.7900000   9.4120000   9.3860000 -10.6320000   9.5070000   7.5940000
 -10.0780000   8.6360000   7.2450000 -11.9910000   9.5170000   6.8870000
 -11.8390000   9.5380000   5.8080000 -12.5500000   8.6160000   7.1420000
 -12.5630000  10.3980000   7.1760000  -9.8120000  10.7560000   7.2110000
  -9.0150000  10.7060000   6.2730000  -9.9740000  11.8600000   7.9510000
 -10.5950000  11.8090000   8.7460000  -9.2640000  13.1250000   7.7300000
  -8.8510000  13.1360000   6.7210000 -10.2800000  14.2800000   7.8110000
 -10.7810000  14.2510000   8.7780000  -9.7600000  15.2340000   7.7250000
 -11.3120000  14.2200000   6.6930000 -10.9990000  14.0200000   5.5260000
 -12.5750000  14.3940000   7.0020000 -12.8300000  14.5920000   7.9590000
 -13.2610000  14.3600000   6.2620000  -8.0500000  13.2660000   8.6740000
  -7.8510000  14.2890000   9.3300000  -7.2160000  12.2240000   8.7150000
  -7.4280000  11.4370000   8.1180000  -5.9460000  12.1580000   9.4650000
  -5.6450000  13.1620000   9.7640000  -6.0850000  11.2970000  10.7360000
  -5.1610000  11.3920000  11.3060000  -7.2370000  11.7080000  11.6510000
  -8.1920000  11.6310000  11.1320000  -7.2550000  11.0650000  12.5310000
  -7.0880000  12.7390000  11.9750000  -6.2370000   9.9320000  10.4140000
  -7.1430000   9.7990000  10.1250000  -4.8400000  11.5520000   8.5850000
  -5.1540000  10.9370000   7.5610000  -3.5520000  11.6450000   8.9740000
  -3.0040000  12.5690000   9.9580000  -3.1750000  12.1900000  10.9660000
  -3.4340000  13.5650000   9.8540000  -1.5040000  12.6240000   9.6800000
  -0.9330000  12.8190000  10.5880000  -1.2980000  13.3780000   8.9210000
  -1.2070000  11.2360000   9.1190000  -1.0780000  10.5360000   9.9440000
  -0.3230000  11.2400000   8.4820000  -2.4740000  10.8940000   8.3280000
  -2.3620000  11.2570000   7.3060000  -2.7140000   9.3740000   8.2980000
  -2.3510000   8.7120000   7.3240000  -3.3100000   8.8140000   9.3610000
  -3.5540000   9.4070000  10.1410000  -3.5450000   7.3720000   9.4920000
  -2.6260000   6.8640000   9.1970000  -3.8040000   7.0390000  10.9650000
  -4.8390000   7.2670000  11.2180000  -3.1730000   7.6790000  11.5820000
  -3.4850000   5.6000000  11.3220000  -2.1370000   5.1940000  11.3880000
  -1.3480000   5.9000000  11.1710000  -1.8110000   3.8730000  11.7400000
  -0.7770000   3.5650000  11.7920000  -2.8380000   2.9490000  12.0270000
  -2.5250000   1.6730000  12.3690000  -1.6280000   1.6160000  12.7040000
  -4.1890000   3.3520000  11.9520000  -4.9660000   2.6350000  12.1710000
  -4.5120000   4.6800000  11.6060000  -5.5460000   4.9900000  11.5650000
  -4.6700000   6.8210000   8.5980000  -4.5340000   5.7240000   8.0530000
  -5.7890000   7.5580000   8.4660000  -5.8020000   8.4200000   8.9930000
  -6.9360000   7.3300000   7.5450000  -7.5510000   8.2290000   7.5700000
  -6.4890000   7.1550000   6.0770000  -5.8780000   6.2580000   5.9800000
  -7.3780000   7.0130000   5.4630000  -5.7270000   8.3770000   5.5370000
  -6.3790000   9.2480000   5.5990000  -4.8450000   8.5640000   6.1500000
  -5.2780000   8.2080000   4.0790000  -6.1400000   7.9570000   3.4610000
  -4.8730000   9.1610000   3.7360000  -4.1970000   7.1260000   3.9360000
  -3.3670000   7.3750000   4.5970000  -4.6070000   6.1690000   4.2580000
  -3.7130000   7.0200000   2.5340000  -3.3060000   7.8880000   2.2180000
  -3.0040000   6.3050000   2.4480000  -4.4630000   6.7800000   1.9010000
  -7.8840000   6.1890000   7.9610000  -9.1030000   6.3230000   7.8460000
  -7.3110000   5.0560000   8.3820000  -6.3010000   5.0770000   8.4040000
  -7.9630000   3.7600000   8.6680000  -8.3620000   3.3660000   7.7330000
  -6.8950000   2.7840000   9.1970000  -6.3370000   3.2720000   9.9960000
  -7.3830000   1.9060000   9.6200000  -5.9290000   2.3210000   8.0930000
  -6.4230000   1.5710000   7.4750000  -5.6720000   3.1650000   7.4530000
  -4.6150000   1.7480000   8.6400000  -3.9750000   1.5170000   7.7880000
  -4.1220000   2.5130000   9.2390000  -4.8070000   0.5300000   9.4490000
  -5.7490000   0.2500000   9.6820000  -3.8590000  -0.2680000   9.8960000
  -2.5930000  -0.0690000   9.6360000  -2.3230000   0.7430000   9.1000000
  -1.8840000  -0.6880000  10.0020000  -4.1730000  -1.3060000  10.6080000
  -5.1450000  -1.4850000  10.8170000  -3.4620000  -1.9320000  10.9590000
  -9.1390000   3.8410000   9.6520000  -9.1520000   4.6570000  10.5730000
 -10.0980000   2.9280000   9.4930000  -9.9930000   2.2610000   8.7410000
 -11.2790000   2.7910000  10.3550000 -11.6310000   3.7820000  10.6410000
 -12.4160000   2.1100000   9.5730000 -12.6440000   2.7170000   8.6980000
 -12.0740000   1.1350000   9.2240000 -13.7100000   1.9190000  10.3860000
 -13.8030000   2.3840000  11.5430000 -14.6740000   1.3290000   9.8420000
 -10.9140000   2.0350000  11.6470000 -11.1150000   0.8220000  11.7660000
 -10.3270000   2.7700000  12.5980000 -10.1260000   3.7340000  12.3740000
  -9.9510000   2.2850000  13.9320000  -9.1020000   1.6100000  13.8320000
  -9.5410000   3.4730000  14.8360000 -10.3450000   4.2080000  14.8070000
  -9.3940000   3.0550000  16.3100000  -8.7040000   2.2160000  16.4020000
  -9.0250000   3.8980000  16.8950000 -10.3590000   2.7660000  16.7270000
  -8.2640000   4.1950000  14.3450000  -8.4430000   4.5980000  13.3480000
  -8.0770000   5.0440000  15.0020000  -6.9890000   3.3430000  14.2950000
  -7.0890000   2.5540000  13.5500000  -6.1470000   3.9800000  14.0230000
  -6.7820000   2.8990000  15.2690000 -11.0840000   1.4740000  14.5750000
 -10.8560000   0.3380000  15.0010000 -12.2980000   2.0380000  14.6450000
 -12.4360000   2.9530000  14.2400000 -13.4370000   1.3570000  15.2580000
 -13.1350000   1.1040000  16.2740000 -14.6500000   2.3000000  15.3300000
 -14.3440000   3.2410000  15.7880000 -14.9880000   2.5110000  14.3150000
 -15.8280000   1.7160000  16.1360000 -16.1480000   0.7690000  15.7000000
 -15.4540000   1.4930000  17.6060000 -15.0320000   2.4040000  18.0300000
 -16.3390000   1.2120000  18.1760000 -14.7340000   0.6790000  17.6920000
 -17.0070000   2.6840000  16.0940000 -17.3500000   2.7940000  15.0650000
 -17.8330000   2.2840000  16.6810000 -16.7130000   3.6590000  16.4830000
 -13.7730000   0.0330000  14.5510000 -13.9300000  -0.9850000  15.2230000
 -13.8450000   0.0260000  13.2170000 -13.7050000   0.8990000  12.7280000
 -14.0900000  -1.1800000  12.4220000 -14.1130000  -0.9140000  11.3650000
 -15.0610000  -1.5930000  12.6950000 -13.0360000  -2.2760000  12.6150000
 -13.3880000  -3.4450000  12.7930000 -11.7490000  -1.9190000  12.6140000
 -11.5180000  -0.9490000  12.4520000 -10.6600000  -2.8560000  12.9150000
 -10.7350000  -3.6980000  12.2270000  -9.2860000  -2.2050000  12.6990000
  -9.2210000  -1.2640000  13.2460000  -8.5350000  -2.8880000  13.0980000
  -8.9900000  -1.9660000  11.2100000  -9.2180000  -2.8780000  10.6580000
  -9.6420000  -1.1790000  10.8320000  -7.5140000  -1.6040000  10.9550000
  -6.6000000  -2.2790000  11.4840000  -7.2310000  -0.6600000  10.1820000
 -10.7730000  -3.4550000  14.3270000 -10.6910000  -4.6770000  14.4730000
 -11.0000000  -2.6300000  15.3570000 -11.0570000  -1.6380000  15.1770000
 -11.2530000  -3.1060000  16.7220000 -10.4070000  -3.7190000  17.0330000
 -11.3870000  -1.9210000  17.6960000 -12.1350000  -1.2300000  17.3070000
 -11.7520000  -2.3010000  18.6500000 -10.0770000  -1.1500000  17.9500000
  -9.6800000  -0.7860000  17.0030000 -10.3470000   0.0570000  18.8500000
 -10.7010000  -0.2720000  19.8270000  -9.4280000   0.6290000  18.9780000
 -11.0960000   0.7000000  18.3880000  -9.0060000  -2.0130000  18.6210000
  -8.7200000  -2.8440000  17.9770000  -8.1140000  -1.4100000  18.7940000
  -9.3710000  -2.3980000  19.5740000 -12.4710000  -4.0380000  16.8000000
 -12.3480000  -5.1440000  17.3300000 -13.6170000  -3.6360000  16.2350000
 -13.6390000  -2.7150000  15.8220000 -14.8230000  -4.4750000  16.1120000
 -15.2280000  -4.6330000  17.1110000 -15.9200000  -3.7720000  15.2780000
 -15.4650000  -3.3330000  14.3900000 -17.0390000  -4.7160000  14.8180000
 -17.4700000  -5.2310000  15.6770000 -17.8200000  -4.1450000  14.3160000
 -16.6540000  -5.4480000  14.1090000 -16.5990000  -2.6540000  16.0800000
 -15.8560000  -2.0210000  16.5660000 -17.1910000  -2.0350000  15.4060000
 -17.2570000  -3.0780000  16.8390000 -14.4730000  -5.8590000  15.5570000
 -14.7600000  -6.8700000  16.2020000 -13.8050000  -5.9170000  14.3960000
 -13.5810000  -5.0480000  13.9330000 -13.4110000  -7.1750000  13.7470000
 -14.3140000  -7.7670000  13.6020000 -12.8040000  -6.8600000  12.3660000
 -13.5210000  -6.2670000  11.7970000 -11.9080000  -6.2540000  12.4970000
 -12.4310000  -8.0970000  11.5290000 -12.0370000  -7.7490000  10.5740000
 -11.6420000  -8.6500000  12.0380000 -13.6250000  -9.0310000  11.2590000
 -13.9290000  -9.5210000  12.1840000 -14.4610000  -8.4330000  10.8970000
 -13.3220000 -10.1050000  10.2030000 -14.2400000 -10.6620000  10.0170000
 -13.0390000  -9.6160000   9.2700000 -12.2570000 -11.0440000  10.6360000
 -12.4780000 -11.4610000  11.5290000 -12.1320000 -11.7920000   9.9680000
 -11.3680000 -10.5800000  10.7490000 -12.4700000  -8.0150000  14.6210000
 -12.7420000  -9.1930000  14.8440000 -11.3930000  -7.4270000  15.1420000
 -11.2340000  -6.4500000  14.9410000 -10.4040000  -8.1410000  15.9500000
 -10.0350000  -8.9830000  15.3640000  -9.2230000  -7.2140000  16.2210000
  -8.4480000  -7.7720000  16.7460000  -8.8170000  -6.8460000  15.2790000
  -9.5420000  -6.3730000  16.8380000 -10.9800000  -8.7210000  17.2570000
 -10.7410000  -9.8900000  17.5690000 -11.7580000  -7.9390000  18.0150000
 -11.9140000  -6.9800000  17.7390000 -12.4490000  -8.4450000  19.2030000
 -11.7080000  -8.9100000  19.8540000 -13.1000000  -7.2900000  19.9770000
 -13.7230000  -7.7060000  20.7690000 -13.7550000  -6.7600000  19.2860000
 -12.1430000  -6.2950000  20.6230000 -11.1080000  -6.7460000  21.4700000
 -10.9950000  -7.8000000  21.6750000 -10.2180000  -5.8240000  22.0590000
  -9.4290000  -6.1660000  22.7120000 -10.3670000  -4.4430000  21.8160000
  -9.5120000  -3.5490000  22.3820000  -8.8950000  -3.9710000  22.9850000
 -11.4290000  -3.9880000  21.0100000 -11.5530000  -2.9260000  20.8580000
 -12.3140000  -4.9110000  20.4180000 -13.1230000  -4.5540000  19.7980000
 -13.4600000  -9.5540000  18.8490000 -13.4470000 -10.6040000  19.4950000
 -14.2550000  -9.3930000  17.7790000 -14.2440000  -8.5110000  17.2880000
 -15.1520000 -10.4490000  17.2910000 -15.8460000 -10.7000000  18.0940000
 -15.9720000  -9.9540000  16.0840000 -15.2970000  -9.5470000  15.3310000
 -16.4810000 -10.8070000  15.6360000 -17.0420000  -8.9190000  16.4050000
 -17.4650000  -8.7160000  17.5350000 -17.5630000  -8.2690000  15.3890000
 -17.2400000  -8.4470000  14.4480000 -18.3010000  -7.6050000  15.5740000
 -14.4090000 -11.7550000  16.9340000 -14.8800000 -12.8370000  17.2900000
 -13.2440000 -11.6760000  16.2790000 -12.9420000 -10.7670000  15.9580000
 -12.3880000 -12.8360000  15.9720000 -12.9690000 -13.5360000  15.3720000
 -11.1620000 -12.4200000  15.1420000 -10.6020000 -11.6600000  15.6860000
 -10.5130000 -13.2890000  15.0370000 -11.4720000 -11.9030000  13.7270000
 -12.5580000 -12.1850000  13.1640000 -10.5790000 -11.2670000  13.1190000
 -11.9330000 -13.6080000  17.2280000 -11.8480000 -14.8380000  17.2000000
 -11.6730000 -12.9120000  18.3400000 -11.7380000 -11.9050000  18.2900000
 -11.3710000 -13.5210000  19.6460000 -10.8190000 -14.4440000  19.4710000
 -10.4790000 -12.5740000  20.4790000 -10.9020000 -11.5700000  20.4650000
 -10.4660000 -12.9030000  21.5180000  -9.0190000 -12.5130000  19.9970000
  -8.9990000 -12.0580000  19.0070000  -8.4650000 -11.8600000  20.6720000
  -8.3190000 -13.8900000  19.9520000  -8.6830000 -14.8020000  20.7370000
  -7.3880000 -14.0640000  19.1280000 -12.6170000 -13.9530000  20.4500000
 -12.4710000 -14.5410000  21.5260000 -13.8330000 -13.6940000  19.9540000
 -13.8910000 -13.2530000  19.0480000 -15.0960000 -13.9780000  20.6540000
 -15.0410000 -14.9630000  21.1170000 -15.9050000 -13.9970000  19.9230000
 -15.4640000 -12.9550000  21.7420000 -16.3620000 -13.2000000  22.5500000
 -14.7610000 -11.8200000  21.7750000 -14.1140000 -11.6630000  21.0150000
 -14.9310000 -10.7110000  22.7210000 -15.2540000 -11.1070000  23.6840000
 -13.5650000 -10.0110000  22.9230000 -13.1690000  -9.7430000  21.9430000
 -13.6780000  -8.7140000  23.7380000 -13.9370000  -8.9450000  24.7720000
 -12.7220000  -8.1910000  23.7180000 -14.4190000  -8.0430000  23.3060000
 -12.5640000 -10.9810000  23.5970000 -12.9350000 -11.2550000  24.5840000
 -12.4890000 -11.8930000  23.0060000 -11.1410000 -10.4290000  23.7440000
 -11.1210000  -9.6140000  24.4680000 -10.4910000 -11.2240000  24.1080000
 -10.7710000 -10.0800000  22.7800000 -16.0290000  -9.7670000  22.1960000
 -15.9220000  -9.2420000  21.0850000 -17.1020000  -9.5720000  22.9690000
 -17.1230000 -10.0090000  23.8790000 -18.1980000  -8.6560000  22.6060000
 -18.5330000  -8.9190000  21.6030000 -19.3950000  -8.8320000  23.5550000
 -19.0800000  -8.5740000  24.5660000 -20.1700000  -8.1210000  23.2670000
 -20.0050000 -10.2440000  23.5640000 -20.0220000 -10.9300000  22.5150000
 -20.5020000 -10.6710000  24.6350000 -17.7490000  -7.1790000  22.5590000
 -16.8260000  -6.7700000  23.2660000 -18.4140000  -6.3540000  21.7400000
 -19.1780000  -6.7250000  21.1940000 -17.9870000  -4.9670000  21.4730000
 -17.1810000  -4.7150000  22.1630000 -17.4020000  -4.7940000  20.0620000
 -18.1690000  -4.9820000  19.3110000 -16.8580000  -3.3700000  19.8860000
 -16.1750000  -3.1280000  20.7010000 -16.3170000  -3.2860000  18.9440000
 -17.6780000  -2.6530000  19.8790000 -16.2420000  -5.7690000  19.8450000
 -16.6000000  -6.7980000  19.8780000 -15.7960000  -5.6100000  18.8630000
 -15.4870000  -5.6250000  20.6170000 -19.1180000  -3.9830000  21.7430000
 -20.2210000  -4.1130000  21.2080000 -18.8620000  -3.0580000  22.6650000
 -17.9300000  -3.0250000  23.0520000 -19.8320000  -2.1110000  23.2130000
 -20.8150000  -2.2780000  22.7730000 -19.9330000  -2.3090000  24.7380000
 -18.9690000  -2.0300000  25.1640000 -20.6670000  -1.5970000  25.1130000
 -20.2790000  -3.6820000  25.3020000 -20.5280000  -3.9350000  26.6340000
 -20.5860000  -3.2470000  27.3720000 -20.8390000  -5.2330000  26.7800000
 -21.0890000  -5.7060000  27.7190000 -20.8170000  -5.8530000  25.5920000
 -20.4730000  -4.8760000  24.6520000 -20.4130000  -5.0490000  23.5870000
 -19.3840000  -0.6700000  22.8890000 -18.1950000  -0.3530000  22.9580000
 -20.3050000   0.2230000  22.5330000 -21.2760000  -0.0580000  22.5300000
 -19.9900000   1.5860000  22.0880000 -18.9220000   1.6900000  21.8950000
 -20.7270000   1.8740000  20.7700000 -21.7870000   1.6680000  20.9170000
 -20.6380000   2.9390000  20.5590000 -20.2610000   1.1230000  19.5290000
 -19.0600000   0.3770000  19.4920000 -18.4190000   0.2970000  20.3580000
 -18.6630000  -0.2690000  18.3100000 -17.7410000  -0.8310000  18.2830000
 -19.4500000  -0.1680000  17.1540000 -19.1260000  -0.6540000  16.2460000
 -20.6440000   0.5730000  17.1790000 -21.2560000   0.6470000  16.2930000
 -21.0410000   1.2200000  18.3610000 -21.9570000   1.7920000  18.3760000
 -20.3430000   2.6300000  23.1520000 -21.5160000   2.8780000  23.4310000
 -19.3280000   3.2750000  23.7330000 -18.3950000   3.0630000  23.4100000
 -19.5140000   4.5770000  24.3770000 -20.3250000   4.4860000  25.0980000
 -18.2420000   4.9750000  25.1440000 -17.3690000   4.7450000  24.5320000
 -18.1910000   4.3160000  26.0110000 -18.1110000   6.4210000  25.6180000
 -18.0470000   7.4980000  24.7040000 -18.0700000   7.3310000  23.6380000
 -17.9630000   8.8220000  25.1670000 -17.9820000   9.6440000  24.4670000
 -17.8390000   9.0850000  26.5450000 -17.6930000  10.3560000  26.9960000
 -17.2850000  10.3450000  27.8650000 -17.8200000   8.0120000  27.4500000
 -17.6900000   8.2170000  28.5030000 -17.9680000   6.6900000  26.9930000
 -17.9440000   5.8820000  27.7090000 -19.9100000   5.6150000  23.3230000
 -19.3060000   5.6480000  22.2470000 -20.8540000   6.5020000  23.6440000
 -21.2960000   6.4240000  24.5480000 -21.1810000   7.6630000  22.8090000
 -20.3410000   7.8820000  22.1510000 -22.3820000   7.3080000  21.9220000
 -22.1440000   6.4100000  21.3520000 -23.2400000   7.0740000  22.5530000
 -22.7720000   8.4030000  20.9510000 -23.6620000   9.4150000  21.3560000
 -24.0640000   9.4150000  22.3580000 -24.0340000  10.4270000  20.4560000
 -24.7110000  11.2010000  20.7830000 -23.5300000  10.4230000  19.1420000
 -23.8320000  11.1880000  18.4410000 -22.6350000   9.4180000  18.7380000
 -22.2500000   9.4120000  17.7280000 -22.2490000   8.4130000  19.6440000
 -21.5620000   7.6420000  19.3290000 -21.4480000   8.9200000  23.6550000
 -22.2870000   8.8970000  24.5580000 -20.7850000  10.0390000  23.3400000
 -20.0860000  10.0110000  22.6110000 -21.0420000  11.3230000  24.0050000
 -21.3650000  11.1310000  25.0280000 -19.7680000  12.1580000  24.1070000
 -19.0140000  11.5980000  24.6610000 -19.3900000  12.3940000  23.1130000
 -20.0540000  13.3500000  24.8100000 -20.2990000  14.0250000  24.1720000
 -22.1340000  12.1240000  23.2880000 -21.9740000  12.4990000  22.1220000
 -23.2330000  12.4150000  23.9930000 -23.2930000  12.0630000  24.9370000
 -24.3100000  13.2970000  23.5090000 -24.5480000  13.0180000  22.4830000
 -25.5970000  13.1320000  24.3380000 -25.3950000  13.3980000  25.3760000
 -26.7310000  14.0250000  23.8210000 -26.9300000  13.8050000  22.7720000
 -27.6380000  13.8470000  24.3990000 -26.4640000  15.0760000  23.9260000
 -26.0810000  11.6760000  24.2960000 -25.3650000  11.0340000  24.8070000
 -27.0420000  11.5830000  24.8010000 -26.1900000  11.3500000  23.2610000
 -23.8430000  14.7580000  23.4710000 -24.0280000  15.4290000  22.4580000
 -23.1810000  15.2430000  24.5300000 -23.1210000  14.6690000  25.3590000
 -22.4050000  16.4900000  24.4900000 -23.0790000  17.3100000  24.2390000
 -21.8030000  16.7650000  25.8770000 -22.6160000  16.9180000  26.5880000
 -21.2210000  15.9000000  26.1930000 -20.8970000  18.0030000  25.8930000
 -20.0090000  17.8060000  25.2930000 -21.4400000  18.8280000  25.4320000
 -20.3660000  18.5500000  27.5400000 -19.3770000  17.1270000  28.0670000
 -18.5800000  16.9530000  27.3430000 -18.9330000  17.3340000  29.0400000
 -20.0020000  16.2370000  28.1460000 -21.3110000  16.4220000  23.4080000
 -20.6360000  15.3970000  23.2740000 -21.1080000  17.5060000  22.6520000
 -21.6910000  18.3190000  22.7900000 -20.1820000  17.5230000  21.5150000
 -19.3680000  16.8250000  21.7090000 -20.9290000  17.0190000  20.2730000
 -21.4170000  16.0760000  20.5180000 -21.7020000  17.7430000  20.0150000
 -20.0360000  16.7960000  19.0470000 -18.9700000  17.4410000  18.9180000
 -20.4230000  15.9410000  18.2160000 -19.5570000  18.9100000  21.2930000
 -20.2280000  19.8680000  20.8960000 -18.2510000  19.0070000  21.5440000
 -17.7890000  18.1940000  21.9240000 -17.4700000  20.2440000  21.4460000
 -18.0980000  21.0690000  21.7830000 -16.2730000  20.1510000  22.4100000
 -15.5880000  19.3910000  22.0340000 -15.7470000  21.1060000  22.3900000
 -16.5790000  19.8450000  23.8540000 -17.7270000  20.1580000  24.5020000
 -18.5750000  20.6600000  24.0580000 -17.6600000  19.7340000  25.8120000
 -18.4200000  19.8440000  26.4690000 -16.4500000  19.1380000  26.0920000
 -15.9170000  18.5570000  27.2520000 -16.5010000  18.5190000  28.1600000
 -14.6220000  18.0170000  27.2170000 -14.2030000  17.5560000  28.0990000
 -13.8750000  18.0710000  26.0270000 -12.8820000  17.6490000  26.0010000
 -14.4200000  18.6590000  24.8670000 -13.8300000  18.6870000  23.9630000
 -15.7260000  19.2040000  24.8620000 -17.0210000  20.5990000  20.0100000
 -16.4610000  21.6790000  19.8030000 -17.2550000  19.7280000  19.0180000
 -17.7430000  18.8720000  19.2420000 -16.9150000  19.9580000  17.6010000
 -16.0480000  20.6160000  17.5450000 -16.5300000  18.6290000  16.9370000
 -16.0670000  18.8470000  15.9750000 -15.7930000  18.1080000  17.5490000
 -17.6540000  17.7930000  16.7160000 -18.0890000  17.6300000  17.5560000
 -18.0320000  20.6120000  16.7700000 -17.7640000  21.1110000  15.6740000
 -19.2720000  20.6320000  17.2760000 -19.4100000  20.2290000  18.1920000
 -20.4690000  21.0020000  16.5120000 -20.1780000  21.1880000  15.4780000
 -21.4180000  19.7840000  16.4910000 -20.8530000  18.9040000  16.1850000
 -21.8120000  19.6030000  17.4910000 -22.5870000  19.9590000  15.5330000
 -23.1030000  21.0460000  15.3310000 -23.0470000  18.9030000  14.9030000
 -22.6580000  17.9850000  15.0630000 -23.8130000  19.0340000  14.2580000
 -21.1470000  22.2730000  17.0860000 -21.5810000  22.2550000  18.2420000
 -21.2980000  23.3640000  16.3020000 -20.8470000  23.5210000  14.9230000
 -21.2460000  22.7400000  14.2760000 -19.7570000  23.5140000  14.8950000
 -21.3580000  24.8850000  14.4620000 -22.3650000  24.7860000  14.0570000
 -20.6910000  25.3440000  13.7320000 -21.4020000  25.6780000  15.7650000
 -22.0850000  26.5250000  15.7000000 -20.3980000  26.0200000  16.0160000
 -21.8550000  24.6310000  16.7870000 -21.4190000  24.8790000  17.7550000
 -23.3880000  24.6220000  16.9490000 -23.9450000  25.5690000  17.5110000
 -24.0890000  23.5740000  16.5030000 -23.5990000  22.8370000  16.0160000
 -25.5230000  23.3800000  16.7650000 -26.0250000  24.3450000  16.6950000
 -26.1410000  22.4670000  15.6950000 -25.6320000  21.5040000  15.7030000
 -27.1830000  22.2860000  15.9600000 -26.1300000  23.0540000  14.2760000
 -26.0350000  24.2920000  14.1040000 -26.3420000  22.2870000  13.3090000
 -25.8280000  22.8320000  18.1740000 -26.9590000  22.9660000  18.6480000
 -24.8400000  22.2440000  18.8650000 -23.9210000  22.1970000  18.4500000
 -24.9880000  21.8020000  20.2570000 -25.8140000  21.0910000  20.2830000
 -23.7240000  21.0660000  20.7320000 -22.8770000  21.7500000  20.6950000
 -23.5140000  20.2360000  20.0560000 -23.8700000  20.5200000  22.1410000
 -24.7870000  19.4810000  22.3860000 -25.3100000  19.0240000  21.5590000
 -25.0550000  19.0570000  23.7000000 -25.7680000  18.2650000  23.8780000
 -24.4010000  19.6830000  24.7830000 -24.6710000  19.3020000  26.0580000
 -25.3610000  18.6360000  26.0980000 -23.4630000  20.7080000  24.5360000
 -22.9670000  21.1820000  25.3710000 -23.1980000  21.1270000  23.2190000
 -22.5040000  21.9360000  23.0430000 -25.3530000  22.9620000  21.2080000
 -24.9880000  24.1190000  20.9720000 -26.0580000  22.6550000  22.3050000
 -26.2520000  21.6790000  22.4740000 -26.5110000  23.6110000  23.3330000
 -25.8170000  24.4500000  23.3870000 -27.9400000  24.1120000  23.0060000
 -28.5940000  23.2500000  22.8740000 -28.3180000  24.6720000  23.8620000
 -28.0710000  25.0110000  21.7660000 -27.7190000  24.4780000  20.8830000
 -29.1270000  25.2410000  21.6170000 -27.3010000  26.3290000  21.9320000
 -27.6860000  26.8470000  22.8100000 -26.2430000  26.1290000  22.1010000
 -27.4490000  27.2110000  20.7620000 -28.0620000  28.0060000  20.8720000
 -26.7720000  27.1680000  19.6330000 -25.8950000  26.2410000  19.3870000
 -25.7150000  25.5310000  20.0820000 -25.3190000  26.2520000  18.5570000
 -26.9720000  28.0820000  18.7290000 -27.6260000  28.8280000  18.9140000
 -26.4480000  28.0760000  17.8650000 -26.5270000  22.9310000  24.7010000
 -27.0180000  21.8130000  24.8190000 -26.0300000  23.6180000  25.7290000
 -25.5810000  24.5020000  25.5380000 -26.1460000  23.1960000  27.1350000
 -25.9430000  22.1270000  27.1930000 -25.0780000  23.9170000  27.9710000
 -25.1630000  23.5810000  29.0040000 -25.2790000  24.9880000  27.9610000
 -23.6520000  23.6740000  27.5000000 -23.0140000  24.5890000  26.6360000
 -23.5280000  25.4860000  26.3210000 -21.7060000  24.3370000  26.1770000
 -21.2240000  25.0340000  25.5070000 -21.0230000  23.1720000  26.5940000
 -19.7610000  22.9160000  26.1530000 -19.4390000  23.6130000  25.5770000
 -21.6540000  22.2680000  27.4730000 -21.1310000  21.3780000  27.7910000
 -22.9670000  22.5160000  27.9150000 -23.4530000  21.8100000  28.5720000
 -27.5570000  23.4240000  27.7140000 -28.0310000  22.6420000  28.5370000
 -28.2490000  24.4760000  27.2640000 -27.8050000  25.0850000  26.5910000
 -29.6160000  24.8370000  27.6680000 -30.1630000  23.9210000  27.8910000
 -29.5670000  25.6950000  28.9470000 -28.8890000  25.2270000  29.6600000
 -29.1630000  26.6760000  28.6970000 -30.9330000  25.8650000  29.6360000
 -31.8960000  25.1350000  29.2960000 -31.0480000  26.7340000  30.5320000
 -30.3640000  25.5680000  26.5330000 -29.7470000  26.1550000  25.6410000
 -31.6980000  25.5220000  26.5620000 -32.1130000  25.1200000  27.3910000
 -32.6010000  26.1030000  25.5610000 -32.0220000  26.3930000  24.6840000
 -33.6430000  25.0580000  25.0950000 -34.3150000  24.8450000  25.9270000
 -34.4910000  25.6300000  23.9480000 -33.8520000  25.9600000  23.1300000
 -35.1790000  24.8660000  23.5850000 -35.0830000  26.4760000  24.2970000
 -33.0200000  23.7050000  24.6810000 -32.5610000  23.2480000  25.5580000
 -33.8170000  23.0350000  24.3590000 -31.9670000  23.7660000  23.5680000
 -31.1430000  24.4240000  23.8470000 -31.5670000  22.7640000  23.4140000
 -32.4160000  24.1170000  22.6390000 -33.2570000  27.3740000  26.1240000
 -34.1980000  27.2940000  26.9200000 -32.7400000  28.5460000  25.7260000
 -31.9170000  28.5130000  25.1420000 -33.2070000  29.8780000  26.1770000
 -34.0520000  29.7470000  26.8520000 -32.0890000  30.5540000  26.9990000
 -32.4650000  31.4960000  27.3990000 -31.8370000  29.9150000  27.8440000
 -30.8140000  30.8270000  26.1860000 -30.3660000  29.8760000  25.8980000
 -31.0670000  31.3910000  25.2880000 -29.7860000  31.6260000  26.9950000
 -30.2180000  32.5850000  27.2810000 -29.5180000  31.0690000  27.8930000
 -28.5350000  31.8600000  26.1380000 -28.1180000  30.8930000  25.8570000
 -28.8300000  32.3730000  25.2220000 -27.5160000  32.6640000  26.8630000
 -27.2190000  32.2040000  27.7110000 -26.6960000  32.8080000  26.2910000
 -27.8760000  33.5740000  27.1120000 -33.7390000  30.7930000  25.0570000
 -34.0720000  31.9500000  25.3200000 -33.8520000  30.2890000  23.8240000
 -33.5870000  29.3260000  23.6770000 -34.3380000  31.0370000  22.6500000
 -35.1640000  31.6760000  22.9610000 -33.2200000  31.9360000  22.0990000
 -33.6400000  32.6250000  21.3660000 -32.7920000  32.5230000  22.9120000
 -32.2030000  31.1650000  21.4830000 -31.4490000  31.7420000  21.3390000
 -34.8540000  30.1100000  21.5410000 -34.5630000  28.9090000  21.5310000
 -35.5970000  30.6740000  20.5760000 -35.8210000  31.6550000  20.6590000
 -36.0450000  29.9560000  19.3680000 -36.5100000  29.0250000  19.6900000
 -37.1250000  30.7610000  18.6200000 -37.5100000  30.1480000  17.8040000
 -37.9490000  30.9550000  19.3070000 -36.6350000  32.0980000  18.0410000
 -36.2120000  32.7060000  18.8400000 -35.8660000  31.9060000  17.2920000
 -37.7750000  32.8820000  17.3800000 -38.1930000  32.2950000  16.5630000
 -38.5540000  33.0780000  18.1180000 -37.2330000  34.2110000  16.8390000
 -36.7840000  34.7660000  17.6620000 -36.4460000  33.9990000  16.1150000
 -38.3030000  35.0240000  16.2040000 -39.0340000  35.2490000  16.8640000
 -37.9330000  35.8950000  15.8520000 -38.7240000  34.5360000  15.4270000
 -34.8770000  29.5430000  18.4640000 -34.8950000  28.4560000  17.8920000
 -33.8350000  30.3710000  18.3720000 -33.8920000  31.2680000  18.8310000
 -32.5690000  30.0160000  17.7230000 -32.7630000  29.7760000  16.6780000
 -31.5750000  31.1900000  17.7680000 -31.4030000  31.4980000  18.8000000
 -30.6240000  30.8290000  17.3770000 -31.9830000  32.4050000  16.9180000
 -31.1110000  33.0520000  16.8240000 -32.2350000  32.0540000  15.9170000
 -33.1480000  33.2490000  17.4830000 -33.4240000  33.2120000  18.7070000
 -33.7880000  33.9800000  16.6870000 -31.9420000  28.7630000  18.3590000
 -31.5880000  27.8190000  17.6510000 -31.8260000  28.7330000  19.6910000
 -32.1230000  29.5400000  20.2200000 -31.2730000  27.5970000  20.4330000
 -30.3030000  27.3570000  19.9980000 -31.0320000  27.9640000  21.9040000
 -31.9690000  28.3050000  22.3450000 -30.7270000  27.0630000  22.4350000
 -29.9420000  29.0340000  22.1140000 -29.1770000  29.3510000  21.1680000
 -29.7950000  29.5030000  23.2660000 -32.1120000  26.3170000  20.3100000
 -31.5350000  25.2430000  20.1360000 -33.4480000  26.4000000  20.3720000
 -33.8800000  27.2990000  20.5290000 -34.3140000  25.2270000  20.1710000
 -33.9800000  24.4540000  20.8640000 -35.7800000  25.5190000  20.5230000
 -36.3290000  24.5770000  20.5260000 -35.8330000  25.9500000  21.5220000
 -36.3950000  26.4030000  19.6060000 -37.3160000  26.5020000  19.8590000
 -34.1660000  24.6430000  18.7590000 -33.9330000  23.4410000  18.6210000
 -34.2330000  25.4780000  17.7130000 -34.4750000  26.4400000  17.9050000
 -33.9600000  25.0970000  16.3160000 -34.6950000  24.3480000  16.0210000
 -34.1310000  26.3150000  15.3740000 -33.5830000  27.1560000  15.7980000
 -33.5650000  26.0440000  13.9670000 -34.0550000  25.1770000  13.5250000
 -33.7210000  26.9080000  13.3210000 -32.4900000  25.8690000  14.0100000
 -35.6290000  26.6890000  15.2750000 -36.1560000  25.9310000  14.6950000
 -36.0690000  26.7010000  16.2720000 -35.8880000  28.0660000  14.6500000
 -35.6210000  28.0640000  13.5940000 -36.9480000  28.3040000  14.7380000
 -35.3100000  28.8290000  15.1710000 -32.5830000  24.4270000  16.1790000
 -32.4880000  23.3120000  15.6570000 -31.5220000  25.0840000  16.6600000
 -31.6630000  25.9960000  17.0710000 -30.1640000  24.5490000  16.6430000
 -29.8590000  24.4150000  15.6050000 -29.2140000  25.5610000  17.2920000
 -28.1940000  25.1770000  17.2550000 -29.2550000  26.5080000  16.7530000
 -29.4920000  25.7270000  18.3330000 -30.0800000  23.1740000  17.3270000
 -29.5950000  22.2180000  16.7210000 -30.6020000  23.0410000  18.5500000
 -30.9980000  23.8480000  19.0100000 -30.5580000  21.7750000  19.2740000
 -29.5170000  21.4530000  19.2790000 -30.9750000  21.9740000  20.7320000
 -30.4500000  22.8420000  21.1290000 -32.0440000  22.1800000  20.7750000
 -30.6380000  20.7850000  21.6120000 -29.2890000  20.4810000  21.8820000
 -28.5040000  21.0930000  21.4630000 -28.9580000  19.3820000  22.6930000
 -27.9230000  19.1530000  22.9000000 -29.9760000  18.5850000  23.2430000
 -29.7220000  17.7430000  23.8710000 -31.3240000  18.8870000  22.9800000
 -32.1030000  18.2730000  23.4070000 -31.6570000  19.9820000  22.1620000
 -32.6940000  20.2050000  21.9580000 -31.3610000  20.6610000  18.5850000
 -30.8640000  19.5440000  18.4780000 -32.5460000  20.9390000  18.0290000
 -32.9520000  21.8530000  18.1680000 -33.2860000  19.9610000  17.2100000
 -33.4950000  19.0880000  17.8290000 -34.6320000  20.5300000  16.7470000
 -34.4730000  21.4760000  16.2290000 -35.0990000  19.8260000  16.0580000
 -35.4900000  20.7250000  17.8580000 -36.3050000  21.1240000  17.5440000
 -32.4760000  19.4690000  16.0010000 -32.4280000  18.2640000  15.7390000
 -31.7810000  20.3720000  15.2920000 -31.8700000  21.3460000  15.5430000
 -30.8480000  20.0100000  14.2070000 -31.3770000  19.3700000  13.5020000
 -30.4250000  21.2870000  13.4600000 -31.3250000  21.8180000  13.1500000
 -29.8590000  21.9340000  14.1300000 -29.5790000  20.9860000  12.2120000
 -28.6040000  20.6030000  12.5120000 -30.0810000  20.2240000  11.6150000
 -29.3880000  22.2320000  11.3380000 -28.8110000  21.9490000  10.4580000
 -30.3670000  22.5720000  11.0010000 -28.6630000  23.3010000  12.0530000
 -27.7900000  23.0290000  12.4840000 -28.9970000  24.5700000  12.1800000
 -30.0810000  25.0720000  11.6550000 -30.6840000  24.4800000  11.1030000
 -30.2990000  26.0540000  11.7530000 -28.2310000  25.3720000  12.8550000
 -27.3810000  25.0090000  13.2630000 -28.4500000  26.3540000  12.9440000
 -29.6520000  19.1910000  14.7160000 -29.2590000  18.2150000  14.0780000
 -29.1140000  19.5260000  15.8890000 -29.4500000  20.3620000  16.3450000
 -28.0870000  18.7260000  16.5610000 -27.2520000  18.6070000  15.8710000
 -27.5550000  19.4650000  17.7930000 -27.1440000  20.4270000  17.4860000
 -28.3660000  19.6560000  18.4950000 -26.4830000  18.6700000  18.4990000
 -25.1630000  18.7010000  18.0150000 -24.9040000  19.3510000  17.1930000
 -24.1930000  17.8550000  18.5760000 -23.1820000  17.8610000  18.1950000
 -24.5430000  16.9780000  19.6160000 -23.8020000  16.3130000  20.0350000
 -25.8590000  16.9560000  20.1090000 -26.1240000  16.2740000  20.9030000
 -26.8290000  17.8070000  19.5560000 -27.8450000  17.7700000  19.9210000
 -28.5690000  17.3080000  16.9270000 -27.8370000  16.3380000  16.7230000
 -29.7970000  17.1510000  17.4320000 -30.3350000  17.9770000  17.6480000
 -30.3920000  15.8390000  17.6990000 -29.7040000  15.2760000  18.3300000
 -31.7210000  15.9820000  18.4590000 -32.3910000  16.6180000  17.8800000
 -32.1790000  14.9940000  18.5190000 -31.6100000  16.5460000  19.8910000
 -31.1940000  17.5530000  19.8690000 -33.0100000  16.6220000  20.5010000
 -33.4600000  15.6300000  20.5240000 -32.9540000  17.0160000  21.5160000
 -33.6340000  17.2860000  19.9030000 -30.7190000  15.6960000  20.7970000
 -29.6790000  15.7770000  20.4820000 -30.7910000  16.0490000  21.8260000
 -31.0320000  14.6520000  20.7500000 -30.5630000  15.0050000  16.4150000
 -30.2530000  13.8150000  16.4260000 -30.9740000  15.6110000  15.2950000
 -31.2690000  16.5750000  15.3490000 -30.9730000  14.9460000  13.9800000
 -31.6000000  14.0580000  14.0550000 -31.6050000  15.8640000  12.9200000
 -32.6350000  16.0670000  13.2130000 -31.0610000  16.8080000  12.8820000
 -31.6010000  15.2310000  11.5210000 -30.5740000  15.1740000  11.1580000
 -31.9880000  14.2150000  11.6010000 -32.4480000  16.0170000  10.4980000
 -32.9700000  15.3880000   9.5450000 -32.5860000  17.2600000  10.6120000
 -29.5700000  14.4540000  13.5680000 -29.4020000  13.2870000  13.2080000
 -28.5460000  15.3110000  13.6660000 -28.7480000  16.2640000  13.9310000
 -27.1380000  14.9230000  13.4910000 -26.9960000  14.5740000  12.4680000
 -26.2480000  16.1640000  13.6940000 -26.2320000  16.7320000  12.7640000
 -26.6990000  16.8120000  14.4460000 -24.8190000  15.8810000  14.1250000
 -23.8520000  15.5070000  13.1740000 -24.1210000  15.4230000  12.1320000
 -22.5310000  15.2430000  13.5790000 -21.7940000  14.9490000  12.8470000
 -22.1680000  15.3610000  14.9320000 -21.1520000  15.1640000  15.2410000
 -23.1340000  15.7270000  15.8840000 -22.8590000  15.8130000  16.9250000
 -24.4570000  15.9840000  15.4830000 -25.1910000  16.2660000  16.2230000
 -26.7300000  13.7560000  14.4140000 -26.1110000  12.7880000  13.9660000
 -27.1110000  13.8240000  15.6900000 -27.6130000  14.6510000  15.9800000
 -26.8680000  12.7850000  16.6960000 -25.7910000  12.6410000  16.7850000
 -27.4030000  13.2110000  18.0700000 -28.4900000  13.2920000  18.0450000
 -27.0120000  12.2180000  19.1590000 -25.9250000  12.1490000  19.2000000
 -27.3920000  12.5620000  20.1210000 -27.4290000  11.2350000  18.9420000
 -26.8510000  14.4480000  18.4520000 -27.1720000  15.1220000  17.8480000
 -27.4770000  11.4450000  16.2780000 -26.7660000  10.4420000  16.2110000
 -28.7710000  11.4240000  15.9500000 -29.3000000  12.2800000  16.0320000
 -29.4510000  10.2580000  15.3830000 -29.4500000   9.4650000  16.1300000
 -30.9120000  10.5780000  15.0330000 -30.9420000  11.4190000  14.3410000
 -31.3370000   9.7140000  14.5240000 -31.7860000  10.8840000  16.2600000
 -31.4770000  10.3880000  17.3680000 -32.8190000  11.5800000  16.0950000
 -28.7320000   9.7040000  14.1530000 -28.5020000   8.5000000  14.0780000
 -28.3510000  10.5510000  13.1930000 -28.5840000  11.5290000  13.2920000
 -27.6170000  10.1210000  12.0040000 -28.2170000   9.3800000  11.4760000
 -27.4240000  11.3170000  11.0590000 -26.9520000  12.1410000  11.5940000
 -26.7500000  11.0160000  10.2570000 -28.7100000  11.8090000  10.4080000
 -29.7450000  11.1520000  10.4000000 -28.6770000  12.9740000   9.8020000
 -27.8200000  13.5070000   9.7640000 -29.5220000  13.3050000   9.3600000
 -26.2970000   9.4010000  12.3460000 -26.0350000   8.3290000  11.7980000
 -25.5130000   9.9160000  13.2980000 -25.7860000  10.7910000  13.7220000
 -24.3250000   9.2250000  13.8150000 -23.6830000   8.9780000  12.9690000
 -23.5380000  10.1540000  14.7500000 -24.1910000  10.5710000  15.5160000
 -22.7710000   9.5590000  15.2480000 -22.8480000  11.2870000  13.9740000
 -22.4400000  10.8840000  13.0470000 -23.5700000  12.0620000  13.7160000
 -21.7100000  11.9130000  14.7700000 -21.8220000  12.2100000  15.9530000
 -20.5630000  12.1160000  14.1580000 -20.4400000  11.8220000  13.2000000
 -19.7900000  12.4780000  14.6980000 -24.6460000   7.8860000  14.5080000
 -23.9840000   6.8830000  14.2400000 -25.6610000   7.8410000  15.3760000
 -26.1610000   8.6970000  15.5700000 -26.0970000   6.6100000  16.0520000
 -25.2410000   6.1830000  16.5750000 -27.1870000   6.9450000  17.0820000
 -27.9850000   7.4830000  16.5710000 -27.6080000   6.0170000  17.4690000
 -26.6910000   7.7910000  18.2700000 -26.1390000   8.6590000  17.9100000
 -27.8960000   8.2890000  19.0660000 -28.4360000   7.4490000  19.5020000
 -27.5570000   8.9590000  19.8560000 -28.5650000   8.8470000  18.4110000
 -25.7700000   6.9950000  19.1960000 -24.8570000   6.7140000  18.6710000
 -25.4850000   7.6160000  20.0450000 -26.2730000   6.0970000  19.5570000
 -26.5820000   5.5290000  15.0680000 -26.2040000   4.3620000  15.1970000
 -27.3760000   5.9160000  14.0600000 -27.6650000   6.8840000  14.0410000
 -27.8000000   5.0440000  12.9540000 -28.3070000   4.1700000  13.3630000
 -28.7710000   5.7860000  12.0170000 -28.3230000   6.7360000  11.7240000
 -28.9170000   5.1850000  11.1190000 -30.1470000   6.0220000  12.6650000
 -30.5760000   5.0530000  12.9210000 -30.0310000   6.5810000  13.5930000
 -31.1460000   6.7600000  11.7590000 -31.2950000   6.1880000  10.8430000
 -32.1000000   6.8260000  12.2830000 -30.6560000   8.1730000  11.4160000
 -30.4230000   8.6920000  12.3460000 -29.7390000   8.0870000  10.8350000
 -31.6580000   8.9540000  10.6390000 -32.5130000   9.0880000  11.1600000
 -31.2860000   9.8640000  10.4100000 -31.8940000   8.4940000   9.7720000
 -26.5940000   4.5200000  12.1750000 -26.4970000   3.3180000  11.9550000
 -25.6610000   5.3960000  11.7980000 -25.8110000   6.3740000  12.0010000
 -24.4250000   5.0200000  11.1030000 -24.7050000   4.5480000  10.1610000
 -23.6150000   6.2800000  10.7770000 -24.2760000   6.9910000  10.2820000
 -23.2550000   6.7260000  11.7030000 -22.4280000   6.0180000   9.8430000
 -21.7150000   5.3610000  10.3400000 -22.7880000   5.5180000   8.9440000
 -21.7350000   7.3320000   9.4620000 -21.4680000   7.5590000   8.2580000
 -21.4300000   8.1330000  10.3750000 -23.5920000   3.9880000  11.8820000
 -23.1840000   2.9790000  11.3100000 -23.3740000   4.1990000  13.1870000
 -23.7070000   5.0610000  13.5950000 -22.7430000   3.2080000  14.0670000
 -21.7320000   3.0190000  13.7060000 -22.6740000   3.7530000  15.5050000
 -23.6450000   4.1760000  15.7650000 -22.4890000   2.9240000  16.1880000
 -21.5870000   4.8180000  15.7270000 -21.6510000   5.5860000  14.9560000
 -21.7800000   5.4780000  17.0930000 -21.7020000   4.7350000  17.8860000
 -21.0230000   6.2510000  17.2290000 -22.7620000   5.9510000  17.1330000
 -20.1930000   4.1900000  15.6970000 -19.9580000   3.8450000  14.6910000
 -19.4510000   4.9380000  15.9780000 -20.1360000   3.3540000  16.3940000
 -23.4760000   1.8550000  14.0340000 -22.8440000   0.8180000  13.8150000
 -24.7990000   1.8570000  14.2240000 -25.2590000   2.7390000  14.3990000
 -25.6180000   0.6480000  14.1860000 -25.2520000  -0.0280000  14.9590000
 -27.0640000   1.0170000  14.5380000 -27.6780000   0.1160000  14.5360000
 -27.1010000   1.4690000  15.5290000 -27.4670000   1.7180000  13.8070000
 -25.5260000  -0.1120000  12.8440000 -25.3570000  -1.3340000  12.8440000
 -25.6330000   0.5800000  11.7020000 -25.7840000   1.5770000  11.7500000
 -25.6120000  -0.0480000  10.3660000 -26.1810000  -0.9760000  10.4250000
 -26.3070000   0.8160000   9.3010000 -26.2600000   0.2840000   8.3500000
 -27.7820000   1.0640000   9.6250000 -27.8840000   1.6340000  10.5490000
 -28.2500000   1.6170000   8.8110000 -28.2960000   0.1100000   9.7390000
 -25.6620000   2.0600000   9.1460000 -26.1280000   2.5370000   8.4550000
 -24.2120000  -0.4420000   9.8780000 -24.0870000  -1.4720000   9.2090000
 -23.1490000   0.3020000  10.2270000 -23.3130000   1.1700000  10.7180000
 -21.7550000  -0.0970000   9.9420000 -21.6800000  -0.4050000   8.8990000
 -20.7720000   1.0640000  10.1710000 -20.9510000   1.5060000  11.1510000
 -19.7630000   0.6530000  10.1660000 -20.8470000   2.1510000   9.0870000
 -20.7040000   1.6940000   8.1070000 -21.8330000   2.6140000   9.1040000
 -19.7820000   3.2400000   9.3020000 -19.9810000   4.0730000   8.6270000
 -19.8740000   3.6170000  10.3200000 -18.4040000   2.7380000   9.0930000
 -17.8830000   2.4980000   9.9230000 -17.7780000   2.5370000   7.9470000
 -18.3340000   2.8090000   6.7990000 -19.2710000   3.1850000   6.7780000
 -17.8430000   2.6470000   5.9320000 -16.5680000   2.0560000   7.9180000
 -16.0700000   1.8090000   8.7600000 -16.1150000   1.8800000   7.0320000
 -21.3120000  -1.3070000  10.7690000 -20.6080000  -2.1720000  10.2450000
 -21.7330000  -1.3760000  12.0360000 -22.2720000  -0.6000000  12.3910000
 -21.2470000  -2.3580000  13.0130000 -20.6600000  -3.1190000  12.4990000
 -20.2890000  -1.6550000  13.9940000 -19.7510000  -2.4120000  14.5650000
 -20.8870000  -1.0760000  14.6970000 -19.2810000  -0.7160000  13.3490000
 -18.2650000  -1.2210000  12.5120000 -18.1750000  -2.2850000  12.3530000
 -17.3980000  -0.3340000  11.8410000 -16.6500000  -0.7130000  11.1620000
 -17.5380000   1.0570000  12.0240000 -16.7630000   1.9300000  11.3400000
 -15.9230000   1.5690000  11.0460000 -18.5490000   1.5610000  12.8670000
 -18.6640000   2.6280000  12.9820000 -19.4140000   0.6740000  13.5310000
 -20.1990000   1.0660000  14.1600000 -22.4050000  -3.0920000  13.7300000
 -22.5570000  -2.9750000  14.9480000 -23.2020000  -3.9190000  13.0200000
 -23.0640000  -4.2540000  11.6080000 -22.0390000  -4.5200000  11.3510000
 -23.4000000  -3.4130000  11.0010000 -23.9870000  -5.4470000  11.3780000
 -23.4700000  -6.3700000  11.6400000 -24.3490000  -5.4850000  10.3510000
 -25.1160000  -5.1860000  12.3710000 -25.6490000  -6.1030000  12.6240000
 -25.8050000  -4.4540000  11.9490000 -24.3970000  -4.5700000  13.5770000
 -25.0460000  -3.8150000  14.0210000 -24.0880000  -5.6190000  14.6640000
 -24.9840000  -6.0240000  15.4050000 -22.8220000  -6.0370000  14.7940000
 -22.1480000  -5.6830000  14.1300000 -22.3330000  -6.9130000  15.8790000
 -23.0610000  -7.7110000  16.0230000 -20.9990000  -7.5880000  15.5120000
 -20.6830000  -8.2040000  16.3550000 -21.1140000  -8.4980000  14.2910000
 -21.4110000  -7.9330000  13.4070000 -20.1560000  -8.9830000  14.1040000
 -21.8590000  -9.2700000  14.4840000 -19.9810000  -6.6410000  15.2580000
 -20.0370000  -6.3650000  14.3400000 -22.1940000  -6.2090000  17.2410000
 -21.9680000  -6.8930000  18.2420000 -22.3540000  -4.8770000  17.3230000
 -22.5280000  -4.3600000  16.4730000 -22.4020000  -4.1340000  18.6000000
 -21.4280000  -4.2580000  19.0720000 -22.6000000  -2.6180000  18.3580000
 -21.8380000  -2.2920000  17.6500000 -23.9740000  -2.2390000  17.7860000
 -24.7520000  -2.3600000  18.5400000 -23.9540000  -1.1990000  17.4610000
 -24.2150000  -2.8660000  16.9280000 -22.4070000  -1.8170000  19.6520000
 -21.4020000  -1.9780000  20.0420000 -22.5290000  -0.7540000  19.4420000
 -23.1480000  -2.0960000  20.4000000 -23.4680000  -4.7090000  19.5510000
 -24.6050000  -4.9550000  19.1440000 -23.1130000  -4.9410000  20.8250000
 -22.1510000  -4.7700000  21.0790000 -24.0310000  -5.5270000  21.8330000
 -24.8810000  -5.9840000  21.3270000 -23.3100000  -6.6450000  22.6130000
 -22.4870000  -6.2080000  23.1790000 -24.0070000  -7.0770000  23.3300000
 -22.7480000  -7.7870000  21.7440000 -21.9590000  -7.3990000  21.0990000
 -22.3030000  -8.5260000  22.4100000 -23.8080000  -8.4940000  20.8830000
 -24.6010000  -8.8670000  21.5310000 -24.2300000  -7.7910000  20.1650000
 -23.1710000  -9.6620000  20.1180000 -22.3990000  -9.2650000  19.4590000
 -22.6880000 -10.3280000  20.8340000 -24.1810000 -10.4170000  19.3260000
 -24.6420000  -9.8250000  18.6490000 -23.7500000 -11.1770000  18.8200000
 -24.8920000 -10.8190000  19.9200000 -24.6670000  -4.5120000  22.7940000
 -25.6650000  -4.8250000  23.4430000 -24.1290000  -3.2960000  22.8720000
 -23.3430000  -3.0860000  22.2740000 -24.4450000  -2.3230000  23.9260000
 -25.5120000  -2.3610000  24.1440000 -23.6790000  -2.7450000  25.1850000
 -24.0820000  -3.6840000  25.5640000 -22.6460000  -2.9250000  24.8870000
 -23.6900000  -1.7040000  26.3080000 -24.7570000  -1.1240000  26.6030000
 -22.6240000  -1.4790000  26.9240000 -24.0650000  -0.8850000  23.5230000
 -22.9710000  -0.6730000  22.9920000 -24.9320000   0.0940000  23.8060000
 -25.7850000  -0.1710000  24.2790000 -24.6240000   1.5290000  23.7290000
 -23.6270000   1.6510000  23.3070000 -25.5810000   2.2710000  22.7860000
 -26.6110000   2.0160000  23.0360000 -25.4650000   3.3390000  22.9680000
 -25.3420000   2.0250000  21.3070000 -25.8150000   0.8490000  20.6930000
 -26.3360000   0.1080000  21.2820000 -25.6250000   0.6450000  19.3140000
 -26.0010000  -0.2520000  18.8450000 -24.9640000   1.6170000  18.5420000
 -24.8280000   1.4650000  17.4810000 -24.4930000   2.7940000  19.1500000
 -23.9950000   3.5470000  18.5570000 -24.6770000   2.9950000  20.5300000
 -24.3190000   3.9050000  20.9890000 -24.6160000   2.1820000  25.1260000
 -25.6320000   2.2280000  25.8320000 -23.4520000   2.7210000  25.5020000
 -22.6970000   2.6930000  24.8320000 -23.1880000   3.3990000  26.7720000
 -24.0190000   3.1970000  27.4480000 -21.9330000   2.7950000  27.4190000
 -21.9880000   1.7130000  27.3030000 -21.0490000   3.1230000  26.8720000
 -21.7200000   3.0690000  28.8810000 -22.1680000   2.2740000  29.8760000
 -22.7490000   1.3730000  29.7410000 -21.6910000   2.7090000  31.0900000
 -21.7480000   2.1490000  31.9280000 -20.9790000   3.8760000  30.9600000
 -20.3190000   4.6880000  31.8910000 -20.3190000   4.4320000  32.9400000
 -19.6680000   5.8430000  31.4370000 -19.1510000   6.4820000  32.1380000
 -19.6990000   6.1700000  30.0710000 -19.2110000   7.0710000  29.7310000
 -20.3510000   5.3350000  29.1420000 -20.3500000   5.6000000  28.0950000
 -21.0040000   4.1560000  29.5570000 -23.1080000   4.9190000  26.5610000
 -22.0560000   5.4800000  26.2510000 -24.2490000   5.5940000  26.6440000
 -25.0860000   5.1070000  26.9320000 -24.3280000   7.0440000  26.4970000
 -23.7810000   7.3220000  25.5960000 -25.7820000   7.4560000  26.2960000
 -26.3810000   7.0450000  27.1090000 -25.8530000   8.5420000  26.3580000
 -26.3390000   7.0110000  24.9600000 -26.8710000   5.7180000  24.7820000
 -26.8810000   5.0150000  25.6030000 -27.4110000   5.3450000  23.5390000
 -27.8350000   4.3600000  23.4050000 -27.4160000   6.2610000  22.4730000
 -27.8470000   5.9870000  21.5220000 -26.8590000   7.5390000  22.6430000
 -26.8570000   8.2470000  21.8260000 -26.3140000   7.9100000  23.8800000
 -25.8890000   8.8950000  24.0030000 -23.7020000   7.7950000  27.6770000
 -23.8160000   7.3700000  28.8300000 -23.1040000   8.9480000  27.3790000
 -23.0250000   9.1960000  26.4030000 -22.5030000   9.8800000  28.3360000
 -23.0340000   9.7810000  29.2830000 -21.0260000   9.4990000  28.5550000
 -20.9410000   8.4120000  28.5600000 -20.4370000   9.8760000  27.7190000
 -20.4370000  10.0150000  29.8820000 -21.1650000  10.6660000  30.6670000
 -19.2460000   9.7450000  30.1570000 -22.6690000  11.3390000  27.8540000
 -23.1350000  11.5880000  26.7380000 -22.3360000  12.3230000  28.6940000
 -21.9360000  12.0620000  29.5840000 -22.5690000  13.7440000  28.4010000
 -22.0970000  13.9880000  27.4500000 -22.1070000  14.3660000  29.1670000
 -24.0550000  14.1210000  28.3120000 -24.4470000  14.8380000  27.3920000
 -24.8870000  13.6220000  29.2420000 -24.4960000  12.9980000  29.9330000
 -26.3650000  13.7440000  29.1900000 -26.6580000  14.2420000  28.2660000
 -27.0180000  12.3500000  29.1810000 -28.0910000  12.4620000  29.0270000
 -26.4710000  11.4330000  28.0910000 -25.4600000  11.1070000  28.3360000
 -27.1130000  10.5570000  27.9940000 -26.4600000  11.9660000  27.1400000
 -26.7980000  11.7080000  30.4190000 -27.2160000  10.8470000  30.3500000
 -26.9880000  14.5550000  30.3390000 -28.2080000  14.6950000  30.3910000
 -26.1850000  15.0850000  31.2710000 -25.1870000  14.9800000  31.1580000
 -26.6610000  15.8280000  32.4550000 -27.4860000  15.2790000  32.9080000
 -25.5290000  15.9010000  33.4930000 -25.8780000  16.4650000  34.3580000
 -25.3110000  14.8900000  33.8360000 -24.2490000  16.5120000  33.0040000
 -24.0000000  17.8390000  32.9210000 -24.6850000  18.6180000  33.2210000
 -22.7730000  18.0460000  32.3240000 -22.4280000  18.9650000  32.0850000
 -22.1600000  16.8570000  31.9940000 -20.9470000  16.5490000  31.3620000
 -20.3010000  17.3420000  31.0150000 -20.5870000  15.2020000  31.1970000
 -19.6570000  14.9460000  30.7110000 -21.4370000  14.1860000  31.6700000
 -21.1440000  13.1530000  31.5610000 -22.6720000  14.5050000  32.2690000
 -23.3180000  13.7130000  32.6200000 -23.0680000  15.8510000  32.4460000
 -27.2110000  17.2340000  32.1460000 -27.9880000  17.7780000  32.9320000
 -26.7930000  17.8360000  31.0320000 -26.1200000  17.3390000  30.4670000
 -27.1570000  19.1900000  30.5990000 -26.8520000  19.8670000  31.3970000
 -26.3250000  19.5590000  29.3690000 -26.5520000  18.8720000  28.5530000
 -26.5820000  20.5680000  29.0470000 -24.8280000  19.5140000  29.7130000
 -24.3730000  20.3950000  30.4870000 -24.1250000  18.5950000  29.2320000
 -28.6640000  19.4270000  30.3800000 -29.4060000  18.5500000  29.9280000
 -29.1180000  20.6440000  30.7020000 -28.4480000  21.3360000  31.0060000
 -30.5240000  21.0510000  30.6730000 -31.0690000  20.4530000  31.4030000
 -30.6150000  22.5160000  31.1130000 -31.6580000  22.8350000  31.1180000
 -30.2080000  22.6290000  32.1180000 -30.0530000  23.1480000  30.4260000
 -31.2060000  20.8230000  29.3140000 -32.3510000  20.3820000  29.2810000
 -30.5160000  21.0640000  28.1980000 -29.5680000  21.4010000  28.2930000
 -31.0070000  20.7710000  26.8410000 -31.8630000  21.4130000  26.6370000
 -29.9110000  21.1000000  25.8250000 -30.2700000  20.8920000  24.8170000
 -29.6670000  22.1600000  25.8930000 -28.7520000  20.3350000  26.0950000
 -28.0430000  20.7320000  25.5840000 -31.4760000  19.3190000  26.6590000
 -32.5680000  19.0890000  26.1350000 -30.7050000  18.3390000  27.1440000
 -29.8190000  18.6090000  27.5480000 -31.0600000  16.9100000  27.1160000
 -31.4110000  16.6630000  26.1140000 -29.8350000  16.0190000  27.4130000
 -29.4350000  16.2730000  28.3950000 -30.1950000  14.5270000  27.4060000
 -30.6620000  14.2570000  26.4590000 -29.2950000  13.9270000  27.5420000
 -30.8780000  14.2980000  28.2240000 -28.7280000  16.2300000  26.3700000
 -28.4020000  17.2700000  26.3650000 -27.8670000  15.6060000  26.6100000
 -29.0930000  15.9630000  25.3780000 -32.2150000  16.6190000  28.0790000
 -33.1800000  15.9590000  27.6940000 -32.1800000  17.1690000  29.3020000
 -31.3570000  17.6990000  29.5510000 -33.2590000  17.0110000  30.3030000
 -33.4330000  15.9450000  30.4530000 -32.8290000  17.6110000  31.6540000
 -32.5840000  18.6650000  31.5230000 -33.6650000  17.5380000  32.3510000
 -31.6270000  16.8560000  32.2540000 -31.8580000  15.7910000  32.2710000
 -30.7510000  16.9960000  31.6210000 -31.2780000  17.2940000  33.6850000
 -32.1340000  17.1150000  34.3360000 -30.4500000  16.6750000  34.0310000
 -30.8700000  18.7730000  33.7650000 -30.1140000  18.9650000  33.0040000
 -31.7400000  19.3920000  33.5450000 -30.3260000  19.1170000  35.1070000
 -29.4880000  18.5890000  35.3060000 -30.0830000  20.0960000  35.1630000
 -30.9950000  18.9290000  35.8390000 -34.6070000  17.5880000  29.8360000
 -35.6500000  16.9890000  30.0900000 -34.5890000  18.6890000  29.0750000
 -33.6980000  19.1540000  28.9740000 -35.7630000  19.3130000  28.4240000
 -36.6070000  19.2950000  29.1150000 -35.4370000  20.7860000  28.1050000
 -34.4800000  20.8430000  27.5850000 -36.2020000  21.1930000  27.4450000
 -35.4000000  21.6560000  29.3730000 -36.3990000  21.6840000  29.8080000
 -34.7180000  21.2240000  30.1050000 -34.9460000  23.0880000  29.0560000
 -33.9180000  23.0640000  28.6940000 -35.5880000  23.5120000  28.2840000
 -35.0290000  23.9510000  30.3220000 -36.0660000  23.9850000  30.6560000
 -34.4410000  23.4770000  31.1080000 -34.5260000  25.3290000  30.0820000
 -35.0420000  25.7960000  29.3500000 -34.5930000  25.8920000  30.9180000
 -33.5520000  25.3080000  29.8140000 -36.2430000  18.5690000  27.1630000
 -37.2780000  18.9250000  26.6010000 -35.5370000  17.5130000  26.7430000
 -34.6940000  17.2840000  27.2500000 -35.8370000  16.6900000  25.5660000
 -36.8800000  16.8370000  25.2830000 -34.9630000  17.1620000  24.3840000
 -33.9130000  17.1600000  24.6760000 -35.0760000  16.4760000  23.5450000
 -35.3690000  18.5390000  23.8880000 -36.3510000  18.6940000  23.1730000
 -34.6480000  19.5750000  24.2530000 -33.8590000  19.4430000  24.8700000
 -34.9240000  20.4910000  23.9290000 -35.6960000  15.1830000  25.8730000
 -35.1890000  14.4100000  25.0600000 -36.2070000  14.7360000  27.0290000
 -36.5950000  15.4060000  27.6770000 -36.2090000  13.3190000  27.4320000
 -36.7280000  13.2140000  28.3850000 -35.1800000  12.9900000  27.5760000
 -36.8770000  12.3820000  26.4170000 -36.4170000  11.2540000  26.2350000
 -37.8810000  12.8760000  25.6830000 -38.2220000  13.7970000  25.9190000
 -38.5050000  12.2000000  24.5350000 -39.0590000  11.3370000  24.9050000
 -39.5040000  13.1590000  23.8610000 -40.1030000  12.5810000  23.1580000
 -40.1840000  13.5490000  24.6180000 -38.9100000  14.3180000  23.1080000
 -38.7190000  15.5660000  23.5960000 -39.0140000  15.8980000  24.5800000
 -38.0620000  16.3380000  22.6550000 -37.7730000  17.2930000  22.8130000
 -37.8060000  15.6280000  21.5030000 -37.1570000  15.9510000  20.3030000
 -36.7320000  16.9340000  20.1630000 -37.0670000  14.9800000  19.2910000
 -36.5700000  15.2120000  18.3610000 -37.6310000  13.7070000  19.4890000
 -37.5640000  12.9650000  18.7070000 -38.2800000  13.3920000  20.6990000
 -38.7010000  12.4080000  20.8410000 -38.3740000  14.3400000  21.7440000
 -37.4770000  11.6750000  23.5180000 -37.5960000  10.5410000  23.0500000
 -36.4370000  12.4590000  23.2070000 -36.3710000  13.3720000  23.6350000
 -35.3660000  12.0400000  22.3030000 -35.8140000  11.6980000  21.3700000
 -34.4430000  13.2150000  21.9590000 -34.9940000  13.9360000  21.3540000
 -34.1220000  13.7120000  22.8750000 -33.2150000  12.7790000  21.2270000
 -33.1470000  12.5250000  19.9020000 -33.9550000  12.6720000  19.2000000
 -31.9380000  11.9310000  19.6100000 -31.7360000  11.5190000  18.7100000
 -31.1680000  11.7540000  20.7360000 -29.9260000  11.1440000  20.9650000
 -29.3930000  10.6850000  20.1450000 -29.3990000  11.1280000  22.2670000
 -28.4450000  10.6590000  22.4590000 -30.1160000  11.7240000  23.3200000
 -29.7030000  11.7170000  24.3180000 -31.3730000  12.3190000  23.0830000
 -31.9200000  12.7700000  23.8970000 -31.9380000  12.3330000  21.7880000
 -34.5750000  10.8580000  22.8750000 -34.2300000   9.9310000  22.1480000
 -34.3340000  10.8410000  24.1880000 -34.6740000  11.6120000  24.7450000
 -33.6260000   9.7300000  24.8440000 -32.6910000   9.5820000  24.3040000
 -33.2490000  10.0470000  26.3000000 -32.4590000   9.3500000  26.5790000
 -32.7190000  11.4610000  26.5410000 -33.4520000  12.2190000  26.2630000
 -32.4700000  11.5840000  27.5950000 -31.8080000  11.6060000  25.9600000
 -34.3190000   9.8310000  27.1930000 -35.0570000  10.3960000  26.9540000
 -34.4100000   8.4120000  24.7410000 -33.8250000   7.3640000  24.4670000
 -35.7410000   8.4570000  24.8930000 -36.1680000   9.3420000  25.1270000
 -36.6260000   7.3200000  24.6350000 -36.2700000   6.4660000  25.2100000
 -38.0360000   7.6690000  25.1260000 -38.6890000   6.8040000  25.0020000
 -38.0070000   7.9380000  26.1820000 -38.4430000   8.5030000  24.5550000
 -36.6130000   6.9000000  23.1520000 -36.5130000   5.7100000  22.8480000
 -36.6610000   7.8630000  22.2240000 -36.7940000   8.8190000  22.5220000
 -36.5170000   7.5930000  20.7920000 -37.3090000   6.9040000  20.4990000
 -36.7010000   8.8830000  19.9850000 -37.7040000   9.2740000  20.1590000
 -35.9840000   9.6300000  20.3240000 -36.5070000   8.6820000  18.5020000
 -37.3110000   7.9340000  17.6690000 -38.1740000   7.4730000  17.9190000
 -36.7540000   7.9270000  16.4450000 -37.1680000   7.4230000  15.5840000
 -35.6110000   8.6360000  16.4460000 -35.4400000   9.1090000  17.7550000
 -34.6060000   9.6900000  18.1210000 -35.1820000   6.9030000  20.4610000
 -35.1850000   5.9010000  19.7530000 -34.0560000   7.3800000  21.0000000
 -34.1100000   8.2320000  21.5400000 -32.7380000   6.7730000  20.8250000
 -32.5120000   6.7640000  19.7590000 -31.6910000   7.6530000  21.5180000
 -30.6990000   7.2230000  21.3790000 -31.7060000   8.6530000  21.0850000
 -31.9060000   7.7230000  22.5840000 -32.6880000   5.3110000  21.3130000
 -32.2150000   4.4430000  20.5760000 -33.2160000   5.0200000  22.5130000
 -33.5620000   5.7810000  23.0800000 -33.3950000   3.6420000  23.0040000
 -32.4110000   3.1890000  23.1170000 -34.0860000   3.6470000  24.3900000
 -33.4700000   4.2060000  25.0940000 -35.0470000   4.1550000  24.3020000
 -34.3320000   2.2330000  24.9530000 -34.8260000   1.6300000  24.1900000
 -33.3690000   1.7700000  25.1660000 -35.2100000   2.1660000  26.2170000
 -35.6010000   3.2140000  26.7800000 -35.5120000   1.0260000  26.6440000
 -34.1710000   2.7800000  21.9890000 -33.6830000   1.7370000  21.5480000
 -35.3730000   3.2210000  21.6070000 -35.7040000   4.0960000  21.9890000
 -36.2680000   2.4850000  20.7100000 -36.4300000   1.5020000  21.1510000
 -37.6250000   3.2130000  20.6710000 -37.8700000   3.5160000  21.6890000
 -37.5530000   4.1200000  20.0710000 -38.7930000   2.3350000  20.1880000
 -38.7330000   1.3630000  20.6780000 -39.7240000   2.8030000  20.5090000
 -38.8910000   2.1360000  18.6750000 -38.3050000   2.8440000  17.8670000
 -39.6660000   1.1710000  18.2330000 -39.6900000   1.0020000  17.2380000
 -40.1770000   0.5820000  18.8750000 -35.6500000   2.2590000  19.3160000
 -35.6360000   1.1320000  18.8200000 -35.0810000   3.3090000  18.7150000
 -35.1290000   4.1970000  19.1950000 -34.3930000   3.2900000  17.4210000
 -35.1110000   3.0160000  16.6490000 -33.8700000   4.7060000  17.1170000
 -34.7140000   5.3940000  17.0690000 -33.2170000   5.0240000  17.9300000
 -33.0930000   4.8000000  15.7980000 -32.2670000   4.0880000  15.8090000
 -33.7650000   4.5260000  14.9850000 -32.4060000   6.4420000  15.4430000
 -31.0040000   6.4810000  16.5970000 -30.3230000   5.6590000  16.3790000
 -30.4720000   7.4260000  16.4840000 -31.3600000   6.3970000  17.6240000
 -33.2580000   2.2590000  17.3870000 -33.2040000   1.4270000  16.4810000
 -32.3580000   2.2800000  18.3760000 -32.4460000   2.9740000  19.1050000
 -31.2620000   1.3120000  18.4560000 -30.7630000   1.2850000  17.4870000
 -30.2360000   1.7660000  19.5060000 -30.7590000   1.9570000  20.4440000
 -29.5240000   0.9580000  19.6760000 -29.4510000   3.0290000  19.0950000
 -30.1390000   3.8310000  18.8290000 -28.6030000   3.5000000  20.2710000
 -27.9530000   2.6920000  20.6070000 -27.9880000   4.3460000  19.9630000
 -29.2530000   3.8070000  21.0900000 -28.5210000   2.7710000  17.9050000
 -29.1000000   2.5940000  16.9990000 -27.8830000   3.6390000  17.7330000
 -27.8870000   1.9080000  18.1070000 -31.7550000  -0.1250000  18.6960000
 -31.2120000  -1.0480000  18.0890000 -32.8110000  -0.3270000  19.4970000
 -33.1930000   0.4640000  19.9950000 -33.4410000  -1.6490000  19.6890000
 -32.6560000  -2.3710000  19.9110000 -34.4030000  -1.6120000  20.8900000
 -35.0610000  -0.7470000  20.8100000 -35.0170000  -2.5120000  20.8800000
 -33.6330000  -1.5680000  22.2230000 -33.0360000  -2.4750000  22.3110000
 -32.9610000  -0.7110000  22.2370000 -34.5800000  -1.4840000  23.4290000
 -35.1550000  -0.5590000  23.3780000 -35.2650000  -2.3300000  23.4040000
 -33.7610000  -1.5260000  24.7280000 -33.1550000  -2.4310000  24.7220000
 -33.0740000  -0.6800000  24.7520000 -34.6270000  -1.5120000  25.9380000
 -35.3870000  -2.1720000  25.8620000 -34.0820000  -1.7740000  26.7470000
 -35.0150000  -0.5980000  26.1190000 -34.1130000  -2.1980000  18.4200000
 -34.0700000  -3.4060000  18.1910000 -34.6870000  -1.3430000  17.5680000
 -34.7730000  -0.3770000  17.8500000 -35.1200000  -1.7290000  16.2140000
 -35.7550000  -2.6120000  16.2880000 -35.9420000  -0.6160000  15.5430000
 -35.4110000   0.3330000  15.6160000 -36.0480000  -0.8710000  14.4880000
 -37.3490000  -0.4650000  16.1320000 -37.8140000  -1.4500000  16.1660000
 -37.2740000  -0.0970000  17.1550000 -38.2530000   0.4790000  15.3060000
 -37.7650000   1.2370000  14.4310000 -39.4890000   0.4580000  15.5290000
 -33.9400000  -2.1130000  15.3000000 -33.9600000  -3.1760000  14.6750000
 -32.9190000  -1.2510000  15.2060000 -32.9820000  -0.3880000  15.7270000
 -31.7650000  -1.4310000  14.3100000 -32.1420000  -1.6580000  13.3130000
 -30.9580000  -0.1230000  14.2400000 -30.7010000   0.1730000  15.2570000
 -30.0260000  -0.3060000  13.7050000 -31.7010000   1.0310000  13.5430000
 -32.7140000   1.1170000  13.9340000 -30.9740000   2.3450000  13.8080000
 -29.9890000   2.3330000  13.3410000 -31.5700000   3.1600000  13.3960000
 -30.8650000   2.4990000  14.8820000 -31.7810000   0.8370000  12.0270000
 -32.3610000  -0.0550000  11.7930000 -32.2770000   1.6960000  11.5750000
 -30.7800000   0.7400000  11.6060000 -30.8460000  -2.6060000  14.6910000
 -30.2390000  -3.2140000  13.8060000 -30.7440000  -2.9320000  15.9840000
 -31.2280000  -2.3510000  16.6530000 -29.8510000  -3.9680000  16.5230000
 -29.4630000  -4.5800000  15.7080000 -28.6230000  -3.3320000  17.2130000
 -28.9460000  -2.7750000  18.0930000 -27.6300000  -4.4130000  17.6510000
 -27.2530000  -4.9520000  16.7820000 -26.7950000  -3.9430000  18.1700000
 -28.1010000  -5.1200000  18.3330000 -27.8650000  -2.3540000  16.3020000
 -28.4970000  -1.4950000  16.0790000 -26.9700000  -1.9920000  16.8070000
 -27.5800000  -2.8480000  15.3730000 -30.6360000  -4.8620000  17.5000000
 -30.8700000  -4.4640000  18.6470000 -31.0480000  -6.0780000  17.0840000
 -30.9820000  -6.5970000  15.7250000 -30.0060000  -7.0520000  15.5570000
 -31.1720000  -5.8190000  14.9850000 -32.0730000  -7.6610000  15.6380000
 -31.8320000  -8.4280000  14.9030000 -33.0290000  -7.1890000  15.4070000
 -32.1030000  -8.2210000  17.0570000 -31.3000000  -8.9480000  17.1720000
 -33.0660000  -8.6760000  17.2910000 -31.8360000  -6.9840000  17.9220000
 -32.7880000  -6.4990000  18.1390000 -31.1330000  -7.3450000  19.2390000
 -29.9650000  -7.7420000  19.2540000 -31.8500000  -7.2020000  20.3580000
 -32.8000000  -6.8700000  20.2740000 -31.3830000  -7.5930000  21.6950000
 -30.9370000  -8.5860000  21.6400000 -32.2420000  -7.6560000  22.3630000
 -30.3560000  -6.6480000  22.3370000 -29.8880000  -6.9350000  23.4390000
 -30.0100000  -5.5220000  21.7020000 -30.4380000  -5.3320000  20.8060000
 -29.0020000  -4.5660000  22.2020000 -28.0520000  -5.1000000  22.2350000
 -28.8380000  -3.4000000  21.2050000 -28.8290000  -3.8300000  20.2030000
 -29.9770000  -2.3800000  21.2710000 -29.9550000  -1.8360000  22.2160000
 -29.8810000  -1.6700000  20.4490000 -30.9310000  -2.9000000  21.1780000
 -27.5110000  -2.6550000  21.3650000 -26.6830000  -3.3540000  21.2410000
 -27.4300000  -1.8950000  20.5890000 -27.4500000  -2.1750000  22.3420000
 -29.3050000  -4.0810000  23.6300000 -30.4690000  -3.9260000  24.0170000
 -28.2630000  -3.8590000  24.4290000 -27.3380000  -4.0680000  24.0800000
 -28.3530000  -3.1940000  25.7260000 -29.3360000  -3.3910000  26.1550000
 -27.3150000  -3.8150000  26.6650000 -27.4550000  -3.4290000  27.6740000
 -27.4350000  -4.8980000  26.6920000 -26.3090000  -3.5730000  26.3220000
 -28.1970000  -1.6630000  25.5860000 -27.4120000  -1.1740000  24.7720000
 -28.9620000  -0.9030000  26.3690000 -29.7040000  -1.3680000  26.8720000
 -28.9850000   0.5640000  26.3870000 -28.1370000   0.9550000  25.8250000
 -30.2910000   1.0820000  25.7370000 -31.1300000   0.7010000  26.3180000
 -30.3470000   2.6150000  25.8130000 -29.4420000   3.0520000  25.3910000
 -31.2120000   2.9790000  25.2570000 -30.4470000   2.9410000  26.8480000
 -30.5100000   0.6080000  24.2790000 -30.5080000  -0.4820000  24.2520000
 -31.5000000   0.9270000  23.9530000 -29.4970000   1.1220000  23.2480000
 -28.4860000   0.8360000  23.5370000 -29.7190000   0.6780000  22.2780000
 -29.5590000   2.2060000  23.1600000 -28.8550000   1.0390000  27.8420000
 -29.7150000   0.7370000  28.6750000 -27.7650000   1.7350000  28.1710000
 -27.0930000   1.9510000  27.4480000 -27.4770000   2.1700000  29.5430000
 -27.5530000   1.2820000  30.1710000 -26.0170000   2.6530000  29.6280000
 -25.7080000   2.5600000  30.6690000 -25.3780000   1.9890000  29.0460000
 -25.7330000   4.0780000  29.1740000 -26.4280000   4.6820000  28.3750000
 -24.6460000   4.6510000  29.6360000 -24.0530000   4.1710000  30.2970000
 -24.4290000   5.5920000  29.3400000 -28.4930000   3.1910000  30.1100000
 -29.1320000   3.9380000  29.3650000 -28.6290000   3.2670000  31.4410000
 -28.1630000   2.5910000  32.0290000 -29.5570000   4.2200000  32.0790000
 -30.5130000   4.1400000  31.5630000 -29.8280000   3.8440000  33.5380000
 -30.6910000   4.4070000  33.8930000 -30.0740000   2.7830000  33.5880000
 -28.7160000   4.1210000  34.3780000 -28.9990000   3.9630000  35.2810000
 -29.1240000   5.6880000  31.9590000 -29.9860000   6.5660000  31.9470000
 -27.8200000   5.9790000  31.7880000 -27.1660000   5.2100000  31.8290000
 -27.2920000   7.3580000  31.6350000 -27.6690000   7.9490000  32.4700000
 -25.7510000   7.3520000  31.7160000 -25.4520000   6.8370000  32.6280000
 -25.3540000   6.7960000  30.8670000 -25.1220000   8.7590000  31.7170000
 -25.2250000   9.1880000  30.7210000 -25.6470000   9.3960000  32.4290000
 -23.6280000   8.7500000  32.0620000 -23.1210000   8.0250000  31.4260000
 -23.2210000   9.7390000  31.8510000 -23.3680000   8.4470000  33.4830000
 -24.1310000   8.5380000  34.1390000 -22.1870000   8.1370000  33.9900000
 -21.0910000   8.1410000  33.3010000 -21.0960000   8.4350000  32.3350000
 -20.2490000   7.8720000  33.7910000 -22.0400000   7.8130000  35.2340000
 -22.8250000   7.7510000  35.8670000 -21.1060000   7.5510000  35.5140000
 -27.8050000   8.0810000  30.3840000 -27.8800000   9.3070000  30.3950000
 -28.2190000   7.3590000  29.3380000 -28.0670000   6.3610000  29.3560000
 -28.9800000   7.9330000  28.2180000 -28.3450000   8.6360000  27.6790000
 -29.3930000   6.7980000  27.2510000 -28.4980000   6.3600000  26.8090000
 -29.8710000   6.0100000  27.8310000 -30.3660000   7.2010000  26.1200000
 -31.2930000   7.5610000  26.5650000 -29.8220000   8.2840000  25.1890000
 -28.9290000   7.9200000  24.6810000 -30.5690000   8.5350000  24.4360000
 -29.5790000   9.1880000  25.7470000 -30.7270000   5.9800000  25.2820000
 -31.2100000   5.2390000  25.9190000 -31.4190000   6.2610000  24.4880000
 -29.8310000   5.5490000  24.8350000 -30.2280000   8.6990000  28.6930000
 -30.5300000   9.7740000  28.1810000 -31.0040000   8.0900000  29.5980000
 -30.6160000   7.3140000  30.1150000 -32.4490000   8.3260000  29.7080000
 -32.7940000   8.6330000  28.7210000 -33.1660000   7.0100000  30.0680000
 -32.7270000   6.6110000  30.9830000 -34.2190000   7.2110000  30.2640000
 -33.0570000   5.9430000  28.9600000 -32.0060000   5.7890000  28.7150000
 -33.4280000   4.9930000  29.3460000 -33.8210000   6.2870000  27.6670000
 -33.8210000   7.3590000  27.4670000 -33.3050000   5.8090000  26.8350000
 -35.1900000   5.7570000  27.6940000 -35.2910000   4.8120000  27.3510000
 -36.2990000   6.2740000  28.1800000 -36.4160000   7.5030000  28.5920000
 -35.6860000   8.1850000  28.4420000 -37.3030000   7.8270000  28.9480000
 -37.3360000   5.5040000  28.2550000 -37.2560000   4.5580000  27.9090000
 -38.1540000   5.7850000  28.7760000 -32.8330000   9.4690000  30.6450000
 -32.5260000   9.4390000  31.8350000 -33.5990000  10.4050000  30.0900000
 -33.7730000  10.3140000  29.0990000 -34.5020000  11.3150000  30.7920000
 -34.5200000  11.0520000  31.8500000 -33.9740000  12.7480000  30.6370000
 -34.6120000  13.4410000  31.1860000 -32.9630000  12.8130000  31.0400000
 -33.9530000  13.0340000  29.5850000 -35.9380000  11.1350000  30.2500000
 -36.1430000  10.3800000  29.3000000 -36.9380000  11.8010000  30.8250000
 -36.7510000  12.3810000  31.6300000 -38.3540000  11.5850000  30.4790000
 -38.4190000  11.0070000  29.5570000 -38.9990000  10.7530000  31.6020000
 -39.9370000  10.3390000  31.2330000 -38.3490000   9.9170000  31.8590000
 -39.2840000  11.5770000  32.8640000 -38.5740000  12.5730000  33.1370000
 -40.2770000  11.2610000  33.5470000 -39.1320000  12.9040000  30.2480000
 -38.5490000  13.9460000  29.9430000 -40.4600000  12.8690000  30.4070000
 -40.9060000  11.9740000  30.5500000 -41.3630000  14.0210000  30.4100000
 -41.3840000  14.4380000  29.4040000 -42.8040000  13.5990000  30.7860000
 -42.8460000  13.4740000  31.8680000 -43.4640000  14.4320000  30.5430000
 -43.3770000  12.3050000  30.1640000 -42.6640000  11.2820000  30.0360000
 -44.5930000  12.2960000  29.8560000 -40.9220000  15.1390000  31.3820000
 -41.0940000  16.3240000  31.0790000 -40.3990000  14.7690000  32.5640000
 -40.2130000  13.7860000  32.7040000 -40.0550000  15.6790000  33.6730000
 -40.6090000  16.6100000  33.5570000 -40.4670000  15.0300000  35.0100000
 -39.8300000  14.1640000  35.1930000 -40.2810000  15.7400000  35.8160000
 -41.9360000  14.5640000  35.0890000 -42.0670000  13.7100000  34.4240000
 -42.1300000  14.2170000  36.1030000 -42.9890000  15.6240000  34.7220000
 -42.8690000  15.9090000  33.6770000 -43.9760000  15.1750000  34.8360000
 -42.8970000  16.8690000  35.6150000 -43.0280000  16.5650000  36.6540000
 -41.9030000  17.3050000  35.5180000 -43.9260000  17.8780000  35.2480000
 -44.8600000  17.5040000  35.3440000 -43.8640000  18.6920000  35.8430000
 -43.8140000  18.1930000  34.2950000 -38.5710000  16.0770000  33.7070000
 -38.2410000  17.1410000  34.2340000 -37.6850000  15.2600000  33.1330000
 -38.0370000  14.3720000  32.8050000 -36.2600000  15.5660000  32.9270000
 -36.1100000  16.6450000  32.9200000 -35.9760000  15.1890000  31.9440000
 -35.2810000  14.9630000  33.9460000 -34.0700000  15.1050000  33.7770000
 -35.7750000  14.2770000  34.9850000 -36.7810000  14.1970000  35.0340000
 -34.9800000  13.3990000  35.8760000 -34.2230000  14.0120000  36.3660000
 -35.9070000  12.8080000  36.9590000 -35.3240000  12.2710000  37.7070000
 -36.4240000  13.6320000  37.4510000 -36.9380000  11.8510000  36.3410000
 -37.2540000  12.2670000  35.3850000 -36.4700000  10.8870000  36.1420000
 -38.1910000  11.6260000  37.1920000 -37.9920000  10.8930000  37.9750000
 -38.5240000  12.5690000  37.6260000 -39.2350000  11.1250000  36.1920000
 -39.2740000  11.8710000  35.3980000 -38.8950000  10.2000000  35.7260000
 -40.6020000  10.9630000  36.7370000 -41.2680000  11.2540000  36.0360000
 -40.7990000   9.9870000  36.9050000 -40.7420000  11.4850000  37.5900000
 -34.2460000  12.3070000  35.0750000 -34.7330000  11.8860000  34.0270000
 -33.0950000  11.8300000  35.5620000 -32.7910000  12.1780000  36.4610000
 -32.1890000  10.9120000  34.8320000 -32.6400000  10.6530000  33.8740000
 -30.8500000  11.6240000  34.5580000 -30.5150000  12.1110000  35.4740000
 -30.1020000  10.8880000  34.2660000 -30.9690000  12.6590000  33.4260000
 -31.1170000  12.1340000  32.4820000 -31.8340000  13.2990000  33.6030000
 -29.7340000  13.5610000  33.3090000 -29.9170000  14.2780000  32.5090000
 -29.6130000  14.1330000  34.2290000 -28.5030000  12.8090000  32.9780000
 -28.3880000  12.5600000  32.0060000 -27.4980000  12.4960000  33.7780000
 -27.5250000  12.7210000  35.0600000 -28.3400000  13.1450000  35.4790000
 -26.7560000  12.4380000  35.6500000 -26.4170000  11.9660000  33.2880000
 -26.3390000  11.8180000  32.2920000 -25.6510000  11.7210000  33.8990000
 -31.9610000   9.5990000  35.5870000 -32.0060000   9.5720000  36.8150000
 -31.7680000   8.5080000  34.8350000 -31.7630000   8.6530000  33.8360000
 -31.4710000   7.1330000  35.2960000 -31.1230000   6.5850000  34.4210000
 -30.3320000   7.0590000  36.3330000 -30.6260000   7.5540000  37.2580000
 -30.1740000   6.0100000  36.5830000 -29.0070000   7.6200000  35.8860000
 -28.0180000   6.9300000  35.2220000 -28.0580000   5.9710000  34.9090000
 -26.9500000   7.7370000  35.1190000 -26.0030000   7.4420000  34.6940000
 -27.2160000   8.9500000  35.6350000 -28.5250000   8.8790000  36.1340000
 -29.0480000   9.6600000  36.6670000 -32.7170000   6.3770000  35.7960000
 -33.0060000   5.2790000  35.3230000 -33.4620000   6.9620000  36.7380000
 -33.1630000   7.8680000  37.0710000 -34.6270000   6.3600000  37.4000000
 -34.8970000   5.4300000  36.9010000 -34.2940000   6.0360000  38.8650000
 -33.9110000   6.9320000  39.3540000 -35.2210000   5.7740000  39.3760000
 -33.3140000   4.8980000  39.0720000 -31.9270000   5.1400000  39.0710000
 -31.5520000   6.1420000  38.9210000 -31.0250000   4.0820000  39.2820000
 -29.9620000   4.2720000  39.2810000 -31.5060000   2.7820000  39.5180000
 -30.8150000   1.9710000  39.6960000 -32.8890000   2.5390000  39.5330000
 -33.2580000   1.5430000  39.7260000 -33.7910000   3.5940000  39.3050000
 -34.8540000   3.4020000  39.3260000 -35.8450000   7.2930000  37.3620000
 -35.7360000   8.5020000  37.5760000 -37.0210000   6.7220000  37.1060000
 -37.0340000   5.7260000  36.9440000 -38.3100000   7.3670000  37.3590000
 -38.3160000   8.3290000  36.8470000 -39.4040000   6.4770000  36.7410000
 -39.1400000   6.2680000  35.7050000 -39.4300000   5.5340000  37.2860000
 -40.8090000   7.0840000  36.7580000 -40.9500000   8.2780000  37.1100000
 -41.7740000   6.3420000  36.4740000 -38.5410000   7.6200000  38.8720000
 -38.1200000   6.8360000  39.7230000 -39.2840000   8.6780000  39.2080000
 -39.6410000   9.2390000  38.4470000 -39.8100000   9.0060000  40.5440000
 -38.9810000   9.2300000  41.2150000 -40.7220000  10.2360000  40.4400000
 -41.6420000   9.9470000  39.9320000 -40.9740000  10.5870000  41.4410000
 -40.1210000  11.2770000  39.6860000 -39.5040000  11.7390000  40.2580000
 -40.6430000   7.8680000  41.1560000 -40.6710000   7.7030000  42.3750000
 -41.2800000   7.0490000  40.3060000 -41.2610000   7.2880000  39.3250000
 -42.0040000   5.8340000  40.7070000 -42.6390000   6.0840000  41.5570000
 -42.9260000   5.3880000  39.5520000 -42.3270000   5.1730000  38.6670000
 -43.4180000   4.4580000  39.8350000 -44.0320000   6.3860000  39.2130000
 -44.8940000   6.6870000  40.0270000 -44.0660000   6.9020000  38.0060000
 -43.3170000   6.7140000  37.3550000 -44.8310000   7.5110000  37.7510000
 -41.0750000   4.6800000  41.1780000 -41.5690000   3.6390000  41.6150000
 -39.7450000   4.8370000  41.0800000 -39.3960000   5.7170000  40.7300000
 -38.7240000   3.8720000  41.5320000 -39.1490000   3.2020000  42.2800000
 -37.9120000   4.4190000  42.0110000 -38.1130000   3.0070000  40.4210000
 -37.1910000   2.2310000  40.6780000 -38.6350000   3.1130000  39.1910000
 -39.3480000   3.8160000  39.0590000 -38.3010000   2.2450000  38.0480000
 -38.1360000   1.2350000  38.4240000 -39.4880000   2.1900000  37.0690000
 -39.6350000   3.1760000  36.6270000 -39.2470000   1.4850000  36.2740000
 -40.8000000   1.7450000  37.7360000 -40.6580000   0.7720000  38.2050000
 -41.0890000   2.4660000  38.5010000 -41.9300000   1.6520000  36.7080000
 -41.9890000   2.5890000  36.1550000 -41.6980000   0.8570000  35.9990000
 -43.2120000   1.3460000  37.3760000 -43.2770000   0.4370000  37.8110000
 -44.2830000   2.1130000  37.4780000 -44.3470000   3.3060000  36.9560000
 -43.5630000   3.6590000  36.4260000 -45.1960000   3.8510000  37.0180000
 -45.3280000   1.6850000  38.1250000 -45.3220000   0.7670000  38.5470000
 -46.1550000   2.2590000  38.2060000 -37.0200000   2.6880000  37.3310000
 -36.8840000   3.8540000  36.9620000 -36.1020000   1.7520000  37.0930000
 -36.2830000   0.8210000  37.4420000 -34.9020000   1.9480000  36.2690000
 -34.3560000   2.8160000  36.6370000 -34.0160000   0.6970000  36.4370000
 -33.7220000   0.6140000  37.4840000 -34.6200000  -0.1780000  36.1950000
 -32.7510000   0.6470000  35.5620000 -33.0230000   0.7190000  34.5090000
 -31.7650000   1.7630000  35.9020000 -31.5190000   1.7290000  36.9630000
 -30.8540000   1.6270000  35.3200000 -32.1960000   2.7340000  35.6610000
 -32.0450000  -0.6880000  35.7820000 -32.7210000  -1.5090000  35.5440000
 -31.1750000  -0.7560000  35.1280000 -31.7220000  -0.7740000  36.8190000
 -35.2780000   2.1900000  34.7950000 -36.0020000   1.3930000  34.1960000
 -34.7680000   3.2730000  34.2010000 -34.1560000   3.8710000  34.7370000
 -34.8840000   3.5520000  32.7620000 -35.8150000   3.1150000  32.4010000
 -34.9610000   5.0680000  32.5120000 -34.0360000   5.5460000  32.8350000
 -35.0820000   5.2300000  31.4410000 -36.1530000   5.7190000  33.2320000
 -37.0380000   5.1100000  33.0460000 -35.9740000   5.7220000  34.3070000
 -36.5420000   7.4080000  32.6940000 -35.2170000   8.3300000  33.5190000
 -34.2460000   7.9630000  33.1850000 -35.3070000   9.3880000  33.2740000
 -35.3010000   8.2080000  34.5990000 -33.7360000   2.8960000  31.9700000
 -32.6200000   2.7660000  32.4730000 -34.0000000   2.4870000  30.7230000
 -34.9300000   2.6190000  30.3530000 -33.0780000   1.6560000  29.9350000
 -32.0890000   2.1140000  29.9300000 -33.4350000   1.6040000  28.9060000
 -32.9580000   0.2210000  30.4710000 -33.8450000  -0.2750000  31.1700000
 -31.8870000  -0.4820000  30.0940000 -31.1910000  -0.0200000  29.5260000
 -31.6990000  -1.9160000  30.3770000 -32.6700000  -2.3800000  30.5510000
 -31.0940000  -2.5970000  29.1450000 -30.1070000  -2.1760000  28.9530000
 -30.9750000  -3.6610000  29.3470000 -31.9600000  -2.4410000  27.8990000
 -33.1520000  -2.8270000  27.9090000 -31.4430000  -2.0160000  26.8520000
 -30.8550000  -2.2240000  31.6250000 -31.0130000  -3.2990000  32.2050000
 -29.9880000  -1.3010000  32.0580000 -29.9160000  -0.4310000  31.5500000
 -29.0920000  -1.4920000  33.2070000 -29.6580000  -2.0110000  33.9810000
 -27.8970000  -2.3840000  32.8310000 -28.2680000  -3.3370000  32.4530000
 -27.3360000  -2.6100000  33.7380000 -26.9370000  -1.7910000  31.8190000
 -27.1980000  -1.9280000  30.4420000 -28.0840000  -2.4460000  30.1080000
 -26.2950000  -1.4070000  29.4990000 -26.4860000  -1.5090000  28.4410000
 -25.1190000  -0.7640000  29.9320000 -24.2270000  -0.3070000  29.0230000
 -24.4290000  -0.6300000  28.1420000 -24.8700000  -0.6010000  31.3120000
 -23.9700000  -0.1000000  31.6360000 -25.7790000  -1.1160000  32.2550000
 -25.5790000  -1.0020000  33.3100000 -28.6030000  -0.1650000  33.8040000
 -28.4480000   0.8340000  33.0980000 -28.3490000  -0.1550000  35.1140000
 -28.4990000  -1.0100000  35.6300000 -27.8530000   1.0170000  35.8420000
 -28.3940000   1.8890000  35.4750000 -28.1790000   0.8970000  37.3430000
 -29.2560000   0.7900000  37.4710000 -27.6970000   0.0000000  37.7310000
 -27.7020000   2.1160000  38.1530000 -26.6410000   2.2850000  37.9670000
 -28.2440000   2.9930000  37.7970000 -27.8930000   1.9710000  39.6800000
 -28.0850000   0.8410000  40.1910000 -27.8220000   3.0140000  40.3770000
 -26.3520000   1.2530000  35.5840000 -25.4980000   0.5250000  36.0940000
 -26.0270000   2.2880000  34.8020000 -26.7690000   2.8070000  34.3540000
 -24.6550000   2.7740000  34.5820000 -23.9430000   1.9810000  34.8090000
 -24.4780000   3.1230000  33.1020000 -23.4680000   3.4960000  32.9370000
 -24.6210000   2.2190000  32.5110000 -25.4160000   4.1130000  32.7110000
 -25.1900000   4.8940000  33.2230000 -24.3350000   3.9610000  35.5080000
 -24.2110000   5.1040000  35.0570000 -24.2710000   3.7000000  36.8160000
 -24.4000000   2.7410000  37.1060000 -24.1190000   4.7300000  37.8550000
 -24.8550000   4.5470000  38.6380000 -24.3250000   5.7180000  37.4450000
 -22.7340000   4.7610000  38.5110000 -22.0640000   5.7960000  38.5070000
 -22.3230000   3.6380000  39.1070000 -22.9240000   2.8280000  39.0600000
 -21.1430000   3.5490000  39.9770000 -21.2070000   4.3650000  40.6960000
 -21.1970000   2.2380000  40.7750000 -20.3130000   2.1740000  41.4090000
 -21.1700000   1.3950000  40.0840000 -22.4300000   2.1320000  41.6540000
 -22.4860000   2.8560000  42.8610000 -21.6460000   3.4620000  43.1670000
 -23.6380000   2.8030000  43.6670000 -23.6770000   3.3620000  44.5900000
 -24.7470000   2.0290000  43.2610000 -25.8670000   1.9950000  44.0320000
 -25.8020000   2.6000000  44.7750000 -24.6880000   1.2960000  42.0550000
 -25.5410000   0.7080000  41.7480000 -23.5310000   1.3460000  41.2530000
 -23.4920000   0.7820000  40.3330000 -19.8070000   3.6960000  39.2260000
 -19.5450000   3.0010000  38.2440000 -18.9410000   4.5830000  39.7290000
 -19.2380000   5.1300000  40.5240000 -17.5860000   4.8140000  39.2000000
 -17.2990000   3.9570000  38.5910000 -17.5530000   6.0630000  38.2960000
 -17.9690000   6.9050000  38.8490000 -16.5150000   6.2890000  38.0540000
 -18.3310000   5.9010000  36.9790000 -17.8320000   5.1550000  36.3590000
 -19.3350000   5.5400000  37.2030000 -18.4650000   7.2140000  36.1790000
 -17.7150000   8.1920000  36.4150000 -19.3560000   7.2720000  35.2960000
 -16.5430000   4.8950000  40.3290000 -15.7410000   3.9750000  40.5120000
 -16.5640000   5.9840000  41.1180000 -17.2190000   6.7150000  40.8800000
 -15.5960000   6.2490000  42.2050000 -14.5980000   6.2260000  41.7670000
 -15.7980000   7.6740000  42.7630000 -15.0080000   7.8840000  43.4840000
 -15.6890000   8.3820000  41.9420000 -17.1590000   7.9100000  43.4410000
 -17.9640000   7.6790000  42.7430000 -17.2500000   7.2660000  44.3150000
 -17.3040000   9.3650000  43.8930000 -16.5140000   9.5890000  44.6100000
 -17.1930000  10.0180000  43.0270000 -18.6210000   9.5940000  44.5170000
 -19.2650000   8.8160000  44.5300000 -19.0510000  10.7200000  45.0590000
 -18.3150000  11.7940000  45.1010000 -17.3870000  11.7690000  44.7040000
 -18.6660000  12.6440000  45.5200000 -20.2440000  10.7900000  45.5750000
 -20.8520000   9.9840000  45.5630000 -20.5700000  11.6530000  45.9860000
 -15.5750000   5.1780000  43.3040000 -14.4960000   4.7910000  43.7540000
 -16.7400000   4.6350000  43.6760000 -17.5690000   4.9870000  43.2190000
 -16.9180000   3.6050000  44.7250000 -16.0490000   2.9460000  44.7140000
 -16.9760000   4.3220000  46.1030000 -16.3000000   5.1760000  46.0690000
 -17.9770000   4.7220000  46.2670000 -16.5460000   3.4990000  47.3360000
 -15.5790000   3.0360000  47.1420000 -16.4340000   4.1820000  48.1770000
 -17.5560000   2.4200000  47.7330000 -18.5280000   2.8830000  47.9040000
 -17.6240000   1.7160000  46.9040000 -17.1510000   1.6610000  48.9320000
 -16.4840000   2.0980000  49.5520000 -17.5300000   0.4280000  49.2260000
 -18.4270000  -0.2010000  48.5220000 -18.9300000   0.3100000  47.8110000
 -18.5670000  -1.1980000  48.6040000 -16.9930000  -0.2090000  50.2260000
 -16.2900000   0.2400000  50.7950000 -17.3030000  -1.1380000  50.4720000
 -18.1770000   2.7710000  44.4190000 -19.2290000   3.3240000  44.1050000
 -18.0470000   1.4440000  44.4920000 -17.1290000   1.0890000  44.7160000
 -19.1280000   0.4490000  44.3450000 -19.6190000   0.6190000  43.3860000
 -18.4680000  -0.9480000  44.3570000 -17.7840000  -1.0010000  45.2030000
 -19.2160000  -1.7240000  44.5170000 -17.7050000  -1.2540000  43.0550000
 -17.1300000  -0.3830000  42.7420000 -16.7350000  -2.4080000  43.2620000
 -17.2880000  -3.3060000  43.5370000 -16.1820000  -2.5910000  42.3410000
 -16.0270000  -2.1600000  44.0530000 -18.6680000  -1.6450000  41.9370000
 -19.3620000  -0.8310000  41.7300000 -18.1060000  -1.8580000  41.0270000
 -19.2260000  -2.5380000  42.2200000 -20.2220000   0.5600000  45.4360000
 -19.9410000   1.0910000  46.5140000 -21.4460000   0.0390000  45.2150000
 -21.8970000  -0.6520000  44.0150000 -21.1140000  -1.2530000  43.5530000
 -22.2730000   0.0770000  43.2980000 -23.0380000  -1.5550000  44.4620000
 -22.6390000  -2.4960000  44.8400000 -23.7460000  -1.7280000  43.6520000
 -23.6650000  -0.7610000  45.6030000 -24.1850000  -1.4200000  46.2990000
 -24.3620000  -0.0280000  45.1960000 -22.4820000  -0.0330000  46.2510000
 -22.7940000   0.9770000  46.5170000 -21.9820000  -0.7430000  47.5260000
 -21.2250000  -1.7140000  47.4640000 -22.3640000  -0.2270000  48.6960000
 -23.0010000   0.5560000  48.6770000 -22.0670000  -0.8160000  50.0060000
 -20.9840000  -0.8240000  50.1270000 -22.6110000   0.1210000  51.0920000
 -22.2340000   1.1280000  50.9110000 -23.6990000   0.1530000  51.0210000
 -22.2120000  -0.3250000  52.5060000 -21.4610000   0.4200000  53.1800000
 -22.6580000  -1.4100000  52.9410000 -22.6350000  -2.2550000  50.1560000
 -23.8540000  -2.4290000  50.0380000 -21.8200000  -3.2750000  50.5090000
 -20.3630000  -3.2400000  50.5060000 -20.0020000  -2.9850000  51.5020000
 -19.9670000  -2.5450000  49.7650000 -19.9180000  -4.6480000  50.1300000
 -18.9250000  -4.8730000  50.5210000 -19.9470000  -4.7660000  49.0460000
 -20.9980000  -5.5100000  50.7700000 -20.7830000  -5.6290000  51.8320000
 -21.0820000  -6.4800000  50.2800000 -22.2670000  -4.6730000  50.5840000
 -22.7140000  -4.9380000  49.6260000 -23.3040000  -5.0010000  51.6680000
 -23.8940000  -6.0840000  51.6350000 -23.5300000  -4.0990000  52.6270000
 -23.0230000  -3.2270000  52.5780000 -24.5480000  -4.2240000  53.6820000
 -24.9510000  -5.2370000  53.6860000 -23.9210000  -3.9740000  55.0710000
 -23.4800000  -2.9780000  55.0930000 -24.9560000  -4.0580000  56.1990000
 -25.4520000  -5.0290000  56.1820000 -24.4630000  -3.9260000  57.1630000
 -25.7000000  -3.2690000  56.0920000 -22.8180000  -4.9990000  55.3720000
 -22.0080000  -4.9060000  54.6480000 -22.4050000  -4.8180000  56.3650000
 -23.2230000  -6.0100000  55.3300000 -25.7240000  -3.2760000  53.4180000
 -26.8810000  -3.6950000  53.4930000 -25.4430000  -2.0030000  53.1040000
 -24.4670000  -1.7510000  53.0460000 -26.4480000  -0.9240000  53.0380000
 -27.2740000  -1.1760000  53.7030000 -25.8340000   0.3890000  53.5530000
 -24.9850000   0.6670000  52.9280000 -26.5830000   1.1770000  53.4750000
 -25.3790000   0.2930000  55.0180000 -26.2230000  -0.0170000  55.6340000
 -24.5850000  -0.4470000  55.1110000 -24.8600000   1.6460000  55.5190000
 -24.0100000   1.9540000  54.9100000 -25.6520000   2.3900000  55.4320000
 -24.4260000   1.5300000  56.9850000 -25.2730000   1.1780000  57.5730000
 -23.6340000   0.7840000  57.0570000 -23.9450000   2.8320000  57.5180000
 -24.6690000   3.5350000  57.4770000 -23.6610000   2.7450000  58.4830000
 -23.1500000   3.1720000  56.9970000 -27.0850000  -0.7060000  51.6570000
 -28.2130000  -0.2150000  51.5920000 -26.4220000  -1.1110000  50.5700000
 -25.5160000  -1.5380000  50.6960000 -26.8660000  -0.8710000  49.1820000
 -27.7720000  -0.2650000  49.1940000 -25.8120000  -0.0600000  48.4060000
 -24.9120000  -0.6700000  48.3310000 -26.1790000   0.1130000  47.3950000
 -25.4490000   1.3130000  49.0010000 -26.2490000   1.9070000  49.7620000
 -24.3650000   1.8340000  48.6440000 -27.2390000  -2.1710000  48.4390000
 -27.1600000  -2.2500000  47.2130000 -27.7360000  -3.1830000  49.1650000
 -27.7810000  -3.0630000  50.1670000 -28.2100000  -4.4570000  48.5980000
 -27.3840000  -4.9140000  48.0530000 -28.6370000  -5.4040000  49.7360000
 -29.3130000  -4.8640000  50.4000000 -29.1960000  -6.2380000  49.3130000
 -27.4660000  -5.9780000  50.5570000 -26.8150000  -5.1710000  50.8920000
 -28.0080000  -6.7070000  51.7860000 -28.6600000  -7.5260000  51.4810000
 -27.1790000  -7.1020000  52.3740000 -28.5700000  -6.0100000  52.4060000
 -26.6470000  -6.9810000  49.7390000 -26.1250000  -6.4720000  48.9290000
 -25.9000000  -7.4550000  50.3760000 -27.3020000  -7.7450000  49.3200000
 -29.3430000  -4.2900000  47.5630000 -29.5240000  -5.1640000  46.7180000
 -30.0520000  -3.1490000  47.5690000 -29.8650000  -2.5060000  48.3240000
 -31.0870000  -2.7680000  46.5850000 -31.9650000  -3.3850000  46.7750000
 -31.4960000  -1.2960000  46.8050000 -32.3420000  -1.0690000  46.1570000
 -31.8310000  -1.1820000  47.8360000 -30.3750000  -0.2740000  46.5270000
 -29.4990000  -0.5180000  47.1270000 -30.1010000  -0.3120000  45.4730000
 -30.8200000   1.1550000  46.8630000 -31.6880000   1.4140000  46.2560000
 -31.0930000   1.2090000  47.9170000 -29.6790000   2.1430000  46.5770000
 -28.8110000   1.8580000  47.1720000 -29.4040000   2.0660000  45.5260000
 -30.0730000   3.5420000  46.8970000 -30.3190000   3.6430000  47.8720000
 -29.3170000   4.1850000  46.7090000 -30.8660000   3.8380000  46.3460000
 -30.6940000  -3.0270000  45.1210000 -31.5510000  -3.4230000  44.3310000
 -29.4160000  -2.8500000  44.7660000 -28.7690000  -2.5560000  45.4840000
 -28.9000000  -3.0160000  43.3940000 -29.4490000  -2.3310000  42.7480000
 -27.4100000  -2.6390000  43.2820000 -27.1360000  -2.6800000  42.2280000
 -27.1540000  -1.2050000  43.7540000 -27.3280000  -1.1070000  44.8260000
 -26.1200000  -0.9340000  43.5410000 -27.8080000  -0.5190000  43.2160000
 -26.4890000  -3.6030000  44.0440000 -26.5450000  -4.6030000  43.6140000
 -25.4550000  -3.2650000  43.9630000 -26.7690000  -3.6490000  45.0960000
 -29.1150000  -4.4190000  42.8150000 -29.2520000  -4.5550000  41.6010000
 -29.1820000  -5.4690000  43.6470000 -29.1350000  -5.3090000  44.6430000
 -29.3230000  -6.8660000  43.1850000 -28.5370000  -7.0660000  42.4570000
 -29.1510000  -7.8730000  44.3390000 -29.1630000  -8.8800000  43.9200000
 -27.8370000  -7.7010000  45.1050000 -27.7380000  -6.6890000  45.4980000
 -27.7980000  -8.4020000  45.9390000 -27.0010000  -7.9080000  44.4370000
 -30.2180000  -7.7670000  45.2520000 -30.0260000  -8.3510000  45.9900000
 -30.6640000  -7.1380000  42.4860000 -30.7860000  -8.1270000  41.7590000
 -31.6580000  -6.2590000  42.6660000 -31.4710000  -5.4720000  43.2700000
 -32.9940000  -6.3350000  42.0620000 -33.3840000  -7.3430000  42.2060000
 -33.9270000  -5.3530000  42.7890000 -33.5090000  -4.3510000  42.6900000
 -34.9040000  -5.3590000  42.3060000 -34.1230000  -5.6770000  44.2810000
 -34.6680000  -6.6160000  44.3750000 -33.1560000  -5.7890000  44.7700000
 -34.8840000  -4.5710000  45.0100000 -35.9810000  -4.7610000  45.5200000
 -34.3440000  -3.3710000  45.0730000 -33.4420000  -3.2150000  44.6460000
 -34.8530000  -2.6350000  45.5400000 -33.0150000  -6.0530000  40.5440000
 -33.9850000  -6.4090000  39.8710000 -31.9590000  -5.4420000  39.9940000
 -31.1860000  -5.1960000  40.5950000 -31.8260000  -5.0720000  38.5760000
 -32.5120000  -5.6770000  37.9830000 -32.2320000  -3.5960000  38.3870000
 -32.0630000  -3.3090000  37.3490000 -33.3080000  -3.5280000  38.5490000
 -31.5810000  -2.5720000  39.2750000 -30.3640000  -2.0140000  39.0830000
 -29.7050000  -2.2390000  38.2580000 -30.1000000  -1.1030000  40.0850000
 -29.2760000  -0.5180000  40.1100000 -31.1330000  -1.0300000  40.9900000
 -31.3370000  -0.2670000  42.1500000 -30.5760000   0.4210000  42.4860000
 -32.5450000  -0.4030000  42.8530000 -32.7230000   0.1830000  43.7430000
 -33.5320000  -1.2880000  42.3820000 -34.4690000  -1.3760000  42.9140000
 -33.3150000  -2.0530000  41.2180000 -34.0850000  -2.7210000  40.8620000
 -32.1040000  -1.9550000  40.4960000 -30.4110000  -5.3630000  38.0360000
 -29.5170000  -5.7850000  38.7710000 -30.2140000  -5.1970000  36.7250000
 -30.9750000  -4.8400000  36.1660000 -28.8890000  -5.2690000  36.0910000
 -28.2880000  -6.0250000  36.5970000 -29.0370000  -5.6950000  34.6230000
 -29.7000000  -4.9980000  34.1110000 -28.0600000  -5.6450000  34.1420000
 -29.5690000  -7.1280000  34.4810000 -29.0720000  -8.0360000  35.1850000
 -30.4500000  -7.3860000  33.6300000 -28.1500000  -3.9270000  36.2080000
 -28.7610000  -2.8600000  36.1090000 -26.8270000  -3.9620000  36.3980000
 -26.3620000  -4.8560000  36.4620000 -26.0120000  -2.7670000  36.6540000
 -26.3610000  -1.9730000  35.9930000 -26.2310000  -2.2870000  38.0990000
 -25.7700000  -1.3050000  38.1980000 -27.2990000  -2.1510000  38.2690000
 -25.7010000  -3.1380000  39.2090000 -26.3610000  -4.1550000  39.8130000
 -27.3560000  -4.4870000  39.5560000 -25.5820000  -4.6720000  40.8280000
 -25.8570000  -5.4440000  41.4190000 -24.3940000  -3.9910000  40.9450000
 -23.3090000  -4.1200000  41.8170000 -23.3370000  -4.8660000  42.5970000
 -22.1960000  -3.2810000  41.6630000 -21.3630000  -3.3650000  42.3440000
 -22.1820000  -2.3270000  40.6310000 -21.3270000  -1.6760000  40.5200000
 -23.2770000  -2.2030000  39.7540000 -23.2570000  -1.4590000  38.9710000
 -24.4160000  -3.0290000  39.8930000 -24.5290000  -2.9850000  36.3290000
 -24.0380000  -4.1160000  36.2840000 -23.8160000  -1.8940000  36.0500000
 -24.2740000  -0.9960000  36.1160000 -22.4360000  -1.9030000  35.5580000
 -21.9590000  -2.8430000  35.8380000 -22.4530000  -1.8100000  34.0240000
 -23.0560000  -2.6220000  33.6170000 -22.9230000  -0.8670000  33.7470000
 -21.0570000  -1.8770000  33.3900000 -20.3820000  -1.1870000  33.8970000
 -20.6530000  -2.8820000  33.5080000 -21.1250000  -1.4830000  31.9070000
 -21.3420000  -0.2840000  31.6120000 -20.9580000  -2.3560000  31.0190000
 -21.6150000  -0.7570000  36.1660000 -22.0210000   0.4080000  36.1180000
 -20.4470000  -1.0950000  36.7170000 -20.1850000  -2.0710000  36.7350000
 -19.4560000  -0.1420000  37.2030000 -19.9290000   0.8350000  37.3060000
 -18.9900000  -0.5910000  38.5880000 -18.2100000   0.0780000  38.9520000
 -19.8320000  -0.5590000  39.2800000 -18.6040000  -1.6090000  38.5340000
 -18.2700000   0.0050000  36.2330000 -17.7690000  -0.9860000  35.6980000
 -17.8020000   1.2390000  36.0350000 -18.2500000   1.9970000  36.5300000
 -16.6290000   1.5670000  35.2120000 -16.1920000   0.6540000  34.8070000
 -17.0740000   2.4590000  34.0390000 -17.4950000   3.3850000  34.4300000
 -16.2160000   2.7050000  33.4140000 -18.3290000   1.6090000  33.0320000
 -18.7020000   2.6680000  32.3080000 -15.5620000   2.2680000  36.0730000
 -15.9090000   3.1270000  36.8830000 -14.2740000   1.9380000  35.9120000
 -14.0350000   1.2290000  35.2340000 -13.2210000   2.3970000  36.8400000
 -13.5590000   3.3130000  37.3250000 -13.0210000   1.3490000  37.9530000
 -12.3100000   1.7550000  38.6730000 -13.9670000   1.1980000  38.4730000
 -12.5120000  -0.0170000  37.4620000 -13.2790000  -0.4700000  36.8340000
 -11.6180000   0.1170000  36.8520000 -12.0920000  -1.1840000  38.7840000
 -10.5290000  -0.4540000  39.3360000 -10.6960000   0.5580000  39.7060000
 -10.1150000  -1.0640000  40.1390000  -9.8260000  -0.4220000  38.5040000
 -11.8880000   2.7350000  36.1590000 -11.4170000   2.0040000  35.2900000
 -11.2550000   3.8300000  36.5880000 -11.7010000   4.3990000  37.2930000
  -9.8940000   4.2320000  36.1840000  -9.7220000   3.9020000  35.1590000
  -9.7490000   5.7680000  36.1980000  -8.7340000   6.0340000  35.9010000
 -10.7300000   6.4230000  35.2240000 -11.7570000   6.2410000  35.5400000
 -10.5640000   7.5000000  35.1970000 -10.5870000   6.0190000  34.2220000
 -10.0120000   6.3200000  37.4680000  -9.2510000   6.1780000  38.0360000
  -8.8260000   3.5640000  37.0560000  -9.0510000   3.3230000  38.2420000
  -7.6450000   3.2840000  36.4900000  -7.5170000   3.4740000  35.5070000
  -6.4990000   2.7290000  37.2410000  -6.8890000   1.9790000  37.9280000
  -5.5360000   1.9680000  36.2910000  -5.2900000   2.6120000  35.4460000
  -4.2280000   1.5930000  37.0040000  -4.4370000   1.0470000  37.9240000
  -3.5960000   0.9800000  36.3610000  -3.6680000   2.4990000  37.2400000
  -6.2130000   0.6970000  35.7230000  -6.2170000  -0.0900000  36.4780000
  -7.2510000   0.9130000  35.4680000  -5.5380000   0.1800000  34.4450000
  -4.5110000  -0.1260000  34.6440000  -6.0930000  -0.6780000  34.0640000
  -5.5370000   0.9610000  33.6840000  -5.8540000   3.8100000  38.1490000
  -5.6610000   3.5370000  39.3370000  -5.6300000   5.0580000  37.6780000
  -5.3230000   5.4350000  36.3060000  -6.2260000   5.7810000  35.8010000
  -4.8530000   4.6270000  35.7450000  -4.3280000   6.5810000  36.4440000
  -4.2870000   7.2000000  35.5470000  -3.3440000   6.1830000  36.6900000
  -4.8780000   7.3430000  37.6420000  -5.6770000   8.0060000  37.3110000
  -4.0950000   7.9110000  38.1440000  -5.4360000   6.2310000  38.5430000
  -4.6900000   5.9860000  39.2990000  -6.7340000   6.6750000  39.2370000
  -7.8030000   6.1090000  39.0010000  -6.6680000   7.7020000  40.0860000
  -5.7600000   8.0970000  40.2850000  -7.8310000   8.2550000  40.8040000
  -8.2750000   7.4530000  41.3950000  -7.3480000   9.3350000  41.7830000
  -6.5700000   8.9030000  42.4120000  -6.9270000  10.1620000  41.2110000
  -8.4650000   9.8770000  42.6850000  -9.1560000  10.4670000  42.0830000
  -9.0130000   9.0310000  43.0990000  -7.9350000  10.7490000  43.8430000
  -6.8870000  11.4260000  43.6980000  -8.5850000  10.7770000  44.9180000
  -8.9390000   8.7940000  39.8730000 -10.1190000   8.5220000  40.1060000
  -8.5630000   9.5360000  38.8190000  -7.5770000   9.7250000  38.7130000
  -9.4930000  10.1430000  37.8520000 -10.2550000   9.4040000  37.6060000
 -10.2040000  11.3490000  38.5060000 -10.6890000  11.0430000  39.4330000
  -9.4650000  12.1120000  38.7500000 -11.2760000  11.9570000  37.6090000
 -11.8890000  11.2970000  36.7800000 -11.5440000  13.2360000  37.7490000
 -11.0490000  13.7900000  38.4340000 -12.2600000  13.6430000  37.1650000
  -8.7900000  10.5210000  36.5270000  -8.5510000  11.6940000  36.2350000
  -8.4370000   9.5090000  35.7260000  -8.6430000   8.5710000  36.0380000
  -7.8610000   9.6610000  34.3800000  -8.1110000  10.6440000  33.9800000
  -6.3230000   9.5220000  34.4310000  -6.0770000   8.5750000  34.9110000
  -5.9410000   9.4760000  33.4110000  -5.5810000  10.6500000  35.1760000
  -5.9400000  10.7060000  36.2040000  -4.5210000  10.4020000  35.2150000
  -5.7190000  12.0220000  34.5110000  -6.0640000  12.1510000  33.3460000
  -5.4540000  13.1020000  35.2140000  -5.1770000  13.0370000  36.1840000
  -5.5870000  13.9990000  34.7710000  -8.4570000   8.6040000  33.4350000
  -8.1660000   7.4130000  33.5820000  -9.3010000   9.0210000  32.4840000
  -9.5070000  10.0060000  32.4000000  -9.9090000   8.1140000  31.5010000
  -9.9350000   7.1070000  31.9190000 -11.3660000   8.4950000  31.2180000
 -11.4110000   9.4820000  30.7580000 -11.7560000   7.7870000  30.4860000
 -12.2840000   8.4650000  32.4020000 -12.5340000   9.5030000  33.2320000
 -12.1040000  10.4890000  33.1360000 -13.4050000   9.1060000  34.2270000
 -13.6950000   9.7120000  34.9820000 -13.7640000   7.7830000  34.0850000
 -14.6100000   6.9360000  34.8140000 -15.1400000   7.3100000  35.6780000
 -14.7620000   5.6010000  34.4030000 -15.4180000   4.9430000  34.9540000
 -14.0660000   5.1290000  33.2750000 -14.1890000   4.1040000  32.9580000
 -13.2200000   5.9900000  32.5480000 -12.7030000   5.6260000  31.6720000
 -13.0500000   7.3390000  32.9310000  -9.0660000   8.0560000  30.2210000
  -8.5840000   6.9820000  29.8520000  -8.8360000   9.2020000  29.5740000
  -9.2360000  10.0480000  29.9540000  -7.8340000   9.3380000  28.5130000
  -7.8930000  10.3440000  28.0980000  -8.0560000   8.6180000  27.7250000
  -6.3940000   9.1010000  29.0030000  -6.1120000   9.1520000  30.2030000
  -5.4630000   8.8720000  28.0680000  -5.7420000   8.8320000  27.0980000
  -4.0300000   8.7610000  28.3850000  -3.9010000   7.9490000  29.1010000
  -3.2400000   8.4000000  27.1180000  -3.4940000   9.1030000  26.3240000
  -3.5460000   7.4090000  26.7840000  -1.7330000   8.4130000  27.3120000
  -1.0810000   7.2970000  27.8730000  -1.6490000   6.4130000  28.1240000
   0.3100000   7.3290000  28.0970000   0.8130000   6.4700000  28.5150000
   1.0520000   8.4830000  27.7620000   2.3950000   8.5250000  27.9730000
   2.7380000   7.6840000  28.2820000   0.3980000   9.5990000  27.2000000
   0.9710000  10.4770000  26.9410000  -0.9910000   9.5610000  26.9720000
  -1.4860000  10.4180000  26.5390000  -3.4810000  10.0560000  29.0160000
  -3.6870000  11.1470000  28.4810000  -2.7330000   9.9260000  30.1180000
  -2.5810000   8.9970000  30.4850000  -2.1020000  11.0390000  30.8360000
  -2.1520000  11.9380000  30.2220000  -2.8780000  11.3120000  32.1350000
  -3.9420000  11.3780000  31.9080000  -2.7420000  10.4820000  32.8290000
  -2.4410000  12.5920000  32.7990000  -1.3890000  12.7530000  33.6730000
  -0.8880000  12.0330000  34.1730000  -1.2320000  14.0650000  33.9060000
  -0.4890000  14.4860000  34.5670000  -2.1410000  14.7750000  33.2210000
  -2.9170000  13.8460000  32.5190000  -3.7190000  14.0820000  31.8360000
  -0.6270000  10.7210000  31.1100000  -0.3310000   9.7020000  31.7360000
   0.3110000  11.5490000  30.6350000   0.0070000  12.3920000  30.1690000
   1.7450000  11.1920000  30.5890000   1.8210000  10.2350000  30.0740000
   2.5270000  12.2010000  29.7310000   3.5440000  11.8280000  29.6100000
   2.0660000  12.2280000  28.7430000   2.5950000  13.6310000  30.3010000
   1.5950000  14.0590000  30.3590000   3.0100000  13.5950000  31.3090000
   3.4920000  14.5500000  29.4590000   3.5470000  15.5220000  29.9500000
   4.4960000  14.1270000  29.4320000   2.9780000  14.7450000  28.0240000
   2.8510000  13.7710000  27.5510000   2.0030000  15.2300000  28.0630000
   3.9250000  15.5640000  27.2250000   4.8220000  15.1080000  27.1320000
   3.5690000  15.7360000  26.2960000   4.0890000  16.4580000  27.6640000
   2.3840000  10.9530000  31.9650000   3.2380000  10.0770000  32.1000000
   1.9310000  11.6800000  32.9870000   1.2360000  12.3820000  32.7760000
   2.4010000  11.5690000  34.3740000   3.2330000  10.8670000  34.4250000
   2.9400000  12.9330000  34.8350000   3.7090000  13.2580000  34.1350000
   2.1340000  13.6660000  34.8110000   3.5480000  12.8940000  36.2490000
   3.6180000  11.8040000  36.8680000   3.9780000  13.9640000  36.7390000
   1.2900000  11.0470000  35.3030000   0.3600000  11.7760000  35.6480000
   1.3650000   9.7770000  35.7070000   2.1390000   9.2120000  35.3870000
   0.4140000   9.1700000  36.6510000  -0.5750000   9.5980000  36.4830000
   0.3010000   7.6590000  36.3740000   1.2900000   7.2510000  36.1670000
  -0.0550000   7.1710000  37.2810000  -0.6420000   7.2340000  35.2820000
  -1.2550000   8.0360000  34.3780000  -1.1190000   9.1040000  34.2970000
  -2.1290000   7.2920000  33.6070000  -2.7430000   7.6980000  32.9160000
  -2.1190000   5.9630000  33.9700000  -2.8510000   4.8480000  33.5370000
  -3.5850000   4.9470000  32.7520000  -2.6190000   3.6020000  34.1430000
  -3.1770000   2.7330000  33.8250000  -1.6640000   3.4890000  35.1690000
  -1.4950000   2.5310000  35.6380000  -0.9400000   4.6180000  35.6000000
  -0.2240000   4.5240000  36.4030000  -1.1520000   5.8880000  35.0170000
   0.7180000   9.4750000  38.1320000  -0.1170000   9.1790000  38.9870000
   1.8500000  10.1130000  38.4670000   2.4700000  10.4270000  37.7340000
   2.2340000  10.4000000  39.8650000   2.0630000   9.4990000  40.4540000
   3.7340000  10.7100000  39.9560000   4.0350000  10.6990000  41.0030000
   4.2960000   9.9380000  39.4310000   4.0390000  11.9760000  39.4040000
   3.8920000  11.9190000  38.4570000   1.4140000  11.5240000  40.5290000
   1.5100000  11.7200000  41.7440000   0.5730000  12.2360000  39.7650000
   0.5530000  12.0300000  38.7760000  -0.2960000  13.3130000  40.2600000
   0.3030000  13.9720000  40.8890000  -0.8310000  14.1440000  39.0760000
  -1.5040000  13.5210000  38.4870000  -1.4170000  14.9680000  39.4820000
   0.2370000  14.7300000  38.1320000   0.7150000  13.9210000  37.5790000
  -0.4390000  15.6720000  37.1360000  -0.8520000  16.5360000  37.6570000
   0.2900000  16.0110000  36.4000000  -1.2470000  15.1480000  36.6250000
   1.3130000  15.5320000  38.8660000   1.8970000  14.8700000  39.5060000
   1.9910000  15.9840000  38.1420000   0.8530000  16.3130000  39.4710000
  -1.4560000  12.8190000  41.1510000  -2.0730000  13.6240000  41.8530000
  -1.7530000  11.5150000  41.1390000  -1.1740000  10.9050000  40.5810000
  -2.7590000  10.8710000  42.0000000  -2.8360000  11.4340000  42.9300000
  -4.1340000  10.9100000  41.3200000  -4.8810000  10.5870000  42.0450000
  -4.3670000  11.9340000  41.0280000  -4.1990000  10.0620000  40.1830000
  -3.6580000  10.4500000  39.4910000  -2.3590000   9.4340000  42.3790000
  -1.3470000   8.9120000  41.9010000  -3.1190000   8.7910000  43.2740000
  -3.9220000   9.2640000  43.6640000  -2.9200000   7.3750000  43.6060000
  -1.8670000   7.2460000  43.8590000  -3.7400000   6.9930000  44.8440000
  -4.8000000   6.9880000  44.5900000  -3.5840000   7.7410000  45.6210000
  -3.3340000   5.6410000  45.3990000  -2.1250000   5.5260000  46.1110000
  -1.5260000   6.4040000  46.3030000  -1.6830000   4.2680000  46.5600000
  -0.7520000   4.1820000  47.1000000  -2.4560000   3.1150000  46.2970000
  -2.0230000   1.8980000  46.7220000  -1.1840000   1.9620000  47.1840000
  -3.6750000   3.2340000  45.5930000  -4.2610000   2.3480000  45.3980000
  -4.1130000   4.4940000  45.1420000  -5.0360000   4.5760000  44.5880000
  -3.2260000   6.4460000  42.4130000  -4.1120000   6.7340000  41.6050000
  -2.5180000   5.3140000  42.3220000  -1.8520000   5.1190000  43.0570000
  -2.6220000   4.3250000  41.2330000  -3.4720000   4.5720000  40.5960000
  -1.3580000   4.3440000  40.3480000  -0.4890000   4.1030000  40.9600000
  -1.4440000   3.3270000  39.2050000  -2.2820000   3.5820000  38.5550000
  -0.5240000   3.3510000  38.6220000  -1.5720000   2.3160000  39.5910000
  -1.1310000   5.7170000  39.7040000  -0.9700000   6.4750000  40.4710000
  -0.2420000   5.6820000  39.0740000  -1.9920000   6.0000000  39.0980000
  -2.8620000   2.9300000  41.8220000  -2.0230000   2.4090000  42.5630000
  -4.0280000   2.3420000  41.5200000  -4.6320000   2.8160000  40.8640000
  -4.5040000   1.0640000  42.0850000  -4.5420000   1.1620000  43.1700000
  -5.9230000   0.7610000  41.5720000  -5.9050000   0.7190000  40.4830000
  -6.2340000  -0.2150000  41.9450000  -6.9460000   1.8130000  42.0310000
  -7.0260000   1.7850000  43.1180000  -6.6050000   2.8060000  41.7380000
  -8.3290000   1.5550000  41.4130000  -8.2390000   1.4570000  40.3310000
  -8.7130000   0.6160000  41.8110000  -9.3260000   2.6800000  41.7460000
 -10.3280000   2.3330000  41.4950000  -9.3040000   2.8610000  42.8210000
  -9.0320000   3.9390000  40.9980000  -9.0430000   3.7850000  39.9990000
  -9.7200000   4.6510000  41.1980000  -8.1270000   4.3180000  41.2350000
  -3.5670000  -0.1090000  41.7690000  -3.0800000  -0.2260000  40.6410000
  -3.3410000  -1.0010000  42.7360000  -3.7840000  -0.8500000  43.6320000
  -2.6580000  -2.2900000  42.4980000  -1.7710000  -2.0860000  41.8980000
  -2.1820000  -2.9620000  43.8010000  -1.4850000  -3.7570000  43.5370000
  -1.4620000  -2.0070000  44.7510000  -2.1580000  -1.2710000  45.1530000
  -1.0250000  -2.5700000  45.5760000  -0.6630000  -1.4930000  44.2170000
  -3.2600000  -3.5470000  44.4950000  -2.9350000  -3.7990000  45.3630000
  -3.5550000  -3.2680000  41.7190000  -4.7810000  -3.1170000  41.7300000
  -3.0040000  -4.3240000  41.0850000  -1.6010000  -4.5270000  40.7520000
  -1.0900000  -5.0050000  41.5870000  -1.1050000  -3.5940000  40.4840000
  -1.6130000  -5.4670000  39.5470000  -0.6970000  -6.0550000  39.4830000
  -1.7670000  -4.8920000  38.6330000  -2.8350000  -6.3440000  39.8170000
  -2.5640000  -7.1380000  40.5130000  -3.2490000  -6.7620000  38.8990000
  -3.8180000  -5.3690000  40.4670000  -4.4290000  -4.9140000  39.6880000
  -4.7640000  -6.0570000  41.4520000  -5.9280000  -6.2650000  41.1230000
  -4.3000000  -6.3520000  42.6740000  -3.3320000  -6.1470000  42.8750000
  -5.1420000  -6.8770000  43.7640000  -5.5690000  -7.8210000  43.4250000
  -4.2910000  -7.1900000  45.0190000  -3.6410000  -6.3390000  45.2220000
  -5.1650000  -7.4210000  46.2670000  -5.8720000  -8.2300000  46.0880000
  -4.5460000  -7.6680000  47.1300000  -5.7150000  -6.5150000  46.5210000
  -3.4150000  -8.4310000  44.7240000  -4.0580000  -9.2950000  44.5550000
  -2.8460000  -8.2580000  43.8100000  -2.4040000  -8.7840000  45.8220000
  -2.9160000  -9.1350000  46.7180000  -1.7540000  -9.5830000  45.4650000
  -1.7960000  -7.9120000  46.0630000  -6.3430000  -5.9590000  44.0490000
  -7.4580000  -6.4530000  44.1850000  -6.1540000  -4.6370000  44.1020000
  -5.2180000  -4.2730000  43.9890000  -7.2540000  -3.6740000  44.2820000
  -7.8330000  -3.9670000  45.1580000  -6.6960000  -2.2700000  44.5460000
  -5.9680000  -2.0270000  43.7720000  -7.5070000  -1.5440000  44.4940000
  -6.0510000  -2.1680000  45.9360000  -6.8290000  -2.3180000  46.6840000
  -5.3160000  -2.9630000  46.0650000  -5.3590000  -0.8100000  46.1630000
  -4.7380000  -0.2650000  45.2190000  -5.4310000  -0.2890000  47.3050000
  -8.2430000  -3.6400000  43.1000000  -9.4460000  -3.4610000  43.3070000
  -7.7750000  -3.8430000  41.8640000  -6.7780000  -3.9510000  41.7400000
  -8.6620000  -3.9620000  40.6920000  -9.4170000  -3.1790000  40.7660000
  -7.9110000  -3.7290000  39.3660000  -7.1350000  -4.4850000  39.2450000
  -8.8710000  -3.8140000  38.1750000  -9.7280000  -3.1580000  38.3330000
  -8.3610000  -3.5120000  37.2610000  -9.2220000  -4.8380000  38.0500000
  -7.2580000  -2.3380000  39.3310000  -6.4650000  -2.2740000  40.0760000
  -6.8180000  -2.1550000  38.3500000  -7.9930000  -1.5600000  39.5370000
  -9.4310000  -5.2920000  40.7050000 -10.6490000  -5.2930000  40.5370000
  -8.7510000  -6.4160000  40.9510000  -7.7520000  -6.3350000  41.0760000
  -9.3520000  -7.7400000  41.1940000  -9.8640000  -8.0580000  40.2860000
  -8.2460000  -8.7810000  41.4900000  -7.6160000  -8.3840000  42.2850000
  -8.8300000 -10.1190000  41.9710000  -9.4790000 -10.5450000  41.2050000
  -8.0260000 -10.8220000  42.1900000  -9.4060000  -9.9880000  42.8860000
  -7.3740000  -9.0320000  40.2350000  -7.8960000  -9.7020000  39.5510000
  -7.2060000  -8.0940000  39.7050000  -5.9930000  -9.6160000  40.5600000
  -6.0910000 -10.5810000  41.0570000  -5.4300000  -9.7500000  39.6370000
  -5.4430000  -8.9390000  41.2140000 -10.4260000  -7.6760000  42.2980000
 -11.5440000  -8.1590000  42.1010000 -10.1100000  -7.0590000  43.4400000
  -9.1630000  -6.7280000  43.5570000 -11.0620000  -6.7570000  44.5130000
 -11.4010000  -7.6950000  44.9520000 -10.3710000  -5.9610000  45.6280000
  -9.5860000  -6.5760000  46.0680000  -9.8960000  -5.0780000  45.2010000
 -11.3500000  -5.5090000  46.7260000 -12.0230000  -4.4650000  46.5480000
 -11.4040000  -6.1650000  47.7920000 -12.3140000  -6.0490000  43.9800000
 -13.4120000  -6.5820000  44.1440000 -12.1670000  -4.9140000  43.2750000
 -11.2360000  -4.5350000  43.1800000 -13.2950000  -4.1830000  42.6680000
 -13.9940000  -3.9320000  43.4660000 -12.8060000  -2.8610000  42.0490000
 -11.8810000  -3.0240000  41.4970000 -13.5600000  -2.4950000  41.3520000
 -12.5980000  -1.7860000  43.1300000 -13.5390000  -1.6260000  43.6560000
 -11.8480000  -2.1180000  43.8480000 -12.1510000  -0.4570000  42.5130000
 -11.1280000  -0.5700000  42.1520000 -12.7940000  -0.2320000  41.6630000
 -12.1910000   0.6340000  43.5130000 -11.6790000   0.4670000  44.3670000
 -12.8190000   1.7950000  43.4330000 -13.5220000   2.1430000  42.3920000
 -13.6370000   1.4980000  41.6230000 -13.9660000   3.0490000  42.3540000
 -12.7460000   2.6530000  44.4050000 -12.2200000   2.4410000  45.2410000
 -13.2330000   3.5350000  44.3340000 -14.1110000  -5.0290000  41.6790000
 -15.3400000  -4.9900000  41.7280000 -13.4700000  -5.8230000  40.8180000
 -12.4600000  -5.7930000  40.8240000 -14.1430000  -6.7980000  39.9360000
 -14.8060000  -6.2500000  39.2670000 -13.1180000  -7.5550000  39.0510000
 -12.3450000  -7.9730000  39.6960000 -13.7830000  -8.7210000  38.2910000
 -14.6110000  -8.3560000  37.6840000 -13.0600000  -9.2170000  37.6430000
 -14.1540000  -9.4720000  38.9880000 -12.4460000  -6.5960000  38.0380000
 -13.1280000  -6.4090000  37.2090000 -12.2470000  -5.6330000  38.5090000
 -11.1070000  -7.1110000  37.4900000 -11.2260000  -8.0840000  37.0130000
 -10.7260000  -6.4060000  36.7510000 -10.3810000  -7.1960000  38.2980000
 -15.0650000  -7.7320000  40.7400000 -16.2620000  -7.8160000  40.4570000
 -14.5440000  -8.4000000  41.7710000 -13.5640000  -8.2720000  41.9810000
 -15.3290000  -9.3240000  42.6090000 -15.8580000 -10.0140000  41.9510000
 -14.4000000 -10.1640000  43.5020000 -13.7750000  -9.5000000  44.0990000
 -15.1940000 -11.0710000  44.4500000 -15.8790000 -11.7040000  43.8860000
 -14.5100000 -11.7010000  45.0180000 -15.7610000 -10.4680000  45.1600000
 -13.4960000 -11.0590000  42.6410000 -12.9210000 -10.4620000  41.9330000
 -12.7830000 -11.5860000  43.2750000 -14.0940000 -11.7850000  42.0910000
 -16.4050000  -8.5980000  43.4310000 -17.5350000  -9.0730000  43.5030000
 -16.0900000  -7.4310000  43.9910000 -15.1320000  -7.1230000  43.8970000
 -16.9760000  -6.5470000  44.7600000 -17.3460000  -7.0930000  45.6280000
 -16.0790000  -5.4020000  45.2600000 -15.2250000  -5.8580000  45.7610000
 -15.6990000  -4.8740000  44.3850000 -16.5850000  -4.3580000  46.2240000
 -15.7810000  -3.3510000  46.7070000 -14.8100000  -3.2050000  46.4730000
 -16.4590000  -2.6710000  47.6380000 -16.0500000  -1.8510000  48.2090000
 -17.6860000  -3.1980000  47.7970000 -17.7820000  -4.2650000  46.8850000
 -18.6240000  -4.9330000  46.7810000 -18.1980000  -6.0690000  43.9410000
 -19.2720000  -5.8570000  44.5040000 -18.0730000  -5.9480000  42.6120000
 -17.1540000  -6.0360000  42.2020000 -19.2220000  -5.8190000  41.7140000
 -19.8950000  -5.0700000  42.1290000 -18.7440000  -5.3010000  40.3530000
 -19.6050000  -5.0990000  39.7150000 -18.1860000  -4.3750000  40.4920000
 -18.1040000  -6.0360000  39.8650000 -20.0300000  -7.1310000  41.6000000
 -21.2240000  -7.1540000  41.9110000 -19.3970000  -8.2360000  41.1760000
 -18.4150000  -8.1590000  40.9550000 -20.0830000  -9.5200000  40.9000000
 -20.8620000  -9.3250000  40.1630000 -19.1180000 -10.5550000  40.2820000
 -18.2830000 -10.7250000  40.9610000 -19.7980000 -11.9040000  40.0050000
 -20.6720000 -11.7600000  39.3690000 -19.1000000 -12.5750000  39.5050000
 -20.1050000 -12.3780000  40.9370000 -18.5750000 -10.0360000  38.9460000
 -17.8830000  -9.2100000  39.1090000 -18.0480000 -10.8290000  38.4150000
 -19.3990000  -9.6810000  38.3270000 -20.7960000 -10.1050000  42.1260000
 -21.8970000 -10.6420000  41.9980000 -20.2340000  -9.9370000  43.3240000
 -19.3450000  -9.4590000  43.3720000 -20.8300000 -10.3540000  44.6020000
 -21.0260000 -11.4260000  44.5660000 -19.8360000 -10.0900000  45.7350000
 -20.2440000 -10.4700000  46.6720000 -18.9030000 -10.6090000  45.5150000
 -19.5930000  -8.7030000  45.8630000 -18.8530000  -8.5700000  46.4600000
 -22.1600000  -9.6610000  44.9210000 -22.9260000 -10.1630000  45.7400000
 -22.4690000  -8.5510000  44.2430000 -21.7610000  -8.1800000  43.6270000
 -23.7390000  -7.8180000  44.3080000 -24.4280000  -8.3240000  44.9850000
 -23.4600000  -6.4210000  44.8810000 -22.6820000  -5.9440000  44.2840000
 -24.3680000  -5.8210000  44.8330000 -22.9700000  -6.4520000  46.3300000
 -23.7180000  -6.9340000  46.9600000 -22.0510000  -7.0350000  46.3810000
 -22.6120000  -4.8010000  46.9800000 -24.2920000  -4.1840000  47.2710000
 -24.7970000  -4.8160000  48.0010000 -24.2400000  -3.1680000  47.6630000
 -24.8570000  -4.1730000  46.3390000 -24.4370000  -7.7530000  42.9300000
 -25.3060000  -6.9110000  42.6950000 -24.0860000  -8.6620000  42.0120000
 -23.3750000  -9.3360000  42.2580000 -24.7270000  -8.8130000  40.7010000
 -25.8080000  -8.7450000  40.8210000 -24.4980000  -9.8090000  40.3240000
 -24.3070000  -7.8030000  39.6240000 -24.9290000  -7.7690000  38.5610000
 -23.2660000  -7.0010000  39.8650000 -22.7790000  -7.0970000  40.7440000
 -22.7800000  -5.9720000  38.9420000 -22.3120000  -5.1760000  39.5210000
 -23.6240000  -5.5400000  38.4050000 -21.7360000  -6.4620000  37.9380000
 -20.8470000  -7.2460000  38.2740000 -21.8050000  -5.9490000  36.7100000
 -22.5790000  -5.3310000  36.5130000 -20.6940000  -5.9590000  35.7510000
 -20.2490000  -6.9540000  35.7330000 -21.2510000  -5.6350000  34.3500000
 -21.9510000  -4.8010000  34.4040000 -20.4240000  -5.3260000  33.7100000
 -21.9520000  -6.8030000  33.6760000 -22.4880000  -7.6990000  34.3120000
 -21.9240000  -6.8470000  32.3680000 -21.4950000  -6.1030000  31.8360000
 -22.3810000  -7.6180000  31.9010000 -19.5780000  -4.9720000  36.1610000
 -19.8520000  -3.9670000  36.8220000 -18.3370000  -5.2180000  35.7220000
 -18.1750000  -6.0280000  35.1410000 -17.1840000  -4.3370000  35.9710000
 -17.5520000  -3.3680000  36.3060000 -16.3020000  -4.9060000  37.0980000
 -16.8780000  -4.9330000  38.0230000 -16.0090000  -5.9250000  36.8470000
 -15.0250000  -4.0730000  37.3200000 -14.4680000  -4.4880000  38.1590000
 -14.3870000  -4.1630000  36.4410000 -15.2850000  -2.3090000  37.6510000
 -15.9280000  -2.4080000  39.3360000 -15.2220000  -2.9520000  39.9640000
 -16.0700000  -1.4030000  39.7330000 -16.8810000  -2.9370000  39.3310000
 -16.3610000  -4.1000000  34.7000000 -16.0480000  -5.0440000  33.9720000
 -15.9700000  -2.8450000  34.4710000 -16.3090000  -2.1320000  35.1010000
 -15.2200000  -2.3990000  33.2920000 -14.9120000  -3.2790000  32.7280000
 -16.0960000  -1.5380000  32.3590000 -16.1370000  -0.5160000  32.7350000
 -15.4570000  -1.5250000  30.9680000 -15.4980000  -2.5190000  30.5220000
 -15.9890000  -0.8250000  30.3240000 -14.4160000  -1.2100000  31.0430000
 -17.5370000  -2.0340000  32.2120000 -18.0480000  -2.0080000  33.1750000
 -18.0820000  -1.3700000  31.5410000 -17.5460000  -3.0520000  31.8240000
 -13.9660000  -1.6190000  33.7080000 -14.0540000  -0.5030000  34.2250000
 -12.7860000  -2.2010000  33.4800000 -12.7850000  -3.1110000  33.0420000
 -11.4810000  -1.5890000  33.8090000 -11.5980000  -0.9670000  34.6970000
 -10.4270000  -2.6670000  34.1360000 -10.2630000  -3.2750000  33.2470000
  -9.0860000  -2.0480000  34.5510000  -9.2160000  -1.4200000  35.4330000
  -8.3710000  -2.8380000  34.7790000  -8.6730000  -1.4500000  33.7390000
 -10.8960000  -3.5920000  35.2680000 -11.7870000  -4.1440000  34.9680000
 -10.1150000  -4.3180000  35.4960000 -11.1190000  -3.0100000  36.1620000
 -11.0080000  -0.6950000  32.6570000 -10.8420000  -1.1720000  31.5370000
 -10.8250000   0.6050000  32.8880000 -11.0000000   0.9670000  33.8140000
 -10.3750000   1.5440000  31.8600000 -10.9430000   1.3380000  30.9520000
 -10.7010000   2.9760000  32.2980000 -11.7700000   3.0760000  32.4880000
 -10.1560000   3.2040000  33.2140000 -10.3050000   3.9590000  31.2130000
 -10.9080000   3.9980000  30.1570000  -9.2570000   4.7240000  31.4040000
  -8.7230000   4.7020000  32.2610000  -9.0150000   5.3700000  30.6660000
  -8.8850000   1.4160000  31.4830000  -8.0200000   1.2280000  32.3400000
  -8.6130000   1.6400000  30.1990000  -9.4010000   1.7900000  29.5850000
  -7.3170000   1.7460000  29.5450000  -6.5270000   1.8200000  30.2920000
  -7.0770000   0.4990000  28.6830000  -7.9060000   0.3760000  27.9860000
  -6.1760000   0.6630000  28.0920000  -6.9120000  -0.7780000  29.4840000
  -8.0330000  -1.4780000  29.9640000  -9.0260000  -1.1280000  29.7230000
  -7.8650000  -2.6120000  30.7770000  -8.7300000  -3.1360000  31.1560000
  -6.5710000  -3.0580000  31.1040000  -6.4390000  -3.9230000  31.7360000
  -5.4490000  -2.3820000  30.5950000  -4.4550000  -2.7320000  30.8320000
  -5.6230000  -1.2490000  29.7810000  -4.7690000  -0.7260000  29.3780000
  -7.3000000   3.0100000  28.6700000  -8.2310000   3.2530000  27.8910000
  -6.2570000   3.8280000  28.8200000  -5.5360000   3.5310000  29.4620000
  -5.9430000   4.9690000  27.9580000  -5.6660000   5.8140000  28.5880000
  -6.8140000   5.2680000  27.3760000  -4.7630000   4.6650000  27.0190000
  -3.6170000   4.8480000  27.4440000  -4.9870000   4.2390000  25.7580000
  -6.2650000   3.9090000  25.1550000  -6.6920000   4.8030000  24.6990000
  -6.9640000   3.4790000  25.8720000  -5.9450000   2.8740000  24.0830000
  -6.6880000   2.8890000  23.2850000  -5.8840000   1.8840000  24.5340000
  -4.5650000   3.3020000  23.5860000  -4.6780000   4.0340000  22.7870000
  -3.9880000   2.4480000  23.2310000  -3.9100000   3.9480000  24.8120000
  -3.2400000   3.2200000  25.2710000  -3.1060000   5.2030000  24.4370000
  -3.6370000   6.3170000  24.3730000  -1.8080000   5.0220000  24.1930000
  -1.4520000   4.0770000  24.1940000  -0.8790000   6.0840000  23.7980000
  -0.9320000   6.8880000  24.5320000   0.5450000   5.5090000  23.7920000
   0.5440000   4.6540000  23.1160000   1.2390000   6.2580000  23.4110000
   1.0440000   5.0440000  25.1700000   1.0690000   5.9070000  25.8360000
   0.3540000   4.3080000  25.5820000   2.4400000   4.4120000  25.1470000
   3.0590000   4.2170000  26.1850000   3.0150000   4.0800000  24.0100000
   2.5560000   4.2200000  23.1220000   3.9470000   3.6920000  24.0380000
  -1.2070000   6.6820000  22.4130000  -1.9200000   6.0850000  21.6020000
  -0.6200000   7.8430000  22.1030000  -0.0620000   8.3070000  22.8060000
  -0.7290000   8.4860000  20.7870000  -1.7840000   8.6480000  20.5680000
  -0.0380000   9.8490000  20.8610000  -0.1890000  10.3880000  19.9260000
  -0.4630000  10.4280000  21.6800000   1.0310000   9.7210000  21.0300000
  -0.1370000   7.6450000  19.6340000  -0.5800000   7.7650000  18.4920000
   0.8540000   6.7910000  19.9230000   1.1850000   6.7430000  20.8760000
   1.4430000   5.8590000  18.9500000   1.4840000   6.3640000  17.9850000
   2.9040000   5.5300000  19.3130000   3.3270000   4.9270000  18.5090000
   3.4620000   6.4660000  19.3390000   3.1290000   4.7880000  20.6430000
   2.1500000   4.3770000  21.3060000   4.3130000   4.6260000  21.0280000
   0.6070000   4.5790000  18.7330000   0.9040000   3.8200000  17.8110000
  -0.4590000   4.3510000  19.5120000  -0.6790000   5.0280000  20.2270000
  -1.3190000   3.1670000  19.4070000  -1.4070000   2.8750000  18.3600000
  -2.3150000   3.4270000  19.7650000  -0.8560000   1.9330000  20.1940000
  -1.4030000   0.8470000  19.9860000   0.1200000   2.0740000  21.0940000
   0.5720000   2.9730000  21.1770000   0.4990000   1.0350000  22.0620000
   0.1160000   0.0750000  21.7150000   2.0340000   0.9380000  22.0980000
   2.4110000   0.9700000  21.0760000   2.4300000   1.8030000  22.6300000
   2.5710000  -0.3480000  22.7470000   1.8040000  -1.3110000  22.9830000
   3.7920000  -0.4220000  23.0190000  -0.1060000   1.2940000  23.4650000
  -0.5500000   2.4020000  23.7850000  -0.1220000   0.2730000  24.3250000
   0.3130000  -0.5850000  24.0160000  -0.4870000   0.3920000  25.7440000
  -1.1800000   1.2250000  25.8620000  -1.2110000  -0.8700000  26.2300000
  -0.5710000  -1.7390000  26.0730000  -1.3770000  -0.7820000  27.3030000
  -2.5490000  -1.1190000  25.5590000  -2.6200000  -1.9250000  24.4080000
  -1.7230000  -2.3630000  23.9950000  -3.8620000  -2.1770000  23.8020000
  -3.9090000  -2.8050000  22.9240000  -5.0360000  -1.6170000  24.3320000
  -5.9870000  -1.8070000  23.8560000  -4.9690000  -0.8070000  25.4790000
  -5.8710000  -0.3780000  25.8890000  -3.7270000  -0.5580000  26.0920000
  -3.6800000   0.0620000  26.9740000   0.7500000   0.6810000  26.6090000
   1.8190000   0.0970000  26.4060000   0.6060000   1.5890000  27.5830000
  -0.3010000   2.0190000  27.6920000   1.6630000   1.9330000  28.5550000
   2.5370000   2.2000000  27.9610000   1.2550000   3.1870000  29.3460000
   2.1130000   3.5330000  29.9210000   0.9960000   3.9740000  28.6380000
   0.0670000   2.9580000  30.2960000  -0.7780000   2.5710000  29.7270000
   0.3390000   2.2330000  31.0640000  -0.3750000   4.2550000  30.9760000
  -0.6780000   4.9620000  30.2050000  -1.2410000   4.0360000  31.6010000
   0.6990000   4.8090000  31.8200000   1.3360000   4.1470000  32.2400000
   0.9740000   6.0730000  32.0580000   0.3030000   7.0350000  31.4900000
  -0.4580000   6.7990000  30.8690000   0.4180000   8.0000000  31.7650000
   1.9440000   6.3790000  32.8600000   2.4210000   5.6320000  33.3450000
   2.2020000   7.3430000  33.0160000   2.0830000   0.7480000  29.4580000
   1.2660000  -0.1510000  29.6840000   3.3100000   0.7400000  30.0210000
   4.3720000   1.7180000  29.8070000   4.2150000   2.5740000  30.4640000
   4.4370000   2.0450000  28.7700000   5.6680000   1.0100000  30.1910000
   6.4280000   1.7140000  30.5290000   6.0310000   0.4220000  29.3480000
   5.2140000   0.0810000  31.3110000   5.1450000   0.6470000  32.2390000
   5.8880000  -0.7680000  31.4290000   3.8220000  -0.3630000  30.8460000
   3.9370000  -1.2370000  30.2050000   2.9350000  -0.7550000  32.0370000
   2.7090000  -1.9430000  32.2660000   2.4050000   0.2190000  32.7830000
   2.6250000   1.1790000  32.5590000   1.5200000  -0.0230000  33.9350000
   2.0430000  -0.6590000  34.6490000   1.1550000   1.2900000  34.6510000
   0.4810000   1.8770000  34.0270000   0.6020000   1.0210000  35.5510000
   2.3520000   2.1600000  35.0710000   2.0910000   2.6470000  36.0100000
   3.2190000   1.5280000  35.2610000   2.7050000   3.2460000  34.0310000
   2.5680000   3.0070000  32.8090000   3.0970000   4.3720000  34.4220000
   0.2290000  -0.7510000  33.5300000  -0.2170000  -1.6720000  34.2130000
  -0.3610000  -0.3590000  32.3990000   0.0910000   0.3680000  31.8630000
  -1.5500000  -0.9980000  31.8290000  -2.3060000  -1.0880000  32.6090000
  -2.1290000  -0.1250000  30.7100000  -1.3330000   0.2110000  30.0460000
  -2.8200000  -0.7360000  30.1290000  -2.8800000   1.0830000  31.2940000
  -3.6290000   0.7140000  31.9940000  -2.1710000   1.6950000  31.8530000
  -3.5830000   1.9650000  30.2390000  -3.4520000   1.7150000  29.0170000
  -4.2800000   2.9240000  30.6510000  -1.2760000  -2.4250000  31.3350000
  -2.0720000  -3.3250000  31.6040000  -0.1360000  -2.6650000  30.6720000
   0.4630000  -1.8800000  30.4600000   0.2990000  -4.0220000  30.2910000
  -0.4870000  -4.4910000  29.6990000   1.5730000  -3.9550000  29.4320000
   2.3110000  -3.3100000  29.9070000   1.9940000  -4.9570000  29.3450000
   1.2570000  -3.4390000  28.0220000   0.5300000  -4.1050000  27.5570000
   0.8280000  -2.4390000  28.0860000   2.5190000  -3.3870000  27.1530000
   3.2060000  -2.6480000  27.5650000   3.0020000  -4.3640000  27.1400000
   2.1200000  -2.9940000  25.7280000   1.4890000  -3.7750000  25.3030000
   1.5260000  -2.0810000  25.7780000   3.2960000  -2.7550000  24.8590000
   3.7980000  -3.6070000  24.6520000   2.9850000  -2.3360000  23.9940000
   3.9340000  -2.0920000  25.2760000   0.4910000  -4.9260000  31.5130000
  -0.0430000  -6.0360000  31.5440000   1.1880000  -4.4380000  32.5410000
   1.6130000  -3.5280000  32.4370000   1.3490000  -5.1340000  33.8180000
   1.8530000  -6.0830000  33.6310000   2.2520000  -4.2950000  34.7290000
   2.4170000  -4.8240000  35.6680000   3.2150000  -4.1310000  34.2450000
   1.7910000  -3.3300000  34.9400000  -0.0070000  -5.4560000  34.4780000
  -0.2530000  -6.6060000  34.8450000  -0.9040000  -4.4670000  34.5750000
  -0.6160000  -3.5420000  34.2890000  -2.2680000  -4.6190000  35.0970000
  -2.1990000  -4.9220000  36.1420000  -2.9780000  -3.2530000  35.0390000
  -2.4070000  -2.5270000  35.6170000  -3.0120000  -2.9070000  34.0060000
  -4.4140000  -3.2930000  35.5680000  -4.8650000  -2.3110000  35.4240000
  -4.9950000  -4.0040000  34.9800000  -4.5650000  -3.7240000  37.3180000
  -3.8370000  -2.2520000  38.0870000  -4.3130000  -1.3560000  37.6900000
  -3.9990000  -2.2910000  39.1640000  -2.7660000  -2.2150000  37.8890000
  -3.0670000  -5.7060000  34.3600000  -3.5740000  -6.6340000  34.9890000
  -3.1450000  -5.6210000  33.0270000  -2.7050000  -4.8350000  32.5710000
  -3.8330000  -6.5950000  32.1800000  -4.8930000  -6.5900000  32.4360000
  -3.6900000  -6.1490000  30.7220000  -4.1840000  -6.8600000  30.0590000
  -4.1510000  -5.1710000  30.5900000  -2.6350000  -6.0920000  30.4500000
  -3.3120000  -8.0280000  32.3940000  -4.1030000  -8.9400000  32.6420000
  -1.9890000  -8.2240000  32.3540000  -1.3980000  -7.4460000  32.1010000
  -1.3370000  -9.5150000  32.6390000  -1.7250000 -10.2530000  31.9370000
   0.1830000  -9.4260000  32.4100000   0.5880000  -8.5950000  32.9880000
   0.9350000 -10.7050000  32.7860000   0.4860000 -11.5610000  32.2820000
   1.9800000 -10.6200000  32.4890000   0.8990000 -10.8590000  33.8640000
   0.4290000  -9.2020000  31.0390000   1.3560000  -8.9740000  30.9430000
  -1.6610000 -10.0380000  34.0420000  -2.0800000 -11.1850000  34.1820000
  -1.4890000  -9.2200000  35.0850000  -1.1420000  -8.2860000  34.9200000
  -1.7620000  -9.6010000  36.4730000  -1.1330000 -10.4550000  36.7240000
  -1.3530000  -8.4360000  37.3800000  -1.5450000  -8.6970000  38.4210000
  -0.2890000  -8.2320000  37.2610000  -1.9170000  -7.5410000  37.1170000
  -3.2260000 -10.0340000  36.7020000  -3.4720000 -11.1010000  37.2690000
  -4.1940000  -9.2440000  36.2140000  -3.9220000  -8.3740000  35.7790000
  -5.6170000  -9.6290000  36.1570000  -5.9640000  -9.7940000  37.1770000
  -6.4800000  -8.4980000  35.5490000  -6.0340000  -8.1980000  34.6010000
  -7.9250000  -8.9670000  35.2760000  -8.3940000  -9.3020000  36.2010000
  -8.5190000  -8.1580000  34.8500000  -7.9360000  -9.7840000  34.5550000
  -6.4990000  -7.2780000  36.5000000  -7.0710000  -7.5210000  37.3960000
  -5.4830000  -7.0380000  36.8120000  -7.0880000  -6.0150000  35.8640000
  -8.1630000  -6.1230000  35.7200000  -6.9150000  -5.1710000  36.5310000
  -6.6010000  -5.8160000  34.9090000  -5.7850000 -10.9670000  35.4220000
  -6.3930000 -11.8860000  35.9630000  -5.2140000 -11.1010000  34.2200000
  -4.7360000 -10.3020000  33.8300000  -5.2410000 -12.3280000  33.4160000
  -4.5810000 -12.1900000  32.5590000  -6.2530000 -12.5010000  33.0510000
  -4.7820000 -13.5860000  34.1560000  -5.4960000 -14.5900000  34.1670000
  -3.6220000 -13.5270000  34.8240000  -3.0810000 -12.6780000  34.7420000
  -3.0830000 -14.6280000  35.6430000  -2.9700000 -15.5110000  35.0150000
  -1.6990000 -14.2430000  36.1950000  -1.7480000 -13.2560000  36.6560000
  -1.4120000 -14.9640000  36.9600000  -0.6210000 -14.2510000  35.0990000
  -0.5500000 -15.2550000  34.6810000  -0.8960000 -13.5610000  34.3010000
   0.7460000 -13.8430000  35.6660000   0.6930000 -12.8180000  36.0340000
   1.0020000 -14.5050000  36.4930000   1.8230000 -13.9490000  34.5780000
   1.8330000 -14.9700000  34.1980000   1.5570000 -13.2890000  33.7520000
   3.1700000 -13.5950000  35.1030000   3.4450000 -14.2130000  35.8540000
   3.8710000 -13.6710000  34.3810000   3.1970000 -12.6490000  35.4560000
  -4.0380000 -15.0280000  36.7740000  -4.3010000 -16.2170000  36.9600000
  -4.5960000 -14.0520000  37.4940000  -4.3340000 -13.0980000  37.2940000
  -5.5970000 -14.3060000  38.5370000  -5.1840000 -15.0410000  39.2280000
  -5.8530000 -13.0270000  39.3380000  -4.8950000 -12.5930000  39.6250000
  -6.3730000 -12.3020000  38.7130000  -6.6520000 -13.2610000  40.5800000
  -6.1210000 -13.5500000  41.7880000  -5.0650000 -13.6220000  41.9990000
  -7.1330000 -13.8080000  42.6860000  -6.9560000 -14.1770000  43.6100000
  -8.3770000 -13.6880000  42.1090000  -9.6810000 -13.8610000  42.5990000
  -9.8440000 -14.1340000  43.6310000 -10.7650000 -13.6800000  41.7240000
 -11.7770000 -13.8110000  42.0780000 -10.5290000 -13.3310000  40.3810000
 -11.3630000 -13.1930000  39.7080000  -9.2160000 -13.1620000  39.9000000
  -9.0540000 -12.8910000  38.8680000  -8.1030000 -13.3380000  40.7510000
  -6.9020000 -14.9070000  37.9870000  -7.3840000 -15.9200000  38.4950000
  -7.4420000 -14.3460000  36.9010000  -7.0040000 -13.5140000  36.5330000
  -8.6550000 -14.8390000  36.2350000  -9.4520000 -14.8940000  36.9770000
  -9.0940000 -13.8620000  35.1320000  -8.2470000 -13.6510000  34.4790000
  -9.8690000 -14.3310000  34.5240000  -9.6380000 -12.5360000  35.6870000
  -8.8650000 -12.0630000  36.2930000  -9.8380000 -11.8760000  34.8440000
 -11.1460000 -12.6360000  36.7000000 -12.3110000 -13.3250000  35.4970000
 -12.0550000 -14.3640000  35.2900000 -13.3260000 -13.2820000  35.8940000
 -12.2710000 -12.7500000  34.5720000  -8.4890000 -16.2590000  35.6720000
  -9.4260000 -17.0520000  35.7380000  -7.3020000 -16.6280000  35.1820000
  -6.5850000 -15.9240000  35.0730000  -6.9970000 -18.0030000  34.7730000
  -7.7190000 -18.2960000  34.0110000  -5.5960000 -18.0310000  34.1400000
  -5.5410000 -17.2940000  33.3390000  -4.8480000 -17.7710000  34.8900000
  -5.2680000 -19.3900000  33.5400000  -5.9680000 -19.9000000  32.6760000
  -4.2010000 -20.0240000  33.9740000  -3.6060000 -19.6090000  34.6760000
  -3.9820000 -20.9230000  33.5710000  -7.1320000 -19.0130000  35.9370000
  -7.6210000 -20.1280000  35.7350000  -6.7210000 -18.6230000  37.1540000
  -6.3270000 -17.6970000  37.2370000  -6.8200000 -19.4430000  38.3790000
  -6.5990000 -20.4800000  38.1280000  -5.7730000 -18.9680000  39.4040000
  -5.8310000 -17.8860000  39.5210000  -5.9840000 -19.4290000  40.3680000
  -4.3530000 -19.3640000  38.9780000  -4.3090000 -20.4480000  38.8790000
  -4.1210000 -18.9150000  38.0120000  -3.2980000 -18.9160000  39.9960000
  -3.2860000 -17.8270000  40.0420000  -3.5590000 -19.3070000  40.9790000
  -1.9670000 -19.4170000  39.6050000  -1.9320000 -20.0400000  38.8110000
  -0.8130000 -19.1570000  40.1900000  -0.7050000 -18.3730000  41.2210000
  -1.5240000 -17.9230000  41.6050000   0.1950000 -18.1970000  41.6450000
   0.2830000 -19.7000000  39.7370000   0.2530000 -20.3210000  38.9420000
   1.1700000 -19.5100000  40.1820000  -8.2210000 -19.4650000  39.0050000
  -8.6800000 -20.5300000  39.4210000  -8.9020000 -18.3160000  39.0600000
  -8.4110000 -17.4910000  38.7460000 -10.0940000 -18.1070000  39.9040000
 -10.3860000 -19.0570000  40.3520000  -9.6990000 -17.1680000  41.0560000
 -10.5660000 -17.0010000  41.6950000  -9.4190000 -16.2020000  40.6340000
  -8.5610000 -17.6840000  41.9250000  -8.7590000 -18.8020000  42.7600000
  -9.7200000 -19.2950000  42.7760000  -7.7040000 -19.2960000  43.5540000
  -7.8520000 -20.1700000  44.1710000  -6.4380000 -18.6690000  43.5100000
  -5.4100000 -19.1530000  44.2580000  -5.6370000 -19.9790000  44.6920000
  -6.2400000 -17.5520000  42.6720000  -5.2710000 -17.0760000  42.6410000
  -7.2970000 -17.0670000  41.8790000  -7.1350000 -16.2200000  41.2290000
 -11.3490000 -17.6000000  39.1600000 -12.3850000 -17.3570000  39.7820000
 -11.3110000 -17.5160000  37.8250000 -10.4390000 -17.7290000  37.3610000
 -12.3820000 -16.9720000  36.9740000 -12.0720000 -17.0330000  35.9310000
 -12.5180000 -15.9180000  37.2170000 -13.7450000 -17.6610000  37.0920000
 -14.7660000 -17.0080000  36.8800000 -13.7990000 -18.9420000  37.4920000
 -12.9220000 -19.4230000  37.6340000 -15.0600000 -19.6900000  37.6990000
 -15.6190000 -19.6860000  36.7630000 -14.7880000 -21.1560000  38.0820000
 -14.2300000 -21.1910000  39.0170000 -15.7480000 -21.6430000  38.2500000
 -14.0290000 -21.9470000  37.0030000 -14.5320000 -21.8170000  36.0440000
 -13.0100000 -21.5680000  36.9230000 -14.0000000 -23.4450000  37.3530000
 -13.5100000 -23.5940000  38.3150000 -15.0280000 -23.7960000  37.4410000
 -13.3050000 -24.2980000  36.2810000 -13.5790000 -25.3390000  36.4470000
 -13.6850000 -24.0120000  35.3000000 -11.8210000 -24.1720000  36.3190000
 -11.4500000 -24.4630000  37.2120000 -11.3970000 -24.7600000  35.6160000
 -11.5190000 -23.2250000  36.1420000 -15.9840000 -19.0450000  38.7460000
 -17.2020000 -19.1610000  38.6370000 -15.4180000 -18.3340000  39.7280000
 -14.4090000 -18.2920000  39.7650000 -16.1730000 -17.5500000  40.7120000
 -17.0220000 -18.1420000  41.0540000 -15.2640000 -17.2910000  41.9170000
 -15.8240000 -16.7760000  42.6970000 -14.9060000 -18.2430000  42.3090000
 -14.4130000 -16.6760000  41.6240000 -16.7340000 -16.2230000  40.1580000
 -17.5930000 -15.6130000  40.7960000 -16.2660000 -15.7640000  38.9930000
 -15.6160000 -16.3490000  38.4880000 -16.5530000 -14.4340000  38.4260000
 -17.1020000 -13.8440000  39.1580000 -15.2410000 -13.6770000  38.1230000
 -14.6680000 -14.2450000  37.3900000 -15.4810000 -12.2680000  37.5640000
 -15.9880000 -11.6550000  38.3100000 -14.5270000 -11.7980000  37.3260000
 -16.0760000 -12.3060000  36.6520000 -14.3870000 -13.5210000  39.3880000
 -14.0210000 -14.4920000  39.7230000 -13.5260000 -12.8880000  39.1740000
 -14.9750000 -13.0630000  40.1830000 -17.4460000 -14.5420000  37.1860000
 -18.5260000 -13.9530000  37.1690000 -17.0360000 -15.2900000  36.1550000
 -16.1700000 -15.8030000  36.2340000 -17.8500000 -15.4960000  34.9510000
 -18.0800000 -14.5230000  34.5170000 -17.0750000 -16.3190000  33.9110000
 -17.6700000 -16.3660000  33.0000000 -16.9810000 -17.3380000  34.2860000
 -15.6920000 -15.8110000  33.5410000 -15.5140000 -14.5000000  33.0520000
 -16.3590000 -13.8350000  32.9590000 -14.2310000 -14.0580000  32.6700000
 -14.0940000 -13.0540000  32.2980000 -13.1260000 -14.9340000  32.7630000
 -11.8940000 -14.5270000  32.3700000 -11.9460000 -13.7170000  31.8570000
 -13.3030000 -16.2400000  33.2600000 -12.4540000 -16.9040000  33.3300000
 -14.5840000 -16.6760000  33.6460000 -14.7170000 -17.6830000  34.0150000
 -19.1740000 -16.2070000  35.2890000 -19.1770000 -17.2140000  36.0020000
 -20.2930000 -15.6940000  34.7630000 -20.1990000 -14.8980000  34.1480000
 -21.6380000 -16.2680000  34.9080000 -22.3380000 -15.5720000  34.4470000
 -21.7110000 -17.5710000  34.0910000 -22.7410000 -17.9240000  34.0430000
 -21.3580000 -17.3940000  33.0750000 -21.0990000 -18.3450000  34.5540000
 -22.1130000 -16.4140000  36.3790000 -22.8920000 -17.3170000  36.6960000
 -21.7020000 -15.4910000  37.2620000 -21.0610000 -14.7810000  36.9390000
 -22.0410000 -15.4950000  38.6940000 -22.6500000 -16.3710000  38.9180000
 -20.7500000 -15.5930000  39.5250000 -20.0160000 -14.8720000  39.1650000
 -20.9670000 -15.3750000  40.5700000 -20.0690000 -17.2700000  39.4280000
 -18.9760000 -17.0100000  40.1510000 -22.8670000 -14.2710000  39.1270000
 -22.9350000 -13.2540000  38.4300000 -23.4810000 -14.3680000  40.3070000
 -23.4090000 -15.2490000  40.7950000 -24.4060000 -13.3770000  40.8780000
 -24.1350000 -12.3890000  40.5060000 -25.8280000 -13.7340000  40.3840000
 -25.7680000 -14.0310000  39.3370000 -26.1880000 -14.5940000  40.9480000
 -26.8650000 -12.5970000  40.4700000 -26.4940000 -11.4530000  40.8160000
 -28.0550000 -12.8460000  40.1650000 -24.3180000 -13.3260000  42.4240000
 -23.5420000 -14.0610000  43.0440000 -25.1100000 -12.4500000  43.0480000
 -25.6940000 -11.8730000  42.4600000 -25.3010000 -12.3330000  44.5000000
 -24.3450000 -12.0690000  44.9530000 -26.2910000 -11.1800000  44.7380000
 -27.1310000 -11.3030000  44.0540000 -25.7990000 -10.2450000  44.4690000
 -26.8470000 -11.0400000  46.1450000 -26.0160000 -10.6280000  47.2040000
 -24.9670000 -10.4400000  47.0310000 -26.5500000 -10.4250000  48.4910000
 -25.9070000 -10.0990000  49.2950000 -27.9290000 -10.6190000  48.7200000
 -28.4580000 -10.4040000  49.9540000 -27.7980000 -10.0950000  50.5780000
 -28.7590000 -11.0530000  47.6640000 -29.8110000 -11.2120000  47.8470000
 -28.2180000 -11.2670000  46.3820000 -28.8630000 -11.5840000  45.5760000
 -25.7880000 -13.6450000  45.1510000 -26.6690000 -14.3290000  44.6230000
 -25.2080000 -13.9960000  46.3090000 -24.4910000 -13.3910000  46.6840000
 -25.4310000 -15.2860000  46.9750000 -25.7370000 -16.0150000  46.2250000
 -24.0870000 -15.7500000  47.5550000 -24.1920000 -16.7520000  47.9720000
 -23.3320000 -15.7780000  46.7700000 -23.7630000 -15.0710000  48.3430000
 -26.5320000 -15.3000000  48.0570000 -27.0500000 -16.3710000  48.3770000
 -26.8750000 -14.1490000  48.6490000 -26.4540000 -13.2940000  48.3150000
 -27.8560000 -14.0460000  49.7470000 -28.6390000 -14.7910000  49.6080000
 -28.3370000 -13.0690000  49.7060000 -27.2810000 -14.2280000  51.1640000
 -27.9620000 -13.9270000  52.1450000 -26.0390000 -14.7110000  51.2860000
 -25.5320000 -14.9060000  50.4340000 -25.2960000 -14.8330000  52.5490000
 -25.9040000 -15.3830000  53.2670000 -23.9980000 -15.6230000  52.3110000
 -23.5110000 -15.2500000  51.4110000 -23.3310000 -15.4070000  53.1460000
 -24.1270000 -17.1360000  52.2050000 -24.8910000 -17.7400000  51.1850000
 -25.4130000 -17.1360000  50.4570000 -24.9840000 -19.1410000  51.1010000
 -25.5780000 -19.5960000  50.3220000 -24.2930000 -19.9500000  52.0190000
 -24.3550000 -21.0250000  51.9470000 -23.5080000 -19.3540000  53.0210000
 -22.9510000 -19.9720000  53.7100000 -23.4380000 -17.9540000  53.1220000
 -22.8410000 -17.5070000  53.9030000 -24.9740000 -13.4540000  53.1610000
 -24.7120000 -12.4860000  52.4410000 -24.9650000 -13.3590000  54.4960000
 -25.1670000 -14.1870000  55.0380000 -24.5370000 -12.1510000  55.2230000
 -25.0840000 -11.3010000  54.8160000 -24.9280000 -12.2840000  56.7070000
 -26.0010000 -12.4680000  56.7620000 -24.4100000 -13.1380000  57.1420000
 -24.5920000 -11.0260000  57.5240000 -23.5120000 -10.8820000  57.5240000
 -25.0450000 -10.1610000  57.0390000 -25.0990000 -11.1100000  58.9780000
 -24.3210000 -10.8030000  59.9130000 -26.2740000 -11.4840000  59.2160000
 -23.0270000 -11.8750000  55.0480000 -22.2070000 -12.7840000  55.2110000
 -22.6530000 -10.6200000  54.7530000 -23.3830000  -9.9280000  54.6600000
 -21.2680000 -10.1710000  54.4930000 -20.9320000 -10.6750000  53.5870000
 -21.2960000  -8.6480000  54.2400000 -22.0210000  -8.4340000  53.4540000
 -21.6440000  -8.1550000  55.1470000 -19.9540000  -8.0070000  53.8410000
 -20.1080000  -6.9290000  53.7950000 -19.2090000  -8.2000000  54.6130000
 -19.4280000  -8.4820000  52.4740000 -19.1530000  -9.5360000  52.5100000
 -20.2250000  -8.3680000  51.7400000 -18.2230000  -7.6470000  52.0040000
 -18.0770000  -7.8400000  50.9410000 -18.4600000  -6.5900000  52.1190000
 -16.9670000  -7.9790000  52.7330000 -16.6860000  -8.9320000  52.5510000
 -16.2070000  -7.3850000  52.4350000 -17.0640000  -7.8810000  53.7330000
 -20.2910000 -10.5290000  55.6310000 -20.6230000 -10.4070000  56.8110000
 -19.0670000 -10.9190000  55.2580000 -18.8720000 -10.9790000  54.2690000
 -17.9750000 -11.3100000  56.1650000 -18.2720000 -11.1320000  57.1990000
 -17.6720000 -12.8080000  55.9880000 -17.2590000 -12.9600000  54.9910000
 -16.9150000 -13.1030000  56.7150000 -18.8900000 -13.7330000  56.1410000
 -19.6250000 -13.4830000  55.3760000 -18.5810000 -14.7610000  55.9550000
 -19.5470000 -13.6660000  57.5180000 -18.9020000 -13.6150000  58.5580000
 -20.8620000 -13.6640000  57.5790000 -21.3900000 -13.5580000  56.7250000
 -21.2960000 -13.5450000  58.4840000 -16.7010000 -10.4910000  55.8930000
 -16.5010000  -9.9860000  54.7870000 -15.8250000 -10.3580000  56.8920000
 -16.0460000 -10.7790000  57.7830000 -14.6080000  -9.5280000  56.8050000
 -14.8850000  -8.5580000  56.3910000 -14.0340000  -9.2840000  58.2100000
 -13.7960000 -10.2490000  58.6590000 -13.1030000  -8.7280000  58.1100000
 -14.9560000  -8.4950000  59.1600000 -15.8890000  -7.7910000  58.7020000
 -14.7230000  -8.5530000  60.3910000 -13.5160000 -10.0960000  55.8780000
 -12.7170000  -9.3330000  55.3270000 -13.4710000 -11.4210000  55.6800000
 -14.1490000 -11.9980000  56.1560000 -12.4350000 -12.0930000  54.8790000
 -11.4640000 -11.7260000  55.2120000 -12.4370000 -13.6030000  55.1610000
 -11.7190000 -14.0820000  54.4970000 -12.0680000 -13.7480000  56.1760000
 -13.7490000 -14.3210000  55.0390000 -14.4660000 -14.7890000  56.0870000
 -14.1750000 -14.6990000  57.1230000 -15.6250000 -15.3810000  55.6300000
 -16.3210000 -15.7860000  56.2410000 -15.7410000 -15.2790000  54.2630000
 -16.7520000 -15.6410000  53.3640000 -17.6640000 -16.0870000  53.7330000
 -16.5720000 -15.4090000  51.9920000 -17.3550000 -15.6640000  51.2930000
 -15.3650000 -14.8520000  51.5360000 -15.2160000 -14.6870000  50.4800000
 -14.3560000 -14.4870000  52.4500000 -13.4400000 -14.0500000  52.0810000
 -14.5280000 -14.6580000  53.8430000 -12.5040000 -11.7950000  53.3730000
 -11.5080000 -11.9830000  52.6720000 -13.6450000 -11.3380000  52.8490000
 -14.4310000 -11.1910000  53.4660000 -13.8270000 -11.0770000  51.4170000
 -13.2760000 -11.8210000  50.8420000 -13.4150000 -10.0960000  51.1800000
 -15.2920000 -11.0910000  50.9830000 -16.1150000 -10.3970000  51.5840000
 -15.6140000 -11.8390000  49.9240000 -14.8880000 -12.4040000  49.5050000
 -16.9130000 -11.7880000  49.2390000 -17.6600000 -11.3460000  49.8980000
 -16.7880000 -10.9090000  47.9860000 -17.7340000 -10.9460000  47.4460000
 -16.0300000 -11.3440000  47.3340000 -16.4430000  -9.4550000  48.2380000
 -17.4660000  -8.5240000  48.5070000 -18.4940000  -8.8490000  48.5650000
 -17.1450000  -7.1700000  48.7280000 -17.9270000  -6.4530000  48.9310000
 -15.7960000  -6.7530000  48.7230000 -15.4790000  -5.4610000  48.9960000
 -16.1610000  -4.8560000  48.6920000 -14.7750000  -7.6890000  48.4560000
 -13.7450000  -7.3640000  48.4440000 -15.1000000  -9.0330000  48.1990000
 -14.3140000  -9.7430000  47.9860000 -17.4140000 -13.1720000  48.8020000
 -16.6520000 -13.9770000  48.2680000 -18.7150000 -13.4230000  48.9680000
 -19.2830000 -12.7330000  49.4390000 -19.4170000 -14.5190000  48.2910000
 -18.7870000 -15.4080000  48.3240000 -20.7240000 -14.8530000  49.0170000
 -21.2260000 -15.6550000  48.4750000 -21.3800000 -13.9830000  48.9900000
 -20.5510000 -15.3000000  50.4490000 -20.1900000 -16.6330000  50.7270000
 -20.0170000 -17.3260000  49.9180000 -20.0750000 -17.0680000  52.0610000
 -19.8170000 -18.0960000  52.2720000 -20.3190000 -16.1600000  53.1140000
 -20.2240000 -16.5730000  54.4040000 -19.8690000 -17.4640000  54.4420000
 -20.6570000 -14.8230000  52.8310000 -20.8510000 -14.1370000  53.6420000
 -20.7770000 -14.3920000  51.4990000 -21.0630000 -13.3720000  51.2880000
 -19.7410000 -14.1860000  46.8260000 -20.1060000 -13.0520000  46.5120000
 -19.7420000 -15.1920000  45.9520000 -19.3370000 -16.0720000  46.2390000
 -20.5090000 -15.1860000  44.6870000 -21.2740000 -14.4110000  44.7420000
 -19.6350000 -14.8850000  43.4500000 -20.3030000 -14.7010000  42.6080000
 -18.7100000 -13.6740000  43.5870000 -17.9590000 -13.8560000  44.3550000
 -18.2080000 -13.4860000  42.6380000 -19.2940000 -12.7930000  43.8530000
 -18.8240000 -15.9830000  43.1290000 -18.3490000 -15.7680000  42.3240000
 -21.2380000 -16.5270000  44.5110000 -20.8700000 -17.5220000  45.1410000
 -22.2880000 -16.5650000  43.6800000 -22.5900000 -15.6960000  43.2630000
 -23.1230000 -17.7550000  43.4270000 -22.7040000 -18.6040000  43.9660000
 -24.5290000 -17.4970000  43.9910000 -24.4250000 -17.3330000  45.0640000
 -24.9380000 -16.5930000  43.5390000 -25.5210000 -18.6530000  43.7780000
 -25.6910000 -18.7940000  42.7100000 -25.1140000 -19.5710000  44.2020000
 -26.8600000 -18.3270000  44.4520000 -26.7050000 -18.2600000  45.5290000
 -27.2080000 -17.3610000  44.0860000 -27.8840000 -19.3500000  44.1660000
 -27.6130000 -20.1450000  43.6050000 -29.1510000 -19.3190000  44.5350000
 -29.6520000 -18.3420000  45.2410000 -29.0530000 -17.5800000  45.5260000
 -30.6260000 -18.3450000  45.5070000 -29.9440000 -20.2870000  44.1920000
 -29.5540000 -21.0610000  43.6720000 -30.9180000 -20.2880000  44.4580000
 -23.1450000 -18.1150000  41.9390000 -23.4570000 -17.2620000  41.1070000
 -22.7900000 -19.3620000  41.6240000 -22.5850000 -19.9870000  42.3900000
 -22.8140000 -19.9380000  40.2730000 -22.1320000 -20.7880000  40.2450000
 -22.4520000 -19.1970000  39.5600000 -24.1990000 -20.4180000  39.8080000
 -25.1790000 -20.3980000  40.5600000 -24.2760000 -20.8710000  38.5490000
 -23.4190000 -20.8880000  38.0130000 -25.5200000 -21.2800000  37.8620000
 -26.2550000 -20.4840000  37.9800000 -25.2480000 -21.4890000  36.3600000
 -24.4460000 -22.2190000  36.2430000 -26.1400000 -21.9100000  35.8970000
 -24.8730000 -20.2160000  35.5830000 -23.9480000 -19.8010000  35.9830000
 -24.6920000 -20.5050000  34.5480000 -25.9770000 -19.1430000  35.6290000
 -26.9430000 -19.5920000  35.4000000 -26.0220000 -18.7300000  36.6370000
 -25.7130000 -17.9810000  34.6610000 -26.3920000 -17.1650000  34.9100000
 -24.6990000 -17.6150000  34.8210000 -25.9130000 -18.3670000  33.2380000
 -26.8730000 -18.6270000  33.0580000 -25.6870000 -17.5950000  32.6270000
 -25.3220000 -19.1400000  32.9670000 -26.1950000 -22.5310000  38.4390000
 -27.4130000 -22.6700000  38.3100000 -25.4340000 -23.4350000  39.0560000
 -24.4530000 -23.2270000  39.1760000 -25.9130000 -24.6980000  39.6320000
 -26.9710000 -24.8250000  39.4020000 -25.1510000 -25.8640000  38.9710000
 -24.0930000 -25.7950000  39.2260000 -25.5290000 -26.8100000  39.3580000
 -25.2880000 -25.8860000  37.4560000 -24.3540000 -25.6260000  36.7090000
 -26.4610000 -26.1860000  36.9420000 -27.2410000 -26.4130000  37.5420000
 -26.5560000 -26.1930000  35.9360000 -25.8190000 -24.7040000  41.1770000
 -25.7440000 -25.7660000  41.7990000 -25.8300000 -23.5130000  41.7900000
 -25.8640000 -22.6970000  41.1950000 -25.8110000 -23.2610000  43.2410000
 -25.9220000 -22.1830000  43.3630000 -27.0190000 -23.8950000  43.9620000
 -26.9250000 -24.9800000  43.9550000 -27.0080000 -23.5740000  45.0040000
 -28.3750000 -23.4840000  43.3660000 -28.5390000 -22.3050000  42.9680000
 -29.3100000 -24.3220000  43.3570000 -24.4590000 -23.5870000  43.9090000
 -24.3830000 -23.8120000  45.1210000 -23.3640000 -23.5350000  43.1450000
 -23.4800000 -23.3830000  42.1530000 -22.0230000 -23.3160000  43.6910000
 -21.7790000 -24.1340000  44.3690000 -20.9660000 -23.2710000  42.5700000
 -21.0370000 -22.3270000  42.0310000 -19.9880000 -23.2930000  43.0520000
 -21.0220000 -24.4290000  41.5610000 -19.9980000 -24.6480000  41.2580000
 -21.4090000 -25.3240000  42.0500000 -21.8500000 -24.1180000  40.2910000
 -22.8350000 -23.3410000  40.3490000 -21.5150000 -24.6820000  39.2200000
 -21.9820000 -21.9900000  44.4720000 -22.5110000 -20.9800000  43.9990000
 -21.3190000 -21.9620000  45.6320000 -20.9260000 -22.8220000  45.9870000
 -21.1160000 -20.7400000  46.4320000 -21.4550000 -19.8730000  45.8640000
 -21.9310000 -20.7620000  47.7430000 -21.7100000 -21.6750000  48.2940000
 -21.6040000 -19.5590000  48.6410000 -21.7550000 -18.6290000  48.0940000
 -22.2500000 -19.5640000  49.5190000 -20.5720000 -19.6150000  48.9870000
 -23.4360000 -20.7240000  47.4490000 -23.7280000 -21.6100000  46.8860000
 -23.9970000 -20.7110000  48.3840000 -23.6840000 -19.8350000  46.8690000
 -19.6230000 -20.5610000  46.6830000 -18.9800000 -21.4180000  47.2840000
 -19.0530000 -19.4700000  46.1800000 -19.6460000 -18.7990000  45.7130000
 -17.6120000 -19.2290000  46.1480000 -17.0720000 -20.1530000  46.3540000
 -17.2140000 -18.7560000  44.7450000 -16.1460000 -18.5380000  44.7360000
 -17.7260000 -17.8160000  44.5380000 -17.5140000 -19.7350000  43.6260000
 -16.6680000 -20.8410000  43.4150000 -15.8260000 -21.0120000  44.0680000
 -16.9110000 -21.7230000  42.3440000 -16.2530000 -22.5630000  42.1760000
 -18.0090000 -21.5020000  41.4850000 -18.2500000 -22.3550000  40.4530000
 -17.6630000 -23.1140000  40.4720000 -18.8640000 -20.4010000  41.7060000
 -19.7000000 -20.2360000  41.0430000 -18.6190000 -19.5220000  42.7780000
 -19.2710000 -18.6760000  42.9410000 -17.2120000 -18.1870000  47.1960000
 -17.5970000 -17.0230000  47.0980000 -16.4170000 -18.5980000  48.1840000
 -16.1350000 -19.5680000  48.1980000 -15.7920000 -17.7130000  49.1670000
 -16.4660000 -16.8940000  49.4160000 -15.4550000 -18.4840000  50.4520000
 -14.7930000 -19.3140000  50.2050000 -14.9190000 -17.8130000  51.1230000
 -16.6660000 -19.0540000  51.1900000 -17.2790000 -18.2370000  51.5700000
 -17.2660000 -19.6380000  50.4910000 -16.1930000 -20.1430000  52.5620000
 -15.3920000 -18.9640000  53.6790000 -16.0830000 -18.1560000  53.9180000
 -15.1180000 -19.4760000  54.6010000 -14.4960000 -18.5520000  53.2160000
 -14.5060000 -17.1370000  48.5700000 -13.4570000 -17.7870000  48.5930000
 -14.5870000 -15.9300000  48.0100000 -15.4770000 -15.4530000  48.0080000
 -13.4360000 -15.2140000  47.4530000 -12.7330000 -15.9530000  47.0690000
 -13.8160000 -14.3000000  46.2740000 -14.2720000 -13.3850000  46.6530000
 -12.5340000 -13.9360000  45.5160000 -12.0430000 -14.8320000  45.1370000
 -12.7740000 -13.2900000  44.6710000 -11.8420000 -13.4110000  46.1740000
 -14.8140000 -14.9370000  45.2930000 -15.7810000 -15.0660000  45.7790000
 -14.9560000 -14.2860000  44.4310000 -14.4570000 -15.9090000  44.9530000
 -12.7420000 -14.4290000  48.5700000 -13.2050000 -13.3650000  48.9860000
 -11.6630000 -14.9960000  49.1040000 -11.3240000 -15.8390000  48.6620000
 -10.8870000 -14.4760000  50.2360000 -11.5670000 -13.9680000  50.9190000
 -10.2130000 -15.6200000  51.0180000  -9.5360000 -16.1550000  50.3530000
  -9.4100000 -15.0820000  52.2120000 -10.0460000 -14.4720000  52.8520000
  -9.0120000 -15.9120000  52.7960000  -8.5660000 -14.4860000  51.8650000
 -11.2490000 -16.6180000  51.5540000 -11.7830000 -17.0890000  50.7280000
 -10.7450000 -17.4010000  52.1210000 -11.9640000 -16.1090000  52.2010000
  -9.8430000 -13.4610000  49.7690000  -8.9860000 -13.7830000  48.9450000
  -9.9000000 -12.2500000  50.3310000 -10.6470000 -12.0890000  50.9910000
  -8.9060000 -11.1800000  50.1600000  -8.1630000 -11.4770000  49.4200000
  -9.6090000  -9.9130000  49.6480000 -10.4630000  -9.6880000  50.2860000
  -8.9180000  -9.0740000  49.7310000 -10.0680000 -10.0020000  48.2060000
 -11.3270000 -10.5460000  47.8860000 -11.9810000 -10.8960000  48.6710000
 -11.7320000 -10.6380000  46.5430000 -12.7010000 -11.0500000  46.3020000
 -10.8750000 -10.2050000  45.5160000 -11.1840000 -10.2820000  44.4840000
  -9.6210000  -9.6540000  45.8350000  -8.9640000  -9.3040000  45.0520000
  -9.2230000  -9.5440000  47.1770000  -8.2600000  -9.1160000  47.4160000
  -8.1450000 -10.8540000  51.4590000  -6.9550000 -10.5350000  51.4080000
  -8.8090000 -10.9450000  52.6180000  -9.7690000 -11.2600000  52.5900000
  -8.2730000 -10.5620000  53.9280000  -7.3100000 -10.0670000  53.7990000
  -9.2190000  -9.5400000  54.5950000 -10.1510000 -10.0380000  54.8630000
  -8.7660000  -9.1740000  55.5160000  -9.5520000  -8.3400000  53.7210000
  -8.7000000  -7.7420000  53.0770000 -10.8060000  -7.9490000  53.6670000
 -11.5040000  -8.4190000  54.2260000 -11.0390000  -7.1490000  53.0970000
  -8.0390000 -11.8130000  54.7960000  -8.9410000 -12.2710000  55.5000000
  -6.8370000 -12.3930000  54.7160000  -6.1460000 -11.9790000  54.1060000
  -6.4580000 -13.6020000  55.4610000  -7.1140000 -14.4070000  55.1300000
  -5.0120000 -13.9710000  55.0740000  -4.9440000 -14.0710000  53.9900000
  -4.3610000 -13.1470000  55.3660000  -4.4620000 -15.2550000  55.7240000
  -3.3840000 -15.2680000  55.5690000  -4.6340000 -15.2430000  56.8000000
  -5.0290000 -16.5510000  55.1390000  -6.0090000 -16.5800000  54.4120000
  -4.4280000 -17.6830000  55.4390000  -3.6170000 -17.6910000  56.0410000
  -4.7940000 -18.5310000  55.0300000  -6.5980000 -13.4030000  56.9920000
  -5.9820000 -12.4770000  57.5320000  -7.3500000 -14.2590000  57.7160000
  -8.2550000 -15.2750000  57.1870000  -7.7100000 -16.0430000  56.6380000
  -8.9920000 -14.8020000  56.5380000  -8.9670000 -15.8910000  58.3930000
  -8.4160000 -16.7640000  58.7440000  -9.9980000 -16.1620000  58.1640000
  -8.8990000 -14.7750000  59.4350000  -8.9740000 -15.1630000  60.4510000
  -9.6960000 -14.0560000  59.2460000  -7.5440000 -14.1160000  59.1600000
  -7.6090000 -13.0620000  59.4310000  -6.4150000 -14.7780000  59.9690000
  -6.0640000 -15.9380000  59.7390000  -5.8950000 -14.0780000  60.9820000
  -6.1970000 -13.1230000  61.1120000  -4.8820000 -14.6110000  61.9130000
  -4.0680000 -15.0320000  61.3240000  -4.3000000 -13.4710000  62.7590000
  -3.6520000 -13.8990000  63.5240000  -5.1100000 -12.9530000  63.2730000
  -3.4780000 -12.4760000  61.9610000  -2.1800000 -12.8290000  61.5400000
  -1.7780000 -13.8000000  61.7910000  -1.4040000 -11.9220000  60.7930000
  -0.4100000 -12.1960000  60.4740000  -1.9280000 -10.6530000  60.4650000
  -1.1830000  -9.7710000  59.7450000  -0.3230000 -10.1350000  59.5220000
  -3.2270000 -10.2970000  60.8900000  -3.6190000  -9.3230000  60.6390000
  -4.0000000 -11.2080000  61.6370000  -4.9910000 -10.9290000  61.9630000
  -5.4060000 -15.7520000  62.8070000  -4.6180000 -16.5580000  63.3060000
  -6.7300000 -15.8610000  62.9750000  -7.3230000 -15.1460000  62.5800000
  -7.4010000 -16.9980000  63.6290000  -6.8880000 -17.2280000  64.5630000
  -8.8430000 -16.6010000  63.9630000  -9.3270000 -17.4110000  64.5080000
  -8.8370000 -15.7100000  64.5910000  -9.5600000 -16.3390000  62.7670000
 -10.4460000 -16.0550000  63.0030000  -7.4250000 -18.2780000  62.7770000
  -7.8190000 -19.3310000  63.2790000  -7.0570000 -18.1970000  61.4880000
  -6.7300000 -17.3000000  61.1600000  -7.0000000 -19.3080000  60.5140000
  -6.6070000 -18.8990000  59.5830000  -6.0060000 -20.4010000  60.9680000
  -6.3580000 -20.8780000  61.8830000  -5.9480000 -21.1700000  60.1970000
  -4.5900000 -19.8470000  61.1850000  -4.3160000 -19.2480000  60.3160000
  -4.5850000 -19.1950000  62.0580000  -3.5500000 -20.9660000  61.3880000
  -3.8040000 -21.9230000  62.1610000  -2.4490000 -20.8870000  60.7880000
  -8.3960000 -19.8680000  60.1580000  -8.5240000 -20.9620000  59.5990000
  -9.4550000 -19.0990000  60.4490000  -9.2600000 -18.2060000  60.8800000
 -10.8630000 -19.5300000  60.4330000 -10.9620000 -20.4670000  59.8850000
 -11.3130000 -19.7640000  61.8890000 -11.0370000 -18.8950000  62.4870000
 -12.3980000 -19.8630000  61.9220000 -10.6900000 -21.0310000  62.5040000
 -11.2070000 -21.9080000  62.1140000  -9.6370000 -21.1070000  62.2330000
 -10.7870000 -21.0110000  64.0330000 -10.2260000 -20.1610000  64.4230000
 -11.8310000 -20.8790000  64.3190000 -10.2830000 -22.2650000  64.6270000
 -10.9800000 -22.9390000  64.9090000  -9.0260000 -22.5990000  64.8700000
  -8.0170000 -21.8360000  64.5600000  -8.1720000 -20.9490000  64.1030000
  -7.0710000 -22.1290000  64.7600000  -8.7550000 -23.7370000  65.4420000
  -9.5010000 -24.3640000  65.7080000  -7.7980000 -23.9990000  65.6340000
 -11.7400000 -18.4830000  59.7380000 -11.8800000 -17.3550000  60.2090000
 -12.3240000 -18.8700000  58.6060000 -12.1670000 -19.8180000  58.2970000
 -13.2210000 -18.0630000  57.7780000 -12.9790000 -17.0070000  57.8950000
 -13.0390000 -18.4370000  56.2920000 -13.3830000 -19.4630000  56.1610000
 -13.6850000 -17.7990000  55.6880000 -11.6000000 -18.3490000  55.7500000
 -10.8910000 -18.7360000  56.4810000 -11.4640000 -19.1940000  54.4860000
 -12.1550000 -18.8410000  53.7200000 -10.4420000 -19.1280000  54.1150000
 -11.6830000 -20.2360000  54.7170000 -11.2230000 -16.9100000  55.4090000
 -11.3450000 -16.2760000  56.2870000 -10.1850000 -16.8660000  55.0800000
 -11.8690000 -16.5390000  54.6130000 -14.6670000 -18.2970000  58.2450000
 -15.2450000 -19.3580000  57.9960000 -15.2270000 -17.3410000  58.9900000
 -14.6850000 -16.5170000  59.2040000 -16.6110000 -17.4120000  59.4840000
 -16.7300000 -18.3450000  60.0340000 -16.9130000 -16.2490000  60.4610000
 -16.7230000 -15.3100000  59.9400000 -18.3920000 -16.2690000  60.8960000
 -18.6250000 -17.2180000  61.3780000 -18.5970000 -15.4560000  61.5930000
 -19.0500000 -16.1230000  60.0400000 -15.9960000 -16.3190000  61.7060000
 -16.2840000 -17.1700000  62.3230000 -14.9610000 -16.4690000  61.3960000
 -16.0170000 -15.0490000  62.5660000 -16.9910000 -14.9200000  63.0390000
 -15.2630000 -15.1340000  63.3480000 -15.7910000 -14.1790000  61.9500000
 -17.5920000 -17.4300000  58.3000000 -17.4880000 -16.6120000  57.3850000
 -18.5660000 -18.3400000  58.3340000 -18.5250000 -19.0290000  59.0710000
 -19.6320000 -18.4950000  57.3360000 -19.6490000 -17.6190000  56.6870000
 -19.3920000 -19.7460000  56.4590000 -19.2250000 -20.6110000  57.1010000
 -20.5750000 -20.0690000  55.5310000 -20.8310000 -19.2090000  54.9120000
 -20.3180000 -20.9060000  54.8830000 -21.4470000 -20.3630000  56.1150000
 -18.1520000 -19.5580000  55.5790000 -17.2630000 -19.4810000  56.2040000
 -18.0320000 -20.4180000  54.9210000 -18.2400000 -18.6560000  54.9730000
 -20.9750000 -18.5790000  58.0550000 -21.2600000 -19.5740000  58.7190000
 -21.8020000 -17.5360000  57.9210000 -21.4810000 -16.7440000  57.3830000
 -23.1860000 -17.4980000  58.4170000 -23.3230000 -18.2740000  59.1700000
 -23.4420000 -16.1430000  59.0960000 -22.6880000 -15.9890000  59.8670000
 -23.3480000 -15.3460000  58.3590000 -24.8320000 -16.0740000  59.7470000
 -25.5990000 -16.2400000  58.9900000 -24.9180000 -16.8450000  60.5130000
 -25.0490000 -14.6950000  60.3790000 -24.3280000 -14.5450000  61.1830000
 -24.8920000 -13.9330000  59.6160000 -26.4720000 -14.5630000  60.9340000
 -27.1800000 -14.8250000  60.1480000 -26.6010000 -15.2720000  61.7530000
 -26.7350000 -13.1770000  61.4000000 -26.6260000 -12.5190000  60.6410000
 -27.6750000 -13.0820000  61.7550000 -26.0970000 -12.9060000  62.1340000
 -24.1520000 -17.7800000  57.2610000 -24.3220000 -16.9400000  56.3750000
 -24.7380000 -18.9760000  57.2290000 -24.6490000 -19.5780000  58.0350000
 -25.6870000 -19.3720000  56.1750000 -25.2390000 -19.0990000  55.2190000
 -25.9160000 -20.8920000  56.1450000 -26.6520000 -21.0980000  55.3680000
 -24.6590000 -21.6860000  55.7970000 -23.8600000 -21.4710000  56.5070000
 -24.8850000 -22.7530000  55.8160000 -24.3310000 -21.4280000  54.7900000
 -26.4220000 -21.3970000  57.3570000 -26.9420000 -22.1670000  57.1160000
 -27.0430000 -18.6480000  56.3030000 -27.4560000 -18.3000000  57.4160000
 -27.7780000 -18.4390000  55.1890000 -27.2950000 -18.4650000  53.8170000
 -27.2980000 -19.4870000  53.4370000 -26.2970000 -18.0330000  53.7360000
 -28.2790000 -17.6070000  53.0280000 -28.3250000 -17.9030000  51.9800000
 -28.0030000 -16.5570000  53.1220000 -29.6020000 -17.8500000  53.7510000
 -30.0680000 -18.7530000  53.3570000 -30.2780000 -17.0020000  53.6400000
 -29.1940000 -18.0560000  55.2160000 -29.2880000 -17.1110000  55.7500000
 -30.0730000 -19.1210000  55.8990000 -29.6780000 -20.2870000  56.0040000
 -31.2770000 -18.7420000  56.3560000 -31.5490000 -17.7750000  56.2500000
 -32.2320000 -19.6850000  56.9750000 -31.7740000 -20.0450000  57.8960000
 -33.5370000 -18.9660000  57.3760000 -34.1600000 -19.6710000  57.9260000
 -33.2890000 -18.1480000  58.0530000 -34.3590000 -18.4020000  56.2020000
 -33.7590000 -17.6800000  55.6480000 -34.6450000 -19.2130000  55.5330000
 -35.6390000 -17.7190000  56.6990000 -36.2320000 -18.4370000  57.2660000
 -35.3770000 -16.8810000  57.3460000 -36.4550000 -17.2120000  55.5040000
 -35.8570000 -16.4870000  54.9520000 -36.6590000 -18.0520000  54.8390000
 -37.7350000 -16.5920000  55.9360000 -37.5740000 -15.8040000  56.5480000
 -38.2610000 -16.2570000  55.1420000 -38.3170000 -17.2540000  56.4290000
 -32.4820000 -20.9160000  56.0850000 -32.7220000 -20.7950000  54.8820000
 -32.3980000 -22.1080000  56.6770000 -32.2010000 -22.1330000  57.6680000
 -32.5940000 -23.3900000  55.9860000 -33.4970000 -23.3340000  55.3770000
 -32.7500000 -24.1700000  56.7320000 -31.4350000 -23.8370000  55.0790000
 -31.5690000 -24.8630000  54.4120000 -30.3120000 -23.1060000  55.0360000
 -30.2600000 -22.2720000  55.6040000 -29.1260000 -23.4360000  54.2250000
 -29.4070000 -24.1930000  53.4930000 -28.6300000 -22.2000000  53.4350000
 -28.3350000 -21.4410000  54.1600000 -27.3810000 -22.5230000  52.5920000
 -27.5720000 -23.3760000  51.9410000 -27.1130000 -21.6630000  51.9790000
 -26.5310000 -22.7500000  53.2350000 -29.7120000 -21.5460000  52.5490000
 -30.5060000 -21.1570000  53.1860000 -29.2700000 -20.6930000  52.0340000
 -30.3510000 -22.4580000  51.4980000 -30.9070000 -23.2550000  51.9900000
 -31.0460000 -21.8750000  50.8930000 -29.5890000 -22.8840000  50.8450000
 -28.0130000 -24.0330000  55.1010000 -27.7240000 -23.5150000  56.1830000
 -27.3560000 -25.0960000  54.6270000 -27.6620000 -25.4880000  53.7480000
 -26.2380000 -25.7760000  55.3160000 -25.8740000 -25.1360000  56.1200000
 -26.6910000 -27.1060000  55.9540000 -25.8510000 -27.5230000  56.5100000
 -27.8640000 -26.9350000  56.9200000 -28.7640000 -26.6390000  56.3810000
 -28.0510000 -27.8770000  57.4370000 -27.6230000 -26.1720000  57.6600000
 -27.0820000 -28.0400000  54.9730000 -27.3460000 -28.8420000  55.4290000
 -25.0520000 -26.0300000  54.3760000 -25.2130000 -26.0650000  53.1550000
 -23.8470000 -26.1850000  54.9420000 -23.7920000 -26.1700000  55.9500000
 -22.5800000 -26.3970000  54.2080000 -22.7300000 -26.1450000  53.1590000
 -21.4490000 -25.4830000  54.7320000 -21.2270000 -25.7360000  55.7690000
 -20.1710000 -25.6520000  53.8980000 -20.3770000 -25.4420000  52.8480000
 -19.4040000 -24.9660000  54.2570000 -19.7840000 -26.6670000  53.9910000
 -21.8440000 -24.0010000  54.6810000 -22.6850000 -23.8170000  55.3500000
 -21.0090000 -23.3860000  55.0150000 -22.1180000 -23.7160000  53.6660000
 -22.1640000 -27.8710000  54.2800000 -21.7350000 -28.3510000  55.3300000
 -22.3190000 -28.6100000  53.1780000 -22.6310000 -28.1530000  52.3330000
 -21.9200000 -30.0250000  53.0900000 -22.2740000 -30.5450000  53.9800000
 -22.5640000 -30.6980000  51.8700000 -22.1710000 -30.2500000  50.9570000
 -22.2610000 -31.7460000  51.8820000 -24.0960000 -30.6070000  51.8560000
 -24.4660000 -30.6670000  52.8800000 -24.3890000 -29.6380000  51.4510000
 -24.7380000 -31.7490000  51.0480000 -24.4580000 -32.9410000  51.3100000
 -25.5930000 -31.4870000  50.1730000 -20.3970000 -30.2330000  53.0200000
 -19.8780000 -31.1890000  53.6040000 -19.6830000 -29.3590000  52.2920000
 -20.1870000 -28.5950000  51.8630000 -18.2550000 -29.5180000  51.9460000
 -17.7220000 -29.8780000  52.8260000 -18.1240000 -30.5650000  50.8130000
 -18.7800000 -31.4110000  51.0160000 -18.4480000 -30.1110000  49.8760000
 -16.6980000 -31.1140000  50.6300000 -15.9790000 -30.2950000  50.6350000
 -16.4690000 -31.7910000  51.4530000 -16.5740000 -31.8580000  49.2910000
 -17.3580000 -32.6140000  49.2320000 -16.7300000 -31.1520000  48.4750000
 -15.2210000 -32.5580000  49.0910000 -15.1380000 -33.3730000  49.8110000
 -15.2170000 -33.0010000  48.0950000 -14.0610000 -31.6380000  49.2380000
 -13.9270000 -31.4020000  50.2110000 -13.2150000 -32.0900000  48.9210000
 -14.1750000 -30.7910000  48.7000000 -17.6350000 -28.1860000  51.5100000
 -18.3060000 -27.3870000  50.8590000 -16.3540000 -27.9810000  51.8080000
 -15.8760000 -28.6860000  52.3500000 -15.5340000 -26.8830000  51.2880000
 -16.1230000 -26.2920000  50.5880000 -15.1500000 -25.9760000  52.4610000
 -14.5490000 -25.1380000  52.1050000 -16.0500000 -25.5890000  52.9390000
 -14.5750000 -26.5350000  53.1980000 -14.3020000 -27.4240000  50.5270000
 -13.7230000 -28.4400000  50.9130000 -13.9160000 -26.7690000  49.4260000
 -14.4640000 -25.9730000  49.1320000 -12.8490000 -27.2270000  48.5090000
 -12.1580000 -27.8740000  49.0500000 -13.4570000 -28.0350000  47.3440000
 -14.0480000 -27.3710000  46.7140000 -12.3980000 -28.7090000  46.4780000
 -11.7730000 -29.3530000  47.0960000 -12.8850000 -29.3120000  45.7120000
 -11.7780000 -27.9590000  45.9860000 -14.2980000 -29.0640000  47.8280000
 -15.1580000 -28.6630000  47.9740000 -12.0660000 -26.0400000  47.9380000
 -12.6770000 -25.1000000  47.4300000 -10.7280000 -26.0490000  47.9960000
 -10.2640000 -26.8540000  48.3920000  -9.9030000 -25.0010000  47.3670000
 -10.3250000 -24.0330000  47.6370000  -8.4700000 -25.0680000  47.9280000
  -8.5110000 -24.9690000  49.0120000  -8.0700000 -26.0530000  47.6880000
  -7.4910000 -24.0190000  47.3630000  -7.4320000 -24.1170000  46.2800000
  -7.9110000 -22.5900000  47.7110000  -8.0410000 -22.4850000  48.7880000
  -7.1480000 -21.8890000  47.3730000  -8.8460000 -22.3400000  47.2080000
  -6.0980000 -24.2430000  47.9420000  -5.7500000 -25.2430000  47.6830000
  -5.4020000 -23.5150000  47.5260000  -6.1220000 -24.1430000  49.0270000
  -9.9310000 -25.1290000  45.8320000  -9.5660000 -26.1720000  45.2860000
 -10.3460000 -24.0690000  45.1300000 -10.6060000 -23.2330000  45.6340000
 -10.6770000 -24.1170000  43.6980000 -11.4530000 -24.8730000  43.5730000
 -11.2640000 -22.7480000  43.2990000 -12.0770000 -22.5020000  43.9820000
 -10.4840000 -21.9970000  43.4240000 -11.8020000 -22.6580000  41.8580000
 -11.0200000 -22.9340000  41.1510000 -13.0180000 -23.5620000  41.6520000
 -13.7800000 -23.3460000  42.4000000 -13.4390000 -23.3970000  40.6600000
 -12.7240000 -24.6090000  41.7290000 -12.2320000 -21.2240000  41.5530000
 -11.4050000 -20.5430000  41.7530000 -12.4960000 -21.1400000  40.4990000
 -13.0900000 -20.9460000  42.1650000  -9.5000000 -24.5280000  42.7880000
  -9.7000000 -25.2430000  41.8050000  -8.2770000 -24.0950000  43.1110000
  -8.1700000 -23.5110000  43.9280000  -7.0680000 -24.3220000  42.2920000
  -7.3460000 -24.2780000  41.2390000  -6.0330000 -23.2120000  42.5380000
  -5.0660000 -23.5210000  42.1430000  -6.4330000 -21.9170000  41.8420000
  -7.4340000 -21.6140000  42.1500000  -5.7160000 -21.1330000  42.0880000
  -6.4290000 -22.0680000  40.7630000  -5.9030000 -22.9590000  43.9230000
  -5.0220000 -22.6080000  44.0680000  -6.3880000 -25.6810000  42.4960000
  -5.5280000 -26.0420000  41.6900000  -6.7650000 -26.4570000  43.5210000
  -7.4470000 -26.0920000  44.1700000  -6.1230000 -27.7560000  43.8360000
  -5.4330000 -28.0350000  43.0400000  -5.3050000 -27.6700000  45.1380000
  -4.7690000 -28.6100000  45.2690000  -4.2860000 -26.5320000  45.1460000
  -4.7900000 -25.5660000  45.1560000  -3.6600000 -26.6140000  46.0350000
  -3.6520000 -26.6020000  44.2620000  -6.1550000 -27.4900000  46.2430000
  -5.5890000 -27.5410000  47.0170000  -7.1070000 -28.9190000  43.9840000
  -6.7090000 -30.0760000  43.8260000  -8.3830000 -28.6440000  44.2740000
  -8.6520000 -27.6810000  44.4180000  -9.3930000 -29.6670000  44.5520000
  -9.3320000 -30.4540000  43.8000000 -10.3830000 -29.2160000  44.4800000
  -9.2580000 -30.3160000  45.9390000  -9.9620000 -31.2870000  46.2230000
  -8.3630000 -29.8180000  46.8040000  -7.8220000 -29.0100000  46.5310000
  -8.1560000 -30.3660000  48.1520000  -8.0870000 -31.4490000  48.0480000
  -6.8120000 -29.9020000  48.7440000  -6.5200000 -30.5980000  49.5310000
  -6.0590000 -29.9630000  47.9580000  -6.8260000 -28.4900000  49.3470000
  -7.4100000 -27.8380000  48.6970000  -7.3200000 -28.5190000  50.3180000
  -5.4070000 -27.9040000  49.4800000  -4.7100000 -27.7670000  48.4450000
  -4.9920000 -27.5640000  50.6150000  -9.3450000 -30.0720000  49.0840000
  -9.9250000 -28.9810000  49.0610000  -9.7220000 -31.0570000  49.9020000
  -9.2140000 -31.9300000  49.8770000 -10.7190000 -30.8850000  50.9590000
 -11.6320000 -30.5330000  50.4790000 -11.0030000 -32.2370000  51.6280000
 -11.1060000 -33.0010000  50.8570000 -10.1620000 -32.5110000  52.2660000
 -12.3050000 -32.2090000  52.4410000 -13.3120000 -31.6740000  51.9180000
 -12.3260000 -32.7520000  53.5710000 -10.3100000 -29.8260000  52.0020000
  -9.1510000 -29.7700000  52.4270000 -11.2770000 -29.0250000  52.4520000
 -12.2030000 -29.1370000  52.0640000 -11.1080000 -27.9470000  53.4340000
 -10.0940000 -27.9680000  53.8330000 -11.3350000 -26.5670000  52.7710000
 -12.3130000 -26.5830000  52.2900000 -11.3780000 -25.4520000  53.8250000
 -10.4780000 -25.4750000  54.4390000 -11.4510000 -24.4810000  53.3340000
 -12.2480000 -25.5650000  54.4710000 -10.3020000 -26.2300000  51.6690000
 -10.2940000 -27.0310000  50.9300000 -10.6340000 -25.3290000  51.1540000
  -8.8620000 -25.9960000  52.1480000  -8.4930000 -26.8660000  52.6910000
  -8.2190000 -25.8280000  51.2840000  -8.8140000 -25.1160000  52.7900000
 -12.0750000 -28.1890000  54.6010000 -13.2830000 -28.3190000  54.4030000
 -11.5380000 -28.3140000  55.8180000 -10.5330000 -28.2750000  55.9110000
 -12.3190000 -28.5740000  57.0410000 -12.8100000 -29.5400000  56.9200000
 -11.3840000 -28.6720000  58.2600000 -10.9330000 -27.6960000  58.4420000
 -12.0930000 -29.1390000  59.5310000 -12.5830000 -30.0970000  59.3570000
 -11.3700000 -29.2470000  60.3400000 -12.8350000 -28.4030000  59.8380000
 -10.3570000 -29.6060000  58.0030000  -9.8230000 -29.6750000  58.7980000
 -13.4040000 -27.5120000  57.2880000 -13.1640000 -26.3110000  57.1270000
 -14.5830000 -27.9550000  57.7420000 -14.6980000 -28.9520000  57.8580000
 -15.7440000 -27.1140000  58.0870000 -15.4270000 -26.0730000  58.1480000
 -16.8620000 -27.2090000  57.0230000 -17.2670000 -28.2200000  57.0150000
 -18.0060000 -26.2370000  57.3410000 -17.6320000 -25.2140000  57.3960000
 -18.7690000 -26.2980000  56.5650000 -18.4740000 -26.5030000  58.2890000
 -16.3520000 -26.9010000  55.6120000 -15.6880000 -27.6990000  55.2820000
 -17.1870000 -26.8480000  54.9130000 -15.8060000 -25.9580000  55.6040000
 -16.2840000 -27.5380000  59.4550000 -16.6470000 -28.7000000  59.6460000
 -16.3260000 -26.6060000  60.4120000 -15.9720000 -25.6860000  60.1910000
 -16.7360000 -26.8550000  61.8070000 -17.0490000 -27.8920000  61.9260000
 -15.5570000 -26.6080000  62.7750000 -15.2490000 -25.5640000  62.7090000
 -15.9430000 -26.9030000  64.2290000 -16.2780000 -27.9360000  64.3270000
 -15.0830000 -26.7440000  64.8790000 -16.7380000 -26.2320000  64.5550000
 -14.3430000 -27.4770000  62.4260000 -13.9460000 -27.1820000  61.4550000
 -13.5570000 -27.3350000  63.1680000 -14.6280000 -28.5290000  62.4000000
 -17.9170000 -25.9540000  62.1610000 -17.7700000 -24.7370000  62.2170000
 -19.1010000 -26.5260000  62.3790000 -19.1750000 -27.5310000  62.3030000
 -20.2750000 -25.7840000  62.8650000 -20.5050000 -24.9930000  62.1510000
 -21.4830000 -26.7310000  62.9150000 -21.5880000 -27.2220000  61.9480000
 -21.3000000 -27.4950000  63.6700000 -22.7960000 -26.0050000  63.2300000
 -22.6980000 -25.4760000  64.1780000 -22.9890000 -25.2720000  62.4470000
 -23.9660000 -27.0010000  63.3320000 -23.9660000 -27.8510000  64.2570000
 -24.8990000 -26.9510000  62.4920000 -20.0020000 -25.1260000  64.2340000
 -19.4800000 -25.7690000  65.1510000 -20.3740000 -23.8520000  64.3840000
 -20.7890000 -23.3820000  63.5920000 -20.1220000 -23.0240000  65.5800000
 -19.5540000 -23.5920000  66.3180000 -19.2980000 -21.7750000  65.2170000
 -19.2480000 -21.1210000  66.0870000 -17.8750000 -22.1030000  64.7790000
 -17.8860000 -22.6710000  63.8490000 -17.3350000 -21.1690000  64.6250000
 -17.3730000 -22.6830000  65.5530000 -19.9050000 -21.0740000  64.1620000
 -19.7220000 -20.1400000  64.2860000 -21.4050000 -22.5490000  66.2680000
 -21.3980000 -22.3530000  67.4860000 -22.5160000 -22.4130000  65.5330000
 -22.4460000 -22.5970000  64.5430000 -23.8440000 -22.0250000  66.0590000
 -23.9250000 -22.3850000  67.0850000 -24.0610000 -20.4890000  66.0910000
 -24.8730000 -20.2860000  66.7900000 -22.8700000 -19.6420000  66.5340000
 -22.0290000 -19.7670000  65.8520000 -23.1540000 -18.5890000  66.5550000
 -22.5670000 -19.9350000  67.5400000 -24.4760000 -20.0210000  64.8270000
 -24.5320000 -19.0640000  64.8790000 -24.9780000 -22.6920000  65.2610000
 -24.7340000 -23.4640000  64.3300000 -26.2330000 -22.3450000  65.5860000
 -26.3530000 -21.7770000  66.4120000 -27.4530000 -22.7010000  64.8350000
 -27.6130000 -23.7740000  64.9420000 -28.6650000 -21.9860000  65.4690000
 -29.5600000 -22.2390000  64.9000000 -28.7990000 -22.3700000  66.4810000
 -28.5330000 -20.4510000  65.5430000 -27.6580000 -20.1840000  66.1360000
 -28.4120000 -20.0420000  64.5400000 -29.7630000 -19.8090000  66.1920000
 -30.6370000 -20.0150000  65.5740000 -29.9130000 -20.2520000  67.1760000
 -29.5850000 -18.3500000  66.3350000 -28.6980000 -17.9630000  66.0440000
 -30.4550000 -17.4940000  66.8410000 -31.6260000 -17.8720000  67.2690000
 -31.8740000 -18.8490000  67.2170000 -32.2770000 -17.2020000  67.6540000
 -30.1640000 -16.2280000  66.9280000 -29.2660000 -15.8880000  66.6140000
 -30.8300000 -15.5760000  67.3170000 -27.3790000 -22.4460000  63.3170000
 -27.9810000 -23.2090000  62.5610000 -26.6620000 -21.4040000  62.8710000
 -26.1780000 -20.8450000  63.5590000 -26.5430000 -21.0130000  61.4510000
 -26.7650000 -21.8730000  60.8200000 -27.5900000 -19.9170000  61.1420000
 -27.4300000 -19.0680000  61.8060000 -27.4520000 -19.5630000  60.1200000
 -29.0320000 -20.3920000  61.2350000 -29.4740000 -21.2790000  60.5180000
 -29.8300000 -19.7970000  62.0960000 -29.5000000 -19.0220000  62.6530000
 -30.7940000 -20.0960000  62.1380000 -25.1180000 -20.5580000  61.0440000
 -24.9500000 -19.8870000  60.0260000 -24.0790000 -20.9080000  61.8110000
 -24.2440000 -21.4950000  62.6160000 -22.6950000 -20.4610000  61.5810000
 -22.6400000 -19.9860000  60.6020000 -22.3250000 -19.3920000  62.6230000
 -23.1370000 -18.6700000  62.7030000 -22.2170000 -19.8950000  63.5840000
 -21.0330000 -18.6150000  62.3380000 -20.2460000 -19.2890000  62.0000000
 -21.2160000 -17.8980000  61.5380000 -20.5500000 -17.8950000  63.6130000
 -21.0380000 -16.7760000  63.9030000 -19.6810000 -18.4500000  64.3310000
 -21.6930000 -21.6310000  61.5770000 -21.8600000 -22.6180000  62.3000000
 -20.6460000 -21.5010000  60.7560000 -20.6210000 -20.6790000  60.1690000
 -19.5450000 -22.4470000  60.5840000 -19.5130000 -23.1210000  61.4400000
 -19.7370000 -23.2690000  59.2930000 -18.9430000 -24.0140000  59.2470000
 -19.5970000 -22.6080000  58.4370000 -21.0740000 -23.9700000  59.1160000
 -22.1960000 -23.2400000  58.6710000 -22.1070000 -22.1830000  58.4710000
 -23.4380000 -23.8800000  58.5040000 -24.3020000 -23.3120000  58.1910000
 -23.5510000 -25.2670000  58.7370000 -24.7440000 -25.8910000  58.5510000
 -25.4770000 -25.3120000  58.7730000 -22.4210000 -26.0060000  59.1480000
 -22.5140000 -27.0680000  59.3200000 -21.1880000 -25.3550000  59.3500000
 -20.3300000 -25.9240000  59.6760000 -18.2020000 -21.7030000  60.4870000
 -18.1230000 -20.6360000  59.8790000 -17.1290000 -22.2870000  61.0210000
 -17.2730000 -23.1500000  61.5260000 -15.7480000 -21.9320000  60.6900000
 -15.7030000 -20.9040000  60.3290000 -14.8540000 -22.0500000  61.9410000
 -15.0820000 -22.9790000  62.4630000 -13.8090000 -22.0940000  61.6330000
 -14.9820000 -20.8810000  62.9060000 -15.3470000 -19.7700000  62.5500000
 -14.6390000 -21.0860000  64.1580000 -14.3510000 -22.0020000  64.4710000
 -14.7170000 -20.3150000  64.8060000 -15.2410000 -22.8410000  59.5590000
 -15.0600000 -24.0440000  59.7550000 -15.0150000 -22.2690000  58.3760000
 -15.2090000 -21.2820000  58.2800000 -14.2850000 -22.9090000  57.2690000
 -14.4240000 -23.9890000  57.3110000 -14.8200000 -22.4150000  55.9100000
 -14.6890000 -21.3350000  55.8460000 -14.0800000 -23.0600000  54.7350000
 -14.1820000 -24.1450000  54.7790000 -14.5020000 -22.6980000  53.7980000
 -13.0230000 -22.7930000  54.7590000 -16.3150000 -22.7220000  55.7470000
 -16.8950000 -22.2030000  56.5100000 -16.6560000 -22.3810000  54.7690000
 -16.4940000 -23.7940000  55.8280000 -12.7920000 -22.6060000  57.4360000
 -12.4020000 -21.4390000  57.4530000 -11.9430000 -23.6140000  57.6310000
 -12.2910000 -24.5620000  57.6330000 -10.4930000 -23.3960000  57.7880000
 -10.3350000 -22.7380000  58.6430000  -9.7720000 -24.7160000  58.0800000
  -9.9260000 -25.4100000  57.2540000  -8.7050000 -24.5220000  58.1860000
 -10.2670000 -25.2830000  59.2820000  -9.6080000 -25.8920000  59.6260000
  -9.8580000 -22.7290000  56.5560000 -10.2340000 -23.0220000  55.4190000
  -8.8570000 -21.8650000  56.7530000  -8.6100000 -21.6270000  57.7030000
  -7.9290000 -21.4770000  55.6660000  -8.5470000 -21.0920000  54.8540000
  -6.9700000 -20.3410000  56.0810000  -6.3930000 -20.0500000  55.2020000
  -7.7370000 -19.0950000  56.5400000  -8.3690000 -19.3160000  57.4000000
  -7.0320000 -18.3080000  56.8100000  -8.3620000 -18.7310000  55.7240000
  -5.9640000 -20.7630000  57.1550000  -5.2800000 -21.5100000  56.7530000
  -5.3770000 -19.9040000  57.4800000  -6.4860000 -21.1930000  58.0100000
  -7.1500000 -22.7030000  55.1290000  -6.9780000 -23.6790000  55.8690000
  -6.6560000 -22.6850000  53.8720000  -6.9200000 -21.6920000  52.8390000
  -6.2610000 -20.8350000  52.9780000  -7.9630000 -21.3770000  52.8370000
  -6.5930000 -22.3810000  51.5170000  -6.3130000 -21.6660000  50.7440000
  -7.4410000 -22.9880000  51.1980000  -5.4270000 -23.2830000  51.9100000
  -4.5130000 -22.6900000  51.9370000  -5.3140000 -24.1260000  51.2290000
  -5.8030000 -23.7450000  53.3220000  -6.3990000 -24.6550000  53.2490000
  -4.5500000 -24.0320000  54.1680000  -3.9930000 -23.1310000  54.8020000
  -4.0770000 -25.2880000  54.1430000  -4.5760000 -25.9630000  53.5820000
  -2.9200000 -25.7710000  54.9310000  -3.1110000 -25.5760000  55.9860000
  -2.7490000 -27.2880000  54.7290000  -2.6230000 -27.4900000  53.6650000
  -1.8380000 -27.6110000  55.2330000  -3.9140000 -28.1450000  55.2550000
  -4.8430000 -27.8480000  54.7680000  -3.7120000 -29.1830000  54.9880000
  -4.0850000 -28.0590000  56.7790000  -3.1330000 -28.2870000  57.2580000
  -4.3960000 -27.0520000  57.0590000  -5.1450000 -29.0620000  57.2500000
  -6.0990000 -28.8120000  56.7850000  -4.8590000 -30.0580000  56.9100000
  -5.2800000 -29.0560000  58.7320000  -5.5590000 -28.1470000  59.0740000
  -5.9720000 -29.7250000  59.0360000  -4.4080000 -29.3010000  59.1800000
  -1.6060000 -25.0360000  54.6160000  -0.7470000 -24.9110000  55.4920000
  -1.4750000 -24.5160000  53.3900000  -2.2210000 -24.7180000  52.7400000
  -0.4060000 -23.6090000  52.9330000   0.2000000 -23.3030000  53.7860000
   0.4950000 -24.3810000  51.9430000   0.6440000 -25.3870000  52.3340000
  -0.0170000 -24.4850000  50.9860000   1.8990000 -23.7960000  51.7050000
   2.4370000 -23.7640000  52.6520000   2.4290000 -24.4780000  51.0410000
   1.9140000 -22.3970000  51.0740000   1.2300000 -22.3760000  50.2250000
   1.6000000 -21.6670000  51.8190000   3.3220000 -22.0230000  50.5990000
   4.0100000 -22.1010000  51.4400000   3.6380000 -22.7390000  49.8400000
   3.3530000 -20.6430000  50.0440000   3.0900000 -19.9610000  50.7410000
   4.2780000 -20.4050000  49.7160000   2.7150000 -20.5450000  49.2670000
  -1.0600000 -22.3640000  52.3140000  -1.8300000 -22.4830000  51.3610000
  -0.7800000 -21.1810000  52.8680000  -0.1620000 -21.1700000  53.6660000
  -1.3170000 -19.8920000  52.4010000  -2.3920000 -19.8870000  52.5770000
  -0.6980000 -18.7900000  53.2900000  -0.9040000 -19.0300000  54.3330000
   0.3830000 -18.7770000  53.1580000  -1.2160000 -17.3790000  53.0280000
  -1.7830000 -17.0570000  51.9950000  -1.0250000 -16.4800000  53.9650000
  -0.5270000 -16.7200000  54.8110000  -1.3360000 -15.5350000  53.7890000
  -1.0190000 -19.6650000  50.8920000   0.1540000 -19.7160000  50.5050000
  -2.0250000 -19.3610000  50.0410000  -3.4530000 -19.5210000  50.3010000
  -3.8670000 -18.5860000  50.6770000  -3.6620000 -20.3360000  50.9950000
  -4.0700000 -19.8570000  48.9480000  -5.1270000 -19.5920000  48.9060000
  -3.9310000 -20.9160000  48.7310000  -3.2220000 -19.0140000  48.0010000
  -3.5630000 -17.9790000  48.0360000  -3.2570000 -19.3950000  46.9800000
  -1.8180000 -19.1320000  48.6060000  -1.3380000 -20.0170000  48.1880000
  -0.9580000 -17.9050000  48.2520000  -0.3690000 -17.8670000  47.1700000
  -0.8690000 -16.9030000  49.1390000  -1.3610000 -16.9970000  50.0160000
  -0.0420000 -15.6990000  48.9460000   0.9350000 -15.9890000  48.5600000
   0.1130000 -15.2230000  49.9150000  -0.6360000 -14.6440000  47.9960000
   0.0290000 -13.6660000  47.6520000  -1.8910000 -14.8290000  47.5880000
  -2.3700000 -15.6460000  47.9390000  -2.7030000 -13.9440000  46.7410000
  -2.4730000 -12.9100000  46.9970000  -2.3620000 -14.1680000  45.2510000
  -2.8690000 -13.4000000  44.6660000  -1.2890000 -14.0300000  45.1160000
  -2.7600000 -15.5470000  44.6890000  -2.2730000 -16.3220000  45.2810000
  -3.8370000 -15.6750000  44.7890000  -2.3790000 -15.7360000  43.2010000
  -1.9610000 -14.7660000  42.5190000  -2.4890000 -16.8800000  42.6940000
  -4.1990000 -14.2010000  47.0380000  -4.5140000 -15.2340000  47.6430000
  -5.1320000 -13.3020000  46.6580000  -4.9170000 -11.9890000  46.0680000
  -4.7180000 -12.0960000  45.0010000  -4.1040000 -11.4510000  46.5540000
  -6.2330000 -11.2390000  46.2670000  -6.3900000 -10.4870000  45.4940000
  -6.2510000 -10.7870000  47.2590000  -7.2780000 -12.3510000  46.1870000
  -7.5130000 -12.5470000  45.1410000  -8.1860000 -12.1000000  46.7360000
  -6.5660000 -13.5540000  46.8110000  -6.7860000 -13.5930000  47.8780000
  -6.9900000 -14.8730000  46.1470000  -6.5210000 -15.1870000  45.0510000
  -7.8700000 -15.6450000  46.7870000  -8.2750000 -15.2990000  47.6460000
  -8.1540000 -17.0360000  46.4000000  -7.9880000 -17.1360000  45.3270000
  -7.1700000 -17.9750000  47.1210000  -6.1520000 -17.6200000  46.9550000
  -7.2310000 -18.9610000  46.6610000  -7.4050000 -18.1300000  48.6140000
  -8.2420000 -19.1590000  49.0900000  -8.7170000 -19.8390000  48.3980000
  -8.4600000 -19.3100000  50.4710000  -9.1050000 -20.0980000  50.8300000
  -7.8290000 -18.4410000  51.3860000  -8.0550000 -18.5830000  52.7170000
  -8.8290000 -19.1250000  52.8850000  -6.9760000 -17.4230000  50.9130000
  -6.4930000 -16.7640000  51.6200000  -6.7710000 -17.2650000  49.5290000
  -6.1210000 -16.4820000  49.1690000  -9.6120000 -17.4450000  46.6560000
 -10.3770000 -16.7010000  47.2700000 -10.0090000 -18.6330000  46.1770000
  -9.3320000 -19.2020000  45.6880000 -11.4040000 -19.1080000  46.2100000
 -11.9970000 -18.4140000  46.8040000 -12.0300000 -19.1230000  44.8040000
 -11.4710000 -19.8060000  44.1640000 -13.4880000 -19.5920000  44.8650000
 -14.0420000 -18.9890000  45.5840000 -13.9440000 -19.4960000  43.8800000
 -13.5420000 -20.6430000  45.1500000 -12.0110000 -17.7320000  44.1650000
 -10.9860000 -17.3790000  44.0480000 -12.4760000 -17.7660000  43.1800000
 -12.5540000 -17.0350000  44.8020000 -11.5350000 -20.4880000  46.8490000
 -11.0480000 -21.4790000  46.3080000 -12.2530000 -20.5660000  47.9690000
 -12.6050000 -19.7010000  48.3550000 -12.8540000 -21.8170000  48.4590000
 -12.2760000 -22.6630000  48.0880000 -12.8000000 -21.8770000  50.0020000
 -13.1350000 -20.9200000  50.4010000 -13.7120000 -22.9830000  50.5600000
 -13.4540000 -23.9440000  50.1150000 -13.6000000 -23.0500000  51.6420000
 -14.7580000 -22.7540000  50.3580000 -11.3450000 -22.1310000  50.4570000
 -11.0960000 -23.1830000  50.3170000 -10.6590000 -21.5500000  49.8400000
 -11.0920000 -21.7370000  51.9170000 -11.7580000 -22.2760000  52.5910000
 -10.0630000 -21.9780000  52.1820000 -11.2530000 -20.6650000  52.0360000
 -14.2750000 -21.9490000  47.8880000 -15.1390000 -21.1210000  48.1700000
 -14.5290000 -22.9720000  47.0720000 -13.7930000 -23.6470000  46.9180000
 -15.8870000 -23.3600000  46.6780000 -16.4710000 -22.4600000  46.4890000
 -15.8320000 -24.1640000  45.3650000 -15.3670000 -23.5400000  44.6010000
 -15.2130000 -25.0490000  45.5100000 -17.2270000 -24.6030000  44.8770000
 -17.6700000 -25.2710000  45.6150000 -17.8700000 -23.7290000  44.7800000
 -17.2060000 -25.3340000  43.5320000 -16.2980000 -25.2150000  42.7200000
 -18.2170000 -26.1250000  43.2390000 -18.9760000 -26.2600000  43.8920000
 -18.2000000 -26.6120000  42.3550000 -16.5700000 -24.1440000  47.8120000
 -15.9700000 -25.0490000  48.3930000 -17.8350000 -23.8320000  48.0920000
 -18.2430000 -23.0380000  47.6190000 -18.7130000 -24.5710000  49.0000000
 -18.1190000 -25.2660000  49.5930000 -19.4330000 -23.6030000  49.9600000
 -20.0840000 -22.9550000  49.3730000 -20.0680000 -24.1980000  50.6160000
 -18.5440000 -22.7050000  50.8370000 -17.9820000 -22.0130000  50.2100000
 -19.4440000 -21.9020000  51.7790000 -20.0080000 -22.5730000  52.4260000
 -18.8390000 -21.2400000  52.3990000 -20.1370000 -21.2950000  51.1970000
 -17.5640000 -23.5260000  51.6750000 -16.8310000 -23.9970000  51.0200000
 -17.0310000 -22.8760000  52.3680000 -18.0980000 -24.2910000  52.2390000
 -19.7620000 -25.3790000  48.2220000 -20.4090000 -24.8590000  47.3070000
 -19.9740000 -26.6300000  48.6420000 -19.3810000 -26.9650000  49.3880000
 -21.1910000 -27.4080000  48.3630000 -21.6120000 -27.1030000  47.4040000
 -20.8400000 -28.9040000  48.2860000 -20.1080000 -29.0540000  47.4920000
 -20.3940000 -29.2100000  49.2320000 -22.0650000 -29.7950000  48.0110000
 -22.7780000 -29.6930000  48.8300000 -22.5460000 -29.4720000  47.0880000
 -21.6510000 -31.2700000  47.8820000 -21.1750000 -31.4240000  46.9130000
 -20.9170000 -31.5030000  48.6540000 -22.8170000 -32.2590000  48.0480000
 -22.4280000 -33.2670000  47.9100000 -23.1860000 -32.1930000  49.0710000
 -23.9360000 -32.0210000  47.0930000 -23.6200000 -32.0630000  46.1350000
 -24.6530000 -32.7230000  47.2070000 -24.3770000 -31.1260000  47.2490000
 -22.2030000 -27.1120000  49.4700000 -21.9130000 -27.3440000  50.6440000
 -23.3760000 -26.6020000  49.1060000 -23.5540000 -26.4660000  48.1210000
 -24.4320000 -26.1980000  50.0530000 -24.1470000 -26.5350000  51.0500000
 -24.5890000 -24.6620000  50.1200000 -25.3480000 -24.4350000  50.8690000
 -23.2850000 -23.9870000  50.5660000 -22.5150000 -24.1040000  49.8030000
 -23.4580000 -22.9230000  50.7270000 -22.9410000 -24.4320000  51.5000000
 -25.0340000 -24.0220000  48.8010000 -25.9900000 -24.4360000  48.4810000
 -25.1580000 -22.9480000  48.9400000 -24.2890000 -24.1920000  48.0230000
 -25.7650000 -26.8800000  49.7300000 -26.0290000 -27.2340000  48.5770000
 -26.6020000 -27.0680000  50.7570000 -26.3040000 -26.7400000  51.6650000
 -27.9250000 -27.7150000  50.6710000 -28.1600000 -27.9110000  49.6250000
 -27.8780000 -29.0580000  51.4290000 -26.9460000 -29.5680000  51.1850000
 -27.8860000 -28.8690000  52.5030000 -29.0530000 -29.9810000  51.0600000
 -29.9900000 -29.4600000  51.2550000 -29.0070000 -30.2180000  49.9970000
 -29.0920000 -31.2860000  51.8650000 -29.0500000 -31.0520000  52.9290000
 -30.0510000 -31.7620000  51.6590000 -28.0000000 -32.2170000  51.5160000
 -27.2040000 -31.8450000  51.0180000 -27.9720000 -33.5160000  51.7490000
 -28.9730000 -34.1560000  52.2900000 -29.8030000 -33.6440000  52.5540000
 -28.9240000 -35.1510000  52.4530000 -26.9180000 -34.2100000  51.4460000
 -26.0740000 -33.7220000  51.1840000 -26.8840000 -35.2040000  51.6240000
 -29.0100000 -26.7950000  51.2370000 -28.7490000 -26.0530000  52.1820000
 -30.2130000 -26.8640000  50.6680000 -30.3360000 -27.5020000  49.8950000
 -31.3960000 -26.1220000  51.1050000 -31.1270000 -25.4600000  51.9280000
 -31.8810000 -25.2570000  49.9370000 -32.7250000 -24.6480000  50.2590000
 -31.0780000 -24.6010000  49.6000000 -32.1950000 -25.8890000  49.1060000
 -32.5040000 -27.0730000  51.6010000 -32.8880000 -28.0120000  50.8940000
 -33.0110000 -26.8260000  52.8140000 -32.6100000 -26.0640000  53.3420000
 -34.1410000 -27.5390000  53.4220000 -33.9180000 -28.6060000  53.4170000
 -34.2670000 -27.0840000  54.8820000 -35.0790000 -27.6290000  55.3640000
 -33.3400000 -27.2840000  55.4190000 -34.4850000 -26.0170000  54.9240000
 -35.4640000 -27.3520000  52.6440000 -36.1910000 -28.3560000  52.4600000
 -35.7840000 -26.2080000  52.2380000
