Cpptraj Generated Restart                                                       
88628
  97.5360000 126.1700000  50.5670000  97.3830000 126.8900000  49.8420000
  96.8490000 125.5080000  50.2700000  97.3640000 126.5850000  51.4920000
  98.8760000 125.5890000  50.4690000  99.5970000 126.3950000  50.4430000
  99.2530000 124.6900000  51.6550000  98.5470000 123.8790000  51.7610000
 100.2780000 124.2910000  51.4700000  99.2480000 125.4570000  53.0100000
  99.8130000 125.0850000  53.8750000  99.7070000 126.4390000  52.9140000
  97.5950000 125.6230000  53.7390000  98.0270000 126.8600000  54.9760000
  99.0740000 126.8430000  55.1330000  97.7940000 127.8680000  54.6410000
  97.4120000 126.6090000  55.8480000  98.9350000 124.8200000  49.1240000
  98.3060000 125.3120000  48.2170000  99.4960000 123.6260000  49.0350000
 100.0010000 123.2980000  49.8080000  99.2380000 122.6730000  47.9300000
  99.1630000 123.0550000  46.9190000 100.5390000 121.8310000  47.8590000
 101.4450000 122.5080000  47.8580000 100.4640000 121.2580000  48.7560000
 100.8020000 120.7870000  46.7310000 101.4130000 121.4090000  46.0560000
 101.3790000 119.9090000  47.0700000  99.6510000 120.2080000  45.9780000
  99.3700000 119.0110000  46.1300000  98.9340000 121.0080000  45.3420000
  97.8530000 121.9390000  48.2450000  96.7850000 122.5280000  47.9730000
  97.8800000 120.7030000  48.7560000  98.7780000 120.4310000  49.0830000
  96.7160000 119.7400000  48.9180000  96.4700000 119.5500000  47.9330000
  97.0210000 118.3630000  49.6140000  96.6580000 118.5250000  50.6310000
  96.5340000 117.5420000  49.0570000  98.4940000 118.0510000  49.7280000
  99.0710000 117.9530000  50.7910000  99.2440000 118.1160000  48.5950000
 100.1020000 117.6550000  48.6160000  98.8880000 118.2690000  47.6540000
  95.5140000 120.4970000  49.5150000  94.3830000 120.1330000  49.2550000
  95.7260000 121.5840000  50.2560000  96.6910000 121.8020000  50.3220000
  94.7870000 122.5620000  50.7070000  93.8290000 122.1150000  50.8890000
  95.2420000 123.1750000  52.0230000  96.2830000 123.6410000  51.9210000
  94.0970000 124.2190000  52.4150000  94.1760000 125.1990000  51.9240000
  93.1660000 123.7910000  52.2120000  94.2260000 124.5080000  53.4840000
  95.3270000 122.2000000  53.2110000  95.2820000 122.7340000  54.1450000
  94.5700000 121.3780000  53.1830000  96.7030000 121.5010000  53.2370000
  97.5000000 122.2410000  53.1340000  96.8800000 120.9710000  54.1630000
  96.7320000 120.7900000  52.4360000  94.5350000 123.6080000  49.6280000
  94.9430000 124.7920000  49.6880000  93.8460000 123.0570000  48.5740000
  93.3400000 122.2000000  48.8100000  93.6090000 123.5510000  47.1940000
  92.6760000 124.0070000  47.2780000  94.4600000 124.5770000  46.5620000
  95.5040000 124.2920000  46.4360000  93.7950000 124.8970000  45.2130000
  94.2670000 125.6810000  44.6570000  93.8140000 123.9510000  44.5650000
  92.7310000 125.0790000  45.4060000  94.4570000 125.7780000  47.3260000
  94.7610000 125.5810000  48.2540000  93.5200000 122.2870000  46.3620000
  92.4050000 121.7800000  46.2230000  94.6310000 121.7570000  45.8790000
  95.5830000 122.1170000  46.0620000  94.7060000 120.7540000  44.8270000
  94.1110000 121.1210000  44.0170000  96.1630000 120.6080000  44.3380000
  96.5490000 119.9070000  45.0690000  96.1510000 120.1690000  43.3210000
  96.8510000 121.8240000  44.1540000  97.7440000 121.5510000  44.5840000
  94.1630000 119.3330000  45.1350000  94.0380000 118.5360000  44.1990000
  93.7330000 119.0230000  46.4080000  93.8010000 119.7510000  47.1790000
  93.1900000 117.7170000  46.7760000  93.9900000 116.9970000  46.6000000
  93.0120000 117.7940000  47.8390000  91.8950000 117.3490000  46.1820000
  91.4260000 116.2220000  46.4110000  91.2350000 118.2210000  45.3710000
  91.7220000 119.0640000  45.1840000  89.9770000 117.8780000  44.5440000
  89.2050000 117.4050000  45.2150000  89.3410000 119.1490000  43.9780000
  88.3510000 118.9270000  43.5940000  89.3500000 119.8080000  44.8150000
  90.1000000 119.7920000  42.8430000  89.6410000 119.5680000  41.5250000
  88.7710000 119.0120000  41.2620000  90.3850000 120.1500000  40.4910000
  90.0890000 119.7700000  39.4960000  91.5180000 120.9250000  40.7690000
  92.1470000 121.2690000  40.0020000  91.8290000 121.2450000  42.0570000
  92.7470000 121.7280000  42.2510000  91.2120000 120.5640000  43.1390000
  91.4940000 120.7440000  44.1750000  90.2510000 116.8210000  43.4910000
  89.3440000 116.2560000  42.9040000  91.5290000 116.5630000  43.1520000
  92.2950000 117.1460000  43.5340000  91.9260000 115.5980000  42.0900000
  91.1570000 115.6460000  41.3190000  93.3380000 115.8910000  41.5000000
  94.0340000 115.6790000  42.2160000  93.4890000 115.1680000  40.6600000
  93.5870000 117.3130000  41.0640000  93.2880000 117.9800000  41.8150000
  95.0680000 117.5340000  40.6810000  95.5050000 116.9550000  39.8140000
  95.1500000 118.5610000  40.2270000  95.6200000 117.4090000  41.5580000
  92.7640000 117.3770000  39.7180000  92.8620000 118.3530000  39.3090000
  93.1100000 116.6750000  39.0460000  91.7360000 117.1980000  39.9110000
  91.7950000 114.0770000  42.4990000  91.9420000 113.2020000  41.6140000
  91.6950000 113.7600000  43.7580000  91.6970000 114.5040000  44.4020000
  91.6610000 112.3300000  44.2120000  92.6200000 111.8960000  44.0400000
  91.4640000 112.2940000  45.2710000  90.5700000 111.4390000  43.6040000
  90.8240000 110.2600000  43.3480000  89.3460000 111.9740000  43.3320000
  88.8810000 113.2610000  43.8890000  89.1600000 113.9370000  43.1790000
  89.2870000 113.4320000  44.8240000  87.3560000 113.0850000  43.9920000
  86.8630000 114.0130000  43.9790000  87.0540000 112.4870000  44.8660000
  87.0820000 112.2810000  42.7490000  87.1880000 112.9590000  41.8770000
  86.1420000 111.8290000  42.9150000  88.2280000 111.2790000  42.7480000
  88.0670000 110.4460000  43.4300000  88.5620000 110.6000000  41.4040000
  88.1360000 109.4480000  41.1800000  89.4040000 111.2630000  40.5950000
  89.8800000 112.0730000  40.9590000  89.7570000 110.7520000  39.2700000
  88.8690000 110.8470000  38.6700000  90.7790000 111.7480000  38.6880000
  91.6740000 111.6950000  39.2830000  90.8510000 111.4750000  37.6140000
  90.3870000 113.2510000  38.5670000  90.1340000 113.6520000  39.5320000
  91.6460000 113.9950000  38.0870000  91.9140000 113.7710000  37.1060000
  91.3300000 115.0050000  38.1700000  92.5850000 113.7760000  38.6280000
  89.2020000 113.5470000  37.5600000  88.2980000 113.0190000  37.9380000
  88.9840000 114.6110000  37.6030000  89.3750000 113.3690000  36.4550000
  90.2940000 109.3100000  39.1540000  89.9930000 108.5650000  38.2190000
  91.1380000 109.0070000  40.1880000  91.2840000 109.7550000  40.8880000
  91.6860000 107.6650000  40.5350000  92.1220000 107.2210000  39.6620000
  92.8220000 107.8950000  41.5670000  93.4540000 108.7060000  41.1950000
  92.3760000 108.1450000  42.5300000  93.7630000 106.6820000  41.8790000
  93.1660000 105.8660000  42.1200000  94.3840000 106.3200000  40.5290000
  95.1570000 105.5250000  40.7020000  93.6470000 105.8740000  39.8030000
  94.8810000 107.1320000  40.0090000  94.7490000 106.9560000  42.9790000
  94.2350000 107.1510000  43.9770000  95.5920000 106.1820000  42.9620000
  95.2300000 107.9520000  42.7510000  90.6640000 106.6800000  41.1480000
  90.7580000 105.4760000  40.9700000  89.6790000 107.1870000  41.8920000
  89.6620000 108.2250000  41.8880000  88.6000000 106.3680000  42.4570000
  89.1010000 105.3750000  42.7220000  88.0080000 107.0050000  43.6990000
  87.5240000 108.0170000  43.3850000  86.8360000 106.1740000  44.2560000
  86.1940000 105.9630000  43.4590000  87.2420000 105.2420000  44.6280000
  86.4860000 106.7890000  45.1230000  89.0700000 107.1880000  44.7510000
  88.7500000 107.7310000  45.5600000  89.4300000 106.2400000  45.0660000
  89.9690000 107.6880000  44.3510000  87.6070000 105.9890000  41.3410000
  87.2170000 104.8160000  41.3000000  87.3230000 106.8100000  40.3310000
  87.6430000 107.7820000  40.4540000  86.6330000 106.4410000  39.1170000
  85.6380000 106.2630000  39.4480000  86.3850000 107.7180000  38.1450000
  85.8280000 108.4530000  38.6950000  87.3020000 108.2580000  38.0170000
  85.7350000 107.5170000  36.8290000  86.2930000 106.9210000  36.1560000
  84.4260000 106.8720000  37.1160000  83.8570000 107.0060000  36.2000000
  84.4640000 105.7470000  37.2360000  83.8550000 107.4070000  37.9320000
  85.4130000 108.8880000  36.2500000  85.0570000 108.7610000  35.2000000
  84.6280000 109.3350000  36.8320000  86.2310000 109.5150000  36.1540000
  87.3150000 105.2980000  38.3500000  86.6880000 104.3220000  37.8540000
  88.6310000 105.5160000  38.2300000  89.0680000 106.3990000  38.4960000
  89.5030000 104.4830000  37.6770000  89.1610000 104.3190000  36.6280000
  90.9500000 104.9860000  37.5320000  90.9280000 105.7980000  36.8630000
  91.3780000 105.3810000  38.4870000  91.9080000 103.8500000  36.9970000
  92.9280000 104.1830000  37.1820000  91.8630000 102.9510000  37.6040000
  91.6170000 103.5440000  35.5420000  91.0050000 102.5230000  35.1850000
  91.8780000 104.4430000  34.6550000  92.2590000 105.2610000  35.0330000
  91.6040000 104.2130000  33.7000000  89.3330000 103.1010000  38.3180000
  89.0220000 102.1160000  37.6590000  89.4690000 103.1180000  39.6120000
  89.6480000 104.0470000  40.0430000  89.1700000 101.9690000  40.3740000
  89.8530000 101.2060000  40.0630000  89.4310000 102.2700000  41.8930000
  90.3970000 102.7480000  41.9160000  88.7050000 103.0140000  42.1330000
  89.2610000 101.4240000  42.5320000  87.8040000 101.3860000  40.1710000
  87.7660000 100.1390000  40.0110000  86.7510000 102.2050000  40.3920000
  86.7840000 103.1390000  40.7730000  85.3820000 101.7170000  40.2490000
  85.1670000 100.9990000  41.0900000  84.7140000 102.6200000  40.1610000
  85.0680000 100.9820000  38.8920000  84.2470000 100.1060000  38.8050000
  85.5920000 101.5220000  37.7960000  86.2750000 102.2870000  37.9400000
  85.3850000 100.9700000  36.4610000  84.2870000 100.9330000  36.2720000
  86.0050000 101.9780000  35.4860000  85.4380000 102.9290000  35.5390000
  87.0120000 102.0930000  35.8640000  85.9300000 101.3820000  34.0650000
  84.7390000 101.4980000  33.3120000  83.8650000 101.8430000  33.8520000
  84.7270000 100.9740000  31.9940000  83.9170000 101.1100000  31.3560000
  85.8860000 100.3860000  31.4830000  85.9030000 100.0340000  30.4840000
  87.0150000 100.2970000  32.2620000  87.8220000  99.6760000  31.8590000
  87.0620000 100.7220000  33.6090000  87.9620000 100.5790000  34.2290000
  85.9780000  99.4780000  36.4040000  85.1630000  98.6070000  35.9880000
  87.2090000  99.2520000  36.8510000  87.6600000 100.0810000  37.2120000
  87.8620000  97.9490000  36.9780000  87.6870000  97.3950000  36.1190000
  89.4290000  98.1840000  37.0550000  89.6870000  98.6180000  36.0980000
  89.7440000  98.9320000  37.7190000  90.3460000  96.9320000  37.1430000
  89.8840000  95.6400000  36.7200000  88.7970000  95.5240000  36.3790000
  90.7570000  94.5970000  36.7170000  90.4580000  93.5940000  36.4320000
  92.0450000  94.7310000  37.1900000  92.7440000  93.8840000  37.2050000
  92.5450000  95.9690000  37.6800000  93.5630000  96.1190000  37.9600000
  91.6320000  97.0760000  37.5180000  92.0060000  98.0490000  37.8150000
  87.3100000  97.0530000  38.1760000  87.3320000  95.8080000  38.0570000
  86.6510000  97.5320000  39.2520000  86.5590000  98.5310000  39.3630000
  85.8540000  96.7230000  40.1600000  86.3030000  95.8070000  40.5280000
  85.4830000  97.5940000  41.3920000  86.4530000  97.7940000  41.8290000
  84.9490000  98.5100000  41.1120000  84.7210000  96.9250000  42.5720000
  83.9450000  96.2940000  42.1420000  85.7000000  95.9270000  43.2850000
  86.5020000  96.4830000  43.9010000  85.1700000  95.2680000  43.9350000
  86.0910000  95.3240000  42.5190000  84.0710000  97.8620000  43.5050000
  83.4220000  98.5090000  42.9540000  83.5530000  97.2970000  44.3360000
  84.7630000  98.4970000  43.9770000  84.6800000  96.0950000  39.4700000
  84.4290000  94.8890000  39.6160000  83.9460000  96.9780000  38.8520000
  84.2740000  98.0080000  38.7770000  82.4660000  96.8560000  38.5800000
  82.1760000  96.0390000  39.2620000  81.6780000  98.1490000  38.8740000
  82.1620000  98.8660000  38.3400000  80.6330000  98.0410000  38.5180000
  81.6460000  98.6310000  40.3940000  82.6360000  98.5530000  40.7940000
  81.0610000 100.0820000  40.5040000  81.8500000 100.8960000  40.1600000
  80.1510000 100.2240000  39.9350000  80.8590000 100.3260000  41.5850000
  80.7040000  97.7990000  41.2110000  80.8810000  96.7810000  40.8590000
  81.0120000  97.9290000  42.2790000  79.6280000  97.9870000  40.9640000
  82.1980000  96.3640000  37.1630000  81.4540000  95.4170000  37.0590000
  82.8020000  96.9500000  36.1520000  83.4770000  97.7330000  36.3420000
  82.6430000  96.4860000  34.7380000  81.5150000  96.3950000  34.5190000
  83.2050000  97.5560000  33.8400000  84.3380000  97.6340000  33.8380000
  82.9190000  97.3750000  32.3350000  81.8800000  97.3580000  32.2030000
  83.4190000  98.1310000  31.7460000  83.3520000  96.5390000  31.8810000
  82.5790000  98.8130000  34.1810000  83.3500000  99.4010000  34.0420000
  83.1400000  95.0730000  34.5340000  82.6460000  94.3600000  33.6190000
  83.9470000  94.5460000  35.5090000  84.2640000  95.2120000  36.1920000
  84.4200000  93.1270000  35.5520000  84.8400000  92.8630000  34.5370000
  85.7100000  92.9880000  36.3800000  86.4140000  92.5790000  35.6750000
  85.9610000  93.9910000  36.7490000  85.5650000  92.0600000  37.6430000
  84.6050000  92.3190000  38.1850000  85.6050000  91.0110000  37.3280000
  86.7420000  92.3550000  38.6370000  87.6830000  92.1840000  38.1110000
  86.7600000  93.3740000  38.9980000  86.5260000  91.4340000  39.8200000
  86.9310000  90.5300000  39.6730000  86.0490000  91.7000000  41.0540000
  85.4410000  92.7990000  41.3030000  85.6110000  93.6140000  40.6580000
  84.9810000  92.9500000  42.2270000  86.1070000  90.8150000  41.9910000
  86.4410000  89.8910000  41.7940000  86.0130000  91.0660000  43.0040000
  83.3140000  92.0580000  35.8070000  83.4950000  90.9090000  35.4210000
  82.2090000  92.4040000  36.3990000  82.0670000  93.3480000  36.7170000
  81.0340000  91.4820000  36.6310000  81.4530000  90.4410000  36.5450000
  80.4920000  91.7720000  38.0580000  79.9700000  92.7480000  37.9010000
  79.5060000  90.6400000  38.3100000  80.0720000  89.6750000  38.5100000
  78.9510000  90.8960000  39.2310000  78.8320000  90.4450000  37.4690000
  81.5360000  91.7290000  39.2490000  81.1130000  91.1380000  40.0660000
  82.4530000  91.2550000  38.9690000  81.8400000  93.1370000  39.6960000
  82.0080000  93.8180000  38.8720000  81.0120000  93.5970000  40.1890000
  82.6150000  93.1280000  40.4620000  79.9800000  91.6700000  35.5130000
  79.4780000  90.7080000  34.8770000  79.7850000  92.9560000  35.1590000
  80.3010000  93.6730000  35.6710000  78.8960000  93.4050000  34.0410000
  77.8860000  93.0360000  34.2380000  78.8780000  94.9550000  34.0050000
  79.7240000  95.3580000  33.4990000  78.0470000  95.2100000  33.4030000
  78.5340000  95.6370000  35.3580000  79.2910000  95.4430000  36.1720000
  78.5000000  97.1470000  35.1490000  77.8730000  97.3870000  34.2970000
  78.1970000  97.5040000  36.1420000  79.5610000  97.4540000  34.9510000
  77.2220000  95.1680000  35.9680000  76.3220000  95.5320000  35.3900000
  77.1760000  94.0160000  35.9400000  77.1190000  95.6200000  37.0190000
  79.3410000  92.8390000  32.6900000  78.4300000  92.4320000  31.9560000
  80.6230000  92.7140000  32.3960000  81.2900000  92.9280000  33.1120000
  80.9880000  92.4070000  30.9570000  80.2840000  92.8360000  30.2490000
  82.4190000  92.9740000  30.6920000  83.2050000  92.5410000  31.3280000
  82.8820000  92.8460000  29.2500000  83.2670000  91.8620000  28.9480000
  82.1270000  93.0800000  28.5840000  83.7240000  93.4880000  29.1160000
  82.3510000  94.3350000  30.8790000  82.2100000  94.5170000  31.8120000
  80.8570000  90.9320000  30.6460000  80.7360000  90.5700000  29.4050000
  80.8040000  90.0550000  31.6320000  80.7260000  90.3450000  32.6070000
  80.7750000  88.6290000  31.4810000  81.7190000  88.3270000  31.0770000
  80.7520000  87.8490000  32.9030000  79.7620000  87.9490000  33.3290000
  81.0680000  86.4570000  32.6770000  80.6420000  85.8920000  33.4660000
  80.6330000  86.1000000  31.7420000  82.1110000  86.2940000  32.5200000
  81.7040000  88.4900000  33.9510000  82.7620000  88.4900000  33.6090000
  81.5170000  89.5540000  34.2470000  81.6170000  87.7320000  35.2400000
  82.2760000  86.8170000  35.1750000  82.1100000  88.3230000  36.0410000
  80.5430000  87.5380000  35.5610000  79.6880000  88.1750000  30.4850000
  79.9960000  87.2640000  29.7550000  78.3630000  88.5330000  30.3950000
  77.6140000  89.3820000  31.4270000  77.6690000  90.4800000  31.2130000
  77.8020000  89.1420000  32.4590000  76.1200000  88.9980000  31.2190000
  75.5160000  89.8500000  31.3400000  75.8490000  88.2910000  31.9550000
  75.9600000  88.4970000  29.8120000  75.5160000  89.3290000  29.2350000
  75.2400000  87.6820000  29.7080000  77.3790000  88.0720000  29.4010000
  77.5720000  86.9560000  29.4020000  77.6300000  88.4730000  27.9580000
  77.5520000  87.5890000  27.1140000  78.0660000  89.7770000  27.6860000
  78.3980000  90.2610000  28.4870000  78.6650000  90.2080000  26.3980000
  77.8640000  90.1140000  25.6270000  78.9900000  91.7450000  26.3530000
  79.9020000  91.8930000  26.8860000  79.2330000  92.1630000  25.3860000
  77.9810000  92.7330000  26.9910000  77.5870000  92.3360000  27.9080000
  78.4530000  93.7210000  27.2740000  76.7020000  92.9560000  26.1410000
  76.0880000  91.9810000  25.7380000  76.3110000  94.1390000  25.8560000
  76.8540000  94.9610000  26.0600000  75.4180000  94.2440000  25.3140000
  79.9040000  89.3610000  26.0020000  80.0110000  89.0190000  24.8520000
  80.7070000  88.9310000  26.9950000  80.4010000  89.2710000  27.9360000
  81.8960000  88.0370000  26.7970000  82.4850000  88.5140000  25.9780000
  82.7660000  88.0870000  28.0400000  82.3880000  87.6200000  29.0080000
  83.7050000  87.5970000  27.8780000  83.0380000  89.4160000  28.3690000
  82.2720000  89.8890000  28.8090000  81.4980000  86.5860000  26.4950000
  81.9540000  86.0100000  25.5590000  80.6970000  85.9700000  27.3400000
  80.2500000  86.4040000  28.1750000  80.3070000  84.5550000  27.1960000
  81.2800000  84.0710000  27.1310000  79.5480000  84.1310000  28.5240000
  80.2770000  84.2700000  29.3140000  78.6620000  84.7650000  28.6940000
  79.0580000  82.6700000  28.5110000  78.2700000  82.4770000  27.7260000
  80.1360000  81.7870000  28.0430000  80.3120000  81.9270000  26.9870000
  81.0330000  82.0140000  28.6420000  79.9330000  80.6870000  28.1830000
  78.7250000  82.0780000  29.9060000  78.4190000  80.9760000  29.7260000
  79.6230000  82.0330000  30.5040000  77.9160000  82.6560000  30.4450000
  79.5450000  84.2950000  25.8890000  79.7670000  83.3230000  25.1180000
  78.6590000  85.2630000  25.4840000  78.2220000  85.8740000  26.2810000
  77.8710000  85.3200000  24.2230000  77.4060000  84.3240000  24.1720000
  76.9300000  86.5040000  24.1080000  76.4090000  86.7240000  25.0880000
  77.4920000  87.4170000  23.7710000  75.8870000  86.0690000  23.0210000
  75.1130000  85.1440000  23.2790000  75.8840000  86.6340000  21.8630000
  78.8220000  85.3670000  22.9740000  78.7120000  84.5160000  22.1020000
  79.8030000  86.3120000  22.9490000  79.8350000  86.9720000  23.7570000
  80.8370000  86.4260000  21.9210000  80.2680000  86.5430000  21.0240000
  81.5650000  87.7040000  22.2120000  80.9180000  88.5150000  21.9970000
  81.7170000  87.7360000  23.3370000  82.6770000  87.8150000  21.4430000
  83.4400000  88.1950000  21.9360000  81.7700000  85.2330000  21.6600000
  81.9420000  84.9400000  20.4900000  82.2540000  84.5010000  22.6740000
  82.0240000  84.7740000  23.6170000  82.9270000  83.1740000  22.5480000
  83.7390000  83.2350000  21.8330000  83.6080000  82.7620000  23.9270000
  84.6000000  83.2410000  24.1060000  83.1180000  83.2370000  24.7920000
  83.8540000  81.2860000  24.1990000  83.4760000  80.6610000  25.3210000
  82.9610000  81.1740000  26.1810000  84.1250000  79.4060000  25.2530000
  83.9660000  78.6690000  25.9750000  84.8960000  79.2070000  24.0880000
  85.6930000  78.1690000  23.6710000  85.9600000  77.2680000  24.1990000
  86.3410000  78.2790000  22.4210000  86.9410000  77.4380000  22.0380000
  86.0830000  79.4050000  21.6570000  86.4980000  79.4670000  20.6680000
  85.2370000  80.4560000  22.0840000  85.0810000  81.3530000  21.4830000
  84.6060000  80.3850000  23.3270000  81.9570000  82.0430000  22.1260000
  82.3230000  81.2660000  21.2530000  80.7440000  81.9130000  22.7230000
  80.4510000  82.3850000  23.6280000  79.7800000  80.8490000  22.3320000
  80.1940000  79.8450000  22.4520000  78.6480000  80.7590000  23.3240000
  78.9860000  80.9660000  24.2930000  77.9130000  81.3990000  22.9600000
  78.0600000  79.4080000  23.2370000  77.0870000  79.0320000  22.3660000
  76.8810000  79.5920000  21.5070000  76.8650000  77.6840000  22.5460000
  76.3290000  77.0500000  21.9080000  77.4880000  77.1720000  23.6710000
  77.5940000  75.9370000  24.3340000  77.0570000  75.1470000  23.8600000
  78.4280000  75.6690000  25.4190000  78.4290000  74.6400000  25.7450000
  79.2000000  76.7030000  25.8830000  79.8410000  76.4830000  26.6820000
  79.2360000  77.9380000  25.1580000  79.7980000  78.7450000  25.5940000
  78.3320000  78.2400000  24.1000000  79.2760000  81.0540000  20.8370000
  78.9940000  80.0820000  20.1490000  79.2920000  82.3040000  20.2790000
  79.4900000  83.0620000  20.8870000  78.9920000  82.6850000  18.8830000
  78.0930000  82.1140000  18.6350000  78.7300000  84.1970000  18.8950000
  79.5700000  84.6190000  19.4370000  78.2100000  84.8980000  17.6300000
  78.9940000  84.9020000  16.8800000  77.3890000  84.2510000  17.2470000
  77.9160000  85.9290000  17.9640000  77.5650000  84.3690000  19.7030000
  77.8070000  84.3180000  20.6430000  80.0820000  82.2930000  17.9070000
  79.7620000  81.9980000  16.7240000  81.3630000  82.1830000  18.3340000
  81.5710000  82.5450000  19.2200000  82.5080000  81.5980000  17.5570000
  82.5430000  82.2740000  16.6310000  83.8180000  81.6990000  18.2950000
  83.7800000  81.0440000  19.1590000  84.7090000  81.3240000  17.7730000
  84.0100000  83.0310000  18.7330000  84.8890000  83.0260000  19.1310000
  82.2010000  80.2030000  16.9680000  82.7740000  79.7600000  16.0620000
  81.3400000  79.3940000  17.5880000  81.0020000  79.6850000  18.4590000
  80.8510000  78.0950000  17.1000000  81.6740000  77.5210000  16.6800000
  80.2260000  77.2760000  18.2750000  79.5850000  78.0210000  18.7750000
  79.6930000  76.4520000  17.8280000  81.0810000  76.7970000  19.4950000
  80.4510000  76.5350000  20.3640000  81.9700000  75.6660000  19.0090000
  81.3680000  74.9060000  18.4660000  82.6420000  76.0340000  18.3780000
  82.4960000  75.2450000  19.8770000  81.8720000  77.9410000  20.1880000
  82.2110000  77.5350000  21.1300000  82.7970000  78.1210000  19.6020000
  81.3080000  78.8430000  20.3750000  79.8700000  78.1590000  15.8530000
  79.7310000  77.1190000  15.2110000  79.2570000  79.3160000  15.5230000
  79.3510000  80.1580000  16.0850000  78.4390000  79.4320000  14.3390000
  77.6060000  78.7070000  14.3870000  77.8960000  80.8770000  14.1710000
  78.7820000  81.5740000  14.1360000  77.4070000  80.8300000  13.1600000
  76.8350000  81.2530000  15.2020000  76.7790000  80.7370000  16.2720000
  75.8420000  82.0950000  14.8640000  75.0430000  82.1540000  15.4590000
  75.7570000  82.4280000  13.9010000  79.3330000  79.1340000  13.1530000
  78.9250000  78.3670000  12.3300000  80.5140000  79.6940000  13.1210000
  80.8090000  80.2880000  13.8860000  81.4730000  79.3820000  11.9820000
  80.9300000  79.5420000  11.0570000  82.6750000  80.3120000  12.0320000
  83.3150000  79.9260000  12.8250000  83.1990000  80.2100000  11.0370000
  82.2540000  81.7870000  12.3250000  81.5290000  82.5770000  11.3970000
  81.3640000  82.3930000  10.3420000  81.0460000  83.8240000  11.7700000
  80.6150000  84.4500000  10.9830000  81.1990000  84.3210000  13.0630000
  80.7400000  85.3050000  13.3500000  81.8130000  83.4970000  14.0620000
  81.8710000  83.7400000  15.0900000  82.3390000  82.2510000  13.6290000
  82.9110000  81.6900000  14.3490000  81.9300000  77.9820000  11.9330000
  82.0080000  77.3610000  10.8770000  82.2340000  77.3380000  13.0680000
  82.0350000  77.7900000  13.9510000  82.4930000  75.8900000  13.1110000
  83.4190000  75.7620000  12.5460000  82.8500000  75.5530000  14.5970000
  83.4840000  76.3790000  14.9870000  81.9200000  75.5210000  15.1150000
  83.6210000  74.1780000  14.7990000  83.2280000  73.3060000  14.2450000
  85.1470000  74.2840000  14.4490000  85.6610000  75.1010000  14.9610000
  85.7190000  73.3740000  14.7120000  85.3420000  74.5490000  13.4050000
  83.3910000  73.7850000  16.2620000  84.1310000  73.0240000  16.4590000
  83.5620000  74.6180000  16.9080000  82.3670000  73.5070000  16.4550000
  81.4920000  74.9160000  12.4880000  81.9640000  74.0000000  11.8010000
  80.1760000  75.1000000  12.6830000  79.8000000  75.9040000  13.2590000
  79.1680000  74.3540000  11.8480000  79.5830000  73.3060000  11.8720000
  78.2760000  74.3570000  12.4180000  79.0890000  74.8240000  10.4200000
  79.0240000  73.9640000   9.5830000  79.1880000  76.1270000  10.1750000
  79.4930000  76.7420000  10.9470000  79.4500000  76.7620000   8.8930000
  80.3960000  77.3090000   8.9800000  79.6440000  75.9440000   8.1630000
  78.3190000  77.6010000   8.3340000  78.5650000  78.6080000   7.6950000
  77.0780000  77.1820000   8.5610000  76.8820000  76.4710000   9.2330000
  75.8810000  77.7670000   7.8360000  75.9340000  77.6390000   6.8010000
  74.5520000  77.0930000   8.3230000  73.7080000  77.6960000   7.9890000
  74.3270000  75.7220000   7.7650000  74.3510000  75.7970000   6.7270000
  75.0800000  74.9580000   7.9790000  73.3490000  75.3670000   8.0200000
  74.5080000  76.9840000   9.6980000  74.6720000  77.8210000  10.0330000
  75.7150000  79.2380000   8.1050000  75.4540000  79.7620000   9.2300000
  75.8810000  80.0180000   7.0100000  76.0480000  79.5100000   6.1890000
  75.8500000  81.4930000   7.0330000  76.4010000  81.8980000   7.8810000
  76.6670000  82.0250000   5.7950000  76.5720000  83.1250000   5.7460000
  78.1680000  81.7650000   5.9310000  78.4580000  81.9000000   7.0410000
  78.3220000  80.7100000   5.7090000  78.7010000  82.3740000   5.1540000
  76.1400000  81.3860000   4.6100000  75.4580000  81.9660000   4.2490000
  74.4230000  82.0910000   7.0250000  74.0230000  82.8600000   6.1630000
  73.6130000  81.7490000   8.0190000  73.9230000  81.2190000   8.7510000
  72.1670000  82.2790000   8.0700000  72.0340000  83.2470000   7.5670000
  71.1370000  81.2950000   7.3890000  71.4440000  80.9310000   6.3720000
  70.9160000  79.9800000   8.1200000  71.8670000  79.4590000   8.2870000
  70.3960000  80.2130000   9.0540000  70.3190000  79.3070000   7.4740000
  69.8280000  82.0680000   7.0680000  69.9750000  83.0700000   6.7210000
  69.2190000  81.5050000   6.3550000  69.2380000  82.0130000   7.9680000
  71.8060000  82.4140000   9.5470000  72.3880000  81.8190000  10.4340000
  70.7050000  83.1430000   9.7740000  70.2480000  83.5610000   8.9980000
  70.0280000  83.1800000  11.1170000  70.7280000  82.8560000  11.9400000
  69.8960000  84.6250000  11.4620000  70.8280000  85.0260000  11.9370000
  69.6040000  85.2660000  10.6190000  68.6520000  85.0840000  12.7140000
  68.6730000  82.5110000  11.0330000  67.9510000  82.8690000  10.1180000
  68.3080000  81.5770000  11.9810000  68.8980000  81.4230000  12.8410000
  67.0170000  80.9370000  11.8170000  66.7270000  81.1480000  10.7860000
  67.0160000  79.3700000  11.9750000  67.2840000  79.1280000  12.9580000
  66.0060000  78.9780000  11.8910000  67.9640000  78.4670000  11.1110000
  69.0130000  78.8160000  11.0840000  68.1250000  76.9910000  11.4290000
  68.2590000  76.8670000  12.4680000  67.3060000  76.4440000  10.9620000
  69.0290000  76.5810000  10.9510000  67.3830000  78.6730000   9.7760000
  66.4040000  78.1040000   9.7860000  67.2790000  79.7460000   9.4400000
  67.9540000  78.1800000   8.9940000  65.8530000  81.6040000  12.5660000
  65.0650000  81.0420000  13.3630000  65.6910000  82.8540000  12.1800000
  66.4860000  83.2420000  11.6880000  64.4970000  83.6620000  12.4460000
  63.6100000  83.0240000  12.4330000  64.5440000  83.9350000  13.4460000
  64.2370000  84.9090000  11.6110000  63.6310000  85.9070000  12.0470000
  64.9710000  84.9450000  10.4930000  65.4590000  84.1460000  10.1290000
  64.9400000  86.0160000   9.5250000  64.2790000  86.7920000   9.9360000
  66.3740000  86.4610000   9.1610000  66.2520000  87.4920000   8.6560000
  66.8500000  86.6740000  10.0970000  67.1730000  85.4470000   8.4120000
  68.0130000  85.1770000   9.0190000  66.6720000  84.4940000   8.1980000
  67.6750000  85.9230000   7.0500000  68.0070000  87.0850000   6.7220000
  67.8730000  84.9370000   6.1790000  67.6670000  83.9540000   6.4240000
  68.3850000  85.2360000   5.3340000  64.2550000  85.6160000   8.1600000
  64.0740000  84.3790000   7.9360000  64.0610000  86.5320000   7.2380000
  64.1580000  87.5040000   7.4730000  64.0020000  86.3150000   5.8160000
  64.4550000  85.4230000   5.5980000  62.5330000  86.0820000   5.3900000
  62.2060000  85.0540000   5.5900000  61.9110000  86.8020000   5.9610000
  62.3340000  86.4350000   3.8970000  62.0710000  87.5690000   3.6770000
  62.2760000  85.4360000   3.0840000  62.5870000  85.6610000   2.1040000
  62.3390000  84.5330000   3.2600000  64.7430000  87.4620000   5.0900000
  64.4820000  88.6120000   5.3430000  65.7070000  87.1400000   4.2130000
  65.7140000  86.1310000   3.8590000  66.8520000  88.0750000   3.9270000
  67.3280000  88.4090000   4.8270000  68.0100000  87.4480000   3.0760000
  67.7500000  87.3050000   2.0460000  68.7710000  88.1490000   3.1360000
  68.3580000  86.2810000   3.7510000  67.8230000  85.5880000   3.2220000
  66.4550000  89.2700000   3.0730000  67.2960000  90.2150000   3.0400000
  65.4510000  89.1560000   2.2860000  64.8950000  88.2250000   2.3090000
  65.0280000  90.1930000   1.3040000  65.9300000  90.4290000   0.7500000
  64.1810000  89.5520000   0.2210000  63.3630000  89.1670000   0.7860000
  63.8000000  90.3620000  -0.4010000  64.8820000  88.3910000  -0.5110000
  64.3140000  88.1480000  -1.4070000  65.9100000  88.7350000  -0.9000000
  64.8970000  87.0370000   0.2080000  64.1980000  86.7980000   1.1550000
  65.7360000  86.1330000  -0.1880000  66.2520000  86.2010000  -1.0490000
  65.8240000  85.2770000   0.3470000  64.4010000  91.4520000   1.9390000
  64.3870000  92.4810000   1.2120000  63.9070000  91.3810000   3.2320000
  63.9970000  90.4810000   3.6760000  63.3360000  92.4900000   3.9610000
  63.9150000  93.3360000   3.7400000  61.8430000  92.7730000   3.5590000
  61.8690000  93.1050000   2.5520000  61.2070000  91.8940000   3.6630000
  61.2210000  93.7990000   4.4440000  61.5780000  94.7200000   4.3670000
  63.5410000  92.2350000   5.4390000  64.2240000  93.0800000   5.9990000
  62.8290000  91.3380000   6.1610000  61.8770000  90.3220000   5.7720000
  62.3860000  89.6390000   5.0860000  61.0290000  90.8130000   5.3030000
  61.2860000  89.6670000   7.0810000  61.7540000  88.6820000   7.2780000
  60.2060000  89.6330000   6.9460000  61.6800000  90.7000000   8.1410000
  61.7240000  90.3550000   9.1510000  61.0040000  91.5230000   8.0620000
  63.0670000  91.1900000   7.5960000  63.1820000  92.1980000   8.0550000
  64.3870000  90.3990000   7.9980000  64.4940000  89.3060000   8.5380000
  65.3900000  91.0830000   7.5450000  65.1420000  91.9620000   7.0390000
  66.7130000  90.5190000   7.1420000  66.5810000  89.4850000   6.7780000
  67.4850000  91.3440000   6.0280000  66.7540000  91.6350000   5.2260000
  68.2830000  92.5550000   6.3830000  67.7420000  93.2950000   6.9800000
  69.0300000  92.1970000   7.0670000  68.8790000  93.0570000   5.6100000
  68.4310000  90.4730000   5.4230000  68.1490000  90.5060000   4.4980000
  67.6760000  90.2860000   8.3030000  67.7400000  91.1650000   9.2250000
  68.4390000  89.1940000   8.4350000  68.4340000  88.4760000   7.7150000
  69.6430000  89.1750000   9.2430000  69.6000000  89.9350000   9.9830000
  69.6660000  87.8970000  10.0990000  68.9150000  87.8600000  10.8270000
  69.5280000  87.0430000   9.4070000  70.9030000  87.6120000  10.6550000
  71.6200000  88.0730000  10.0980000  70.9000000  89.2110000   8.3370000
  72.0040000  89.0880000   8.8200000  70.7350000  89.1260000   7.0460000
  69.7960000  89.0460000   6.6620000  71.8680000  88.7670000   6.1900000
  72.6750000  88.3770000   6.7710000  71.4990000  87.6220000   5.2860000
  70.5620000  87.8920000   4.9270000  72.2340000  87.5420000   4.4240000
  71.3890000  86.1740000   5.8500000  71.3220000  85.9990000   7.0300000
  71.5400000  85.2030000   5.0070000  71.6950000  84.2550000   5.2980000
  71.8850000  85.4350000   4.0650000  72.6290000  89.9910000   5.6040000
  73.2290000  89.9030000   4.5370000  72.6050000  91.1320000   6.3270000
  72.0280000  91.0280000   7.1740000  73.5720000  92.2540000   6.2170000
  74.0070000  92.3490000   5.1850000  72.7520000  93.5570000   6.4570000
  73.4160000  94.4270000   6.3170000  71.9050000  93.6610000   5.7690000
  72.1860000  93.6560000   7.8450000  71.9470000  92.5950000   8.6800000
  70.9300000  92.9390000   9.4710000  70.3700000  92.2380000  10.1450000
  70.6560000  94.2580000   9.3290000  69.8230000  94.6740000   9.7320000
  71.3710000  94.6740000   8.2200000  71.2260000  95.6670000   7.7710000
  74.8390000  91.9550000   7.0600000  75.9150000  92.3100000   6.7170000
  74.5790000  91.2800000   8.2190000  73.6290000  91.3030000   8.5440000
  75.5670000  90.5940000   9.0470000  76.5690000  90.5680000   8.6760000
  75.7140000  91.1560000  10.4190000  75.9490000  92.2310000  10.2800000
  74.8020000  91.1100000  11.0080000  76.8690000  90.5990000  11.1220000
  77.7590000  90.9840000  10.7690000  75.1130000  89.0780000   9.2240000
  74.7100000  88.6820000  10.3130000  75.2340000  88.2530000   8.1490000
  75.9080000  88.4620000   6.8470000  76.9990000  88.3970000   6.9590000
  75.5070000  89.4260000   6.4340000  75.4320000  87.3350000   5.9220000
  76.1200000  87.0000000   5.1650000  74.4270000  87.5630000   5.5410000
  75.3300000  86.2350000   6.9440000  76.3490000  85.9120000   7.0220000
  74.6270000  85.5290000   6.5620000  74.7200000  86.8450000   8.1460000
  73.6400000  86.8800000   8.0690000  75.1580000  86.0050000   9.3620000
  76.3660000  85.9390000   9.6550000  74.1880000  85.2680000  10.0120000
  73.2600000  85.3600000   9.6160000  74.2720000  84.5580000  11.3380000
  73.3830000  83.8850000  11.3100000  75.4760000  83.6160000  11.5090000
  75.7850000  83.2200000  10.5050000  76.6640000  84.2810000  12.2700000
  77.2530000  85.0110000  11.7290000  76.3660000  84.7490000  13.2510000
  77.4250000  83.5150000  12.4010000  75.0620000  82.5050000  12.2050000
  74.1630000  82.2890000  11.7960000  73.8530000  85.4040000  12.5360000
  73.2860000  84.8050000  13.4130000  74.2010000  86.7100000  12.6350000
  74.7170000  87.2470000  11.9190000  74.2480000  87.3790000  13.9280000
  74.6570000  86.7080000  14.7280000  75.1280000  88.6520000  13.8390000
  74.8070000  89.3820000  13.0760000  75.2140000  89.0860000  14.8440000
  76.3290000  88.1590000  13.3190000  76.6510000  88.7450000  12.5850000
  72.8770000  87.8340000  14.3520000  72.7930000  88.4270000  15.3940000
  71.8180000  87.6270000  13.5700000  71.8900000  87.0290000  12.7340000
  70.4540000  88.2010000  13.8470000  69.9070000  88.3290000  12.9610000
  69.7090000  87.2260000  14.7670000  70.1970000  87.3280000  15.7810000
  68.6650000  87.6170000  14.7910000  69.7010000  85.4160000  14.3960000
  70.3020000  89.6140000  14.4630000  69.8950000  89.7440000  15.6230000
  70.7530000  90.6650000  13.7680000  71.4810000  90.6350000  12.4890000
  70.8590000  90.7100000  11.5980000  72.2390000  89.7740000  12.4530000
  72.2700000  91.9150000  12.5600000  72.6140000  92.2670000  11.6550000
  73.0440000  91.7460000  13.2410000  71.3610000  92.9070000  13.2620000
  70.6870000  93.2260000  12.5360000  71.9360000  93.7180000  13.8070000
  70.6000000  92.0180000  14.1870000  71.0490000  92.1590000  15.1520000
  69.0810000  92.4640000  14.3750000  68.2230000  91.7480000  13.8950000
  68.8120000  93.6780000  14.8980000  69.8520000  94.5940000  15.3340000
  70.1440000  95.1580000  14.4400000  70.6730000  94.2090000  15.9410000
  69.1480000  95.5950000  16.2190000  69.6460000  96.6000000  16.2560000
  69.0860000  95.1430000  17.2370000  67.7680000  95.6500000  15.6930000
  67.6940000  96.3660000  14.8740000  67.0250000  96.0500000  16.4360000
  67.4590000  94.2220000  15.2460000  67.1210000  93.6500000  16.0730000
  66.3360000  94.0620000  14.2050000  65.1580000  93.9760000  14.5060000
  66.6640000  93.9890000  12.9040000  67.6280000  94.0120000  12.6190000
  65.7930000  94.0250000  11.6960000  65.0150000  94.7930000  11.7920000
  66.6080000  94.4430000  10.3890000  66.0140000  93.9640000   9.5620000
  66.7690000  95.8930000  10.3370000  67.2090000  96.1000000   9.3840000
  65.7430000  96.3750000  10.3240000  67.4410000  96.1630000  11.0680000
  67.8880000  93.8020000  10.4740000  67.7470000  92.9130000  10.0420000
  64.9750000  92.7570000  11.3660000  64.0310000  92.7890000  10.5780000
  65.3420000  91.6230000  12.0050000  66.1470000  91.7750000  12.6050000
  64.6400000  90.3290000  11.9180000  63.8160000  90.4200000  11.1720000
  65.6500000  89.3010000  11.3980000  65.0440000  88.4220000  11.0580000
  66.1150000  89.6730000  10.4470000  66.8690000  88.9880000  12.6890000
  67.3430000  90.2170000  12.8260000  63.9910000  89.9080000  13.2210000
  64.5760000  90.1390000  14.3050000  62.9900000  89.0070000  13.1890000
  62.0810000  88.9040000  12.0420000  62.4420000  88.0620000  11.4950000
  61.8980000  89.8600000  11.4840000  60.7680000  88.4060000  12.6050000
  60.1220000  87.7260000  11.9110000  60.2950000  89.3360000  12.8600000
  61.2380000  87.5580000  13.8280000  61.5880000  86.6080000  13.3690000
  60.5140000  87.3010000  14.5840000  62.5370000  88.2830000  14.3510000
  62.3090000  89.0920000  15.0680000  63.5700000  87.4500000  15.0510000
  63.3950000  86.9860000  16.1790000  64.6810000  87.0760000  14.4160000
  64.6410000  87.3940000  13.4150000  65.8150000  86.4230000  15.0420000
  65.5050000  85.4640000  15.3880000  66.6060000  86.2950000  14.2540000
  66.4800000  87.2270000  16.1740000  67.1910000  86.7030000  17.0390000
  66.3360000  88.5600000  16.2580000  65.8110000  89.1290000  15.5780000
  66.8690000  89.2930000  17.4450000  67.9460000  89.0140000  17.4290000
  66.8650000  90.8450000  17.0660000  67.1760000  91.0020000  15.9760000
  65.8670000  91.2610000  17.1600000  67.7360000  91.8040000  17.9860000
  67.2270000  93.0080000  18.5890000  66.2220000  93.3650000  18.4930000
  68.1500000  93.8370000  19.2990000  67.6810000  94.6870000  19.8090000
  69.5300000  93.5580000  19.4330000  70.3810000  94.3140000  20.1650000
  69.9520000  95.1200000  20.6080000  69.9910000  92.5120000  18.7080000
  71.0350000  92.3480000  18.6200000  69.1320000  91.5370000  18.1130000
  69.5300000  90.7610000  17.5530000  66.1400000  88.9880000  18.7870000
  66.7080000  89.1370000  19.8590000  64.8490000  88.5750000  18.7440000
  64.5190000  88.3120000  17.8290000  64.1200000  87.9550000  19.8610000
  63.9190000  88.7040000  20.7010000  62.7570000  87.5040000  19.4150000
  62.9400000  86.8410000  18.5900000  62.1870000  86.8880000  20.0140000
  61.8470000  88.7030000  18.9940000  61.3770000  89.1530000  19.8380000
  62.4000000  89.5430000  18.6140000  60.6880000  88.4410000  18.0190000
  60.1530000  89.3790000  17.7970000  61.1670000  88.2110000  17.0820000
  59.7390000  87.3470000  18.3910000  58.9310000  87.5520000  19.0030000
  59.9380000  86.1080000  17.9870000  60.9400000  85.6400000  17.2590000
  60.8880000  84.5550000  17.2000000  61.8040000  86.1700000  17.0530000
  59.1630000  85.1920000  18.3370000  59.3480000  84.3020000  17.9420000
  58.4140000  85.2900000  19.0050000  64.9110000  86.8000000  20.5040000
  65.1800000  86.8400000  21.6470000  65.4350000  85.8610000  19.7090000
  65.2110000  85.9230000  18.7620000  66.3000000  84.7490000  19.9910000
  65.8720000  84.2360000  20.8620000  66.4150000  83.7800000  18.7800000
  66.5580000  84.3730000  17.8600000  67.3630000  83.2470000  18.9260000
  65.2710000  82.8250000  18.5720000  64.1230000  83.2500000  17.9380000
  63.9950000  84.1120000  17.2920000  63.2140000  82.2030000  18.0700000
  62.2390000  82.3600000  17.7340000  63.7240000  81.1500000  18.8180000
  63.2160000  79.8900000  19.1780000  62.2170000  79.7530000  18.8740000
  63.8980000  79.0830000  20.1170000  63.4370000  78.1680000  20.5570000
  65.1710000  79.5460000  20.5780000  65.6400000  78.8750000  21.2550000
  65.7580000  80.7310000  20.0880000  66.6520000  81.1850000  20.5030000
  65.0870000  81.5520000  19.1410000  67.7550000  85.1710000  20.4630000
  68.2640000  84.7390000  21.4880000  68.2490000  86.2620000  19.8660000
  67.7620000  86.7020000  19.0900000  69.5310000  86.9560000  20.2740000
  70.3620000  86.1900000  20.3180000  69.8540000  88.0550000  19.3050000
  70.1860000  87.6550000  18.3240000  68.9250000  88.5710000  19.2220000
  70.9160000  89.0890000  19.7500000  71.0020000  89.9310000  19.0210000
  70.6490000  89.4790000  20.7030000  72.5750000  88.4020000  19.9880000
  73.2740000  88.1790000  18.3370000  74.2370000  87.7720000  18.4590000
  72.6630000  87.6020000  17.6680000  73.3200000  89.1640000  17.8940000
  69.3990000  87.5470000  21.7200000  70.3510000  87.5000000  22.5100000
  68.2690000  88.1880000  22.0260000  67.5150000  88.3210000  21.4040000
  68.0220000  88.8380000  23.3260000  68.8940000  89.3920000  23.6580000
  66.8620000  89.7780000  23.1100000  67.0290000  90.4890000  22.3450000
  65.9350000  89.2110000  22.8920000  66.7760000  90.6870000  24.6690000
  66.2680000  89.6890000  25.3780000  67.7320000  87.8130000  24.3600000
  68.3680000  87.7940000  25.3950000  66.9100000  86.8020000  24.0730000
  66.4740000  86.7780000  23.1000000  66.6270000  85.6340000  24.9500000
  66.1710000  85.9610000  25.8910000  65.5980000  84.8250000  24.1650000
  64.6740000  85.3580000  24.3260000  65.8000000  84.7470000  23.0470000
  65.3630000  83.4450000  24.6580000  66.3250000  82.9990000  24.8200000
  64.5480000  83.1920000  25.9800000  65.1540000  83.6770000  26.7970000
  63.5360000  83.5390000  25.9160000  64.5240000  82.1400000  26.2340000
  64.6680000  82.6640000  23.5790000  64.3130000  81.6700000  23.8910000
  63.7150000  83.1760000  23.1910000  65.3810000  82.5660000  22.8120000
  67.8310000  84.8930000  25.3410000  68.0040000  84.5340000  26.4830000
  68.7460000  84.6330000  24.3850000  68.4990000  84.9240000  23.4330000
  69.9860000  83.9250000  24.5300000  69.8020000  82.9420000  24.9910000
  70.7510000  83.7010000  23.1900000  70.0750000  83.1880000  22.5430000
  70.8410000  84.6410000  22.7290000  72.0010000  82.8320000  23.3790000
  72.6770000  83.3880000  24.0520000  71.6840000  81.9110000  23.9180000
  72.8550000  82.4280000  22.0820000  73.4190000  81.5480000  22.4760000
  72.1510000  82.1540000  21.2960000  73.6660000  83.5290000  21.5570000
  74.0900000  84.2540000  22.1140000  74.2250000  83.6710000  20.3800000
  74.1630000  82.8210000  19.4060000  73.3720000  82.1190000  19.4280000
  74.7060000  82.9410000  18.5950000  74.8750000  84.7630000  20.1330000
  75.0690000  85.4290000  20.9070000  75.2750000  84.7280000  19.2030000
  70.7890000  84.6980000  25.5020000  71.1380000  84.1660000  26.5490000
  70.9330000  86.0320000  25.3780000  70.6730000  86.3820000  24.4440000
  71.8390000  86.9120000  26.2140000  72.8170000  86.4520000  26.3530000
  72.1450000  88.3070000  25.6560000  71.1630000  88.7700000  25.3170000
  72.6470000  89.0090000  26.2740000  73.0920000  88.1310000  24.4480000
  74.0360000  87.8630000  24.8730000  72.8480000  87.3700000  23.7180000
  73.4310000  89.3550000  23.6990000  72.4650000  89.8330000  23.3480000
  74.0340000  90.0640000  24.3540000  74.3030000  89.0480000  22.5990000
  74.3510000  88.0950000  22.4550000  75.0770000  89.7720000  21.8310000
  75.1140000  91.0490000  21.9120000  74.5650000  91.5420000  22.6160000
  75.7780000  91.5950000  21.3920000  75.8570000  89.1770000  20.9880000
  75.8760000  88.1090000  21.0160000  76.3920000  89.6750000  20.3650000
  71.2220000  87.0920000  27.6390000  71.9910000  87.0500000  28.6040000
  69.9010000  87.1210000  27.8170000  69.3620000  87.1470000  27.0160000
  69.2510000  87.0270000  29.1360000  69.7450000  87.7500000  29.7950000
  67.7770000  87.4500000  28.9490000  67.6970000  88.5500000  28.9260000
  67.4320000  87.0510000  27.9760000  66.6740000  86.9240000  29.8410000
  66.3620000  87.6060000  31.0140000  66.9750000  88.4060000  31.3760000
  65.2830000  87.1920000  31.7790000  64.9930000  87.6990000  32.7180000
  64.5370000  86.0400000  31.4030000  63.6800000  85.7550000  31.9980000
  64.7890000  85.4080000  30.1800000  64.1010000  84.6060000  29.8330000
  65.8420000  85.8510000  29.3990000  66.1620000  85.3970000  28.4370000
  69.5350000  85.6250000  29.7240000  69.8220000  85.5750000  30.9290000
  69.4750000  84.5480000  28.9580000  69.3740000  84.7260000  27.9790000
  69.6740000  83.1820000  29.5560000  69.0940000  83.0890000  30.3970000
  69.3550000  82.0300000  28.5870000  69.8290000  82.2490000  27.6460000
  69.8800000  80.6850000  29.1240000  69.7010000  80.4940000  30.1610000
  69.4820000  79.8200000  28.6500000  70.9630000  80.6300000  28.8630000
  67.8220000  82.0230000  28.3830000  67.3530000  81.6210000  29.2600000
  67.4470000  83.0980000  28.2610000  67.3760000  81.2230000  27.1830000
  66.3640000  81.5070000  26.8990000  68.1390000  81.3290000  26.3730000
  67.3060000  80.1520000  27.3190000  71.1060000  83.1260000  29.9810000
  71.2430000  82.8600000  31.1930000  72.1370000  83.4300000  29.1900000
  71.9140000  83.5980000  28.2270000  73.5130000  83.5980000  29.6120000
  73.9970000  82.6150000  29.7360000  74.2200000  84.1640000  28.3330000
  73.5540000  84.8570000  27.8050000  75.6070000  84.7280000  28.6490000
  76.2950000  83.9130000  28.8000000  75.9620000  85.3750000  27.8510000
  75.5400000  85.3580000  29.5190000  74.3810000  83.0210000  27.2220000
  74.8560000  82.0790000  27.6830000  73.3640000  82.7370000  26.9030000
  75.1100000  83.5100000  25.9300000  76.1790000  83.5170000  26.1220000
  74.8550000  82.9520000  25.0280000  74.7010000  84.5150000  25.8750000
  73.7290000  84.4460000  30.9510000  74.3380000  83.9310000  31.8770000
  73.2990000  85.7610000  31.0040000  72.8720000  86.2280000  30.1820000
  73.3350000  86.5520000  32.2150000  74.4270000  86.7090000  32.5460000
  72.5880000  87.8520000  31.8460000  73.2380000  88.4370000  31.1670000
  71.6950000  87.5940000  31.2860000  72.2100000  88.7020000  33.0860000
  73.1580000  89.5440000  33.7190000  74.1600000  89.6890000  33.3690000
  72.7860000  90.2290000  34.9060000  73.5010000  90.8490000  35.4800000
  71.4320000  90.0540000  35.3900000  71.1700000  90.3240000  36.4090000
  70.4660000  89.2420000  34.7040000  69.4520000  89.0850000  35.1170000
  70.8720000  88.5270000  33.5470000  70.1320000  87.9070000  33.0770000
  72.6360000  85.8080000  33.4240000  73.2930000  85.8240000  34.5050000
  71.4770000  85.1350000  33.2390000  70.9150000  85.1370000  32.3810000
  71.0020000  84.4190000  34.4200000  71.1790000  84.9550000  35.2780000
  69.5270000  84.0930000  34.2510000  69.3120000  83.5530000  33.3060000
  69.2730000  83.4200000  35.0540000  68.5870000  85.2680000  34.4430000
  68.8010000  86.0000000  33.6600000  67.1800000  84.8070000  34.0630000
  66.5110000  85.6350000  33.8930000  67.2100000  84.1310000  33.1860000
  66.7360000  84.1480000  34.8360000  68.5410000  85.9410000  35.8010000
  68.2310000  85.2250000  36.5640000  69.5120000  86.2190000  36.0500000
  68.0240000  86.8840000  35.6980000  71.8660000  83.1340000  34.7940000
  72.0670000  82.8220000  35.9670000  72.4380000  82.5530000  33.7500000
  72.1360000  82.7880000  32.8030000  73.4370000  81.5350000  33.8420000
  73.0150000  80.7410000  34.4020000  73.7610000  80.8450000  32.5460000
  72.8640000  80.5860000  32.0550000  74.2920000  81.6560000  31.9220000
  74.6980000  79.6160000  32.5570000  75.5250000  79.5870000  31.3930000
  75.4960000  80.3830000  30.6330000  76.4210000  78.5530000  31.2760000
  77.1260000  78.4720000  30.3810000  76.4570000  77.5170000  32.2380000
  77.1850000  76.6810000  32.2110000  75.5140000  77.5380000  33.3100000
  75.6110000  76.8020000  34.0480000  74.6640000  78.5870000  33.4880000
  73.9680000  78.6660000  34.3490000  74.7200000  81.9160000  34.5510000
  75.1340000  81.1060000  35.3900000  75.2850000  83.0760000  34.2640000
  74.8030000  83.6900000  33.5770000  76.3480000  83.7690000  35.0020000
  77.2420000  83.1290000  34.9760000  76.7680000  85.0280000  34.2730000
  75.8860000  85.5920000  33.9500000  77.7170000  85.8450000  35.1720000
  78.4400000  85.1990000  35.7120000  78.3380000  86.4990000  34.5000000
  77.1480000  86.3760000  35.9360000  77.4320000  84.6070000  32.9590000
  78.4290000  84.2670000  33.1430000  76.9050000  83.7830000  32.4680000
  77.5360000  85.7290000  31.9840000  78.0150000  85.3890000  31.0440000
  76.5940000  86.1890000  31.6460000  78.0550000  86.5810000  32.4270000
  76.0430000  83.9310000  36.5070000  76.9290000  83.7320000  37.3400000
  74.8060000  84.3520000  36.9040000  74.0930000  84.5110000  36.2070000
  74.4510000  84.4840000  38.2760000  75.2210000  85.1010000  38.8790000
  73.0710000  85.1360000  38.4350000  72.3050000  84.5620000  37.8710000
  72.7220000  84.9470000  39.4540000  72.8020000  86.5940000  38.0760000
  73.0810000  86.7850000  37.0820000  71.3450000  86.8980000  38.4140000
  71.0670000  87.9640000  38.2080000  70.6520000  86.1730000  37.8820000
  71.2350000  86.6880000  39.5200000  73.6880000  87.5440000  38.9400000
  74.7430000  87.2020000  38.9940000  73.7030000  88.5630000  38.5420000
  73.3340000  87.5580000  39.9630000  74.5130000  83.0980000  38.9820000
  75.1750000  83.0290000  39.9760000  73.9750000  82.0680000  38.3770000
  73.2730000  82.3300000  37.6880000  74.1340000  80.6680000  38.8370000
  73.8310000  80.6780000  39.8660000  73.2500000  79.7670000  38.0060000
  73.5170000  79.8580000  36.9360000  73.5160000  78.7070000  38.2680000
  71.6940000  79.9910000  38.2620000  71.4590000  81.0650000  38.4860000
  70.9830000  79.5660000  36.9630000  71.1340000  78.5030000  36.8460000
  69.8980000  79.6570000  37.1270000  71.2960000  80.1540000  36.1390000
  71.3270000  79.1880000  39.5520000  71.9280000  79.6090000  40.4000000
  70.2630000  79.3120000  39.7510000  71.7030000  78.1570000  39.5120000
  75.5770000  80.2740000  38.9720000  76.0040000  79.9330000  40.0840000
  76.3690000  80.4800000  37.9120000  75.9820000  80.7560000  36.9850000
  77.8460000  80.3990000  38.0020000  78.0140000  79.3660000  38.4190000
  78.5190000  80.7120000  36.6570000  78.0580000  81.6030000  36.2800000
  79.6140000  80.7250000  36.6860000  78.1150000  79.6740000  35.5120000
  77.0700000  79.5890000  35.5970000  78.4770000  80.1720000  34.1020000
  78.0740000  79.3960000  33.4680000  78.0510000  81.1210000  33.8190000
  79.5350000  80.1480000  33.9630000  78.7130000  78.2830000  35.7180000
  78.2800000  77.5460000  35.0410000  79.7110000  78.3270000  35.4520000
  78.5850000  77.9290000  36.7090000  78.5130000  81.2560000  39.1630000
  79.3320000  80.7320000  39.8110000  78.0970000  82.5000000  39.4550000
  77.3750000  82.8630000  38.8170000  78.5380000  83.3210000  40.5860000
  79.6370000  83.2110000  40.7180000  78.2470000  84.8040000  40.3660000
  77.2020000  85.0040000  40.2480000  78.7020000  85.3830000  41.2820000
  79.1300000  85.5690000  39.0180000  78.5700000  84.8690000  38.0470000
  77.8710000  82.9060000  41.9300000  78.3000000  83.3960000  43.0210000
  76.9030000  82.0310000  41.9190000  76.5830000  81.6150000  41.0140000
  76.3970000  81.4170000  43.1980000  76.7190000  81.9550000  44.0720000
  74.8970000  81.2330000  43.1320000  74.6900000  80.6350000  42.2350000
  74.6130000  80.6600000  44.0160000  74.0830000  82.5250000  43.1970000
  74.3600000  83.1770000  42.3220000  72.5620000  82.2180000  43.1870000
  72.3950000  81.7050000  42.2750000  72.2740000  81.5690000  44.0540000
  71.9450000  83.1580000  43.2950000  74.5080000  83.1990000  44.5260000
  74.4280000  82.6040000  45.4360000  75.4840000  83.6320000  44.4480000
  73.8160000  84.0640000  44.5210000  77.1380000  80.1190000  43.5440000
  77.5130000  79.9160000  44.6900000  77.5850000  79.4090000  42.5490000
  77.0390000  79.5630000  41.7050000  78.5380000  78.3200000  42.5760000
  78.1330000  77.6180000  43.3510000  78.5960000  77.5370000  41.2480000
  78.5920000  78.3450000  40.4820000  79.9210000  76.8070000  40.9550000
  79.8490000  76.0400000  40.2300000  80.7580000  77.5280000  40.6930000
  80.1990000  76.2790000  41.8250000  77.3370000  76.6770000  40.8880000
  76.4520000  77.3350000  41.2390000  77.3330000  76.5320000  39.8490000
  77.3040000  75.3990000  41.6550000  76.8990000  75.5300000  42.6590000
  76.5460000  74.7930000  41.2600000  78.1680000  74.8560000  41.7210000
  79.9710000  78.6660000  42.9180000  80.5690000  77.9430000  43.7280000
  80.5220000  79.7240000  42.2500000  80.1190000  79.9020000  41.3640000
  81.7540000  80.3630000  42.6950000  82.5170000  79.6180000  42.6100000
  82.1210000  81.4610000  41.7020000  82.2760000  81.0280000  40.7060000
  81.4140000  82.2470000  41.6080000  83.4560000  82.1400000  42.0700000
  84.7360000  81.5710000  41.9860000  84.8960000  80.5760000  41.6710000
  85.8980000  82.3480000  42.3190000  86.9280000  81.9570000  42.2240000
  85.7350000  83.6920000  42.7120000  86.5760000  84.3540000  42.9110000
  84.4710000  84.2130000  42.9900000  84.3090000  85.2330000  43.2940000
  83.3550000  83.4420000  42.6500000  82.3830000  83.8320000  42.8090000
  81.7300000  80.7450000  44.1700000  82.5630000  80.2490000  44.9190000
  80.6720000  81.4400000  44.6340000  80.0090000  81.7370000  43.9850000
  80.3960000  81.5600000  46.1020000  81.2930000  82.0670000  46.4160000
  79.1440000  82.5040000  46.4590000  79.4580000  83.4330000  45.9610000
  78.2300000  82.1220000  46.0300000  78.8730000  82.7090000  47.9510000
  78.5980000  81.7740000  48.4650000  80.0490000  83.3200000  48.7520000
  79.7310000  83.6990000  49.6760000  80.9250000  82.6790000  48.9270000
  80.5160000  84.1030000  48.1290000  77.7330000  83.6510000  47.9910000
  77.3260000  83.7590000  48.9810000  78.0100000  84.5750000  47.4550000
  76.9250000  83.3000000  47.4060000  80.4540000  80.1900000  46.8700000
  81.3580000  79.9910000  47.6800000  79.6960000  79.2280000  46.5300000
  79.0110000  79.4050000  45.7810000  79.5210000  77.9360000  47.3530000
  79.1570000  78.2580000  48.3830000  78.4190000  77.1080000  46.6770000
  77.5360000  77.7440000  46.7470000  78.5770000  76.9780000  45.6510000
  78.1310000  75.7230000  47.3220000  79.0670000  75.1970000  47.2720000
  77.7020000  75.8040000  48.8400000  78.1740000  76.6080000  49.3630000
  76.6250000  75.9050000  48.8900000  77.9010000  74.8370000  49.3810000
  76.9820000  74.9830000  46.6310000  76.0480000  75.5320000  46.6310000
  77.3690000  74.7970000  45.6030000  76.8480000  74.0140000  47.1050000
  80.8120000  77.1330000  47.4980000  81.1790000  76.7880000  48.6390000
  81.5760000  76.9620000  46.3850000  81.4510000  77.5640000  45.5240000
  82.8490000  76.1690000  46.3270000  82.7530000  75.3400000  46.9810000
  83.0680000  75.6790000  44.8580000  82.7830000  76.5530000  44.1640000
  84.5080000  75.3590000  44.4160000  84.5400000  74.7830000  43.4570000
  85.0870000  76.2230000  44.3130000  84.9670000  74.6350000  45.0610000
  82.1990000  74.4260000  44.5000000  82.1870000  74.1980000  43.4570000
  82.6370000  73.6170000  45.1420000  81.2090000  74.6720000  44.7890000
  83.9920000  77.0540000  46.8570000  84.9690000  76.5260000  47.2900000
  83.8570000  78.3480000  46.9370000  83.0010000  78.7580000  46.6330000
  84.8180000  79.2630000  47.5080000  85.8060000  79.0210000  47.1470000
  84.5760000  80.7200000  47.0620000  84.5620000  80.7520000  45.9480000
  83.5620000  81.0150000  47.3770000  85.5620000  81.7170000  47.4700000
  85.5190000  81.6780000  48.5130000  86.9610000  81.4570000  46.9320000
  86.8910000  81.4670000  45.8790000  87.6720000  82.2670000  47.1130000
  87.3770000  80.5350000  47.3210000  85.0680000  83.0750000  47.0190000
  85.6940000  83.7670000  47.5560000  85.2530000  83.1410000  45.9840000
  84.0030000  83.2090000  47.1170000  84.7630000  79.1630000  49.0500000
  85.7990000  79.0870000  49.7670000  83.5360000  79.2150000  49.5670000
  82.7300000  79.4070000  49.0050000  83.2560000  78.7380000  50.9550000
  83.7110000  79.4890000  51.6450000  81.7940000  78.8800000  51.3560000
  81.3360000  78.0080000  50.8760000  81.8180000  78.6060000  52.4120000
  80.9120000  80.1640000  51.0650000  80.8470000  80.2330000  49.9710000
  79.4360000  79.9620000  51.4870000  79.3200000  79.9250000  52.6420000
  78.7560000  80.6920000  51.0580000  79.1250000  79.1060000  50.9200000
  81.5590000  81.3930000  51.7140000  80.9150000  82.2450000  51.4830000
  81.4560000  81.3720000  52.7970000  82.6000000  81.5380000  51.4440000
  83.8770000  77.3750000  51.3000000  84.4830000  77.2730000  52.3330000
  83.6190000  76.3360000  50.4640000  83.0790000  76.5550000  49.6860000
  83.9910000  74.9250000  50.6800000  83.5970000  74.6320000  51.6430000
  83.5210000  73.9740000  49.5000000  82.3670000  74.0710000  49.2960000
  84.0720000  74.2270000  48.6230000  83.8380000  72.4770000  49.7840000
  83.6350000  72.0790000  50.9360000  84.4740000  71.8510000  48.9220000
  85.5050000  74.9000000  50.7280000  86.0310000  74.3060000  51.6660000
  86.1890000  75.5960000  49.8290000  85.6580000  76.0420000  49.0220000
  87.6890000  75.5700000  49.6890000  87.9530000  74.5570000  50.0370000
  88.1790000  75.7880000  48.2400000  87.4850000  76.5160000  47.7280000
  89.1390000  76.2040000  48.2790000  88.3780000  74.5200000  47.3550000
  89.7000000  74.0710000  47.2450000  90.5220000  74.4680000  47.7800000
  89.9950000  73.0170000  46.3670000  91.0030000  72.7410000  46.2110000
  89.0190000  72.4020000  45.5140000  89.3170000  71.5940000  44.4290000
  88.5400000  71.0200000  44.4340000  87.6820000  72.9070000  45.6830000
  86.7930000  72.4300000  45.2260000  87.4210000  74.0150000  46.4900000
  86.3760000  74.3230000  46.7320000  88.4690000  76.5060000  50.6740000
  89.6930000  76.6900000  50.6480000  87.6920000  76.9190000  51.6810000
  86.6530000  76.7210000  51.6460000  88.3490000  77.3760000  52.9560000
  89.3230000  76.8440000  52.9790000  88.6030000  78.8870000  52.9350000
  88.7590000  79.2390000  51.8930000  87.7770000  79.3920000  53.4400000
  89.9440000  79.2670000  53.6060000  90.0140000  78.7890000  54.5820000
  90.7380000  78.9000000  53.0050000  90.0400000  80.7970000  53.7390000
  89.0580000  81.4690000  54.1460000  91.2530000  81.3770000  53.6190000
  91.9840000  80.7500000  53.2500000  91.3710000  82.2830000  53.9850000
  87.5270000  76.9500000  54.2360000  87.6200000  77.5060000  55.3220000
  86.7500000  75.8650000  54.0420000  86.7660000  75.4330000  53.1140000
  85.9700000  75.1130000  54.9990000  85.5250000  74.2960000  54.4880000
  86.6670000  74.5570000  55.6850000  84.9120000  75.8840000  55.7950000
  84.5360000  75.5300000  56.9090000  84.4590000  77.0410000  55.3270000
  84.9330000  77.2530000  54.4540000  83.5190000  77.9540000  55.9760000
  83.7370000  78.0130000  57.0470000  83.7050000  79.3670000  55.4370000
  83.3670000  79.3490000  54.3800000  83.0250000  80.0470000  56.0300000
  85.1980000  79.8950000  55.2150000  85.7490000  79.4190000  56.0510000
  85.6700000  79.4860000  54.2840000  85.3300000  81.6650000  55.3390000
  83.9500000  82.2890000  54.2750000  83.9020000  83.4160000  54.4170000
  84.1740000  82.0070000  53.2430000  82.9500000  81.8780000  54.5500000
  82.0810000  77.5320000  55.9770000  81.3720000  78.0660000  56.7900000
  81.6220000  76.8080000  54.9740000  82.3760000  76.4660000  54.4010000
  80.2480000  76.2070000  54.9790000  79.7770000  76.6290000  55.8850000
  79.5450000  76.7660000  53.7200000  79.7820000  77.8850000  53.5800000
  80.1270000  76.4710000  52.8240000  78.0270000  76.5180000  53.5130000
  77.6000000  76.4430000  54.4900000  77.3040000  77.5830000  52.6320000
  76.2440000  77.4540000  52.8130000  77.6260000  78.5760000  52.8110000
  77.4130000  77.3620000  51.5910000  77.7960000  75.1400000  52.8840000
  76.8380000  75.0320000  52.5230000  78.5060000  74.9410000  52.0630000
  77.9490000  74.2920000  53.5740000  80.2540000  74.6770000  55.1240000
  80.4450000  73.9590000  54.1440000  80.0300000  74.1450000  56.3660000
  79.9750000  74.8530000  57.6530000  79.0310000  75.3880000  57.7770000
  80.8700000  75.5350000  57.6980000  80.2200000  73.6830000  58.6790000
  79.2170000  73.5860000  59.1830000  81.0610000  73.8920000  59.3450000
  80.5590000  72.4240000  57.9080000  80.0800000  71.5080000  58.3210000
  81.6300000  72.2580000  57.9010000  79.8670000  72.7050000  56.5330000
  80.4080000  72.1080000  55.7790000  78.3790000  72.2570000  56.6340000
  77.5750000  72.8860000  57.3200000  78.1360000  71.1620000  55.8720000
  78.8440000  70.7940000  55.2070000  77.0190000  70.2570000  56.1560000
  76.1530000  70.8530000  56.4110000  76.6120000  69.3820000  54.9850000
  77.4180000  68.6880000  54.7020000  75.3130000  68.5380000  55.3920000
  74.5660000  69.1560000  55.9430000  74.8700000  68.1680000  54.4230000
  75.7490000  67.6940000  55.9970000  76.2360000  70.2550000  53.8180000
  76.3680000  69.6370000  52.8780000  75.1890000  70.5500000  53.9110000
  76.9340000  71.1560000  53.6960000  77.3680000  69.4690000  57.3660000
  78.2780000  68.6120000  57.3450000  76.7380000  69.7370000  58.4900000
  75.9920000  70.4290000  58.4300000  77.3440000  69.4860000  59.7560000
  78.4180000  69.2780000  59.6390000  77.2890000  70.8310000  60.5160000
  77.9810000  70.9280000  61.3460000  77.6740000  71.5840000  59.8230000
  75.6350000  71.4390000  60.8900000  76.8490000  68.3190000  60.6440000
  77.1860000  68.3510000  61.8330000  76.2500000  67.2190000  60.1680000
  75.6520000  67.0130000  58.8100000  76.5050000  66.8900000  58.1030000
  74.9940000  67.8600000  58.5550000  75.0170000  65.6390000  58.8590000
  75.0180000  65.1430000  57.8950000  73.9890000  65.6430000  59.2640000
  75.8890000  64.8360000  59.8360000  76.5750000  64.2400000  59.2410000
  75.3390000  64.1650000  60.5620000  76.5740000  65.8670000  60.7260000
  76.1790000  65.8820000  61.7610000  78.0330000  65.5010000  60.6950000
  78.6810000  65.7160000  59.6660000  78.5410000  64.8510000  61.7340000
  77.9330000  64.8280000  62.5270000  80.0510000  64.5090000  61.9170000
  80.5640000  64.4510000  60.9240000  80.7930000  65.6860000  62.5750000
  80.1590000  66.0200000  63.4620000  81.7860000  65.3650000  62.8490000
  80.7950000  67.0230000  61.8830000  79.8330000  67.2590000  61.5000000
  81.1800000  68.1720000  62.7860000  82.2530000  68.0420000  63.0010000
  80.8570000  69.0740000  62.3240000  80.5420000  67.9820000  63.7080000
  81.8540000  66.9950000  60.7510000  81.7860000  66.1000000  60.2150000
  81.7210000  67.8370000  60.0870000  82.8870000  67.0810000  61.2430000
  80.2640000  63.1170000  62.5250000  79.4740000  62.7440000  63.3460000
  81.3980000  62.5100000  62.1600000  81.9950000  63.0650000  61.6200000
  81.9630000  61.2860000  62.8160000  81.2620000  60.4770000  62.7050000
  83.2920000  60.8760000  62.1410000  83.8350000  61.7660000  61.9560000
  84.2220000  60.0640000  62.9970000  83.7050000  59.1490000  63.4510000
  85.0160000  59.6640000  62.3570000  84.6930000  60.7080000  63.7680000
  83.0810000  60.2730000  60.7700000  82.2980000  60.9370000  60.3320000
  83.9590000  60.3610000  60.2560000  82.6230000  58.7970000  60.7470000
  82.0230000  58.5660000  59.8350000  83.5430000  58.2340000  60.7500000
  82.1780000  58.6440000  61.6460000  82.2240000  61.5670000  64.3320000
  82.8460000  62.6220000  64.6290000  81.8680000  60.6720000  65.2760000
  80.8120000  59.6550000  64.9730000  81.3200000  58.7400000  64.7040000
  80.1340000  60.0100000  64.2540000  80.0910000  59.6700000  66.3350000
  79.4900000  58.7580000  66.4650000  79.2670000  60.4920000  66.4080000
  81.1840000  59.8520000  67.4160000  81.7110000  58.9110000  67.5460000
  80.7600000  60.2530000  68.3620000  82.1400000  60.8560000  66.7530000
  81.8530000  61.8470000  67.0440000  83.6410000  60.7200000  67.1980000
  84.0630000  59.9740000  68.0960000  84.4740000  61.6360000  66.6390000
  84.1600000  62.1300000  65.8340000  85.9050000  61.6440000  66.8330000
  86.3230000  60.6280000  67.0040000  86.3080000  61.9910000  65.8470000
  86.2840000  62.5670000  67.9360000  86.8450000  63.6360000  67.7130000
  86.1870000  61.9340000  69.0670000  85.6470000  61.0210000  68.9750000
  86.2100000  62.5770000  70.4160000  85.2840000  63.2210000  70.3610000
  85.9900000  61.4380000  71.4290000  85.1880000  60.7160000  71.1230000
  86.8960000  60.8990000  71.3230000  85.7860000  61.9050000  72.7760000
  84.8320000  61.8060000  73.0210000  87.4230000  63.3850000  70.8270000
  87.2720000  64.3700000  71.5260000  88.6250000  63.0670000  70.3360000
  88.6870000  62.2330000  69.8080000  89.8620000  63.7830000  70.6610000
  89.7290000  64.2360000  71.6000000  91.0800000  62.8390000  70.8090000
  90.7920000  62.1060000  71.5840000  91.4810000  62.4390000  69.8480000
  92.2090000  63.4550000  71.4170000  92.6290000  64.1230000  70.8340000
  90.0760000  64.9400000  69.6870000  91.1020000  65.0470000  69.0650000
  89.0840000  65.8010000  69.6020000  88.2090000  65.5570000  70.0830000
  89.2000000  67.0390000  68.8350000  89.6310000  66.6890000  67.9290000
  87.8120000  67.5400000  68.4950000  87.1310000  66.7880000  68.1210000
  87.0910000  68.0750000  69.6720000  87.1450000  67.3540000  70.4430000
  87.5430000  68.9850000  69.9510000  85.9930000  68.1190000  69.3880000
  87.7460000  68.6660000  67.6140000  86.8010000  68.9980000  67.5610000
  90.1910000  68.0190000  69.4900000  90.4450000  67.8830000  70.6720000
  90.4870000  69.1320000  68.7440000  90.2240000  68.9730000  67.7180000
  91.2310000  70.3600000  69.0820000  91.6880000  70.1870000  70.0360000
  92.4500000  70.6390000  68.1040000  92.8620000  71.6220000  68.3410000
  93.7290000  69.7400000  68.3190000  94.2470000  69.8010000  69.2250000
  93.4430000  68.6630000  68.3620000  94.5000000  69.8680000  67.6140000
  92.0310000  70.4160000  66.7430000  91.5190000  71.1860000  66.3730000
  90.3470000  71.6280000  69.1950000  90.8500000  72.6650000  69.6320000
  89.0650000  71.5460000  68.9020000  88.6530000  70.6870000  68.5610000
  88.1440000  72.7570000  68.8140000  88.6930000  73.5250000  68.3250000
  86.9350000  72.3810000  68.0000000  86.3310000  71.6830000  68.6760000
  86.4450000  73.2610000  67.6700000  87.2690000  71.8310000  66.7240000
  86.5430000  71.2430000  66.3330000  87.6470000  73.1660000  70.2350000
  86.4930000  72.9400000  70.7040000  88.5940000  73.5870000  71.0680000
  89.5510000  73.5300000  70.7390000  88.4850000  74.0250000  72.4590000
  89.4400000  74.5600000  72.5030000  87.4620000  75.0710000  72.7700000
  87.6340000  75.4910000  73.8120000  87.4980000  76.2530000  71.8490000
  87.4620000  75.9640000  70.8320000  86.5260000  76.7660000  71.9580000
  88.3470000  76.9720000  71.9530000  86.1820000  74.5590000  72.7140000
  86.0930000  74.0690000  71.8070000  88.5570000  72.8820000  73.5010000
  88.6970000  73.0900000  74.7380000  88.5200000  71.6470000  73.0350000
  88.2060000  71.3620000  72.1010000  88.4860000  70.5570000  73.9750000
  89.4770000  70.5080000  74.4370000  87.8340000  70.8550000  74.8190000
  87.9540000  69.1670000  73.4710000  86.8490000  69.0660000  72.9160000
  88.7470000  68.0780000  73.6690000  90.1280000  68.0590000  74.2180000
  90.2470000  68.4980000  75.1850000  90.8780000  68.4960000  73.5490000
  90.5350000  66.6120000  74.3960000  91.3210000  66.4610000  75.1690000
  90.9240000  66.2160000  73.4030000  89.1960000  66.0090000  74.7230000
  88.9860000  66.1530000  75.7710000  89.2390000  64.9020000  74.6380000
  88.2700000  66.7030000  73.7480000  88.3980000  66.4000000  72.7070000
  86.7610000  66.5960000  74.2740000  86.4520000  67.0220000  75.3580000
  85.9220000  65.9400000  73.4610000  86.4170000  65.5370000  72.6410000
  84.4350000  66.0780000  73.5110000  84.2870000  67.1530000  73.4500000
  83.7940000  65.4360000  72.2250000  82.9480000  66.1360000  72.0280000
  84.4110000  65.5490000  71.3230000  83.3130000  63.7590000  72.5270000
  83.6510000  65.7500000  74.8050000  82.4510000  66.1320000  74.9610000
  84.3710000  65.1090000  75.7380000  85.3010000  64.9060000  75.4390000
  84.0450000  64.9630000  77.1610000  84.9840000  64.7170000  77.6270000
  83.4590000  66.2620000  77.8420000  84.2080000  67.0360000  77.6220000
  82.4490000  66.6170000  77.5480000  83.3810000  66.0570000  79.3560000
  83.2290000  64.9370000  79.4570000  84.2270000  66.5020000  79.8440000
  82.1150000  66.6910000  79.9580000  81.2410000  66.3250000  79.3760000
  82.0080000  66.3730000  80.9720000  82.0580000  68.1410000  79.9140000
  82.7990000  68.5480000  79.3700000  81.0850000  68.9730000  80.2710000
  81.2080000  70.2550000  80.0400000  82.0980000  70.5590000  79.7570000
  80.3510000  70.7850000  80.1460000  79.9590000  68.5730000  80.8810000
  79.1680000  69.2310000  81.1500000  79.7550000  67.5670000  80.9650000
  83.0980000  63.7850000  77.2500000  83.4360000  62.7350000  77.8210000
  81.8370000  64.0560000  76.8810000  81.6130000  65.0680000  76.6820000
  80.6810000  63.1790000  77.0330000  81.0590000  62.1940000  77.2650000
  79.6900000  63.7160000  78.1100000  78.7190000  63.1280000  78.1090000
  80.3720000  63.4230000  79.4390000  80.5580000  62.3310000  79.4170000
  81.2290000  64.0620000  79.5890000  79.6050000  63.5810000  80.1750000
  79.5620000  65.0870000  77.8860000  78.6220000  65.1950000  77.6750000
  79.8890000  62.9290000  75.7620000  78.9130000  62.2420000  75.7950000
  80.2890000  63.4370000  74.5710000  81.1710000  63.9180000  74.5140000
  79.4110000  63.3700000  73.4200000  78.4950000  63.8890000  73.6630000
  80.0870000  64.2350000  72.3310000  79.2460000  64.5050000  71.6150000
  80.4680000  65.2240000  72.7210000  81.5190000  63.5060000  71.4650000
  78.9650000  61.8940000  73.0590000  77.7750000  61.5850000  73.0240000
  79.9930000  60.9780000  73.0800000  80.8990000  61.3170000  73.1680000
  79.8960000  59.5000000  72.8400000  79.4290000  59.3300000  71.8450000
  81.3290000  58.9120000  72.8310000  81.1980000  57.8480000  72.6810000
  81.8850000  59.3490000  72.0020000  82.2450000  58.9760000  74.0960000
  81.7600000  59.0810000  75.0470000  82.6790000  57.9790000  74.1810000
  83.1470000  60.5280000  73.9710000  83.8330000  60.6410000  75.6100000
  84.5560000  59.8120000  75.7480000  84.3190000  61.5970000  75.5520000
  83.0390000  60.6970000  76.3450000  78.9780000  58.7430000  73.8140000
  78.2020000  57.9610000  73.3590000  79.0710000  59.1570000  75.0800000
  79.7030000  59.9690000  75.2100000  78.3750000  58.5190000  76.1920000
  77.2820000  58.6010000  76.1220000  78.7550000  57.0240000  76.2270000
  78.5060000  56.5330000  75.2740000  80.1700000  56.6290000  76.6070000
  80.4220000  55.5780000  76.3910000  80.8340000  57.1180000  75.8550000
  80.4310000  57.0330000  77.6290000  77.8050000  56.3760000  77.0050000
  78.0160000  55.4380000  77.0770000  78.7570000  59.3180000  77.5570000
  79.8500000  59.8860000  77.6270000  77.8470000  59.3580000  78.6240000
  76.3930000  59.2010000  78.4300000  76.0750000  58.2460000  78.7870000
  75.9920000  59.4260000  77.4280000  75.7740000  60.2030000  79.3870000
  74.7160000  60.0110000  79.5420000  75.8830000  61.1390000  78.8540000
  76.7890000  60.2130000  80.5590000  76.5800000  59.3650000  81.2240000
  76.6330000  61.2230000  80.9790000  78.1560000  59.9570000  79.9490000
  78.6390000  60.9520000  79.8350000  79.1510000  59.2380000  80.8600000
  78.8870000  59.0100000  82.0770000  80.3270000  58.9340000  80.3750000
  80.5140000  59.1330000  79.4430000  81.4220000  58.3520000  81.2260000
  81.0110000  57.6110000  81.8800000  82.5350000  57.7430000  80.2680000
  83.1670000  58.5130000  79.7090000  83.2760000  57.2580000  80.9090000
  82.0320000  57.0690000  79.6030000  82.1140000  59.3890000  82.1040000
  82.6880000  59.0480000  83.1610000  81.8610000  60.6630000  81.8550000
  81.4670000  60.9210000  80.9930000  82.1630000  61.7350000  82.8280000
  83.0820000  61.6230000  83.2250000  82.1120000  63.0710000  82.0340000
  82.6450000  62.9750000  81.0490000  81.0290000  63.3330000  81.9300000
  82.7570000  64.1170000  82.8020000  82.0020000  65.0780000  83.4630000
  80.9260000  64.9630000  83.5950000  82.6030000  66.1740000  84.0620000
  82.0700000  67.0040000  84.5530000  83.9840000  66.2670000  84.0370000
  84.3800000  66.9650000  84.7370000  84.8010000  65.2210000  83.5750000
  85.8640000  65.2680000  83.6640000  84.1850000  64.1040000  82.9460000
  84.8440000  63.4010000  82.4360000  81.1060000  61.8650000  83.9970000
  79.9630000  62.3410000  83.8460000  81.5270000  61.1690000  85.0460000
  82.3220000  60.6050000  84.8400000  80.6410000  60.7180000  86.1640000
  79.9690000  59.9100000  85.7080000  81.3390000  60.1330000  87.4080000
  80.7230000  60.1550000  88.3240000  81.5720000  59.0800000  87.2300000
  82.7190000  60.8200000  87.8260000  83.1120000  60.4070000  88.8100000
  83.4020000  60.6540000  87.0060000  82.4240000  62.3220000  88.0310000
  83.3570000  62.6910000  88.4200000  82.2130000  62.8320000  87.0370000
  81.3950000  62.5320000  89.0530000  80.4760000  62.7810000  88.7740000
  81.5980000  62.6050000  90.3850000  80.6220000  62.8580000  91.2280000
  80.8040000  63.0250000  92.2430000  79.6900000  62.8820000  90.8400000
  82.7470000  62.3950000  90.8780000  83.3370000  62.0100000  90.1650000
  82.8790000  62.2810000  91.9000000  79.5020000  61.6620000  86.6430000
  79.7740000  62.7900000  86.8120000  78.3080000  61.0290000  86.9210000
  78.2930000  60.0110000  86.7980000  77.1190000  61.6710000  87.6460000
  76.6540000  62.3740000  87.0130000  76.0850000  60.5830000  88.0750000
  75.1830000  61.0650000  88.5710000  75.8840000  59.9110000  87.2710000
  76.4670000  59.9790000  88.9280000  77.5550000  62.4120000  88.9540000
  78.5500000  62.0110000  89.5250000  76.9110000  63.4930000  89.3630000
  76.0550000  63.7480000  88.9210000  77.3850000  64.3230000  90.4760000
  78.3930000  64.6850000  90.3020000  76.5190000  65.5780000  90.4170000
  76.2680000  65.8440000  89.3540000  75.5670000  65.3960000  90.8680000
  77.1170000  66.7980000  91.1370000  78.2210000  66.7070000  91.6690000
  76.4720000  67.9270000  91.0210000  76.8030000  68.7360000  91.4810000
  75.5380000  67.8350000  90.6680000  77.4220000  63.5810000  91.8880000
  76.9010000  62.5150000  92.1100000  78.1190000  64.1180000  92.9420000
  78.2750000  65.1290000  92.8290000  78.2840000  63.4100000  94.2210000
  78.6380000  62.3550000  93.9860000  79.5400000  63.7650000  94.9650000
  79.5190000  64.7160000  95.4500000  80.0600000  62.7960000  96.0380000
  80.8040000  63.3590000  96.5670000  79.3420000  62.7020000  96.8420000
  80.5220000  61.8980000  95.7070000  80.5500000  63.8180000  94.0070000
  80.4510000  64.7680000  93.7130000  77.0500000  63.3430000  95.1900000
  76.8460000  64.1500000  96.0830000  76.1170000  62.4700000  94.8100000
  76.2480000  62.0520000  93.9220000  74.8690000  62.1440000  95.5210000
  74.2060000  63.0430000  95.6500000  74.0290000  61.1480000  94.7310000
  73.5170000  61.6840000  93.9800000  74.6740000  60.3470000  94.4830000
  73.2210000  60.8750000  95.3670000  75.3130000  61.5770000  96.8510000
  76.3860000  60.9810000  96.9930000  74.4990000  61.8780000  97.8740000
  73.6490000  62.3630000  97.6670000  74.4440000  61.5990000  99.3230000
  74.0770000  60.6040000  99.4640000  75.7390000  61.7590000 100.0800000
  76.3200000  62.5940000  99.6960000  75.5400000  62.0540000 101.0830000
  76.4030000  60.3900000 100.3820000  76.0720000  59.6520000 101.2820000
  77.4320000  60.0450000  99.6540000  77.3440000  59.0790000  99.5980000
  77.5040000  60.6210000  98.8050000  73.2890000  62.4060000  99.9310000
  72.9050000  63.4660000  99.3570000  72.5750000  61.9400000 101.0230000
  72.8600000  60.8230000 101.9010000  73.3670000  61.2490000 102.8050000
  73.5680000  60.1130000 101.4280000  71.5610000  60.0830000 102.2180000
  71.5920000  59.5350000 103.1170000  71.2320000  59.4020000 101.5250000
  70.6440000  61.3460000 102.3030000  70.8160000  61.7390000 103.2920000
  69.5960000  61.0660000 102.0470000  71.1640000  62.3620000 101.3080000
  70.5730000  62.2460000 100.4070000  71.0290000  63.7460000 101.7780000
  69.9300000  64.3090000 101.7660000  72.1320000  64.4360000 102.0700000
  73.0280000  63.9130000 102.0880000  72.3110000  65.9050000 102.3610000
  71.6480000  66.2080000 103.1560000  73.7380000  66.2050000 102.9630000
  73.9900000  67.2080000 102.5830000  73.6550000  66.1290000 103.9910000
  74.8190000  65.2870000 102.4230000  74.8160000  64.0770000 102.7390000
  75.7340000  65.8160000 101.6660000  71.7850000  66.7970000 101.2240000
  71.3610000  67.9380000 101.4740000  71.8020000  66.2470000  99.9220000
  72.3140000  65.3470000  99.8340000  71.1710000  66.8750000  98.7820000
  70.4080000  67.4790000  99.2750000  72.1230000  67.8570000  98.0770000
  71.5170000  68.5770000  97.5590000  72.6910000  68.4550000  98.7360000
  73.0450000  67.2140000  97.0910000  74.1180000  66.4230000  97.5050000
  74.3390000  66.2040000  98.5380000  74.6900000  65.9320000  96.4120000
  75.4420000  65.2940000  96.4740000  74.1160000  66.3060000  95.2140000
  74.4380000  66.1580000  93.8790000  75.3070000  65.7180000  93.4610000
  73.6500000  66.8490000  92.9340000  73.8910000  66.7440000  91.8960000
  72.3870000  67.4470000  93.2950000  71.8060000  67.8690000  92.5060000
  72.1150000  67.5850000  94.6790000  71.1890000  68.1010000  94.9490000
  72.9780000  67.0740000  95.6460000  70.5720000  65.9180000  97.7030000
  69.7120000  66.3470000  96.9890000  70.9840000  64.6210000  97.5700000
  71.6730000  64.1880000  98.1990000  70.3750000  63.6970000  96.5990000
  69.3710000  64.0420000  96.2490000  71.1040000  63.7040000  95.2540000
  71.2070000  64.7690000  95.0000000  72.1060000  63.3010000  95.3770000
  70.5270000  62.9860000  94.0070000  71.0250000  63.1480000  92.9040000
  69.3870000  62.4520000  94.1320000  70.4480000  62.2300000  97.0720000
  71.4370000  61.5980000  97.4200000  69.2500000  61.6660000  97.0720000
  68.4890000  62.2150000  96.7050000  68.8480000  60.3390000  97.4810000
  69.5080000  59.9740000  98.1330000  67.5190000  60.4000000  98.1590000
  67.3740000  59.3570000  98.5370000  67.6980000  61.1020000  98.9440000
  66.4100000  60.9070000  97.2760000  65.7330000  60.0690000  96.3750000
  66.0660000  59.0290000  96.3290000  64.6290000  60.3780000  95.6340000
  64.0890000  59.6530000  95.1170000  64.1660000  61.7130000  95.6990000
  63.3900000  62.0830000  95.0350000  64.8670000  62.6740000  96.5460000
  64.4180000  63.6090000  96.7000000  65.9920000  62.2560000  97.2870000
  66.4620000  62.8850000  98.0720000  68.8340000  59.2570000  96.3740000
  68.5490000  58.0780000  96.6650000  69.1950000  59.7130000  95.1790000
  69.4360000  60.6610000  95.0540000  69.3180000  58.8850000  94.0040000
  68.9240000  57.9170000  94.2150000  68.4240000  59.4970000  92.8690000
  69.0220000  60.3920000  92.4240000  68.3490000  58.7120000  92.1280000
  67.0620000  59.9630000  93.3450000  66.0880000  59.2340000  93.3580000
  66.9500000  61.2380000  93.6730000  66.0880000  61.2840000  94.2370000
  67.7610000  61.8410000  93.8490000  70.7650000  58.6810000  93.5390000
  71.6060000  59.6030000  93.7440000  71.0860000  57.6190000  92.8070000
  70.3200000  56.4310000  92.5460000  69.4260000  56.7240000  91.9380000
  70.1800000  55.8840000  93.5120000  71.1830000  55.5260000  91.6100000
  70.5290000  55.2410000  90.7490000  71.6590000  54.6940000  92.1590000
  72.3220000  56.4210000  91.0830000  72.1200000  56.6320000  90.0210000
  73.3290000  55.9810000  91.1310000  72.2550000  57.7050000  91.9060000
  73.1370000  57.8410000  92.4360000  71.9080000  58.9450000  91.0130000
  70.7540000  59.0080000  90.6230000  72.8450000  59.9330000  90.8050000
  73.7040000  59.7780000  91.2970000  72.5220000  61.2700000  90.4610000
  71.6370000  61.5390000  91.1370000  73.7010000  62.1630000  90.8250000
  73.6710000  62.2570000  91.8980000  74.5530000  61.7350000  90.4340000
  73.5210000  63.6460000  90.3420000  73.9320000  64.0050000  89.2840000
  72.6270000  64.3800000  90.9570000  72.4380000  65.2900000  90.4980000
  72.2120000  64.1020000  91.8580000  71.9900000  61.5070000  89.0500000
  72.6770000  61.1850000  88.1030000  70.7620000  62.0300000  88.9820000
  70.3970000  62.3040000  89.8830000  69.8240000  62.0260000  87.8710000
  70.3230000  61.5430000  87.0070000  68.5950000  61.1260000  88.4170000
  67.7260000  61.2250000  87.6700000  68.8890000  60.0590000  88.5490000
  67.9910000  61.5480000  89.7100000  67.1930000  60.8510000  89.9350000
  68.8090000  61.3270000  90.4890000  67.6230000  63.0300000  89.7950000
  68.4130000  63.7140000  89.5480000  66.9020000  63.1820000  89.0770000
  67.1640000  63.5640000  91.1640000  66.5880000  64.4490000  91.0480000
  66.5670000  62.7950000  91.6400000  68.3730000  63.8620000  91.9780000
  68.7690000  62.9990000  92.3400000  69.0760000  64.2770000  91.2980000
  68.3580000  64.5810000  92.6760000  69.4410000  63.3730000  87.2680000
  68.6030000  63.4550000  86.3380000  70.0690000  64.4660000  87.6850000
  70.7360000  64.4520000  88.4850000  69.8500000  65.8590000  87.1680000
  69.0340000  65.8800000  86.5020000  69.4300000  66.7590000  88.3480000
  69.6590000  67.8010000  88.1420000  68.3970000  66.7200000  88.3590000
  70.0600000  66.5570000  89.6810000  71.2720000  66.8430000  89.7840000
  69.4380000  66.0020000  90.5880000  71.1340000  66.5170000  86.4810000
  71.1920000  66.7460000  85.2480000  72.1730000  66.6070000  87.2800000
  71.8760000  66.5280000  88.2830000  73.4070000  67.3750000  87.1170000
  73.2490000  67.9830000  86.2690000  73.6950000  68.2440000  88.3520000
  74.6610000  68.6560000  88.1390000  72.8090000  69.4190000  88.5830000
  73.2740000  69.9760000  89.4380000  72.8190000  70.0110000  87.7070000
  71.8260000  69.0060000  88.8220000  73.8090000  67.4860000  89.5530000
  72.8820000  67.3840000  89.7070000  74.6160000  66.4600000  86.8270000
  75.6780000  66.7800000  87.2670000  74.4630000  65.3400000  86.1940000
  73.4940000  65.1590000  85.8800000  75.4810000  64.5270000  85.5350000
  76.3280000  64.4230000  86.1180000  74.8850000  63.1400000  85.1510000
  75.6800000  62.6090000  84.5920000  74.7630000  62.5580000  86.0430000
  73.5270000  63.1110000  84.4470000  72.2890000  63.3960000  84.9990000
  72.1830000  63.6940000  86.0430000  71.3380000  63.3300000  84.0700000
  70.3600000  63.4030000  84.4060000  71.7850000  62.9110000  82.8380000
  71.2710000  62.7550000  81.5480000  70.2410000  62.8140000  81.3070000
  72.0230000  62.4650000  80.4410000  71.5970000  62.3880000  79.4130000
  73.4470000  62.4030000  80.6310000  73.9870000  62.2930000  79.7050000
  74.0090000  62.4890000  81.9150000  75.0840000  62.4730000  82.0330000
  73.2100000  62.7770000  83.0520000  76.0510000  65.2650000  84.3150000
  75.2220000  65.4720000  83.4100000  77.3680000  65.6390000  84.1970000
  78.4000000  65.3720000  85.2200000  79.1510000  64.6500000  84.9290000
  77.9810000  65.1220000  86.2130000  79.0360000  66.7080000  85.4340000
  80.0130000  66.6230000  85.8050000  78.4180000  67.3470000  86.1220000
  79.0590000  67.3940000  84.0670000  80.0180000  67.0520000  83.5050000
  78.8980000  68.4410000  84.1670000  77.8140000  66.7590000  83.3890000
  77.0770000  67.5910000  83.4870000  77.8550000  66.4550000  81.8370000
  78.9170000  66.0740000  81.2910000  76.7610000  66.5350000  81.0680000
  75.9610000  67.0270000  81.5030000  76.6940000  66.1520000  79.6150000
  77.7470000  66.2350000  79.1530000  76.1430000  64.6910000  79.5320000
  76.5880000  64.0250000  80.2190000  75.0890000  64.8910000  79.7420000
  76.1240000  64.1070000  78.1200000  75.2730000  63.1830000  77.8790000
  76.8180000  64.6370000  77.2450000  75.6320000  67.1080000  78.8820000
  74.9080000  67.8930000  79.4790000  75.6820000  67.1760000  77.5270000
  76.2820000  66.5410000  77.0090000  74.7760000  67.9330000  76.6580000
  74.2870000  68.6790000  77.2800000  75.4850000  68.6330000  75.5230000
  76.2400000  67.9040000  75.1890000  74.7700000  68.9320000  74.6900000
  75.9720000  69.5100000  75.9470000  73.7080000  67.0070000  76.0270000
  72.7820000  67.5490000  75.4770000  73.8260000  65.6670000  76.0580000
  74.4490000  65.2100000  76.7300000  72.9620000  64.7910000  75.1890000
  72.9360000  65.2310000  74.2170000  73.5620000  63.3440000  75.0950000
  73.6150000  62.8410000  76.0680000  72.9070000  62.7640000  74.4590000
  74.8950000  63.3060000  74.5080000  75.1850000  63.9120000  73.4410000
  75.6970000  62.5080000  75.1740000  76.5910000  62.2230000  74.7750000
  75.4950000  62.4170000  76.1600000  71.5380000  64.6970000  75.7030000
  70.6070000  64.0660000  75.0760000  71.2710000  65.4260000  76.7530000
  71.9910000  66.0670000  76.9920000  69.9890000  65.6790000  77.3310000
  69.5260000  64.7400000  77.6830000  70.1920000  66.5130000  78.6020000
  70.5080000  67.5300000  78.2780000  69.3080000  66.4710000  79.1560000
  71.3050000  65.8610000  79.4920000  71.1710000  64.7550000  79.4320000
  72.2130000  66.2910000  79.0830000  71.2170000  66.3940000  80.9000000
  71.0380000  67.4860000  80.8580000  70.2910000  66.0740000  81.3960000
  72.4740000  65.9440000  81.6030000  72.5150000  64.8420000  81.8910000
  73.3750000  66.1760000  80.9880000  72.6730000  66.7290000  82.8720000
  73.5580000  66.4100000  83.3670000  72.8030000  67.7280000  82.6440000
  71.9370000  66.6390000  83.5680000  69.0410000  66.4500000  76.2580000
  67.8480000  66.1720000  76.3080000  69.5480000  67.1490000  75.2570000
  70.5190000  67.2990000  75.2790000  68.8870000  67.7210000  74.0540000
  67.7970000  67.5930000  74.2530000  69.4400000  69.1680000  73.7920000
  70.5000000  69.1100000  73.9770000  69.1560000  69.6880000  72.2950000
  68.0860000  69.5720000  72.0560000  69.4050000  70.7040000  72.1410000
  69.8550000  69.0380000  71.6520000  68.7430000  70.1580000  74.7100000
  67.6710000  70.1000000  74.5500000  68.8810000  69.9130000  75.7340000
  69.2240000  71.2180000  74.7060000  69.3030000  66.7550000  72.9090000
  70.3960000  66.1880000  72.8830000  68.4160000  66.3670000  71.9740000
  66.9750000  66.5780000  72.0650000  66.7950000  67.6050000  71.9280000
  66.6750000  66.2340000  73.1180000  66.2930000  65.6320000  71.0180000
  65.5330000  66.2210000  70.5230000  65.9930000  64.6520000  71.4950000
  67.4510000  65.4690000  70.0360000  67.3040000  66.3680000  69.3560000
  67.2480000  64.5820000  69.4240000  68.7830000  65.5770000  70.7620000
  69.0290000  64.5950000  71.1750000  69.9750000  66.0350000  69.9890000
  70.3130000  65.3050000  69.0330000  70.6820000  67.1380000  70.2340000
  70.4120000  67.6410000  71.0380000  71.8330000  67.5990000  69.4940000
  71.6290000  67.3550000  68.4520000  71.9830000  69.1210000  69.7780000
  72.9220000  69.4540000  69.2860000  71.0990000  69.7180000  69.5960000
  72.1040000  69.2150000  70.8650000  73.1540000  66.8260000  69.8300000
  74.1760000  67.4190000  70.1910000  73.0720000  65.5220000  69.8740000
  72.1740000  65.1170000  69.5490000  73.9580000  64.6670000  70.6240000
  74.0920000  65.0200000  71.6410000  73.1970000  63.3390000  70.7240000
  73.0250000  62.9490000  69.6740000  73.7550000  62.5440000  71.2920000
  71.8570000  63.4330000  71.5590000  72.0440000  64.0160000  72.3820000
  71.1530000  63.9840000  70.8830000  71.2830000  62.1440000  72.0420000
  71.5990000  61.1120000  71.5300000  70.3810000  62.2580000  72.9840000
  70.2090000  63.1660000  73.3510000  70.1500000  61.5120000  73.5540000
  75.3230000  64.5480000  69.9340000  75.9780000  65.4570000  69.3720000
  76.0150000  63.4490000  70.3550000  75.4400000  62.8570000  70.9830000
  77.2750000  62.9410000  69.7650000  77.3370000  63.2550000  68.7220000
  78.1350000  63.4950000  70.0810000  77.4640000  61.4300000  69.8440000
  78.6220000  60.9330000  69.8110000  76.4280000  60.6690000  70.0930000
  75.4930000  61.0430000  69.9510000  76.4950000  59.3070000  70.6110000
  77.2630000  59.2920000  71.4730000  75.0840000  58.9780000  71.1580000
  74.9720000  57.9260000  71.3420000  74.8070000  59.5900000  72.5260000
  74.7400000  60.6550000  72.4170000  73.9450000  59.2600000  73.0360000
  75.6970000  59.4110000  73.1340000  74.0800000  59.4650000  70.2800000
  73.3570000  59.6790000  70.8350000  76.9820000  58.2780000  69.5480000
  78.0870000  57.7840000  69.6220000  76.1890000  58.1590000  68.4520000
  75.2720000  58.4900000  68.4500000  76.6050000  57.3960000  67.2970000
  77.4780000  56.7510000  67.4810000  75.4380000  56.4400000  66.9770000
  75.6300000  55.9070000  66.0940000  75.3270000  55.7900000  67.8740000
  74.1970000  57.1200000  66.7360000  73.7460000  56.5980000  66.0110000
  76.9490000  58.2610000  65.9950000  77.1300000  57.7770000  64.8680000
  76.7130000  59.5660000  66.1860000  76.5590000  59.8840000  67.1150000
  76.6580000  60.6200000  65.1650000  77.4650000  60.6130000  64.4820000
  75.4430000  60.3910000  64.2630000  75.7040000  59.5870000  63.4970000
  74.6040000  59.9190000  64.8370000  74.9120000  61.5780000  63.5230000
  74.2310000  61.2250000  62.6560000  74.2740000  62.1810000  64.1800000
  76.2340000  62.5240000  62.6990000  76.9850000  61.3110000  61.6280000
  77.3920000  60.4950000  62.2360000  76.1560000  60.9710000  61.0260000
  77.6280000  61.7890000  60.9560000  76.6660000  61.8850000  65.9960000
  76.1200000  62.0120000  67.1070000  77.4730000  62.8590000  65.5180000
  78.0040000  62.6920000  64.6130000  77.6200000  64.2460000  66.0990000
  77.1380000  64.3050000  67.1090000  79.1250000  64.5320000  66.2880000
  79.5450000  63.6790000  66.7970000  79.6310000  64.5640000  65.3030000
  79.4100000  65.7570000  67.0680000  79.5020000  67.0380000  66.4730000
  79.2320000  67.0630000  65.4170000  79.7620000  68.1950000  67.2140000
  79.7840000  69.1260000  66.7650000  79.9290000  68.1180000  68.5910000
  80.0870000  69.2410000  69.3970000  80.4400000  69.9560000  68.9020000
  79.7460000  66.8610000  69.2150000  79.7260000  66.7630000  70.2750000
  79.5340000  65.6790000  68.4720000  79.5240000  64.7990000  69.0700000
  76.7820000  65.1570000  65.2460000  77.3250000  65.7360000  64.2850000
  75.4120000  65.2310000  65.3880000  74.6170000  64.4530000  66.2650000
  74.9150000  64.5360000  67.2760000  74.6030000  63.4250000  65.8470000
  73.1790000  64.9990000  66.2320000  72.9990000  65.7990000  67.0080000
  72.3360000  64.2790000  66.4280000  73.1970000  65.5380000  64.8550000
  72.5380000  66.3720000  64.7270000  72.9740000  64.8260000  64.0430000
  74.5780000  66.1280000  64.6450000  74.9180000  66.1020000  63.6030000
  74.7910000  67.5580000  65.2190000  74.5130000  67.8180000  66.3510000
  75.2650000  68.4540000  64.3240000  75.6730000  68.0920000  63.5240000
  75.3990000  69.9440000  64.5770000  75.5430000  70.3030000  63.5810000
  74.1650000  70.6320000  65.2230000  73.2540000  70.3610000  64.6170000
  74.0910000  70.3070000  66.2710000  74.2020000  72.0250000  65.2080000
  74.8960000  72.2300000  65.8080000  76.7600000  70.3330000  65.2070000
  77.0950000  69.7450000  66.2430000  77.5380000  71.2840000  64.6090000
  77.2370000  71.6780000  63.7460000  78.9210000  71.4060000  65.0220000
  79.3400000  70.4250000  65.1150000  79.6690000  71.9630000  63.8390000
  79.5870000  71.2600000  63.0360000  79.2980000  72.9380000  63.5100000
  81.3740000  72.3070000  64.1630000  79.1790000  72.2520000  66.3280000
  79.4550000  71.7970000  67.4250000  79.1640000  73.6360000  66.2250000
  78.7440000  73.9830000  65.3980000  80.2980000  74.4390000  66.7560000
  81.1810000  73.7430000  66.7090000  80.6510000  75.5060000  65.6910000
  80.7080000  75.0100000  64.7120000  79.9270000  76.3050000  65.7420000
  82.1340000  76.3920000  66.0380000  83.0260000  75.4890000  65.5290000
  80.0820000  74.9660000  68.1380000  79.7170000  76.1620000  68.3600000
  80.3170000  74.0810000  69.1370000  80.6440000  73.1630000  68.9090000
  79.7200000  74.2470000  70.4650000  79.7500000  73.3930000  71.0470000
  80.6080000  75.2910000  71.2330000  80.4510000  76.3360000  70.8730000
  80.3190000  75.2690000  72.2790000  82.4170000  75.0550000  71.1470000
  78.2170000  74.5510000  70.4460000  77.6440000  75.1550000  71.3690000
  77.5810000  73.8710000  69.5230000  78.0980000  73.3360000  68.8470000
  76.1160000  73.7860000  69.4970000  75.6670000  74.7490000  69.9040000
  75.5820000  73.6350000  68.0510000  74.4510000  73.4470000  68.1130000
  75.8840000  74.9490000  67.2790000  76.9490000  75.1350000  67.2860000
  75.6510000  74.8520000  66.2490000  75.2390000  75.7730000  67.6230000
  76.1060000  72.5190000  67.3740000  75.9230000  71.7900000  67.9880000
  75.6090000  72.6820000  70.3480000  75.0270000  71.7660000  69.8250000
  75.9660000  72.6880000  71.6130000  76.4220000  73.4970000  72.0150000
  75.6680000  71.5830000  72.5300000  74.9640000  70.8990000  72.0890000
  76.9510000  70.6250000  72.7330000  77.7180000  71.3260000  73.2400000
  76.6230000  69.8470000  73.3680000  77.5790000  70.1250000  71.4700000
  77.7030000  70.9630000  70.8120000  78.5740000  69.8140000  71.6210000
  76.7810000  68.9950000  70.7720000  77.1530000  67.9700000  71.0970000
  75.6740000  69.2410000  71.0040000  76.9250000  69.2210000  69.2350000
  76.4800000  70.1440000  68.9550000  77.9400000  69.3320000  68.9610000
  76.3020000  68.0990000  68.5140000  76.7190000  67.2100000  68.7270000
  75.3170000  68.0120000  68.7240000  76.3370000  68.2780000  67.5350000
  75.0920000  72.2130000  73.8180000  75.8690000  72.5110000  74.7150000
  73.7350000  72.3440000  73.9140000  72.7600000  72.0670000  72.8310000
  72.6430000  71.0210000  72.6450000  73.0220000  72.5560000  71.9010000
  71.5130000  72.6980000  73.3180000  70.8790000  71.9020000  73.6660000
  71.0680000  73.2880000  72.5150000  71.8850000  73.5320000  74.6250000
  71.1070000  73.4670000  75.3680000  71.9180000  74.5470000  74.3240000
  73.1590000  72.9210000  75.1150000  73.7820000  73.7690000  75.4760000
  73.0400000  71.8860000  76.2680000  73.3710000  70.7540000  76.0480000
  72.6750000  72.4040000  77.4350000  72.5230000  73.4060000  77.4820000
  72.5330000  71.7930000  78.7670000  71.7190000  72.3300000  79.2860000
  71.9810000  70.3050000  78.6740000  71.0540000  70.4710000  78.0250000
  72.6570000  69.5710000  78.1710000  71.6530000  69.8650000  80.0180000
  72.4550000  69.6520000  80.5920000  73.7890000  72.0600000  79.6640000
  74.2430000  73.1350000  79.7750000  74.3510000  70.9940000  80.1760000
  73.9860000  70.0550000  80.1420000  75.5050000  71.0930000  81.1530000
  75.8030000  72.1300000  81.2580000  75.0510000  70.5700000  82.5500000
  75.9190000  70.4990000  83.1890000  74.4730000  71.3960000  83.1500000
  74.2670000  69.2900000  82.5550000  74.6790000  68.4600000  83.3540000
  73.3630000  69.0400000  81.7550000  76.8210000  70.4380000  80.5480000
  77.7640000  70.2260000  81.2670000  76.7880000  70.1140000  79.2350000
  75.8890000  70.3460000  78.8520000  77.8120000  69.5380000  78.3710000
  78.2370000  68.7260000  78.9520000  77.3990000  69.0300000  77.5100000
  78.9150000  70.5170000  77.9100000  79.1880000  71.4660000  78.5980000
  79.6060000  70.2870000  76.8240000  79.4310000  69.5510000  76.1880000
  80.9070000  70.9230000  76.6310000  81.0870000  71.6500000  77.4750000
  81.9390000  69.8150000  76.6180000  81.5030000  68.9090000  77.1150000
  82.0540000  69.4430000  75.6580000  83.1830000  70.2750000  77.2740000
  83.4000000  70.0310000  78.4910000  84.0740000  70.9630000  76.6240000
  84.9820000  71.1390000  77.0770000  84.0320000  71.2230000  75.6530000
  81.0410000  71.8250000  75.3900000  80.5480000  71.3660000  74.3560000
  81.6780000  72.9930000  75.3500000  81.9650000  73.5410000  76.1410000
  82.0760000  73.5470000  74.0950000  81.1670000  73.6850000  73.5540000
  82.7390000  74.9050000  74.3580000  82.0780000  75.4860000  75.0210000
  83.7150000  74.8590000  74.7990000  83.0070000  75.9410000  72.8490000
  83.0510000  72.6540000  73.3010000  84.0510000  72.2810000  73.8960000
  82.5850000  72.1040000  72.2380000  81.6150000  72.2940000  71.9050000
  83.4230000  71.2260000  71.4030000  84.4200000  71.5880000  71.5010000
  83.4080000  69.8260000  72.0340000  83.7010000  69.9460000  73.0610000
  82.1280000  69.0890000  71.8460000  82.1320000  68.2930000  72.6540000
  81.2540000  69.7090000  72.0140000  82.1980000  68.7350000  70.8010000
  84.4050000  69.0860000  71.4880000  85.2510000  69.1290000  72.0200000
  82.8210000  71.1420000  69.9910000  81.7170000  71.5800000  69.7480000
  83.5680000  70.5400000  68.9890000  84.4780000  70.1100000  69.1550000
  83.1230000  70.0950000  67.6790000  82.2960000  69.4010000  67.8030000
  82.5820000  71.2060000  66.8060000  81.8410000  71.7710000  67.3420000
  83.3780000  71.9140000  66.6360000  81.9930000  70.6290000  65.1360000
  84.2690000  69.4380000  66.9300000  85.4360000  69.8270000  66.9890000
  83.9980000  68.2510000  66.4360000  83.0630000  67.8730000  66.5620000
  84.8840000  67.3930000  65.5870000  85.4990000  66.8990000  66.2500000
  84.0290000  66.2470000  64.9400000  83.4980000  66.6500000  64.0470000
  84.9150000  65.1700000  64.3960000  84.3130000  64.4930000  63.8880000
  85.5880000  65.4950000  63.6450000  85.6600000  64.7980000  65.1260000
  82.8800000  65.7140000  65.8490000  82.1960000  66.5530000  65.9720000
  82.4840000  64.8540000  65.3450000  83.3110000  65.0760000  67.1860000
  82.3910000  64.9800000  67.6960000  83.8350000  64.1620000  67.1330000
  83.8690000  65.8110000  67.8060000  85.6780000  68.2320000  64.5450000
  85.1180000  69.1300000  63.9320000  87.0140000  67.9770000  64.3050000
  87.8620000  66.9240000  64.8620000  87.6000000  65.9840000  64.2860000
  87.5570000  66.9110000  65.9060000  89.3320000  67.4600000  64.6860000
  90.0160000  66.6350000  64.8650000  89.4030000  68.2320000  65.4180000
  89.2060000  68.0750000  63.2880000  89.2440000  67.2650000  62.5510000
  89.9500000  68.8280000  63.0250000  87.7780000  68.7080000  63.3430000
  87.9080000  69.7580000  63.6610000  87.1530000  68.8160000  61.9080000
  86.6020000  67.8250000  61.4550000  87.2250000  70.0070000  61.3100000
  87.6200000  70.7510000  61.9020000  86.8320000  70.2630000  59.8960000
  86.6720000  69.2530000  59.4540000  85.5160000  71.0610000  59.7200000
  85.6820000  72.1280000  60.0090000  85.1610000  71.1930000  58.2180000
  85.9670000  71.6850000  57.7070000  85.1040000  70.2480000  57.6590000
  84.3680000  71.9490000  58.1970000  84.3190000  70.4770000  60.4990000
  84.2480000  69.6400000  59.8870000  84.6650000  70.2020000  61.5090000
  83.0030000  71.3170000  60.4670000  82.3600000  71.0830000  61.3020000
  83.2750000  72.3680000  60.4470000  82.5040000  70.9670000  59.5370000
  88.0970000  71.0070000  59.2770000  88.4420000  72.0990000  59.7180000
  88.7710000  70.4640000  58.2330000  88.6380000  69.0640000  57.7430000
  87.6490000  68.7110000  57.6020000  89.2660000  68.3670000  58.4070000
  89.3350000  69.0910000  56.3400000  88.5320000  69.2170000  55.6160000
  89.8450000  68.1640000  56.1760000  90.2440000  70.3630000  56.4650000
  90.4130000  70.8980000  55.5520000  91.2290000  70.0200000  56.8520000
  89.7020000  71.2970000  57.5020000  90.5710000  71.5110000  58.1150000
  89.1490000  72.5890000  56.9120000  87.9770000  72.5680000  56.5680000
  89.9760000  73.6370000  56.7850000  90.8170000  73.5310000  57.3250000
  89.7510000  74.7840000  55.9590000  88.7210000  75.0190000  56.1590000
  90.6830000  75.9310000  56.4930000  90.7200000  76.8090000  55.8960000
  90.3610000  76.2230000  57.4970000  92.0350000  75.3140000  56.4600000
  92.0550000  75.0020000  55.5210000  89.8580000  74.4160000  54.4650000
  90.6510000  74.9860000  53.7200000  89.0680000  73.4050000  54.0020000
  88.6640000  72.8920000  54.7380000  88.8960000  72.7880000  52.6500000
  88.4200000  73.5070000  52.0130000  90.1910000  72.3090000  52.0010000
  89.8620000  71.9920000  50.9840000  90.8770000  73.1960000  52.0140000
  90.8080000  71.2220000  52.7010000  90.3390000  70.3840000  52.5030000
  87.8870000  71.5920000  52.7630000  87.9240000  70.9000000  53.7940000
  86.9260000  71.4240000  51.8120000  86.7250000  72.1550000  51.1600000
  86.1390000  70.1670000  51.6850000  85.6700000  70.1190000  50.6810000
  86.8660000  68.7780000  51.7090000  87.2140000  68.6150000  52.7710000
  86.1840000  67.9870000  51.3710000  88.0730000  68.8570000  50.8330000
  88.2290000  69.6640000  49.7260000  87.4560000  70.3170000  49.4240000
  89.4400000  69.4980000  49.1990000  89.7560000  69.7740000  48.2590000
  90.2000000  68.5740000  49.8920000  91.4260000  67.9970000  49.6460000
  92.0940000  68.6260000  49.0580000  91.8600000  66.9670000  50.3840000
  92.8480000  66.5800000  50.3510000  91.0910000  66.4110000  51.3820000
  91.5020000  65.7310000  52.0520000  89.8300000  66.9810000  51.6810000
  89.2790000  66.6260000  52.5480000  89.3160000  68.0940000  50.9160000
  84.9710000  70.0360000  52.7720000  84.4260000  68.9990000  53.1780000
  84.5960000  71.1560000  53.4040000  84.8910000  72.0380000  53.0850000
  83.6650000  71.1180000  54.6400000  84.0060000  70.3320000  55.3470000
  83.8970000  72.4560000  55.3710000  83.5380000  73.3800000  54.7630000
  83.4120000  72.4190000  56.2960000  84.9900000  72.5370000  55.5010000
  82.2540000  70.8260000  54.1580000  81.4950000  70.0730000  54.7520000
  81.8390000  71.4850000  53.0300000  82.4680000  72.0970000  52.5610000
  80.6250000  71.1010000  52.2130000  79.8020000  70.8510000  52.8290000
  80.2580000  72.2070000  51.2500000  80.0220000  73.0880000  51.8610000
  81.1300000  72.5190000  50.7090000  79.0930000  71.8740000  50.3860000
  79.2980000  71.4480000  49.0690000  80.3010000  71.4840000  48.6910000
  78.2110000  71.0260000  48.2770000  78.3060000  70.6740000  47.2560000
  76.9030000  71.0890000  48.8430000  76.0280000  70.7690000  48.2150000
  76.6320000  71.6580000  50.1440000  75.6190000  71.7950000  50.4570000
  77.7620000  72.0920000  50.8740000  77.6290000  72.5070000  51.8330000
  80.9240000  69.7750000  51.4500000  79.9510000  68.9790000  51.3630000
  82.0810000  69.6530000  50.7910000  82.7090000  70.4950000  50.7970000
  82.4000000  68.5450000  49.8490000  81.8700000  68.7640000  48.8650000
  83.4930000  68.6100000  49.5830000  82.0010000  67.2040000  50.4600000
  81.4800000  66.3110000  49.7600000  82.1710000  67.0720000  51.7890000
  82.3990000  67.9260000  52.2790000  81.8120000  65.8920000  52.5680000
  82.5400000  65.1460000  52.2770000  81.9600000  66.2340000  54.0700000
  83.0190000  66.5750000  54.0850000  81.3830000  67.1340000  54.3220000
  81.6540000  65.0650000  55.0310000  80.6360000  64.7740000  54.8630000
  82.2990000  64.1990000  54.7750000  81.7820000  65.4040000  56.4860000
  81.4480000  64.6030000  57.0520000  82.8510000  65.5560000  56.7010000
  81.0370000  66.6940000  56.8230000  81.4320000  67.2020000  57.7330000
  81.0960000  67.4600000  56.0340000  79.6400000  66.3190000  56.8930000
  79.4930000  65.6240000  57.6090000  79.1240000  67.1040000  57.2220000
  79.1570000  65.8880000  56.1040000  80.4330000  65.3200000  52.3180000
  80.3030000  64.1220000  52.0180000  79.4530000  66.2750000  52.2620000
  79.6860000  67.2540000  52.2310000  78.0980000  65.8060000  52.0100000
  77.8170000  65.2690000  52.8800000  77.2090000  67.0590000  51.9280000
  77.4110000  67.7530000  52.7000000  77.5250000  67.5390000  50.9030000
  75.7490000  66.7020000  51.6970000  74.9950000  66.1610000  52.7140000
  75.5340000  65.9230000  53.6430000  73.6400000  65.8770000  52.5680000
  73.1550000  65.3570000  53.3900000  72.9530000  66.2800000  51.4420000
  71.8630000  66.1880000  51.3780000  73.6760000  66.7680000  50.3290000
  73.1140000  67.0920000  49.4550000  75.0880000  66.9770000  50.4770000
  75.6380000  67.4970000  49.6670000  77.9300000  64.9630000  50.7390000
  77.0270000  64.1310000  50.7350000  78.8300000  65.0400000  49.7110000
  79.7430000  65.4670000  49.8530000  78.7910000  64.1150000  48.6040000
  77.8480000  64.2780000  48.0460000  79.9660000  64.4840000  47.6750000
  80.9200000  64.3410000  48.2630000  79.9780000  63.9850000  46.7670000
  79.9200000  66.0070000  47.2450000  79.8570000  66.7320000  48.0150000
  81.3100000  66.3130000  46.5790000  81.2450000  67.3180000  46.1970000
  82.0890000  66.4580000  47.3320000  81.6170000  65.5510000  45.8850000
  79.0180000  66.4430000  46.1830000  79.1160000  67.5330000  45.9610000
  79.1610000  65.9380000  45.2100000  77.9700000  66.3060000  46.4780000
  78.9400000  62.6410000  48.9630000  78.2140000  61.7080000  48.5820000
  79.9740000  62.3280000  49.7080000  80.3210000  63.0600000  50.3150000
  80.1480000  60.9820000  50.2690000  80.4030000  60.2010000  49.5210000
  81.3610000  61.0250000  51.2350000  82.2180000  61.2560000  50.6620000
  81.0860000  61.8800000  51.9890000  81.6640000  59.8690000  52.0720000
  81.4760000  58.5850000  51.7610000  81.0430000  58.1810000  50.8940000
  81.7140000  57.7700000  52.8580000  81.5400000  56.7650000  52.9200000
  82.3720000  58.5360000  53.8510000  82.9090000  58.2380000  55.1440000
  82.8790000  57.2480000  55.5580000  83.4660000  59.2790000  55.9680000
  83.8890000  59.0060000  56.8910000  83.4990000  60.5730000  55.4590000
  83.8610000  61.4020000  56.0360000  82.9240000  60.8970000  54.1690000
  83.0070000  61.8460000  53.7150000  82.3620000  59.8670000  53.3070000
  78.9130000  60.5270000  51.0830000  78.3490000  59.4110000  50.8820000
  78.4530000  61.3400000  52.0020000  78.9120000  62.2700000  52.0190000
  77.4000000  61.1180000  53.0080000  77.6780000  60.2480000  53.5150000
  77.2800000  62.2070000  54.0550000  76.9630000  63.1170000  53.5890000
  76.4860000  61.9160000  54.7690000  78.5380000  62.5220000  54.8510000
  78.8690000  61.7280000  55.4590000  79.3770000  62.7210000  54.1830000
  78.3530000  63.7560000  55.7350000  78.6690000  63.7980000  56.9490000
  78.0920000  64.8560000  55.1580000  76.0530000  60.8780000  52.3980000
  75.3570000  59.8850000  52.6520000  75.6840000  61.7220000  51.4180000
  76.3390000  62.4780000  51.1380000  74.4420000  61.5140000  50.6220000
  73.5290000  61.4040000  51.2590000  73.9850000  62.7410000  49.8590000
  73.5210000  63.5350000  50.5050000  74.8230000  63.2470000  49.4190000
  73.1020000  62.5600000  48.6390000  73.4930000  62.1400000  47.4090000
  74.4870000  61.9350000  47.0270000  72.3480000  62.0420000  46.5960000
  72.3890000  61.5740000  45.6770000  71.2270000  62.5310000  47.1750000
  69.8840000  62.7530000  46.8020000  69.5040000  62.6490000  45.7730000
  68.9940000  63.2780000  47.7930000  68.0240000  63.6080000  47.4960000
  69.4010000  63.4000000  49.1370000  68.6810000  63.7370000  49.8910000
  70.7360000  63.1160000  49.4670000  71.0540000  63.2070000  50.5490000
  71.6580000  62.7350000  48.5210000  74.5600000  60.3120000  49.5890000
  73.6530000  59.5400000  49.5130000  75.6910000  60.1160000  48.9060000
  76.4380000  60.7740000  48.9280000  75.9320000  59.0050000  48.0540000
  75.0840000  58.9100000  47.3440000  77.2800000  59.1740000  47.3210000
  77.4640000  58.4280000  46.5880000  77.2540000  60.1200000  46.7520000
  78.2270000  59.2320000  47.9820000  75.8690000  57.6690000  48.8340000
  75.1910000  56.7620000  48.3630000  76.4760000  57.5300000  49.9860000
  76.9960000  58.3560000  50.2710000  76.4670000  56.2790000  50.8140000
  76.7970000  55.3610000  50.2220000  77.3080000  56.3680000  52.0930000
  76.9130000  57.0620000  52.8210000  77.3010000  55.3980000  52.5390000
  78.5930000  56.8220000  51.8010000  78.5390000  57.8000000  51.6470000
  75.0530000  55.9340000  51.2620000  74.5750000  54.8170000  51.1070000
  74.2450000  56.9780000  51.4630000  74.6190000  57.8990000  51.6140000
  72.7740000  56.7460000  51.5450000  72.6670000  55.8880000  52.2870000
  72.1440000  58.0350000  52.1400000  71.0610000  57.9490000  52.1520000
  72.4160000  58.0100000  53.1760000  72.5080000  58.9610000  51.6990000
  71.9900000  56.2980000  50.3040000  71.3040000  55.2610000  50.3720000
  72.1000000  57.0210000  49.1440000  72.6700000  57.8520000  49.1580000
  71.1420000  56.8800000  47.9840000  70.4230000  56.0840000  48.1470000
  70.3750000  58.2590000  47.8420000  71.1310000  59.0130000  47.5540000
  69.6520000  58.2970000  47.0840000  69.7180000  58.6900000  49.2540000
  69.1200000  57.8450000  49.7320000  70.5950000  58.9940000  49.8390000
  68.8550000  59.8990000  49.0610000  68.8160000  60.3240000  50.0760000
  69.3820000  60.5590000  48.4020000  67.5170000  59.5870000  48.5160000
  67.4900000  58.7290000  48.0670000  66.4090000  60.4050000  48.5490000
  66.3390000  61.4340000  49.3300000  65.5420000  62.0250000  49.4160000
  67.0660000  61.4560000  50.0740000  65.3240000  60.1650000  47.8920000
  65.3510000  59.2750000  47.3200000  64.4630000  60.7280000  48.1260000
  71.8310000  56.3610000  46.6620000  71.1710000  56.1500000  45.6240000
  73.1590000  56.2490000  46.6230000  73.6050000  56.4200000  47.4920000
  73.9400000  55.8410000  45.5020000  73.2680000  55.3680000  44.8160000
  74.7190000  57.0130000  44.8730000  75.5140000  57.2790000  45.5370000
  75.0990000  56.5720000  43.9330000  74.0210000  58.2780000  44.5230000
  74.5990000  59.5590000  44.6770000  75.5540000  59.7440000  45.1450000
  73.9790000  60.6910000  44.1760000  74.4460000  61.6670000  44.2970000
  72.7630000  60.6550000  43.5190000  72.2250000  61.5090000  43.0870000
  72.0970000  59.4670000  43.5400000  71.1190000  59.4030000  42.9820000
  72.7150000  58.2690000  43.9790000  72.2290000  57.3480000  43.7180000
  75.0310000  54.7580000  45.8150000  76.1550000  54.7010000  45.2590000
  74.7530000  53.8410000  46.6990000  73.7700000  53.5670000  46.9140000
  75.6700000  53.2860000  47.7830000  76.1740000  54.0500000  48.3200000
  74.8290000  52.4330000  48.7680000  74.5230000  51.5280000  48.2620000
  75.4080000  52.1120000  49.5530000  73.6580000  53.1090000  49.1790000
  73.9820000  53.6830000  49.9010000  76.8920000  52.4650000  47.2100000
  77.8840000  52.4100000  47.9310000  76.9390000  52.0450000  45.9290000
  76.1490000  52.2330000  45.2990000  78.1420000  51.3310000  45.4220000
  78.4270000  50.5970000  46.1540000  77.8190000  50.6410000  44.0960000
  78.7280000  50.1050000  43.8990000  76.9370000  49.9420000  44.3090000
  77.3520000  51.5610000  42.9420000  76.0740000  51.9240000  42.7860000
  75.1580000  51.4550000  43.1810000  76.0810000  52.9030000  41.7680000
  75.1940000  53.2720000  41.3660000  77.2960000  53.1800000  41.2880000
  77.7280000  54.0000000  40.2440000  76.9760000  54.5060000  39.6500000
  79.0870000  54.2360000  40.0660000  79.3830000  54.8880000  39.2450000
  80.0120000  53.4620000  40.7910000  81.0750000  53.4220000  40.5220000
  79.5670000  52.5880000  41.7830000  80.2630000  51.8620000  42.1910000
  78.1850000  52.3940000  42.0490000  79.4330000  52.1770000  45.3240000
  80.5360000  51.6380000  45.3990000  79.2490000  53.4910000  45.1760000
  78.2560000  53.8560000  45.1170000  80.2420000  54.4790000  45.2290000
  81.0080000  54.3340000  44.5090000  79.6600000  55.8720000  44.9540000
  78.7160000  56.0180000  45.5150000  80.3730000  56.5900000  45.3610000
  79.4830000  56.2260000  43.4180000  80.1590000  55.6340000  42.8190000
  78.0300000  56.2260000  42.8910000  77.7230000  55.2020000  42.8670000
  77.4450000  56.8070000  43.5900000  78.0820000  56.6810000  41.9160000
  79.9860000  57.6680000  43.1480000  79.2820000  58.2930000  43.5840000
  80.9230000  57.7440000  43.7090000  79.9380000  57.8580000  42.1070000
  81.0640000  54.5040000  46.5580000  82.2820000  54.8530000  46.6240000
  80.5010000  53.9880000  47.6480000  79.5520000  53.7840000  47.5310000
  81.1340000  54.2160000  49.0040000  81.4980000  55.2070000  49.0350000
  80.1250000  54.0490000  50.1110000  80.6640000  54.2760000  51.0140000
  79.3360000  54.8200000  49.9850000  79.6230000  52.7140000  50.1840000
  79.1120000  52.4170000  49.4130000  82.4120000  53.3160000  49.1900000
  83.2110000  53.5890000  50.0430000  82.6070000  52.2500000  48.3530000
  81.7690000  51.9630000  47.8420000  83.8290000  51.4160000  48.3630000
  84.0590000  51.0450000  49.4090000  83.5170000  50.1450000  47.5920000
  83.5760000  50.5120000  46.5480000  84.3160000  49.4070000  47.6850000
  82.1010000  49.5660000  47.9730000  81.2780000  50.2420000  47.8200000
  81.7070000  48.3050000  47.1620000  80.8250000  47.9100000  47.5810000
  81.4650000  48.5890000  46.1700000  82.5740000  47.5370000  47.1730000
  82.0130000  49.2320000  49.4810000  80.9930000  48.9000000  49.8420000
  82.7930000  48.5480000  49.7910000  82.1320000  50.1300000  50.0890000
  85.1120000  52.1300000  47.8520000  86.1980000  51.7180000  48.1620000
  84.8910000  53.2120000  47.2090000  83.8910000  53.5900000  47.0730000
  85.9300000  53.8660000  46.4970000  86.7770000  53.1940000  46.2030000
  85.3220000  54.5700000  45.2460000  84.5890000  55.3300000  45.5750000
  86.0510000  55.1640000  44.7130000  84.7020000  53.6730000  44.1180000
  83.8700000  53.0790000  44.4800000  84.1830000  54.5470000  42.9540000
  83.7700000  55.4490000  43.3790000  84.9970000  54.9080000  42.2820000
  83.4260000  53.9480000  42.3830000  85.7670000  52.6640000  43.5550000
  86.6580000  53.2050000  43.2320000  86.0440000  51.9370000  44.3010000
  85.3940000  52.1590000  42.6500000  86.5980000  55.0130000  47.3050000
  87.6350000  55.5300000  46.9160000  86.0510000  55.3050000  48.4700000
  85.2020000  54.8370000  48.7650000  86.3940000  56.5570000  49.2190000
  86.1920000  57.3850000  48.6400000  85.6140000  56.5970000  50.5410000
  85.7320000  55.6850000  51.0600000  86.0450000  57.7560000  51.4530000
  85.3360000  57.8340000  52.2320000  87.1240000  57.6840000  51.8320000
  86.0860000  58.6610000  50.8420000  84.1770000  56.8570000  50.2070000
  83.9950000  57.7990000  49.6650000  83.7520000  55.9530000  49.7220000
  83.5560000  56.9000000  51.0760000  87.9280000  56.6850000  49.4220000
  88.5110000  57.7060000  49.1060000  88.6650000  55.6740000  50.0340000
  88.1540000  54.4000000  50.5010000  87.6640000  53.9200000  49.6920000
  87.5530000  54.6080000  51.4310000  89.4170000  53.6330000  50.9740000
  89.7630000  53.1080000  50.1640000  89.1920000  52.9210000  51.7740000
  90.4000000  54.7200000  51.3380000  91.4450000  54.2880000  51.1170000
  90.2300000  55.0960000  52.3880000  90.1250000  55.8090000  50.3030000
  90.3280000  56.7920000  50.6950000  90.9570000  55.8080000  48.9930000
  91.7590000  56.6320000  48.7320000  90.6120000  54.9620000  48.0760000
  89.8870000  54.2680000  48.2800000  91.2180000  54.8030000  46.7640000
  92.2370000  54.5910000  46.8980000  90.7300000  53.5170000  46.0830000
  89.6660000  53.6540000  45.7560000  91.3550000  53.4140000  45.2310000
  90.7920000  52.2930000  46.9430000  89.6930000  51.9210000  47.6950000
  88.7450000  52.4680000  47.7160000  89.6960000  50.8240000  48.5080000
  88.7830000  50.5990000  49.0230000  90.8900000  50.0960000  48.6170000
  90.9390000  49.2650000  49.3180000  92.0510000  50.4790000  48.0030000
  92.9890000  50.0480000  48.2430000  92.0190000  51.6330000  47.1620000
  92.9610000  52.0020000  46.7540000  91.1180000  56.0240000  45.8580000
  92.0360000  56.4620000  45.1420000  89.9400000  56.6350000  45.8250000
  89.0730000  56.4180000  46.3550000  89.8090000  57.8430000  45.0280000
  90.1690000  57.6970000  44.0090000  88.3060000  58.2590000  44.8530000
  87.8260000  57.3400000  44.5690000  87.4880000  58.6960000  46.0130000
  86.4430000  58.6480000  45.8940000  87.8170000  57.9500000  46.8320000
  87.6940000  59.7200000  46.2470000  88.1570000  59.3860000  43.7730000
  88.7300000  59.2470000  42.8260000  87.0860000  59.5030000  43.4860000
  88.3940000  60.3190000  44.3100000  90.5170000  59.0240000  45.6970000
  90.9420000  59.9880000  45.0240000  90.8100000  58.9250000  47.0230000
  90.4310000  58.2010000  47.5900000  91.5550000  59.9510000  47.7390000
  91.0760000  60.9180000  47.4040000  91.5420000  59.8360000  49.2780000
  90.5030000  59.7330000  49.6670000  91.9610000  58.8120000  49.5010000
  92.2430000  60.9400000  49.9830000  92.3960000  61.7350000  49.2950000
  91.7070000  61.2960000  50.8530000  93.6540000  60.4970000  50.3990000
  93.9130000  59.5750000  51.1300000  94.6620000  61.2100000  49.9660000
  94.5300000  61.8960000  49.3650000  95.5330000  60.8520000  50.2820000
  92.9980000  59.9050000  47.2010000  93.6650000  60.9030000  47.0120000
  93.4670000  58.7030000  46.9400000  92.9370000  57.8980000  47.2560000
  94.8290000  58.4890000  46.3840000  95.4470000  59.2840000  46.7360000
  95.4740000  57.1730000  46.7990000  94.9920000  56.8860000  47.7260000
  95.2720000  56.4360000  46.0640000  96.9360000  57.3050000  46.9770000
  97.9120000  56.6250000  46.3130000  97.6720000  56.0690000  45.3960000
  99.1420000  56.8230000  46.9290000 100.0340000  56.4970000  46.5470000
  99.0480000  57.7720000  47.9610000  99.9790000  58.3890000  48.7970000
 101.0320000  58.3240000  48.6290000  99.5150000  59.2780000  49.7950000
 100.2050000  59.7200000  50.4490000  98.0960000  59.4050000  49.9760000
  97.7910000  60.0870000  50.7110000  97.1800000  58.9630000  48.9990000
  96.1230000  59.1800000  49.1400000  97.6480000  58.0290000  48.0300000
  94.7740000  58.6350000  44.8200000  95.8210000  59.0350000  44.2840000
  93.6360000  58.5130000  44.1090000  92.9710000  57.9530000  44.5270000
  93.5450000  58.8980000  42.6780000  94.4010000  58.4030000  42.1510000
  92.2590000  58.4050000  42.0060000  92.0880000  57.4150000  42.3750000
  91.4470000  58.9580000  42.3970000  92.1690000  58.4310000  40.5040000
  93.1610000  57.7900000  39.7190000  93.9850000  57.1850000  40.1230000
  93.1170000  57.7540000  38.3310000  93.8560000  57.2490000  37.7660000
  92.0470000  58.3730000  37.6330000  92.0940000  58.3740000  36.5490000
  90.9310000  58.8330000  38.3420000  90.0730000  59.2150000  37.8080000
  91.0050000  58.8850000  39.7520000  90.1550000  59.2970000  40.2710000
  93.6740000  60.4340000  42.4860000  94.2380000  61.0060000  41.5320000
  93.0480000  61.2150000  43.4190000  92.3950000  60.8200000  44.0970000
  93.2270000  62.6750000  43.5310000  92.9160000  63.0610000  42.5670000
  92.2140000  63.2590000  44.5660000  92.2210000  62.6160000  45.4490000
  92.5230000  64.7600000  45.0150000  92.5980000  65.4200000  44.1790000
  91.6400000  65.0880000  45.6210000  93.4250000  64.7350000  45.5210000
  90.8490000  63.1940000  43.8670000  90.0770000  63.4920000  44.5570000
  90.9010000  63.8880000  43.0130000  90.6660000  62.2250000  43.4400000
  94.7070000  62.9630000  43.8140000  95.1010000  64.0810000  43.5000000
  95.5410000  61.9860000  44.3350000  95.2100000  61.0530000  44.3570000
  96.9020000  62.2440000  44.7120000  96.9460000  63.1470000  45.3450000
  97.2860000  61.4180000  45.2730000  97.8770000  62.4830000  43.5270000
  99.1070000  62.8410000  43.6400000  97.3040000  62.2770000  42.3170000
  96.3370000  62.0910000  42.4480000  97.8880000  62.5640000  40.9990000
  98.7960000  62.0050000  40.8300000  96.8320000  62.0370000  39.9810000
  95.8720000  62.4480000  40.2960000  97.1940000  62.3640000  39.0060000
  96.6960000  60.5190000  39.9840000  96.4070000  60.0240000  41.0070000
  95.6490000  60.2100000  38.9370000  96.0240000  60.5300000  37.9590000
  95.4180000  59.1200000  38.9250000  94.7640000  60.8060000  39.1740000
  98.0330000  59.8410000  39.5770000  98.7710000  59.9390000  40.3780000
  97.8900000  58.7700000  39.4930000  98.4390000  60.2140000  38.6000000
  98.2210000  64.0570000  40.8340000  97.4520000  64.8450000  41.4280000
  99.3520000  64.3690000  40.1990000  99.9270000  63.5990000  39.9390000
  99.9200000  65.7860000  39.9690000 100.3260000  66.3310000  40.9130000
 101.2190000  65.8700000  39.1630000 102.1110000  65.3690000  39.6300000
 101.2090000  65.2040000  38.3160000 101.5420000  67.2270000  38.8600000
 101.8920000  67.1420000  37.9240000  98.7570000  66.6520000  39.2880000
  98.1870000  66.2270000  38.2730000  98.6560000  67.9360000  39.6050000
  99.3180000  68.6970000  40.6630000 100.3510000  69.0260000  40.5150000
  99.1740000  68.1060000  41.6010000  98.5500000  70.0500000  40.9310000
  99.1050000  70.7600000  41.2830000  97.7710000  69.8250000  41.5940000
  98.0580000  70.2630000  39.4920000  98.8330000  70.8480000  38.9850000
  97.0960000  70.8000000  39.4460000  97.8990000  68.8860000  38.7390000
  96.8740000  68.5910000  38.8980000  98.2370000  68.8780000  37.2280000
  97.3980000  69.2030000  36.4310000  99.4910000  68.4980000  36.8800000
 100.1600000  68.5290000  37.6330000  99.9540000  68.3330000  35.4670000
  99.7410000  69.2680000  34.9440000 101.5280000  68.2020000  35.4360000
 101.8450000  68.1310000  34.3870000 102.3350000  69.2770000  36.1570000
 103.4640000  68.9990000  36.2410000 102.2400000  70.2020000  35.5730000
 101.9660000  69.3970000  37.2100000 101.8910000  67.0520000  36.1010000
 102.1100000  66.3730000  35.4100000  99.2680000  67.2470000  34.7060000
  98.9880000  67.4140000  33.5260000  98.8240000  66.2040000  35.4120000
  99.0350000  66.1420000  36.4190000  97.9620000  65.1790000  34.8580000
  98.4680000  64.8850000  33.8340000  98.0500000  63.9340000  35.7710000
  97.7830000  64.2660000  36.7970000  96.9580000  62.9060000  35.3050000
  95.9100000  63.2080000  35.4580000  97.2020000  62.7360000  34.2370000
  97.1510000  62.0570000  35.9240000  99.4180000  63.3260000  35.7350000
  99.6880000  62.9070000  34.8260000 100.1700000  64.1150000  35.9260000
  99.3900000  62.5730000  36.5210000  96.5660000  65.7510000  34.6260000
  96.0030000  65.5140000  33.5970000  95.9760000  66.3660000  35.6340000
  96.4870000  66.4200000  36.4650000  94.6020000  66.9500000  35.7350000
  94.0290000  66.0800000  35.4670000  94.2720000  67.4890000  37.0920000
  95.0440000  68.1680000  37.4880000  93.3000000  67.9940000  36.9900000
  94.0750000  66.4060000  38.0920000  95.0150000  65.9070000  38.9260000
  96.0000000  66.2370000  39.1740000  94.5330000  64.7220000  39.5610000
  95.0080000  64.2290000  40.3150000  93.2620000  64.4730000  39.2140000
  92.3780000  63.4700000  39.6230000  92.5720000  62.7370000  40.4310000
  91.0560000  63.4640000  39.0030000  90.2770000  62.7240000  39.2110000
  90.6960000  64.3900000  37.9700000  89.7080000  64.5040000  37.5330000
  91.6820000  65.2860000  37.5570000  91.4120000  65.9740000  36.7980000
  92.9330000  65.4280000  38.1810000  94.3290000  67.9730000  34.6090000
  93.3230000  67.9400000  33.8840000  95.2640000  68.9470000  34.4340000
  96.0270000  69.0690000  35.1250000  95.3680000  69.8450000  33.2920000
  94.5190000  70.5330000  33.3210000  96.5900000  70.6650000  33.5570000
  96.5730000  71.1540000  34.5410000  97.4290000  69.9890000  33.7200000
  96.9920000  71.6800000  32.4930000  97.0500000  71.2790000  31.4820000
  95.9510000  72.7490000  32.4350000  95.9070000  73.3400000  33.3740000
  96.1470000  73.3830000  31.6060000  94.9290000  72.2440000  32.3060000
  98.2490000  72.5200000  32.7580000  98.4440000  73.2650000  31.9030000
  98.0510000  73.1600000  33.6740000  99.1330000  71.9050000  32.7440000
  95.3210000  69.0440000  31.9120000  94.6220000  69.4120000  31.0000000
  96.2150000  68.0350000  31.8940000  96.7350000  67.8300000  32.7960000
  96.3150000  67.1170000  30.7360000  96.6200000  67.7490000  29.9080000
  97.5390000  66.2080000  30.8270000  97.2970000  65.6010000  31.6440000
  97.6630000  65.6960000  29.9040000  98.7250000  66.8930000  30.9660000
  98.7360000  67.4750000  31.7800000  95.0830000  66.3300000  30.3280000
  95.0440000  65.9110000  29.1460000  94.0870000  66.0440000  31.2310000
  94.2830000  66.2680000  32.1760000  92.7410000  65.5090000  30.7400000
  93.0240000  64.6040000  30.2460000  91.7080000  65.0740000  31.8160000
  90.8950000  65.7510000  31.9460000  91.0310000  63.8300000  31.2880000
  91.7820000  63.0680000  31.2320000  90.3170000  63.4830000  32.0840000
  90.5980000  64.0500000  30.3200000  92.3340000  64.7720000  33.1540000
  92.2430000  65.6910000  33.8020000  91.7600000  64.0580000  33.6380000
  93.4300000  64.6030000  33.0030000  91.9980000  66.4010000  29.7550000
  91.5400000  65.8920000  28.7690000  91.9860000  67.7290000  29.8580000
  92.3720000  68.2110000  30.7050000  91.2750000  68.6030000  28.8260000
  90.2680000  68.1710000  28.7340000  91.1680000  70.0290000  29.2530000
  92.2720000  70.3410000  29.3250000  90.5310000  71.0270000  28.2390000
  89.8820000  71.6970000  28.7850000  91.2880000  71.4510000  27.5530000
  89.8600000  70.4330000  27.5990000  90.4620000  70.1920000  30.6560000
  90.9730000  69.5100000  31.3670000  90.5420000  71.2270000  30.9750000
  89.0580000  69.9180000  30.8370000  88.4840000  70.4840000  30.1670000
  88.8520000  68.9460000  30.6000000  88.7430000  70.1570000  31.8360000
  91.8780000  68.4260000  27.4030000  91.2020000  68.4420000  26.3820000
  93.2040000  68.1350000  27.3390000  93.7580000  68.0460000  28.1580000
  93.9760000  67.7320000  26.1000000  93.6560000  68.4780000  25.3720000
  95.4720000  67.9160000  26.3080000  95.5780000  68.9300000  26.6630000
  95.7980000  67.3120000  27.1570000  96.4510000  67.6340000  25.1930000
  97.0930000  68.5670000  24.4660000  96.9170000  69.6190000  24.5910000
  97.7780000  67.9610000  23.4260000  98.3880000  68.4150000  22.7590000
  97.6290000  66.5820000  23.4560000  98.1750000  65.5390000  22.7430000
  98.8310000  65.7650000  21.9120000  98.0110000  64.2420000  23.2690000
  98.3670000  63.4060000  22.7020000  97.2360000  64.0170000  24.3840000
  97.0780000  62.9620000  24.6660000  96.6580000  65.0470000  25.0960000
  96.0250000  64.9090000  25.9630000  96.8210000  66.3840000  24.6280000
  93.6330000  66.3120000  25.5810000  93.5310000  66.1580000  24.3750000
  93.3140000  65.3380000  26.4370000  93.3710000  65.6190000  27.4370000
  93.0660000  63.9740000  26.1420000  93.7480000  63.7020000  25.3280000
  93.3990000  63.0430000  27.3770000  94.4280000  63.3210000  27.6810000
  92.7660000  63.3120000  28.2350000  93.2720000  61.5200000  26.9350000
  93.7170000  61.3210000  25.9860000  93.8920000  60.9900000  27.6620000
  91.5210000  60.9180000  27.1350000  91.3640000  60.6090000  28.9380000
  90.5260000  59.9780000  29.0840000  92.2830000  60.1270000  29.2880000
  91.2270000  61.5820000  29.3870000  91.6210000  63.8000000  25.6920000
  91.3310000  63.0250000  24.7400000  90.6580000  64.6050000  26.2180000
  90.9320000  65.1510000  26.9850000  89.3600000  64.8060000  25.5870000
  88.7480000  63.8970000  25.5210000  88.6340000  65.7640000  26.4520000
  88.7070000  65.4990000  27.4950000  89.0820000  66.7680000  26.4430000
  87.1720000  65.7370000  26.0350000  86.6890000  66.5460000  26.6120000
  87.0720000  66.0110000  24.9950000  86.2890000  64.2290000  26.3800000
  86.5860000  64.0920000  28.1860000  86.2420000  65.0450000  28.6720000
  85.9900000  63.2390000  28.5290000  87.6120000  63.8340000  28.4430000
  89.4340000  65.3020000  24.1790000  88.6830000  64.8340000  23.3180000
  90.3820000  66.2380000  23.8940000  91.1290000  66.6120000  24.5190000
  90.6300000  66.6570000  22.5280000  89.6260000  66.7670000  22.0250000
  91.4050000  67.9000000  22.5030000  90.7950000  68.6490000  23.0620000
  92.3610000  67.7930000  23.0240000  91.6080000  68.4390000  21.1210000
  90.8380000  69.2110000  20.3410000  89.9080000  69.5880000  20.6950000
  91.4060000  69.3750000  19.0820000  90.9380000  69.8420000  18.3120000
  92.5380000  68.6640000  18.9820000  93.3510000  68.3640000  17.9430000
  93.1710000  68.8980000  17.0120000  94.4350000  67.5000000  18.1230000
  95.0730000  67.1410000  17.3290000  94.6770000  66.9900000  19.4010000
  95.5200000  66.2930000  19.5850000  93.8620000  67.2150000  20.4870000
  94.1070000  66.8480000  21.5070000  92.7110000  68.0300000  20.2490000
  91.2100000  65.5550000  21.7480000  90.7320000  65.2330000  20.6470000
  92.2260000  64.7760000  22.2410000  92.5700000  65.0470000  23.1510000
  93.0540000  63.7360000  21.4990000  93.3760000  64.2420000  20.6110000
  94.2970000  63.3090000  22.3000000  94.9240000  64.1660000  22.5060000
  93.9890000  62.9540000  23.2290000  95.1790000  62.2370000  21.5580000
  96.0760000  62.6710000  20.5590000  96.3060000  63.6840000  20.3520000
  96.7560000  61.6820000  19.7820000  97.3570000  62.0620000  18.9630000
  96.4920000  60.3140000  20.0280000  97.1480000  59.3670000  19.2830000
  98.0370000  59.6080000  18.9940000  95.6380000  59.9340000  21.0910000
  95.5860000  58.8720000  21.3230000  94.9850000  60.8890000  21.8450000
  94.3130000  60.6030000  22.6120000  92.2260000  62.5160000  21.1280000
  92.1180000  62.1030000  19.9970000  91.4820000  61.9630000  22.1070000
  91.5360000  62.3600000  23.0090000  90.7030000  60.6950000  21.9830000
  90.9460000  60.2160000  21.0410000  91.0890000  59.7220000  23.1280000
  92.2740000  59.9160000  23.2310000  90.6160000  60.0190000  24.1100000
  90.8360000  58.2570000  22.7890000  90.0900000  57.5150000  23.6030000
  89.7600000  57.8620000  24.5670000  90.0820000  56.2110000  23.1100000
  89.7970000  55.3890000  23.5840000  90.6440000  56.2040000  21.8190000
  90.8200000  55.1660000  20.8670000  90.6380000  54.1430000  21.0900000
  91.5750000  55.4950000  19.7280000  91.6900000  54.6670000  19.0480000
  92.2590000  56.7460000  19.5490000  93.0020000  57.0040000  18.7760000
  91.9890000  57.7570000  20.5240000  92.4920000  58.7550000  20.5030000
  91.2400000  57.4680000  21.6720000  89.1900000  60.8410000  21.9760000
  88.5310000  59.9040000  21.5090000  88.7230000  61.9550000  22.4710000
  89.3470000  62.7090000  22.6580000  87.3340000  62.2300000  22.9270000
  87.2720000  61.8280000  23.9540000  87.1490000  63.3130000  22.9230000
  86.2640000  61.4540000  22.0630000  85.6580000  60.5730000  22.6940000
  86.0010000  61.7180000  20.7960000  86.8140000  62.6430000  19.9780000
  87.8240000  62.1720000  19.8640000  86.8240000  63.6850000  20.3240000
  85.9900000  62.7220000  18.7240000  86.7360000  62.9570000  17.9260000
  85.2420000  63.4860000  18.9470000  85.3140000  61.3490000  18.5050000
  85.8640000  60.5150000  17.9480000  84.3820000  61.3460000  17.9570000
  85.0630000  60.9350000  19.9890000  84.0130000  61.2280000  20.2440000
  85.0910000  59.4180000  20.0140000  84.0440000  58.7820000  20.2310000
  86.2690000  58.8220000  20.0030000  87.0830000  59.4430000  19.9920000
  86.4120000  57.4050000  20.2640000  85.7240000  56.8400000  19.5950000
  87.8390000  56.9310000  19.9840000  88.4170000  57.1720000  20.8740000
  87.7660000  55.8070000  19.9080000  88.4370000  57.4810000  18.8330000
  89.3970000  57.2820000  18.9470000  86.0620000  57.0600000  21.7090000
  85.4610000  56.0240000  21.8840000  86.4760000  57.8820000  22.6860000
  86.8810000  58.7350000  22.4120000  86.1820000  57.6330000  24.1030000
  86.6430000  56.6020000  24.3470000  86.7750000  58.7880000  24.9800000
  87.6400000  59.2190000  24.4480000  85.9960000  59.5420000  25.1490000
  87.3700000  58.3400000  26.3620000  87.9420000  57.4020000  26.2400000
  88.0980000  59.5380000  27.0250000  88.3550000  59.3820000  28.0750000
  89.0600000  59.6820000  26.5200000  87.5240000  60.4280000  26.9170000
  86.1980000  57.9910000  27.3690000  85.5010000  58.7850000  27.5350000
  85.6840000  57.1410000  26.9200000  86.7060000  57.6080000  28.2830000
  84.6740000  57.4620000  24.4210000  84.2950000  56.4390000  25.0750000
  83.7990000  58.2880000  23.8050000  84.2510000  59.0140000  23.2690000
  82.3720000  58.1650000  23.8700000  82.1150000  58.0240000  24.9150000
  81.7140000  59.4540000  23.3350000  82.0480000  59.5590000  22.3230000
  80.6470000  59.3760000  23.2610000  81.8100000  60.7980000  24.0860000
  81.4450000  60.8330000  25.4610000  81.2000000  59.9630000  26.0550000
  81.5610000  62.0970000  26.1080000  81.4160000  62.2220000  27.1910000
  81.9420000  63.3040000  25.4090000  82.0750000  64.4490000  26.0820000
  82.7500000  64.9800000  25.7280000  82.3210000  63.1820000  24.0140000
  82.6140000  64.0690000  23.4910000  82.2030000  61.9410000  23.3840000
  82.4010000  61.8460000  22.3470000  81.8500000  56.9100000  23.1650000
  81.0740000  56.1250000  23.6490000  82.4050000  56.6260000  21.9560000
  83.0390000  57.3170000  21.4740000  82.1800000  55.4720000  21.0610000
  81.1050000  55.4680000  20.7680000  82.9570000  55.7080000  19.7380000
  84.0380000  55.6480000  19.7300000  82.7850000  54.8390000  19.1480000
  82.6160000  56.8860000  19.0910000  83.0630000  57.6290000  19.5870000
  82.4800000  54.2260000  21.8430000  81.7280000  53.2360000  21.7840000
  83.5830000  54.1410000  22.5940000  84.3750000  54.8210000  22.4440000
  84.0030000  52.9480000  23.3260000  83.9720000  52.0810000  22.6160000
  85.4520000  53.1120000  23.5920000  85.6550000  54.1210000  23.9280000
  86.0140000  52.1740000  24.6420000  87.0530000  52.5130000  24.8700000
  85.4080000  52.3410000  25.5330000  85.8800000  51.1000000  24.4040000
  86.3340000  52.9430000  22.3430000  86.3880000  51.9880000  21.9610000
  85.9220000  53.6370000  21.5610000  87.8030000  53.4070000  22.4580000
  87.8840000  54.4860000  22.7210000  88.3860000  52.8520000  23.2030000
  88.2570000  53.3490000  21.4510000  83.1550000  52.5720000  24.5590000
  82.8490000  51.4150000  24.7800000  82.6870000  53.6310000  25.2180000
  82.8970000  54.5340000  24.8620000  81.9110000  53.4030000  26.4650000
  82.2660000  52.4390000  26.9970000  82.0740000  54.5960000  27.3730000
  81.7490000  55.4590000  26.8460000  81.3690000  54.5690000  28.2960000
  83.3950000  54.8530000  28.0600000  84.1640000  55.1530000  27.3160000
  83.3740000  56.0300000  29.0190000  82.9210000  56.8660000  28.4410000
  82.6830000  55.6910000  29.8480000  84.3650000  56.2180000  29.4270000
  83.8830000  53.6480000  28.8620000  83.2380000  53.1570000  29.5750000
  84.1460000  52.8480000  28.1400000  84.8060000  54.0520000  29.2510000
  80.4420000  53.1110000  26.1910000  79.7930000  52.4310000  27.0080000
  79.9500000  53.5860000  25.0330000  80.6070000  54.1670000  24.5300000
  78.5800000  53.3910000  24.5320000  77.8410000  53.9390000  25.1470000
  78.4200000  53.9260000  23.1190000  79.3520000  53.7150000  22.4940000
  77.5350000  53.4460000  22.6790000  78.0960000  55.2840000  23.2160000
  78.8830000  55.6840000  23.5640000  78.0670000  51.9740000  24.5340000
  76.9250000  51.8020000  24.9570000  78.8400000  50.9110000  24.2230000
  79.9530000  50.8940000  23.2760000  80.7540000  51.5190000  23.6120000
  79.6250000  51.3650000  22.3350000  80.4210000  49.4620000  23.1340000
  80.9770000  49.2120000  23.9970000  80.8860000  49.2100000  22.2080000
  78.9720000  48.8340000  23.2640000  79.1050000  47.7490000  23.4720000
  78.4560000  48.9660000  22.3120000  78.3310000  49.5160000  24.4340000
  77.2940000  49.5030000  24.2870000  78.6330000  48.9120000  25.8200000
  78.0720000  47.8730000  26.1390000  79.5840000  49.5660000  26.5420000
  79.8690000  50.4680000  26.2360000  79.8310000  49.1290000  27.9420000
  79.8920000  48.0320000  27.9740000  81.2150000  49.6170000  28.4620000
  82.0160000  49.1120000  27.8840000  81.2430000  50.5950000  28.1910000
  81.4320000  49.4120000  29.9920000  81.0910000  48.2280000  30.6460000
  80.5850000  47.4790000  30.1160000  81.3610000  47.9470000  31.9920000
  80.9840000  47.0850000  32.5110000  82.0620000  48.9100000  32.7390000
  82.4950000  48.6970000  33.6970000  82.3080000  50.1750000  32.2050000
  82.8300000  50.8480000  32.8980000  82.0050000  50.4430000  30.8420000
  82.2550000  51.3980000  30.3990000  78.6140000  49.4620000  28.8540000
  78.1290000  48.5990000  29.5960000  78.2180000  50.7250000  28.9040000
  78.5200000  51.2700000  28.0860000  77.1570000  51.2210000  29.7330000
  77.5980000  51.0140000  30.7910000  76.9090000  52.7400000  29.4210000
  76.6700000  52.8760000  28.3890000  75.9610000  53.0150000  29.9970000
  78.0700000  53.6740000  29.7180000  79.0080000  53.1820000  29.7210000
  78.0620000  55.0070000  28.9140000  79.0130000  55.5800000  29.0970000
  78.0660000  54.7180000  27.8830000  77.1660000  55.6370000  29.0900000
  77.7540000  54.1490000  31.1400000  77.9170000  53.3460000  31.8510000
  78.3940000  54.9560000  31.5070000  76.7220000  54.5090000  31.1180000
  75.7820000  50.4980000  29.6480000  75.4040000  50.1110000  30.7920000
  75.2170000  50.1110000  28.4880000  75.6310000  50.4190000  27.1870000
  76.7190000  50.4350000  26.9950000  75.3120000  51.3610000  26.8450000
  74.9880000  49.3750000  26.2900000  75.6250000  48.3940000  26.3530000
  74.9430000  49.7170000  25.2760000  73.6330000  49.1040000  26.9160000
  73.3660000  48.0830000  26.7120000  72.9510000  49.8770000  26.5560000
  73.9320000  49.3850000  28.3700000  73.1220000  49.8910000  28.8100000
  74.0100000  48.0450000  29.1130000  72.9520000  47.4950000  29.4130000
  75.2320000  47.5080000  29.2150000  76.0960000  48.0780000  29.0870000
  75.3940000  46.1750000  29.7190000  74.5120000  45.5670000  29.5990000
  76.4730000  45.2950000  28.9130000  77.4690000  45.8500000  28.8500000
  76.5900000  44.3630000  29.4180000  76.0980000  45.1080000  27.4330000
  75.8780000  46.1200000  27.0910000  77.2990000  44.6990000  26.6400000
  77.4630000  43.6680000  26.9100000  77.0340000  44.7730000  25.5860000
  78.1800000  45.2450000  26.9090000  74.9150000  44.1970000  27.1530000
  74.0590000  44.5660000  27.7650000  74.7620000  44.2510000  26.0280000
  75.0430000  43.1890000  27.3770000  75.7210000  46.1570000  31.1880000
  75.6250000  45.0770000  31.8270000  76.1090000  47.2690000  31.7890000
  76.0750000  48.0940000  31.2700000  76.5490000  47.3570000  33.1840000
  77.5620000  46.8540000  33.1560000  76.8840000  48.8010000  33.4350000
  77.5070000  49.1370000  32.6310000  75.8940000  49.3430000  33.4690000
  77.6120000  48.9610000  34.7540000  76.9440000  48.6750000  35.5470000
  78.9170000  48.1800000  34.8420000  78.7000000  47.1300000  34.7800000
  79.6600000  48.5810000  34.1410000  79.2840000  48.4180000  35.8660000
  77.8790000  50.4420000  34.9690000  76.8970000  51.0090000  35.0550000
  78.4320000  50.6150000  35.9030000  78.4590000  50.7840000  34.0600000
  75.6530000  46.7050000  34.1780000  76.1600000  46.0490000  35.0600000
  74.3030000  46.7740000  34.0360000  73.4650000  47.5640000  33.0590000
  73.3980000  46.9370000  32.2600000  73.9330000  48.4870000  32.7980000
  72.1550000  47.7710000  33.8220000  71.3930000  48.1130000  33.0760000
  72.2300000  48.5050000  34.5780000  71.8750000  46.3830000  34.3650000
  71.6220000  45.8320000  33.4260000  71.1250000  46.3280000  35.1500000
  73.3370000  46.0810000  34.8740000  73.4180000  46.3720000  35.9330000
  73.4800000  44.5380000  34.7970000  73.1710000  43.9370000  35.8340000
  73.8700000  43.9560000  33.6710000  74.0090000  44.5040000  32.7950000
  74.0850000  42.4910000  33.5490000  73.0870000  42.0940000  33.8470000
  74.2970000  41.9030000  32.1820000  75.3270000  42.0170000  31.9460000
  74.1380000  40.3020000  32.3480000  74.8680000  39.8570000  32.9720000
  73.1520000  40.0170000  32.6840000  74.3820000  39.8570000  31.3590000
  73.4580000  42.5600000  31.0280000  72.3540000  42.5160000  31.2210000
  73.5580000  43.6960000  31.1430000  73.8090000  42.1760000  29.6070000
  73.1080000  42.5810000  28.8670000  74.8560000  42.3510000  29.3490000
  73.5610000  41.1610000  29.6660000  75.0280000  41.9040000  34.5870000
  74.6970000  40.9130000  35.2540000  76.0900000  42.5930000  34.9390000
  76.3310000  43.4260000  34.4300000  77.0000000  42.2980000  36.0160000
  77.1210000  41.1910000  36.0540000  78.4280000  42.8490000  35.7380000
  78.5140000  43.8290000  36.0660000  79.1290000  42.2980000  36.3720000
  78.8800000  42.8270000  34.2880000  79.4750000  41.6740000  33.7460000
  79.8300000  40.8200000  34.2990000  79.5860000  41.5550000  32.2900000
  80.0940000  40.6960000  31.8340000  79.1840000  42.6010000  31.4080000
  79.1750000  42.4650000  30.3440000  78.6390000  43.7540000  31.9840000
  78.2770000  44.5760000  31.3670000  78.5630000  43.8610000  33.3840000
  78.1280000  44.7740000  33.8090000  76.4680000  42.7440000  37.3840000
  76.7000000  42.0680000  38.3380000  75.6200000  43.7910000  37.4050000
  75.4150000  44.2510000  36.5400000  75.3210000  44.3900000  38.6590000
  76.2560000  44.4300000  39.1620000  75.0230000  45.8440000  38.6370000
  75.6570000  46.2950000  37.8370000  73.9800000  45.9440000  38.2560000
  75.0840000  46.5890000  39.8870000  74.0570000  46.5310000  40.7950000
  73.1650000  45.9440000  40.5830000  74.1520000  47.2030000  42.0430000
  73.3210000  47.1930000  42.7380000  75.3510000  47.8700000  42.3220000
  75.5060000  48.2950000  43.2780000  76.3660000  47.9870000  41.3600000
  77.2680000  48.5450000  41.5490000  76.2080000  47.3920000  40.1260000
  76.9510000  47.4360000  39.3600000  74.4340000  43.4030000  39.4500000
  74.4890000  43.3410000  40.6920000  73.5630000  42.6630000  38.7710000
  73.5540000  42.6810000  37.7730000  72.7240000  41.6520000  39.3920000
  72.6180000  41.9020000  40.4570000  71.3270000  41.7170000  38.8050000
  70.7840000  40.9320000  39.3680000  70.9150000  42.7040000  38.9430000
  71.4850000  41.2380000  37.0970000  72.4420000  40.3140000  37.3990000
  73.3110000  40.2360000  39.4700000  72.7470000  39.4080000  40.1740000
  74.5470000  40.0320000  38.9080000  74.9690000  40.7270000  38.2970000
  75.4400000  38.9230000  39.1990000  75.0110000  38.3520000  40.0000000
  75.6330000  38.0880000  37.9570000  76.2330000  38.6640000  37.2660000
  76.3290000  37.2320000  38.1120000  74.3030000  37.6500000  37.2100000
  73.6540000  38.4970000  36.9840000  74.7210000  37.0110000  35.9060000
  75.0320000  37.8550000  35.3230000  75.4970000  36.2030000  35.9520000
  73.9180000  36.5810000  35.3680000  73.4090000  36.7500000  38.0250000
  72.5000000  36.5020000  37.4950000  73.9680000  35.9470000  38.4310000
  73.0520000  37.3290000  38.8560000  76.8190000  39.3340000  39.8350000
  77.7610000  38.5670000  39.7300000  76.8810000  40.4280000  40.6390000
  76.1460000  41.0570000  40.5940000  78.1020000  40.7810000  41.3670000
  79.0090000  40.7470000  40.7600000  77.7820000  42.2690000  41.7410000
  77.6730000  42.7820000  40.7600000  76.8350000  42.3420000  42.3090000
  78.7690000  42.9670000  42.5320000  80.0840000  42.8260000  42.5160000
  80.5320000  41.9740000  42.0050000  80.6760000  43.7010000  43.4380000
  81.7030000  43.7450000  43.6100000  79.7630000  44.5510000  43.9910000
  79.8600000  45.5360000  44.9810000  80.7850000  45.6960000  45.4820000
  78.6810000  46.2500000  45.3070000  78.7160000  47.0510000  46.1190000
  77.4740000  45.8630000  44.7790000  76.5710000  46.3750000  45.1080000
  77.3610000  44.7390000  43.9300000  76.4090000  44.4670000  43.5210000
  78.5390000  44.0900000  43.4550000  78.4500000  39.8960000  42.6340000
  79.6660000  39.8250000  42.8910000  77.4740000  39.4380000  43.4150000
  76.5310000  39.8120000  43.1810000  77.7310000  38.8620000  44.7280000
  78.6690000  38.3740000  44.7190000  77.8360000  39.8830000  45.8990000
  77.8580000  39.3520000  46.9310000  79.0100000  40.9950000  45.7510000
  78.6580000  41.8850000  45.2450000  79.3340000  41.3580000  46.7590000
  79.9130000  40.5100000  45.1970000  76.5320000  40.7250000  45.8890000
  76.5080000  41.4660000  46.7130000  76.4730000  41.3160000  44.9540000
  75.7210000  40.0240000  45.8980000  76.7010000  37.7320000  45.1380000
  75.5180000  37.8910000  44.8530000  77.1140000  36.6640000  45.7880000
  78.0640000  36.6380000  45.9910000  76.2900000  35.5020000  46.1550000
  75.4130000  35.8790000  46.6640000  75.8860000  34.6560000  44.8780000
  76.7570000  34.5510000  44.2840000  75.6030000  33.6880000  45.0960000
  74.7740000  35.2860000  44.1000000  73.5560000  35.5300000  44.7670000
  73.4380000  35.1750000  45.7890000  72.6010000  36.4710000  44.2420000
  71.7510000  36.7290000  44.8040000  72.7880000  36.9920000  42.9410000
  71.8750000  37.8770000  42.4580000  72.1680000  38.4580000  41.7130000
  73.8820000  36.5980000  42.1850000  73.9900000  36.8090000  41.1360000
  74.9530000  35.9050000  42.8180000  75.9730000  35.8490000  42.3880000
  77.0870000  34.6190000  47.1830000  78.2080000  34.9540000  47.4540000
  76.3790000  33.6540000  47.8770000  75.4080000  33.5160000  47.6260000
  76.8990000  32.9120000  49.0810000  77.9810000  33.1380000  49.1460000
  76.3510000  33.2980000  50.5170000  75.4320000  32.6780000  50.5860000
  77.2830000  32.8240000  51.6910000  76.7030000  32.8250000  52.6220000
  77.4590000  31.7690000  51.4760000  78.2310000  33.4370000  51.6970000
  75.8540000  34.7340000  50.7390000  75.9220000  34.9530000  51.8070000
  76.6120000  35.3600000  50.3550000  74.5090000  35.0730000  50.2560000
  74.4270000  34.9110000  49.1730000  73.6720000  34.5040000  50.7050000
  74.3850000  36.1590000  50.3900000  76.8330000  31.3540000  48.8470000
  75.8190000  30.6900000  49.1490000  77.9430000  30.8350000  48.5300000
  54.1470000  32.8260000  40.3990000  55.0100000  32.8630000  39.9040000
  53.8110000  33.8000000  40.3160000  53.4450000  32.3100000  39.8430000
  54.2320000  32.3420000  41.8430000  53.2980000  32.5740000  42.3310000
  54.4950000  30.8670000  41.9040000  53.8300000  30.2990000  41.2990000
  55.5040000  30.6520000  41.4720000  54.5260000  30.3310000  43.3840000
  54.7180000  29.3110000  43.3620000  55.4000000  30.8350000  43.8470000
  53.0290000  30.6370000  44.3050000  53.4080000  29.8160000  45.8150000
  52.6380000  29.9960000  46.5410000  53.4750000  28.7200000  45.5750000
  54.3750000  30.1080000  46.1270000  55.1980000  33.2560000  42.5860000
  56.4110000  33.0570000  42.5130000  54.6710000  34.3300000  43.1920000
  53.6920000  34.3790000  43.2020000  55.3820000  35.6030000  43.1460000
  55.8470000  35.7080000  42.1240000  54.3770000  36.7590000  43.1980000
  53.6530000  36.4780000  43.9740000  54.8420000  37.6110000  43.6200000
  53.6500000  37.0750000  41.8920000  52.6330000  37.4640000  42.1490000
  54.3150000  37.8480000  41.3650000  53.4540000  35.8350000  41.0170000
  52.6470000  34.9780000  41.4390000  54.3200000  35.4150000  40.1760000
  56.5470000  35.7190000  44.1590000  57.5490000  36.4110000  43.8940000
  56.4990000  34.9240000  45.2050000  55.7330000  34.2570000  45.2330000
  57.6760000  34.6350000  46.0770000  57.9400000  35.5630000  46.6220000
  57.1870000  33.6050000  47.1620000  58.0460000  33.3460000  47.7620000
  56.5410000  34.0040000  47.9700000  56.5780000  32.3150000  46.7040000
  55.9670000  32.1760000  45.6490000  56.9250000  31.2440000  47.3740000
  56.5350000  30.3170000  47.1260000  57.3770000  31.2980000  48.2750000
  58.8990000  34.0490000  45.2900000  60.0160000  34.3360000  45.6580000
  58.6780000  33.2570000  44.2290000  57.7190000  33.1300000  43.9550000
  59.7520000  32.6940000  43.4240000  60.6390000  32.4380000  44.0180000
  59.3220000  31.3560000  42.7680000  58.6030000  31.7150000  42.0410000
  60.5110000  30.6880000  42.0360000  60.3980000  29.6360000  41.6890000
  61.0200000  31.3640000  41.2810000  61.2640000  30.5310000  42.8300000
  58.4870000  30.3190000  43.5230000  57.6210000  30.6890000  43.9550000
  58.2620000  29.5490000  42.8450000  59.2830000  29.7010000  44.6530000
  60.1470000  29.0800000  44.2880000  59.6790000  30.4740000  45.3250000
  58.5960000  29.0800000  45.3130000  60.0500000  33.7520000  42.3890000
  61.1980000  34.0530000  42.1230000  59.0890000  34.3260000  41.7050000
  58.1540000  33.9990000  41.9330000  59.1390000  35.3170000  40.5920000
  59.7200000  34.9390000  39.7040000  57.7280000  35.7500000  40.2060000
  57.3840000  36.3530000  41.0440000  57.6610000  36.5200000  38.8850000
  57.9540000  35.8480000  38.1150000  56.7010000  36.9420000  38.6730000
  58.3240000  37.4070000  38.9590000  56.8130000  34.6590000  39.9680000
  55.8660000  34.9620000  39.8060000  59.9160000  36.6210000  40.9110000
  60.6350000  37.1550000  40.0620000  59.8320000  37.0990000  42.1680000
  59.2010000  36.6580000  42.7660000  60.2180000  38.4630000  42.5690000
  59.7200000  39.1780000  41.9920000  59.9630000  38.5780000  44.0440000
  60.1860000  37.6940000  44.5660000  60.4970000  39.3700000  44.5350000
  58.5610000  38.7650000  44.3160000  58.0400000  38.0850000  43.8460000
  61.7360000  38.7610000  42.4240000  62.2330000  39.8070000  42.0400000
  62.5420000  37.7100000  42.6200000  62.1190000  36.8320000  42.9710000
  63.9750000  37.7250000  42.5680000  64.2880000  38.5380000  43.2420000
  64.3650000  36.8970000  43.1680000  64.5400000  37.7270000  41.1450000
  65.7320000  38.0050000  40.9560000  63.8290000  37.4060000  40.0610000
  62.8390000  37.2340000  40.3090000  64.1440000  37.4780000  38.6490000
  65.2450000  37.7350000  38.5130000  63.9680000  36.0760000  37.9430000
  62.9720000  35.8750000  37.6460000  64.4320000  36.1210000  36.9770000
  64.4500000  34.8940000  38.7620000  65.7990000  34.5560000  38.8830000
  66.4690000  35.1690000  38.3790000  66.1770000  33.4590000  39.6540000
  67.1580000  33.2860000  39.8940000  65.1800000  32.7970000  40.4550000
  65.4310000  32.1750000  41.2760000  63.8130000  33.0180000  40.2360000
  63.0520000  32.5950000  40.8260000  63.4970000  34.1130000  39.4070000
  62.4790000  34.3880000  39.3930000  63.4340000  38.5160000  37.7780000
  64.0920000  39.1210000  36.9250000  62.2060000  38.8150000  38.0860000
  61.6930000  38.2070000  38.7290000  61.4230000  39.9330000  37.5860000
  61.2830000  39.8580000  36.4950000  60.0130000  39.9040000  38.3430000
  59.5370000  38.9610000  38.0950000  60.1180000  39.8630000  39.4160000
  59.1250000  41.1280000  37.9920000  59.5830000  42.0610000  38.3630000
  58.8790000  41.3280000  36.4960000  58.1490000  42.0910000  36.2550000
  59.7540000  41.5170000  35.8880000  58.5120000  40.3760000  36.1190000
  57.7820000  40.9080000  38.7440000  57.0710000  41.5470000  38.3460000
  57.4410000  39.9110000  38.7220000  57.9280000  41.2420000  39.7950000
  62.1610000  41.2360000  37.7850000  62.3470000  41.9920000  36.8810000
  62.6210000  41.4910000  39.0110000  62.3940000  40.9170000  39.7580000
  63.3590000  42.6770000  39.4330000  62.7610000  43.6320000  39.3990000
  63.7800000  42.4740000  40.3600000  64.5590000  42.9120000  38.4950000
  64.3980000  43.7840000  37.6120000  65.6750000  42.1020000  38.5280000
  65.9270000  41.2110000  39.6420000  65.1850000  40.4200000  39.8420000
  65.9960000  41.7450000  40.6540000  67.2870000  40.4450000  39.3900000
  67.3150000  39.4530000  39.7840000  68.0540000  41.0580000  39.8160000
  67.3650000  40.5430000  37.9080000  66.8170000  39.6820000  37.3910000
  68.3530000  40.3380000  37.5440000  66.7790000  41.9350000  37.5490000
  67.5590000  42.6780000  37.7130000  66.3280000  42.0860000  36.0490000
  66.8660000  42.9770000  35.4500000  65.2820000  41.3870000  35.5840000
  64.8260000  40.7000000  36.1400000  64.8050000  41.6700000  34.2020000
  65.5980000  41.5750000  33.5080000  63.7330000  40.6310000  33.8720000
  62.9590000  40.7090000  34.6300000  63.2110000  41.0720000  33.0290000
  64.2830000  39.2140000  33.6530000  65.0120000  38.9660000  34.4180000
  63.0400000  38.2350000  33.6430000  63.2970000  37.1950000  33.3920000
  62.6290000  38.0880000  34.6540000  62.3190000  38.5400000  32.8730000
  65.0330000  39.1130000  32.2710000  65.7500000  39.9310000  32.1190000
  65.6150000  38.1320000  32.2210000  64.2440000  39.1810000  31.5030000
  64.2530000  43.1110000  33.9210000  64.4720000  43.7460000  32.8590000
  63.6720000  43.7630000  34.9050000  63.6980000  43.3320000  35.8360000
  63.3300000  45.1450000  34.8880000  62.9370000  45.3340000  33.8910000
  62.1430000  45.4280000  35.8050000  62.3810000  44.8980000  36.6890000
  62.1070000  46.4570000  36.0120000  60.7570000  44.9730000  35.3520000
  60.7780000  43.9490000  34.8440000  59.8570000  44.7920000  36.6170000
  58.9560000  44.2450000  36.4860000  60.3700000  44.1050000  37.3250000
  59.6730000  45.8240000  37.0120000  60.2380000  46.0010000  34.3340000
  59.2620000  45.7530000  34.1320000  60.1830000  46.9550000  34.8820000
  60.9070000  45.9570000  33.4820000  64.4990000  46.1110000  35.1840000
  64.5730000  47.1880000  34.6020000  65.3970000  45.7180000  36.0310000
  65.1370000  44.8240000  36.4810000  66.6200000  46.4630000  36.3530000
  66.3880000  47.4510000  36.6810000  67.4000000  45.7940000  37.5430000
  67.3230000  44.7120000  37.3990000  68.9070000  46.2030000  37.7010000
  69.4470000  45.7660000  38.5520000  69.4630000  45.9770000  36.7850000
  68.9920000  47.2840000  37.8010000  66.7390000  46.0790000  38.8710000
  66.7030000  47.1710000  39.0830000  65.7400000  45.6870000  38.7050000
  67.2260000  45.5350000  39.6660000  67.4930000  46.5360000  35.0900000
  68.0090000  47.5970000  34.8050000  67.5900000  45.4910000  34.3170000
  67.2870000  44.6250000  34.6670000  68.2730000  45.5340000  33.0130000
  69.2670000  45.8620000  33.1710000  68.3030000  44.0360000  32.4580000
  68.8790000  43.4880000  33.1810000  67.2930000  43.6090000  32.5100000
  68.9610000  44.0010000  31.0370000  68.1830000  44.5930000  30.4270000
  70.4040000  44.5600000  30.9350000  70.9270000  44.1170000  30.1570000
  70.5030000  45.6220000  30.6570000  70.9430000  44.5050000  31.8230000
  68.9390000  42.5070000  30.6900000  69.4550000  41.9300000  31.4440000
  67.8880000  42.2160000  30.5660000  69.5260000  42.5000000  29.7440000
  67.7160000  46.5640000  32.0940000  68.4400000  47.3050000  31.4670000
  66.3580000  46.6640000  32.0580000  65.8430000  45.9160000  32.6460000
  65.6800000  47.5940000  31.1160000  66.2600000  47.5870000  30.1400000
  64.2500000  47.2100000  30.6710000  63.6840000  47.2240000  31.6070000
  63.8270000  47.9450000  30.0780000  64.1750000  45.8830000  30.0400000
  64.6470000  45.9230000  28.9850000  64.7710000  45.1730000  30.6030000
  62.6950000  45.3630000  30.1500000  61.7100000  45.9690000  29.7580000
  62.4990000  44.3670000  30.9400000  63.2000000  43.9440000  31.5870000
  61.4880000  44.2660000  31.0130000  65.6980000  49.0620000  31.5360000
  66.0480000  49.9750000  30.7510000  65.4800000  49.3460000  32.8360000
  65.0560000  48.6010000  33.4130000  65.6880000  50.6820000  33.3690000
  65.1060000  51.2980000  32.7750000  65.0020000  50.6750000  34.7220000
  64.0470000  50.2080000  34.6090000  65.5510000  50.1080000  35.5020000
  64.8680000  51.6630000  35.0440000  67.1220000  51.1320000  33.3000000
  67.3150000  52.3010000  32.9860000  68.1340000  50.2800000  33.5660000
  67.8840000  49.4090000  33.9900000  69.5800000  50.5610000  33.4360000
  69.8950000  51.4160000  34.1250000  70.2410000  49.6680000  33.6140000
  69.9440000  50.8350000  31.9850000  70.5590000  51.8680000  31.6940000
  69.4930000  49.9600000  31.0870000  68.8210000  49.1590000  31.3720000
  69.5770000  50.3030000  29.6310000  70.5860000  50.2460000  29.4050000
  68.8700000  49.1740000  28.8360000  69.3610000  48.2320000  29.0080000
  67.8190000  49.1340000  29.0990000  68.9580000  49.3910000  27.3730000
  68.0210000  50.2170000  26.7560000  67.2570000  50.7300000  27.2930000
  68.1910000  50.5160000  25.4120000  67.5370000  51.2390000  24.9380000
  69.2970000  50.0030000  24.7150000  69.4530000  50.2500000  23.6810000
  70.1280000  49.0110000  25.2390000  70.9060000  48.4540000  24.6750000
  69.9420000  48.7330000  26.5890000  70.7330000  48.2520000  27.1060000
  69.0670000  51.6940000  29.1900000  69.7410000  52.4370000  28.4110000
  67.9050000  52.0050000  29.7310000  67.3190000  51.2640000  30.1620000
  67.1930000  53.2740000  29.4970000  67.1300000  53.3900000  28.4290000
  65.7730000  53.1520000  29.9520000  65.2320000  52.1820000  29.6860000
  65.7740000  53.1810000  31.0350000  64.7260000  54.3010000  29.6080000
  63.7700000  54.0570000  28.5850000  63.6940000  53.1120000  28.0210000
  62.7100000  54.9010000  28.2780000  61.9780000  54.5800000  27.5280000
  62.5460000  56.1170000  28.9740000  61.7110000  56.7820000  28.7420000
  63.4340000  56.4050000  30.0470000  63.3170000  57.3380000  30.5400000
  64.4680000  55.5300000  30.3500000  65.0960000  55.8200000  31.1570000
  67.8830000  54.5270000  30.0990000  67.5860000  55.6220000  29.6540000
  68.7230000  54.4120000  31.1550000  68.8470000  53.4880000  31.4620000
  69.4570000  55.3820000  31.9180000  68.9970000  56.3350000  31.6520000
  69.2100000  55.1790000  33.3990000  69.4370000  54.1940000  33.5250000
  69.8890000  55.7970000  34.0690000  67.7160000  55.3570000  33.7270000
  67.1410000  54.8390000  33.0540000  67.5930000  54.8420000  35.2000000
  66.6420000  55.0330000  35.4790000  67.7330000  53.7640000  35.0080000
  68.2230000  55.2750000  35.9270000  67.3050000  56.8150000  33.6810000
  66.3190000  57.0690000  34.0090000  67.8710000  57.2890000  34.4650000
  67.6170000  57.2360000  32.7390000  70.9610000  55.5340000  31.5330000
  71.3910000  56.5650000  31.0070000  71.7770000  54.5370000  31.7440000
  71.3340000  53.7620000  32.2260000  73.2390000  54.5400000  31.7530000
  73.6100000  55.3630000  32.3910000  73.7290000  53.2120000  32.3240000
  73.4120000  52.3960000  31.6910000  74.8110000  53.1410000  32.2500000
  73.3530000  52.7660000  33.7430000  72.3530000  52.9340000  33.8560000
  73.5760000  51.2430000  33.8630000  74.6190000  50.9960000  33.9060000
  73.1930000  50.8090000  34.7180000  72.9420000  50.7110000  33.0590000
  74.1350000  53.5070000  34.8190000  75.2180000  53.5870000  34.5820000
  73.6900000  54.5030000  34.9510000  74.1360000  53.0190000  35.7600000
  73.7340000  54.9040000  30.3550000  74.4130000  55.9380000  30.1310000
  73.1680000  54.1650000  29.3370000  72.7050000  53.3120000  29.6070000
  73.3930000  54.4180000  27.9070000  74.3610000  54.0100000  27.6570000
  72.4160000  53.5650000  27.0140000  71.4600000  54.0380000  27.0370000
  72.9580000  53.5620000  25.5870000  72.8110000  52.6290000  25.1400000
  72.4120000  54.3310000  24.9990000  74.0470000  53.7830000  25.5690000
  72.3290000  52.2860000  27.5020000  71.3680000  52.1010000  27.6660000
  73.2210000  55.9280000  27.5780000  74.0690000  56.5450000  26.9170000
  72.1920000  56.5580000  28.1480000  71.6290000  56.0310000  28.7450000
  71.7280000  57.9730000  28.0010000  71.7720000  58.2770000  26.9290000
  70.3050000  58.1480000  28.5590000  69.8590000  57.1530000  28.2530000
  70.2210000  58.2560000  29.5960000  69.4330000  59.2290000  27.9360000
  70.0160000  60.0700000  27.8160000  69.1940000  58.9220000  26.9260000
  68.1110000  59.5720000  28.4740000  68.3770000  59.8040000  29.5230000
  67.7110000  60.4160000  28.0780000  67.3190000  58.3980000  28.5000000
  67.7010000  57.5470000  28.8820000  66.1120000  58.2390000  27.9850000
  65.3890000  59.1910000  27.4650000  64.4670000  59.0590000  27.0530000
  65.7170000  60.1620000  27.4910000  65.5630000  57.0420000  27.9650000
  66.0020000  56.3530000  28.5930000  64.7790000  56.8290000  27.3720000
  72.6760000  59.0220000  28.6840000  72.4960000  60.1790000  28.3170000
  73.6340000  58.7170000  29.6040000  73.7560000  57.7790000  29.9050000
  74.3870000  59.7430000  30.3060000  73.7170000  60.4830000  30.6020000
  75.2120000  59.1580000  31.5070000  75.7950000  58.3160000  31.0900000
  76.3330000  60.0840000  32.0380000  76.7810000  59.7340000  32.9240000
  77.0550000  60.4630000  31.2940000  75.8170000  60.9750000  32.3100000
  74.2890000  58.7770000  32.7230000  73.9610000  59.6480000  33.3050000
  73.3790000  58.3430000  32.3470000  74.9410000  57.7050000  33.6370000
  75.8090000  58.1580000  34.0290000  74.2780000  57.3560000  34.4460000
  75.2810000  56.8310000  33.0460000  75.2830000  60.5130000  29.3310000
  75.4300000  61.7000000  29.4870000  75.6740000  59.9070000  28.1930000
  75.4860000  58.9310000  28.2210000  76.4980000  60.4390000  27.0720000
  77.1290000  61.2040000  27.3890000  77.4190000  59.3340000  26.5710000
  76.7620000  58.7160000  25.9590000  78.0590000  59.8820000  25.8730000
  78.3860000  58.7160000  27.5840000  77.7690000  58.1890000  28.2380000
  79.3160000  57.7080000  26.8590000  78.7890000  56.9060000  26.3690000
  79.9940000  58.2350000  26.1980000  79.9520000  57.2060000  27.6180000
  79.3180000  59.8160000  28.2260000  79.7080000  60.4710000  27.4730000
  78.9230000  60.3380000  29.0930000  80.1990000  59.3360000  28.6570000
  75.5570000  61.0900000  25.9560000  76.0510000  61.8320000  25.1060000
  74.2230000  60.8360000  25.9440000  73.9450000  60.4820000  26.8350000
  73.3300000  61.5210000  25.1140000  73.8530000  61.8790000  24.2290000
  72.1260000  60.7410000  24.5430000  71.7340000  61.3710000  23.7490000
  72.5500000  59.3440000  24.0700000  73.0220000  58.7090000  24.8840000
  71.6780000  58.8470000  23.7320000  73.1760000  59.3900000  23.1510000
  71.0090000  60.4640000  25.4530000  70.3950000  61.2290000  25.4970000
  72.6430000  62.7550000  25.8210000  72.4700000  63.7610000  25.1730000
  72.6220000  62.7830000  27.1480000  72.6610000  61.8380000  27.5170000
  72.0770000  63.9310000  27.9750000  71.0390000  64.1340000  27.6890000
  72.0860000  63.4660000  29.4600000  72.9690000  62.8520000  29.6080000
  72.1420000  64.6180000  30.5070000  71.8860000  64.1720000  31.4200000
  73.1580000  65.0000000  30.6130000  71.4880000  65.3800000  30.2420000
  70.7800000  62.6700000  29.6970000  69.9050000  63.2680000  29.8930000
  70.5650000  62.0070000  28.7810000  70.8260000  61.7760000  30.9260000
  70.3820000  60.8530000  30.7980000  71.8650000  61.5850000  31.2180000
  70.2610000  62.3350000  31.7240000  72.9100000  65.2050000  27.6490000
  72.2760000  66.2020000  27.3710000  74.2490000  65.3070000  27.7850000
  75.1730000  64.2820000  28.1850000  74.7400000  63.3200000  27.9160000
  75.3710000  64.4100000  29.2050000  76.3600000  64.4750000  27.3650000
  76.2460000  64.0590000  26.4470000  77.1560000  64.0380000  27.9820000
  76.4820000  66.0170000  27.2590000  77.0790000  66.2930000  26.3500000
  76.9260000  66.4410000  28.1250000  75.0380000  66.4030000  27.2010000
  74.9330000  67.2890000  27.8010000  74.6160000  66.6870000  25.7390000
  74.4000000  67.8270000  25.4030000  74.4870000  65.6210000  24.8850000
  74.8080000  64.7450000  25.1590000  74.0490000  65.8470000  23.5540000
  74.8240000  66.5170000  23.0560000  74.2420000  64.6180000  22.6040000
  74.9260000  64.9830000  21.8460000  74.8570000  63.8770000  23.0850000
  73.0030000  64.0270000  21.8620000  72.1560000  63.8280000  22.5260000
  72.5950000  64.6990000  21.1980000  73.3980000  62.6550000  21.2440000
  74.5060000  62.3720000  20.7890000  72.4010000  61.7870000  21.1980000
  71.4830000  62.0860000  21.4920000  72.6410000  60.9970000  20.6510000
  72.6320000  66.4210000  23.4550000  72.3530000  67.2210000  22.5710000
  71.7330000  66.2690000  24.4140000  71.8670000  65.4800000  25.0400000
  70.3470000  66.8810000  24.4480000  69.8550000  66.5810000  23.5330000
  69.4560000  66.2630000  25.5540000  69.6480000  66.7480000  26.5360000
  68.4070000  66.4290000  25.3150000  69.7690000  64.8920000  25.8790000
  69.6310000  64.2800000  25.1100000  70.5290000  68.3730000  24.6090000
  70.0960000  69.1640000  23.8400000  71.3780000  68.8060000  25.5340000
  71.9080000  68.1900000  26.1030000  71.6190000  70.2510000  25.7780000
  70.6950000  70.7970000  25.7870000  72.1020000  70.4190000  27.2400000
  71.3940000  69.9070000  27.8910000  73.0020000  69.7840000  27.2310000
  72.4560000  71.8270000  27.8010000  73.3610000  72.1260000  27.2940000
  71.3810000  72.9240000  27.5010000  71.6930000  73.8300000  28.0130000
  71.1970000  73.1120000  26.3880000  70.4520000  72.7080000  27.9680000
  72.7520000  71.7410000  29.2800000  72.8370000  72.7510000  29.5930000
  71.9970000  71.3420000  29.8700000  73.6960000  71.1780000  29.4880000
  72.5120000  70.8860000  24.7730000  72.4100000  72.0740000  24.4520000
  73.4130000  70.1430000  24.2490000  73.6290000  69.2100000  24.6540000
  74.3700000  70.5040000  23.1280000  74.8410000  71.4700000  23.3720000
  75.5190000  69.4930000  23.0260000  75.7420000  69.1440000  23.9810000
  75.1190000  68.7330000  22.3300000  76.8040000  70.1460000  22.4250000
  76.9570000  71.3550000  22.3110000  77.7370000  69.3490000  22.1470000
  73.6170000  70.7600000  21.8020000  73.9900000  71.7660000  21.1720000
  72.6180000  69.9210000  21.4470000  72.5400000  69.0810000  22.0630000
  71.7710000  70.1390000  20.2770000  72.4710000  70.4980000  19.5270000
  70.9490000  68.8350000  19.8870000  70.4060000  69.0430000  18.9970000
  71.5310000  67.9450000  19.5680000  70.0240000  68.4470000  20.9080000
  70.5550000  68.0600000  21.6610000  70.8610000  71.3530000  20.5100000
  70.7380000  72.1910000  19.5840000  70.2630000  71.5730000  21.6390000
  70.2510000  70.8630000  22.3730000  69.5930000  72.8650000  21.9510000
  68.8150000  72.9760000  21.2020000  69.0460000  72.8440000  23.4320000
  68.4880000  71.9170000  23.4920000  69.9020000  72.6960000  24.1070000
  68.1270000  74.0150000  23.7590000  66.7900000  73.9910000  23.5330000
  66.2260000  73.2180000  23.1270000  66.2920000  75.1350000  24.1070000
  65.3200000  75.4130000  24.1200000  67.2780000  75.9540000  24.6720000
  67.2040000  77.1510000  25.3380000  66.2380000  77.5820000  25.5960000
  68.4690000  77.7880000  25.7840000  68.6130000  78.7960000  26.2180000
  69.7040000  77.0640000  25.6370000  70.6140000  77.5330000  25.9160000
  69.6200000  75.8670000  24.8910000  70.5040000  75.2230000  24.8260000
  68.4510000  75.2930000  24.3980000  70.5930000  74.0950000  21.9320000
  70.3260000  75.0400000  21.2040000  71.7890000  74.0160000  22.5360000
  71.9850000  73.2240000  23.1070000  72.8210000  74.9930000  22.3340000
  72.3740000  75.9360000  22.6800000  74.0100000  74.6700000  23.2150000
  74.1810000  73.6040000  23.1830000  74.9740000  75.0470000  22.8800000
  73.9270000  75.3900000  24.5300000  73.7550000  74.7920000  25.7610000
  73.5850000  73.7610000  25.8390000  73.6450000  75.7630000  26.7580000
  73.4930000  75.5590000  27.7600000  73.7010000  76.9910000  26.1890000
  73.6400000  78.2570000  26.8060000  73.7330000  78.3620000  27.8790000
  73.8570000  79.3830000  25.9930000  73.9310000  80.3390000  26.5000000
  74.0540000  79.2580000  24.6160000  74.2530000  80.1720000  24.0270000
  74.0690000  77.9890000  24.0060000  74.1930000  77.8830000  22.9460000
  74.0060000  76.7950000  24.7900000  73.2850000  75.2300000  20.8850000
  73.5600000  76.3820000  20.4950000  73.3220000  74.2170000  20.0180000
  73.3800000  73.3370000  20.3680000  73.6320000  74.4590000  18.6210000
  74.4550000  75.1840000  18.6510000  74.0200000  73.1010000  17.9110000
  73.0310000  72.6180000  17.7010000  74.7090000  73.3200000  16.5530000
  75.7630000  73.0940000  16.7200000  74.2420000  72.7670000  15.7660000
  74.6770000  74.2880000  16.1750000  74.8790000  72.2500000  18.5750000
  74.3950000  71.9340000  19.3830000  72.4150000  75.1170000  17.9800000
  72.5970000  76.0560000  17.1970000  71.2070000  74.7180000  18.3960000
  71.0470000  73.8480000  18.8300000  70.0740000  75.5140000  18.0180000
  70.1600000  75.5000000  16.9500000  68.8160000  74.7160000  18.4630000
  68.7340000  74.7390000  19.5010000  67.9180000  75.2810000  18.1060000
  68.6600000  73.3860000  17.9750000  69.3760000  72.8520000  18.3590000
  70.2030000  76.9780000  18.4100000  69.8080000  77.7960000  17.6120000
  70.7230000  77.3430000  19.5700000  70.9330000  76.5000000  20.1670000
  70.9730000  78.7180000  20.0950000  70.0490000  79.1730000  19.7950000
  71.0520000  78.6630000  21.6550000  71.4800000  77.6830000  21.9080000
  71.7750000  79.4140000  22.0450000  69.7520000  78.7650000  22.3660000
  70.0070000  78.4910000  23.4160000  69.1910000  80.1360000  22.3460000
  68.4270000  80.0810000  23.0760000  69.9780000  80.8680000  22.6480000
  68.7210000  80.2940000  21.3230000  68.6320000  77.7470000  21.9680000
  67.7490000  77.8540000  22.6330000  68.3980000  77.7430000  20.8990000
  68.9190000  76.7200000  22.3200000  72.2850000  79.2780000  19.4230000
  72.5830000  80.4900000  19.5100000  73.1150000  78.5550000  18.6780000
  72.9020000  77.5690000  18.6190000  74.2570000  79.1250000  17.9340000
  74.8460000  79.8600000  18.5010000  75.2500000  78.0090000  17.4340000
  74.8460000  77.0050000  17.4410000  75.6640000  78.2470000  16.4320000
  76.3490000  77.9240000  18.4230000  76.5420000  77.0320000  19.1710000
  77.2080000  78.8760000  18.4090000  77.8400000  79.0320000  19.2040000
  77.0490000  79.5870000  17.7320000  73.6640000  79.8790000  16.7290000
  73.8230000  81.0660000  16.6730000  72.8630000  79.2370000  15.8770000
  72.7360000  78.3040000  16.1170000  72.2340000  79.8300000  14.6720000
  72.9100000  80.6060000  14.2970000  72.2090000  78.6780000  13.6320000
  71.6100000  77.9260000  14.0350000  71.8410000  79.0010000  12.6120000
  73.5110000  78.1130000  13.3740000  73.8630000  76.7580000  13.6930000
  73.0950000  76.1940000  14.2230000  75.0970000  76.3110000  13.4440000
  75.4200000  75.3760000  13.7290000  76.0040000  77.0780000  12.7220000
  76.9260000  76.5710000  12.4160000  75.7580000  78.3990000  12.3960000
  76.5760000  78.9950000  11.8880000  74.5350000  78.9090000  12.7760000
  74.3080000  79.9120000  12.5490000  70.9290000  80.3570000  15.0410000
  70.0800000  80.5980000  14.1420000  70.6690000  80.5680000  16.3110000
  71.5150000  80.3660000  16.9070000  69.5860000  81.2510000  16.9530000
  69.3810000  80.9200000  17.9020000  69.8930000  82.7750000  16.9930000
  70.2180000  83.0370000  15.9550000  68.9730000  83.3070000  17.3020000
  70.9560000  83.2270000  18.0280000  71.8140000  82.5130000  17.9340000
  71.4880000  84.6460000  17.8180000  70.6080000  85.3690000  17.8930000
  72.2150000  84.9930000  18.5430000  71.9200000  84.7880000  16.8140000
  70.5060000  83.1940000  19.4600000  70.3190000  82.1890000  19.7910000
  71.2410000  83.6500000  20.0910000  69.5940000  83.7360000  19.5420000
  68.2340000  80.8660000  16.2940000  67.4030000  81.6710000  15.8030000
  67.9020000  79.5840000  16.3030000  68.6040000  78.9100000  16.6560000
  66.5170000  79.1210000  16.0520000  66.0280000  79.1540000  17.0780000
  65.9630000  79.7850000  15.4050000  66.4640000  77.6290000  15.5050000
  65.3870000  77.1330000  15.2550000  67.5620000  76.9320000  15.2440000
  68.3870000  77.3220000  15.5230000  67.6170000  75.5100000  15.0140000
  67.3680000  74.9590000  15.9000000  66.8110000  75.4770000  14.2960000
  68.9970000  74.9470000  14.5490000  69.9910000  75.6890000  14.2790000
  69.1060000  73.5820000  14.5690000  68.2720000  73.0250000  14.6130000
  70.2430000  72.7520000  14.0950000  71.0740000  73.1000000  14.6450000
  70.0420000  71.3080000  14.5020000  70.7840000  70.7720000  13.8730000
  70.2110000  71.1700000  15.9750000  69.2740000  71.3240000  16.4250000
  70.5510000  70.2000000  16.2060000  70.9650000  71.7910000  16.3930000
  68.7710000  70.8780000  14.0640000  68.8420000  70.9170000  13.1310000
  70.5590000  72.8040000  12.6010000  69.6690000  72.6170000  11.7250000
  71.8650000  72.9360000  12.2990000  72.4910000  73.1680000  13.0970000
  72.5060000  72.6740000  10.9550000  71.7470000  72.0940000  10.3500000
  72.8440000  74.0690000  10.4090000  73.1900000  73.9330000   9.3630000
  71.6510000  75.1030000  10.4040000  72.0190000  76.0760000  10.1080000
  70.8220000  74.7670000   9.8580000  71.3890000  75.2980000  11.4180000
  73.9080000  74.6830000  11.0730000  74.0510000  75.5160000  10.6970000
  73.7520000  71.8400000  10.9600000  73.9210000  71.0250000  11.8830000
  74.5000000  71.8550000   9.8990000  74.2930000  72.6040000   9.2560000
  75.5800000  70.9600000   9.5010000  75.2950000  70.0170000  10.0240000
  75.6660000  70.8240000   7.9320000  76.3080000  69.9750000   7.7700000
  74.2600000  70.6110000   7.3010000  74.2540000  70.5080000   6.2080000
  73.8540000  69.6540000   7.7270000  73.6000000  71.5020000   7.5990000
  76.2360000  72.0450000   7.2680000  75.6260000  72.9220000   7.4210000
  77.2620000  72.1450000   7.5390000  76.1430000  71.7600000   6.1460000
  76.9270000  71.1820000  10.1610000  77.1700000  71.9780000  11.0980000
  77.8740000  70.2960000   9.8570000  77.5490000  69.5310000   9.2980000
  79.2370000  70.2540000  10.4210000  79.4100000  71.0340000  11.0890000
  79.3970000  68.9380000  11.2550000  78.6490000  69.0410000  12.0330000
  79.1650000  67.9770000  10.7320000  80.8760000  68.8850000  12.1560000
  80.3430000  70.4420000   9.3760000  80.8610000  69.5170000   8.8210000
  80.8070000  71.6960000   9.2340000  80.3270000  72.3910000   9.8000000
  82.0610000  72.1280000   8.6340000  82.3020000  71.6800000   7.6380000
  81.9390000  73.6250000   8.2570000  81.2050000  73.6390000   7.5020000
  81.6210000  74.0990000   9.1310000  83.1960000  74.3060000   7.7150000
  83.9520000  74.2890000   8.4650000  83.8190000  73.7520000   6.4840000
  84.7610000  74.2740000   6.4080000  84.0520000  72.7130000   6.5070000
  83.2350000  73.9580000   5.6290000  82.9410000  75.7700000   7.5000000
  82.1400000  75.8600000   6.6580000  82.5900000  76.0890000   8.4270000
  83.7470000  76.3430000   7.1120000  83.2600000  71.6470000   9.4630000
  84.3220000  71.3660000   8.9080000  82.9720000  71.3540000  10.8090000
  82.0710000  71.5870000  11.1900000  83.8770000  70.5730000  11.6430000
  84.7050000  71.1160000  11.9380000  83.3820000  70.3120000  12.5930000
  84.3030000  69.2010000  11.0080000  85.3100000  68.6140000  11.3380000
  83.6610000  68.7630000   9.9150000  82.7290000  69.0880000   9.7150000
  84.0860000  67.7750000   8.9660000  83.9980000  66.8500000   9.5220000
  83.0520000  67.7140000   7.7920000  82.1780000  67.2700000   8.2070000
  82.8020000  68.7540000   7.5000000  83.3980000  66.9140000   6.5730000
  82.8510000  67.4100000   5.7820000  84.4420000  67.0790000   6.3090000
  83.1100000  65.4460000   6.7690000  83.8370000  64.6980000   7.3920000
  82.0630000  64.9670000   6.1690000  81.3970000  65.6420000   5.7070000
  81.6830000  64.0720000   6.3740000  85.5290000  67.9820000   8.5750000
  86.1990000  67.0140000   8.6870000  85.9830000  69.2440000   8.2420000
  85.2350000  69.9290000   8.4050000  87.3420000  69.6890000   8.0870000
  87.4050000  70.7920000   7.8710000  88.1300000  69.5060000   9.4000000
  87.8630000  68.5600000   9.8460000  89.2400000  69.6050000   9.2680000
  87.7100000  70.5680000  10.5250000  88.2440000  70.4740000  11.6020000
  86.8240000  71.5610000  10.2960000  86.6720000  72.2050000  11.0350000
  86.2140000  71.5840000   9.5110000  88.0640000  69.0550000   6.8820000
  89.2880000  68.9760000   6.8330000  87.2770000  68.4440000   6.0050000
  86.3310000  68.5190000   6.2040000  87.7250000  67.4230000   4.9970000
  86.7620000  66.9010000   4.6710000  88.3860000  68.2270000   3.8750000
  87.6460000  68.9380000   3.4850000  89.2070000  68.7820000   4.3370000
  88.7970000  67.3640000   2.8980000  89.5680000  66.8230000   3.2210000
  88.5450000  66.2490000   5.5850000  89.6550000  65.8970000   5.1460000
  88.0160000  65.6100000   6.6510000  87.1250000  66.0230000   6.9670000
  88.6720000  64.6480000   7.5090000  89.5170000  64.2710000   6.9610000
  89.2540000  65.3830000   8.7180000  88.5990000  65.9280000   9.3210000
  89.5340000  64.5430000   9.3990000  90.5160000  66.1950000   8.3330000
  90.2000000  66.8250000   7.4930000  90.8600000  66.8320000   9.1310000
  91.7400000  65.2800000   7.9450000  92.3910000  64.6110000   8.7900000
  92.0180000  65.2320000   6.6940000  91.3100000  65.6730000   6.0020000
  92.8160000  64.6570000   6.3990000  87.7930000  63.3100000   7.7300000
  88.0680000  62.3970000   8.5090000  86.6280000  63.2000000   7.0220000
  86.3270000  64.0110000   6.5050000  85.9380000  61.9040000   6.7830000
  86.6770000  61.1360000   6.9940000  84.9020000  61.7240000   7.9270000
  84.8720000  60.6620000   8.2900000  85.3000000  62.2880000   8.7800000
  83.6010000  62.0630000   7.5670000  83.6310000  63.0310000   7.6020000
  85.3710000  61.7360000   5.4150000  85.5870000  62.6480000   4.6110000
  84.6930000  60.5770000   5.1020000  84.7890000  59.3450000   5.8360000
  84.0160000  59.2320000   6.6930000  85.8270000  59.1590000   6.1630000
  84.5050000  58.2250000   4.8010000  83.5820000  57.7820000   4.9280000
  85.2960000  57.4890000   5.0100000  84.5420000  58.9610000   3.4630000
  83.9600000  58.4680000   2.7680000  85.6050000  59.0070000   3.1680000
  84.0400000  60.3630000   3.8320000  84.4110000  61.0640000   3.0290000
  82.4830000  60.3470000   3.8700000  81.8630000  59.9880000   2.8740000
  81.9230000  60.8040000   4.9850000  82.4930000  61.1870000   5.6920000
  80.4790000  60.4930000   5.1960000  80.0860000  60.3450000   4.1830000
  80.3740000  59.1310000   5.8750000  80.9450000  58.3750000   5.3140000
  80.7810000  59.0590000   7.3120000  81.8580000  59.1080000   7.3540000
  80.3620000  59.8760000   7.8470000  80.5020000  58.1320000   7.7820000
  79.1100000  58.6990000   5.8050000  78.9010000  58.4730000   4.9090000
  79.7420000  61.6530000   5.8520000  80.3870000  62.6940000   6.0880000
  78.4280000  61.5340000   6.0120000  77.9530000  60.6700000   5.7500000
  77.4820000  62.5450000   6.5330000  76.9670000  62.9950000   5.6930000
  76.4190000  61.7550000   7.3440000  75.8460000  60.9690000   6.8760000
  76.8850000  61.2110000   8.1530000  75.4770000  62.7280000   7.8960000
  75.1170000  63.1990000   7.1220000  78.0150000  63.7040000   7.4110000
  78.5560000  63.5670000   8.5120000  77.6420000  64.9170000   6.9910000
  77.0870000  64.9970000   6.1230000  78.0230000  66.1780000   7.5960000
  79.0370000  66.0380000   7.9520000  78.1040000  67.2480000   6.4840000
  77.0960000  67.5410000   6.1940000  78.5400000  68.1660000   6.9430000
  78.9030000  66.8160000   5.2980000  80.0950000  66.9030000   5.2090000
  78.2910000  66.3540000   4.2960000  78.7640000  66.0160000   3.5130000
  77.2740000  66.2430000   4.3320000  77.0880000  66.5620000   8.6790000
  76.9840000  67.7250000   8.9910000  76.4920000  65.6080000   9.4650000
  76.8420000  64.6360000   9.3360000  75.4990000  65.7980000  10.5710000
  74.6980000  66.2880000  10.1310000  75.0630000  64.4060000  11.0840000
  74.8860000  63.8090000  10.1530000  75.9030000  63.9350000  11.5990000
  73.7870000  64.2870000  11.8960000  73.5390000  64.7670000  13.2010000
  72.2730000  64.5650000  13.5570000  71.8830000  64.6640000  14.5780000
  71.6890000  63.8440000  12.5680000  70.8080000  63.3210000  12.5430000
  72.6370000  63.6580000  11.5280000  72.4490000  63.1800000  10.5420000
  76.0720000  66.7120000  11.6880000  77.2170000  67.0340000  11.6760000
  75.1180000  67.2890000  12.4750000  74.1780000  66.8450000  12.4770000
  75.1670000  68.4800000  13.3450000  75.3560000  69.2230000  12.6180000
  73.8100000  68.8500000  13.9950000  73.0350000  68.5540000  13.3080000
  73.6520000  68.1400000  14.8280000  73.7740000  70.0860000  14.4780000
  73.8330000  70.7380000  13.7780000  76.3850000  68.4840000  14.2810000
  76.8550000  67.4000000  14.6810000  76.9830000  69.6650000  14.7040000
  76.6720000  70.9960000  14.2420000  75.8620000  71.3080000  14.8710000
  76.3290000  71.1670000  13.2390000  77.9270000  71.9250000  14.5390000
  77.6210000  73.0040000  14.7510000  78.5660000  72.0160000  13.6700000
  78.4670000  71.2150000  15.7580000  78.0020000  71.5650000  16.7100000
  79.5280000  71.3280000  15.8490000  78.2380000  69.7590000  15.5190000
  78.9520000  69.3550000  14.8960000  78.3210000  68.8500000  16.8140000
  79.4100000  68.4300000  17.1080000  77.2230000  68.4530000  17.4130000
  76.4110000  68.8000000  16.9930000  77.1660000  67.4890000  18.5590000
  77.8350000  67.9150000  19.3590000  75.7190000  67.2800000  19.0460000
  75.7410000  66.6210000  19.9180000  74.9830000  68.5530000  19.3700000
  74.6710000  69.0510000  18.4830000  74.0530000  68.1630000  19.8400000
  75.5980000  69.1460000  20.1130000  74.8780000  66.7250000  18.0760000
  75.2760000  66.1100000  17.4660000  77.7530000  66.1250000  18.1080000
  77.9890000  65.2360000  18.9810000  77.8270000  65.8500000  16.7940000
  77.6710000  66.5590000  16.1520000  77.8350000  64.4630000  16.2900000
  78.6590000  64.0170000  16.8240000  76.4210000  63.8100000  16.5560000
  76.2170000  62.8770000  16.1160000  76.2790000  63.6960000  17.6240000
  75.4290000  64.7040000  16.1640000  75.4460000  64.7650000  15.2100000
  78.2850000  64.3830000  14.8410000  77.5790000  63.7980000  14.0130000
  79.4810000  64.9070000  14.5590000  80.0130000  65.4200000  15.1480000
  80.0550000  64.6520000  13.2240000  79.3060000  64.4250000  12.5300000
  80.8060000  65.9200000  12.7500000  81.9580000  65.5930000  12.8410000
  80.5860000  66.0560000  11.6170000  80.5520000  67.5130000  13.6150000
  80.8670000  63.3190000  13.1870000  80.9160000  62.5780000  14.2460000
  81.5320000  62.8650000  12.1320000  81.1850000  63.1590000  10.7890000
  81.9310000  63.8320000  10.2900000  80.1610000  63.5530000  10.6330000
  81.2950000  61.8680000   9.9530000  81.3380000  62.0410000   8.8890000
  80.4820000  61.2520000  10.1350000  82.4780000  61.2010000  10.6890000
  83.4190000  61.6560000  10.3570000  82.4790000  60.1280000  10.5110000
  82.2010000  61.5790000  12.1670000  81.5380000  60.9150000  12.5330000
  83.5000000  61.5880000  13.0570000  84.1170000  62.6080000  13.3530000
  83.9300000  60.4210000  13.6060000  83.2120000  59.1830000  13.3370000
  83.3050000  58.9240000  12.2680000  82.2170000  59.2960000  13.7590000
  84.1010000  58.1320000  14.0840000  84.9450000  57.8190000  13.4790000
  83.5080000  57.1820000  14.3630000  84.6070000  58.8970000  15.3370000
  85.5190000  58.4010000  15.7270000  83.7860000  58.8880000  16.1060000
  84.7580000  60.3410000  14.8310000  84.2480000  60.9560000  15.5380000
  86.2100000  60.7300000  14.6460000  86.8390000  61.2080000  15.5800000
  86.6820000  60.6770000  13.4170000  86.0140000  60.3400000  12.7070000
  87.9610000  61.2160000  12.9850000  88.7400000  60.8910000  13.6050000
  88.2500000  60.7990000  11.4840000  89.0060000  61.4110000  11.0480000
  88.6770000  59.3390000  11.2030000  89.0450000  59.1520000  10.1980000
  89.4250000  59.1190000  11.9480000  87.8590000  58.5990000  11.4010000
  87.0330000  60.9260000  10.7010000  87.3210000  61.5370000   9.9650000
  88.0330000  62.7400000  13.2040000  89.1330000  63.2370000  13.5520000
  87.0110000  63.5300000  12.9080000  86.1010000  63.0940000  12.6650000
  87.2370000  64.9570000  12.4960000  87.9840000  64.8770000  11.6760000
  85.8680000  65.5160000  12.0280000  85.2670000  65.8830000  12.8890000
  86.1500000  66.3100000  11.3450000  84.8920000  64.3490000  10.9770000
  84.6180000  63.4610000  11.9240000  87.8760000  65.9200000  13.5810000
  87.3610000  65.9140000  14.7440000  88.8510000  66.8180000  13.2540000
  89.6630000  66.6670000  12.0090000  89.1970000  67.3330000  11.3470000
  89.7770000  65.6490000  11.7010000  91.0070000  67.2210000  12.4270000
  91.4730000  67.6940000  11.5590000  91.7140000  66.5160000  12.7690000
  90.5810000  68.3760000  13.3800000  90.1140000  69.1980000  12.8330000
  91.4840000  68.8080000  13.9170000  89.5640000  67.6370000  14.2520000
  90.0910000  67.0840000  15.0260000  88.6240000  68.7680000  14.8870000
  88.6900000  69.0460000  16.0920000  87.7390000  69.3680000  14.0280000
  87.8760000  69.3230000  13.0270000  86.6820000  70.2010000  14.4770000
  87.0750000  71.1050000  14.9030000  86.0940000  70.5110000  13.6070000
  85.8100000  69.4340000  15.5290000  85.3270000  70.0480000  16.5050000
  85.3920000  68.1430000  15.2960000  85.7100000  67.7100000  14.4150000
  84.5410000  67.3860000  16.1940000  83.7640000  68.0940000  16.3520000
  84.0250000  66.1360000  15.4170000  83.6440000  66.3280000  14.4430000
  84.9210000  65.5460000  15.1610000  82.9360000  65.3770000  16.1580000
  81.8600000  66.1090000  16.6410000  81.7570000  67.1340000  16.4040000
  81.0470000  65.5580000  17.5930000  80.3360000  66.2150000  17.9910000
  81.1890000  64.2190000  18.0160000  80.4550000  63.8190000  19.0770000
  79.6270000  64.2890000  19.1080000  82.1820000  63.3880000  17.4790000
  82.3300000  62.3750000  17.7760000  83.0830000  64.0040000  16.5570000
  83.9550000  63.4870000  16.2350000  85.2460000  66.9480000  17.4790000
  84.6590000  66.8120000  18.6020000  86.6070000  66.8370000  17.4130000
  87.0490000  66.9010000  16.4970000  87.3980000  66.7480000  18.6570000
  86.8950000  65.9920000  19.2080000  88.8420000  66.4470000  18.4660000
  89.2100000  67.2000000  17.7660000  89.4640000  66.8330000  19.2810000
  89.0220000  64.9730000  18.1390000  88.7620000  64.3780000  18.9760000
  88.3780000  64.6780000  17.3540000  90.4500000  64.5460000  17.7650000
  90.7220000  64.9060000  16.7560000  91.2680000  65.0090000  18.3500000
  90.7270000  63.1250000  17.8660000  91.3110000  62.8840000  18.6260000
  89.9860000  62.2010000  17.3210000  89.2410000  62.4400000  16.2520000
  88.6840000  61.8220000  15.7300000  89.3830000  63.3560000  15.9070000
  90.0490000  61.0040000  17.8420000  90.6700000  60.7940000  18.5520000
  89.4940000  60.2190000  17.5390000  87.2490000  67.9890000  19.5820000
  87.0490000  67.7900000  20.7790000  87.0590000  69.2160000  19.0900000
  87.0630000  69.3070000  18.0920000  86.4590000  70.3710000  19.8710000
  87.0590000  70.5090000  20.7960000  86.7530000  71.6780000  19.0870000
  87.8180000  71.8020000  18.9760000  86.3410000  71.4910000  18.0850000
  86.2200000  73.0090000  19.6260000  85.7030000  74.0440000  18.9580000
  85.6410000  74.0870000  17.8620000  85.3280000  75.0330000  19.8860000
  84.7980000  75.8970000  19.6620000  85.4090000  74.5740000  21.1500000
  85.0800000  75.1680000  22.3800000  84.5440000  76.1230000  22.4140000
  85.4770000  74.6020000  23.5730000  85.2810000  75.1070000  24.4390000
  86.3350000  73.4630000  23.5570000  86.8190000  73.1270000  24.4570000
  86.6960000  72.9120000  22.3100000  87.3640000  72.1070000  22.3320000
  86.2690000  73.4100000  21.0380000  84.9500000  70.1200000  20.3050000
  84.6880000  70.4300000  21.4780000  84.0360000  69.7100000  19.4660000
  84.3100000  69.5710000  18.5090000  82.6520000  69.5680000  19.9540000
  82.3700000  70.5430000  20.3230000  81.8290000  69.1890000  18.7600000
  82.3980000  68.3620000  18.2520000  80.9040000  68.7750000  19.2160000
  81.6330000  70.3260000  17.7270000  82.6040000  70.6300000  17.4140000
  81.0190000  70.0700000  16.8460000  80.9000000  71.8040000  18.4870000
  79.4830000  71.1720000  19.5270000  78.7900000  70.5810000  18.9280000
  79.9010000  70.5120000  20.2600000  78.9930000  71.9780000  19.9560000
  82.5160000  68.4710000  21.0160000  81.7280000  68.6780000  21.9610000
  83.3510000  67.4250000  21.0370000  84.0040000  67.3520000  20.2880000
  83.4310000  66.4450000  22.1310000  82.4490000  66.0250000  22.2580000
  84.3420000  65.3440000  21.6630000  85.1370000  65.7780000  21.0980000
  84.7420000  64.8010000  22.4950000  83.3360000  64.2770000  20.6210000
  83.2650000  65.1770000  19.6010000  83.8930000  67.1340000  23.4020000
  83.5510000  66.7610000  24.5350000  84.7900000  68.1540000  23.3860000
  85.0190000  68.4920000  22.4230000  85.1610000  68.9150000  24.5900000
  85.1840000  68.1880000  25.3890000  86.5150000  69.6160000  24.3530000
  87.2750000  68.9540000  24.0210000  86.2780000  70.3590000  23.6500000
  87.0530000  70.2990000  25.6370000  86.4380000  71.1140000  25.9600000
  87.3090000  69.3120000  26.8930000  87.4580000  69.9960000  27.7100000
  86.3410000  68.8220000  27.1280000  88.1950000  68.6810000  26.8170000
  88.3970000  70.9030000  25.2360000  88.5580000  71.7350000  25.9720000
  89.0620000  70.1420000  25.2540000  88.4240000  71.5290000  24.3290000
  84.0430000  69.9400000  24.9360000  83.8760000  70.1850000  26.1040000
  83.1210000  70.3570000  24.0700000  83.3390000  70.2990000  23.0340000
  81.8690000  71.1020000  24.3320000  82.1740000  71.7920000  25.1470000
  81.2380000  71.9260000  23.1570000  82.0750000  72.2920000  22.5970000
  80.6110000  71.2670000  22.5120000  80.4440000  73.0860000  23.7030000
  79.6430000  72.7680000  24.2580000  81.0570000  73.6810000  24.4270000
  79.8810000  73.9860000  22.6240000  79.5740000  74.9560000  22.9750000
  80.7150000  74.0980000  21.9550000  78.6790000  73.4850000  22.0550000
  78.1530000  72.7780000  22.5590000  77.8920000  74.1710000  21.2100000
  78.1370000  75.3440000  20.6230000  78.8900000  75.8990000  21.0840000
  77.4490000  75.7220000  20.0150000  76.7780000  73.6230000  20.8950000
  76.6310000  72.7390000  21.4160000  76.1530000  73.9690000  20.1910000
  80.8640000  70.2420000  25.0590000  80.3530000  70.5990000  26.1500000
  80.6540000  69.0600000  24.5030000  81.1490000  68.8900000  23.6410000
  79.9340000  67.8830000  25.0180000  78.8920000  68.2340000  25.0000000
  80.1890000  66.7310000  24.0380000  80.3870000  67.0410000  22.9800000
  81.1250000  66.2530000  24.3270000  79.0530000  65.7060000  24.1440000
  79.1750000  65.3150000  25.1610000  78.0730000  66.2030000  23.9850000
  79.1740000  64.7200000  23.0110000  79.0510000  65.3170000  22.1360000
  80.1370000  64.3520000  22.9120000  78.3540000  63.5270000  23.0970000
  78.4360000  62.9000000  23.8940000  77.6000000  63.0020000  22.1540000
  77.3210000  63.5300000  20.9830000  77.8460000  64.3180000  20.6210000
  76.8670000  62.9430000  20.3430000  76.8650000  61.9220000  22.3890000
  76.7720000  61.6840000  23.2870000  76.1220000  61.7710000  21.7420000
  80.2980000  67.5180000  26.4430000  79.4170000  67.3300000  27.3170000
  81.6050000  67.5350000  26.8180000  82.2010000  67.7290000  26.0750000
  82.1040000  67.4400000  28.1850000  81.5940000  66.6220000  28.7100000
  83.5880000  67.1940000  28.2120000  83.7620000  66.3160000  27.6820000
  84.1650000  68.0360000  27.8060000  84.1840000  67.0090000  29.6390000
  85.0380000  68.0120000  30.2500000  85.4720000  68.8340000  29.6640000
  85.7430000  67.6900000  31.4190000  86.4710000  68.3960000  31.8420000
  85.3500000  66.5770000  32.2100000  85.6770000  66.5880000  33.2350000
  84.3640000  65.7430000  31.6970000  83.8840000  65.0460000  32.3130000
  83.8310000  65.8940000  30.4370000  83.2150000  65.0600000  30.0540000
  81.8300000  68.7240000  28.9760000  81.5200000  68.5480000  30.1390000
  82.0560000  69.9250000  28.5090000  82.3790000  69.9240000  27.5850000
  81.8460000  71.2410000  29.2380000  82.4760000  71.2780000  30.1330000
  82.3160000  72.4760000  28.3600000  81.9480000  72.2110000  27.3290000
  81.7360000  73.7990000  28.8030000  80.6390000  73.7620000  28.7890000
  82.1200000  74.0050000  29.8070000  81.9570000  74.6000000  28.0700000
  83.8630000  72.6270000  28.3200000  84.0760000  72.9860000  29.3040000
  84.4050000  71.7030000  28.1820000  84.3500000  73.6370000  27.1890000
  84.0060000  74.6590000  27.2450000  85.3930000  73.7720000  27.3080000
  84.1800000  73.2710000  26.1440000  80.3970000  71.3560000  29.6120000
  80.0200000  71.7750000  30.7150000  79.4760000  70.9790000  28.6790000
  79.8610000  70.5690000  27.8260000  78.0100000  70.8330000  28.8350000
  77.6890000  71.6770000  29.4360000  77.2660000  70.6990000  27.5020000
  77.9520000  70.0480000  26.8730000  75.8590000  70.1360000  27.5240000
  75.4660000  69.9100000  26.5130000  75.9750000  69.1300000  28.0560000
  75.1550000  70.7210000  28.1280000  77.1200000  72.1680000  26.9370000
  76.4720000  72.7580000  27.5830000  78.1340000  72.6480000  26.9830000
  76.7280000  72.2930000  25.4510000  76.5780000  73.2820000  25.1710000
  77.5740000  71.7870000  24.8270000  75.7510000  71.7580000  25.2600000
  77.7060000  69.6750000  29.7860000  76.7530000  69.9410000  30.5110000
  78.4470000  68.5300000  29.8550000  79.1100000  68.2910000  29.0890000
  78.2080000  67.5230000  30.8700000  77.1450000  67.4330000  30.8900000
  78.8170000  66.1430000  30.5130000  78.3080000  65.5780000  29.7970000
  79.8930000  66.2870000  30.1480000  78.7740000  65.2160000  31.7250000
  77.6540000  64.3260000  31.9050000  76.8760000  64.2760000  31.1960000
  77.6250000  63.4660000  33.0210000  76.7760000  62.8740000  33.2080000
  78.7260000  63.4190000  33.9120000  78.6500000  62.9560000  34.8980000
  79.9040000  64.0740000  33.5740000  80.8760000  63.8870000  34.1360000
  79.9830000  64.8790000  32.4050000  80.9010000  65.4250000  32.1730000
  78.5360000  68.0670000  32.2780000  77.7860000  67.7690000  33.2090000
  79.5650000  68.8770000  32.3970000  80.2040000  68.9510000  31.6250000
  79.9610000  69.6090000  33.5990000  80.0200000  68.9170000  34.4150000
  81.4400000  70.0300000  33.2800000  81.9260000  69.1020000  33.1470000
  81.4580000  70.6720000  32.3910000  82.1530000  70.8420000  34.4150000
  81.7970000  71.8350000  34.5310000  82.1530000  70.2450000  35.7230000
  82.4270000  69.2240000  35.5750000  82.8090000  70.6810000  36.4080000
  81.1440000  70.2710000  36.1540000  83.6890000  70.8690000  34.1380000
  84.2710000  71.3850000  34.8670000  84.0770000  69.8240000  33.9840000
  83.8460000  71.4610000  33.2830000  78.9040000  70.6580000  33.8820000
  78.4080000  70.7090000  35.0130000  78.3830000  71.3920000  32.9170000
  78.6600000  71.3300000  31.9430000  77.2290000  72.2900000  33.2050000
  77.6470000  73.0150000  33.9380000  76.7100000  73.0170000  31.9370000
  76.3380000  72.3780000  31.1500000  75.8960000  73.6040000  32.3000000
  77.5920000  74.0170000  31.2820000  78.8860000  74.3740000  31.7580000
  79.2720000  73.8900000  32.6640000  79.6590000  75.2750000  30.9410000
  80.6210000  75.5810000  31.2570000  79.1340000  75.9390000  29.8140000
  79.7780000  76.5290000  29.1770000  77.8760000  75.4910000  29.3690000
  77.4480000  75.9060000  28.4920000  77.0770000  74.5980000  30.1000000
  76.1190000  74.3630000  29.6410000  76.0180000  71.4900000  33.8200000
  75.4050000  71.9360000  34.7330000  75.6330000  70.3820000  33.2000000
  75.9840000  70.1660000  32.2130000  74.5030000  69.5880000  33.7160000
  73.5500000  70.1880000  33.7210000  74.3380000  68.3900000  32.7730000
  75.2710000  68.0150000  32.4960000  73.5620000  67.1370000  33.3350000
  73.5650000  66.3880000  32.5090000  74.0220000  66.7410000  34.2360000
  72.5260000  67.4080000  33.5760000  73.6230000  68.8000000  31.5060000
  72.5700000  68.7040000  31.5800000  73.6790000  69.8180000  31.3990000
  74.0660000  68.1030000  30.2790000  73.7910000  68.7030000  29.3900000
  75.0960000  67.8920000  30.1600000  73.5670000  67.1120000  30.1160000
  74.8090000  69.0130000  35.1500000  74.0350000  69.1410000  36.0360000
  76.0240000  68.6910000  35.4280000  76.7040000  68.7700000  34.6750000
  76.4380000  68.3280000  36.7770000  75.6750000  67.6530000  37.0880000
  77.8310000  67.6220000  36.7380000  77.9040000  66.8230000  35.9550000
  78.5590000  68.4480000  36.5980000  78.3310000  67.0080000  38.0020000
  78.1670000  67.7190000  38.8370000  77.4030000  65.8160000  38.2250000
  77.6950000  65.1630000  39.0540000  76.4530000  66.2200000  38.5260000
  77.3430000  65.1950000  37.3740000  79.7880000  66.4940000  37.9590000
  80.4970000  67.2760000  37.8340000  79.9230000  66.0660000  38.9250000
  79.8900000  65.7470000  37.2210000  76.4360000  69.5940000  37.6950000
  75.7500000  69.4900000  38.7570000  76.8260000  70.8010000  37.3120000
  77.3320000  70.8520000  36.4200000  76.6510000  72.0120000  38.1240000
  77.0280000  71.7970000  39.1180000  77.3900000  73.2470000  37.4440000
  77.3260000  73.2010000  36.3450000  76.9660000  74.1660000  37.8510000
  78.9130000  73.3440000  37.8600000  79.1190000  73.0960000  38.9140000
  79.8660000  72.5010000  37.0040000  79.6800000  71.4260000  37.2610000
  79.6670000  72.6620000  35.9920000  80.8800000  72.7170000  37.3400000
  79.4470000  74.7570000  37.6270000  80.5380000  74.7470000  37.8130000
  79.3090000  75.0940000  36.6020000  78.8990000  75.4210000  38.3070000
  75.2240000  72.3280000  38.4070000  74.8360000  72.6480000  39.5070000
  74.3610000  72.2840000  37.3600000  74.7860000  72.2410000  36.4330000
  72.9240000  72.4310000  37.4940000  72.6790000  73.4060000  37.8930000
  72.0250000  72.3220000  36.2940000  72.3360000  71.3360000  35.8610000
  71.0040000  72.2240000  36.5750000  72.3200000  73.3980000  35.2260000
  73.3860000  73.5970000  35.1560000  71.9150000  72.9660000  33.8420000
  71.9980000  73.7500000  33.0900000  72.5000000  72.1490000  33.5560000
  70.8750000  72.6510000  33.8960000  71.5410000  74.7220000  35.4940000
  70.5020000  74.4090000  35.5830000  71.7830000  75.1520000  36.4530000
  71.7790000  75.4390000  34.7170000  72.2710000  71.4300000  38.5390000
  71.5390000  71.8320000  39.4300000  72.6120000  70.1360000  38.4510000
  73.1720000  69.9150000  37.6500000  72.1760000  69.1550000  39.4010000
  71.0080000  69.1850000  39.3270000  72.5680000  67.7590000  38.8620000
  73.6470000  67.6050000  38.7890000  72.1920000  66.9330000  39.5370000
  71.7670000  67.4670000  37.1970000  72.7690000  67.9770000  36.4440000
  72.6380000  69.3800000  40.8730000  71.8750000  69.1500000  41.7920000
  73.9340000  69.7100000  41.1980000  74.5470000  69.7900000  40.4110000
  74.3320000  70.0830000  42.5120000  74.1000000  69.2430000  43.2040000
  75.8160000  70.5330000  42.5450000  76.3180000  69.8070000  41.9530000
  75.8500000  71.4230000  42.0180000  76.6230000  70.6930000  43.8670000
  77.6760000  70.7860000  43.6610000  76.3630000  72.0610000  44.5020000
  77.0520000  72.2250000  45.3770000  76.5580000  72.8260000  43.7450000
  75.3800000  72.1680000  44.8380000  76.3070000  69.6110000  44.9300000
  75.1940000  69.6050000  45.1110000  76.6810000  68.6710000  44.5900000
  76.8090000  69.8450000  45.9060000  73.4630000  71.2090000  43.1070000
  72.8790000  71.0620000  44.1730000  73.3270000  72.3460000  42.4110000
  73.8160000  72.3630000  41.5510000  72.6220000  73.5220000  42.8800000
  72.9150000  73.5930000  43.8900000  73.2190000  74.7780000  42.1600000
  74.3250000  74.7330000  42.1810000  72.8470000  74.8390000  40.6500000
  71.8680000  75.2980000  40.4630000  73.5580000  75.4730000  40.0450000
  72.8890000  73.7920000  40.2380000  72.7820000  76.0170000  42.9240000
  71.7370000  76.1160000  42.7450000  72.8840000  75.8030000  44.0070000
  73.6200000  77.2750000  42.5330000  73.4870000  77.5290000  41.5410000
  73.2540000  78.1190000  43.2120000  74.6740000  77.0610000  42.7100000
  71.1020000  73.4400000  42.8400000  70.4750000  74.1770000  43.6180000
  70.5070000  72.6170000  41.9890000  71.1780000  72.1750000  41.3810000
  69.1880000  72.0210000  42.1540000  68.4540000  72.8760000  42.1690000
  68.8150000  71.3070000  40.7950000  68.6600000  71.9860000  39.9580000
  69.6260000  70.6320000  40.5410000  67.5180000  70.5330000  40.8370000
  66.3740000  71.0580000  41.4580000  66.3310000  72.0850000  41.9090000
  65.2180000  70.2450000  41.4600000  64.3380000  70.6210000  41.9000000
  65.3010000  68.8970000  41.0690000  64.4420000  68.2750000  41.1800000
  66.4810000  68.3480000  40.5830000  66.4450000  67.3650000  40.2090000
  67.6160000  69.1590000  40.4300000  68.5090000  68.7830000  39.9530000
  69.0260000  71.2700000  43.4600000  68.1040000  71.6140000  44.1930000
  69.7510000  70.1800000  43.6940000  70.4000000  69.9040000  43.0000000
  69.7370000  69.3160000  44.9270000  68.7850000  68.8520000  45.0160000
  70.8520000  68.3010000  44.7770000  70.8100000  67.8710000  43.7690000
  71.8820000  68.7960000  44.9150000  70.6830000  67.1170000  45.8560000
  70.6440000  67.4850000  46.8320000  69.4360000  66.1860000  45.4960000
  69.4400000  65.5290000  46.3920000  68.6090000  66.8550000  45.4440000
  69.6340000  65.6240000  44.5670000  71.8860000  66.2110000  45.7400000
  72.8060000  66.8580000  45.9070000  71.8750000  65.3740000  46.4460000
  71.9010000  65.9230000  44.7250000  69.8430000  70.2040000  46.1640000
  69.0500000  70.0050000  47.0540000  70.7750000  71.1380000  46.1750000
  71.4300000  71.0310000  45.4110000  71.1340000  72.1710000  47.1050000
  71.6790000  71.6630000  47.9540000  72.1240000  73.1790000  46.5210000
  72.9460000  72.6210000  46.1180000  71.6900000  73.6160000  45.6470000
  72.5790000  74.1910000  47.5440000  71.8400000  74.3680000  48.2640000
  73.9030000  73.7650000  48.2280000  74.2670000  74.4770000  48.8640000
  73.8540000  72.8400000  48.7580000  74.6130000  73.4720000  47.4450000
  72.9090000  75.4660000  46.8400000  72.1040000  75.9690000  46.3280000
  73.1750000  76.1930000  47.5390000  73.7530000  75.2550000  46.2060000
  69.8710000  72.9150000  47.6300000  69.4820000  72.7270000  48.7690000
  69.2900000  73.6360000  46.7010000  69.5520000  73.5290000  45.7390000
  68.0160000  74.4200000  46.9180000  68.2100000  75.0550000  47.7340000
  67.6440000  75.3930000  45.7620000  67.5180000  74.8250000  44.7440000
  66.3260000  76.1450000  45.9450000  65.4340000  75.4280000  45.9240000
  66.2740000  76.6950000  46.8950000  66.1000000  76.7720000  45.1530000
  68.7450000  76.3910000  45.5260000  68.5230000  77.0930000  44.7510000
  69.1820000  77.0390000  46.3830000  69.5620000  75.8790000  45.2620000
  66.8970000  73.4680000  47.3520000  66.1590000  73.8330000  48.2610000
  66.6410000  72.3580000  46.5440000  67.3010000  72.1240000  45.8250000
  65.5330000  71.4590000  46.7440000  64.6230000  71.9760000  46.6690000
  65.6970000  70.3170000  45.7430000  65.8240000  70.6700000  44.6730000
  66.6800000  69.8400000  46.0270000  64.6090000  69.1670000  45.7200000
  64.3670000  68.7670000  46.6770000  63.2840000  69.5670000  45.1070000
  62.8170000  70.2930000  45.7430000  63.3240000  70.0800000  44.1070000
  62.5620000  68.7280000  45.0920000  65.1360000  68.0360000  44.8200000
  65.5360000  68.4810000  43.8830000  65.9320000  67.4570000  45.3440000
  64.3270000  67.3260000  44.6100000  65.5030000  70.9450000  48.1840000
  64.5430000  71.2530000  48.8850000  66.5850000  70.3270000  48.5990000
  67.3920000  70.3670000  48.0220000  66.7390000  69.8540000  49.9040000
  65.9990000  69.1360000  50.1680000  68.1430000  69.0870000  50.1090000
  68.9990000  69.7220000  49.9720000  68.1840000  68.8040000  51.1610000
  68.4150000  67.7840000  49.2440000  68.5840000  68.0600000  48.2190000
  69.6400000  67.0420000  49.8150000  69.9630000  66.3290000  49.0540000
  70.3120000  67.7880000  50.1190000  69.3740000  66.4790000  50.7120000
  67.2480000  66.7580000  49.3590000  67.3990000  65.8670000  48.6690000
  67.2200000  66.4870000  50.3700000  66.3590000  67.1800000  49.0500000
  66.6730000  70.9940000  50.9340000  66.0470000  70.7450000  51.9940000
  67.4310000  72.0480000  50.7550000  68.1110000  72.0910000  50.0110000
  67.5370000  73.1830000  51.6910000  67.8870000  72.6900000  52.6140000
  68.5970000  74.2100000  51.1980000  69.5430000  73.6560000  51.1270000
  68.2640000  74.7120000  50.3030000  68.8430000  75.2250000  52.3280000
  68.9890000  74.7230000  53.4660000  69.0150000  76.4290000  52.0020000
  66.1910000  73.8150000  52.1320000  65.9470000  73.9050000  53.3500000
  65.3420000  74.1470000  51.1310000  65.5930000  74.2160000  50.1480000
  64.0390000  74.7170000  51.5510000  64.1210000  75.4740000  52.3410000
  63.3660000  75.4320000  50.4400000  64.0390000  76.1290000  49.9890000
  63.2370000  74.6780000  49.7160000  61.9560000  75.9990000  50.7050000
  61.6230000  76.6510000  51.9070000  62.3180000  76.6370000  52.7500000
  60.3800000  77.2640000  52.0840000  60.1270000  77.7280000  53.0950000
  59.5190000  77.3710000  50.9790000  58.4420000  78.2030000  51.0630000
  58.1300000  78.3210000  51.9810000  59.8030000  76.7590000  49.7490000
  59.2940000  76.8860000  48.7840000  61.0210000  76.0950000  49.6340000
  61.3430000  75.7590000  48.6210000  63.1100000  73.6070000  52.2480000
  62.3430000  73.9780000  53.0890000  63.3310000  72.3300000  51.9970000
  64.1130000  72.0780000  51.3380000  62.6520000  71.1990000  52.6570000
  61.6640000  71.5360000  52.9800000  62.6030000  70.0080000  51.7490000
  63.6120000  69.7530000  51.4940000  62.0730000  69.1590000  52.2330000
  61.7260000  70.4380000  50.5930000  60.7560000  70.6460000  50.9670000
  62.0460000  71.4190000  50.1900000  61.6070000  69.4320000  49.4350000
  62.3830000  68.5190000  49.3160000  60.6820000  69.7420000  48.5980000
  59.9630000  70.3600000  48.8700000  60.5370000  69.1860000  47.8290000
  63.4060000  70.8760000  53.9560000  62.8960000  70.0450000  54.6830000
  64.6410000  71.4110000  54.2680000  64.9180000  72.1830000  53.6100000
  65.3350000  71.0440000  55.5360000  66.0710000  71.8790000  55.4860000
  64.6420000  71.1250000  56.3710000  66.1610000  69.7460000  55.5870000
  66.3350000  69.2050000  56.6950000  66.5760000  69.2560000  54.4930000
  66.3190000  69.7620000  53.7090000  67.3970000  68.0320000  54.2750000
  67.4380000  67.4720000  55.1810000  66.7270000  67.1420000  53.2280000
  66.4170000  67.7540000  52.3830000  67.4350000  66.3150000  52.9010000
  65.4200000  66.5390000  53.8070000  65.5630000  66.1250000  54.8040000
  64.6650000  67.3060000  53.8300000  64.6370000  65.1500000  52.9800000
  65.6600000  63.7720000  53.5840000  66.7300000  64.0020000  53.3590000
  65.6210000  63.4910000  54.6330000  65.3640000  62.9300000  52.9800000
  68.8390000  68.3160000  53.8480000  69.5470000  67.3300000  53.5090000
  69.2680000  69.5650000  53.8720000  68.6170000  70.3200000  54.1080000
  70.6600000  70.0170000  53.6620000  71.2900000  69.1510000  53.4180000
  70.7210000  70.9570000  52.3750000  70.2740000  70.2690000  51.6290000
  70.1230000  71.8210000  52.4810000  72.2250000  71.3070000  52.0580000
  72.9220000  70.9330000  52.7570000  72.5490000  70.6670000  50.7080000
  72.4360000  69.6110000  50.7860000  71.9010000  71.0220000  49.9040000
  73.5460000  70.8890000  50.3800000  72.4490000  72.7900000  51.8530000
  73.5120000  72.9500000  51.7710000  71.9910000  73.2050000  50.8950000
  72.0390000  73.3110000  52.7510000  71.2330000  70.6030000  54.9630000
  71.0410000  71.8350000  55.1360000  71.7510000  69.8530000  55.9690000
  71.7080000  68.4130000  55.9390000  72.2890000  67.9750000  55.1310000
  70.6560000  68.0950000  55.8060000  72.0770000  67.9250000  57.2690000
  73.1850000  67.6980000  57.3120000  71.5650000  66.9930000  57.5770000
  71.7820000  69.0340000  58.1810000  72.3960000  69.1700000  59.0310000
  70.7270000  69.0100000  58.5090000  71.8940000  70.3360000  57.3160000
  71.0660000  70.9640000  57.5810000  73.2090000  71.1460000  57.3870000
  74.0790000  70.7430000  58.1860000  73.3020000  72.3210000  56.7920000
  72.4870000  72.6610000  56.4390000  74.3200000  73.2990000  56.9670000
  75.2540000  72.7840000  56.9020000  74.1090000  74.2220000  55.7420000
  73.0560000  74.5300000  55.7270000  74.9010000  75.5160000  55.8720000
  74.8120000  76.1200000  54.9470000  74.5810000  76.1750000  56.6730000
  75.9990000  75.2800000  55.8200000  74.6340000  73.5490000  54.4410000
  73.9080000  72.7760000  54.1610000  74.5430000  74.2980000  53.5990000
  75.5120000  72.9780000  54.5110000  74.3330000  73.9510000  58.4140000
  73.2730000  74.2430000  58.9440000  75.5070000  74.2560000  58.9620000
  76.3080000  74.0820000  58.3910000  75.6750000  75.1510000  60.1230000
  74.7260000  75.3370000  60.6260000  76.6270000  74.4330000  61.0640000
  77.3550000  73.9290000  60.4330000  77.1380000  75.2090000  61.6370000
  75.9190000  73.1270000  62.1840000  76.3140000  76.4590000  59.6510000
  77.4750000  76.5200000  59.1580000  75.5380000  77.5420000  59.5740000
  74.0980000  77.6040000  59.8340000  73.8770000  77.7140000  60.9220000
  73.5170000  76.7780000  59.4240000  73.5560000  78.9210000  59.2210000
  72.9620000  79.5670000  59.8640000  73.0200000  78.6630000  58.3260000
  74.8050000  79.7410000  58.8810000  74.7700000  80.5380000  59.5960000
  74.7940000  80.1270000  57.8430000  76.0440000  78.8750000  59.1270000
  76.4940000  78.7470000  58.1710000  77.0160000  79.6090000  59.9960000
  76.9020000  79.6510000  61.1990000  78.1010000  80.1040000  59.3400000
  78.1780000  79.8340000  58.3780000  79.2640000  80.7570000  59.9090000
  79.3840000  80.3940000  60.8740000  80.4850000  80.4170000  59.1480000
  80.3120000  79.4060000  58.8610000  80.5920000  80.9700000  58.2570000
  81.7810000  80.4850000  59.9750000  81.7070000  79.8910000  60.9220000
  82.9640000  79.9920000  59.0490000  83.8710000  80.0620000  59.7090000
  82.8860000  78.9750000  58.7400000  83.1010000  80.7210000  58.2290000
  82.1940000  81.9160000  60.2690000  83.2800000  81.9570000  60.5780000
  81.9180000  82.6040000  59.4480000  81.6870000  82.1930000  61.1800000
  79.0060000  82.2270000  60.0230000  79.5650000  83.0940000  59.3720000
  78.0030000  82.5970000  60.9160000  77.5340000  81.7780000  61.3720000
  77.3350000  83.8840000  61.0280000  77.8200000  84.5850000  60.3220000
  75.9160000  83.7780000  60.4190000  75.4000000  82.9920000  60.9460000
  75.0000000  84.9840000  60.5570000  73.9930000  84.6980000  60.2770000
  74.9190000  85.1920000  61.6560000  75.4020000  85.8510000  59.9900000
  75.7590000  83.3800000  58.9220000  76.1730000  82.3800000  58.7940000
  74.7530000  83.2250000  58.6480000  76.5410000  84.2510000  57.8220000
  76.0700000  84.0540000  56.8870000  76.4250000  85.3220000  58.0630000
  77.6120000  84.0510000  57.7820000  77.3670000  84.4790000  62.4650000
  77.1950000  83.6510000  63.3720000  77.6290000  85.7630000  62.7090000
  77.9630000  86.6990000  61.7690000  77.1000000  86.9730000  61.2420000
  78.7490000  86.2700000  61.1340000  78.4550000  87.9950000  62.4600000
  77.6280000  88.6950000  62.6010000  79.2100000  88.5170000  61.8230000
  79.0510000  87.4140000  63.7830000  79.0930000  88.1980000  64.6280000
  79.9760000  87.1650000  63.5110000  78.1540000  86.2070000  64.0600000
  78.7580000  85.4110000  64.4370000  76.9130000  86.4690000  65.0230000
  76.9870000  87.4650000  65.7650000  75.9100000  85.6240000  65.0590000
  75.9030000  84.8220000  64.5350000  75.0430000  85.5060000  66.2320000
  74.7640000  86.4670000  66.6070000  74.1830000  84.9660000  65.8180000
  75.6910000  84.7870000  67.3570000  76.5140000  85.2990000  68.0590000
  75.4390000  83.4310000  67.5270000  74.9190000  83.0200000  66.8210000
  75.8430000  82.6260000  68.7130000  76.8840000  82.7090000  68.7830000
  75.1640000  83.0880000  69.9890000  75.4750000  82.3780000  70.6880000
  75.5040000  84.0350000  70.2090000  73.7620000  83.0760000  69.9980000
  73.4300000  82.2190000  69.6630000  75.5010000  81.2070000  68.4560000
  74.3870000  80.7850000  68.1320000  76.4530000  80.3370000  68.6420000
  77.4280000  80.6290000  68.6940000  76.2460000  78.9740000  69.0150000
  75.6880000  78.5010000  68.1970000  77.5950000  78.3020000  69.1000000
  78.1310000  78.7890000  69.9220000  77.5630000  77.2320000  69.3310000
  78.4200000  78.3960000  68.0260000  79.1560000  77.7590000  68.1470000
  75.3740000  78.8120000  70.2920000  75.3410000  79.7360000  71.1150000
  74.8240000  77.6170000  70.3720000  74.9770000  76.9120000  69.6020000
  74.1110000  77.1670000  71.6110000  73.7670000  78.0710000  72.1790000
  72.7820000  76.4120000  71.2520000  72.3830000  76.1490000  72.2130000
  71.8650000  77.3500000  70.5020000  70.9570000  76.7960000  70.3020000
  71.6690000  78.2990000  71.0210000  72.3240000  77.6150000  69.5240000
  72.9310000  75.2790000  70.4140000  73.3240000  74.6510000  71.0030000
  74.8930000  76.3420000  72.5420000  74.8290000  75.0720000  72.6820000
  75.8110000  77.0080000  73.3120000  75.7890000  78.0350000  73.2230000
  76.8150000  76.3040000  74.2010000  77.0370000  75.2370000  73.9120000
  78.1450000  77.0180000  74.1440000  77.9330000  78.0940000  74.2500000
  79.2790000  76.5520000  75.1090000  80.1760000  76.9510000  74.6340000
  79.1380000  76.8740000  76.1660000  79.3710000  75.4640000  75.0400000
  78.7390000  76.9220000  72.8050000  78.2740000  76.2070000  72.3290000
  76.3580000  76.2050000  75.6190000  76.1110000  77.1870000  76.2880000
  76.2500000  74.9980000  76.1820000  76.4660000  74.1030000  75.7500000
  75.7690000  74.7560000  77.5450000  75.5290000  73.7100000  77.6380000
  76.9870000  74.9170000  78.4800000  77.8870000  74.4390000  78.0230000
  77.3650000  75.9700000  78.5250000  76.8030000  74.4440000  79.7450000
  75.9490000  74.0560000  79.8400000  74.5620000  75.5950000  77.9650000
  73.4980000  75.3260000  77.3920000  74.5750000  76.5010000  78.9070000
  75.5000000  76.7730000  79.2000000  73.4280000  77.1280000  79.5450000
  72.7400000  76.3700000  79.9170000  73.8550000  77.8300000  80.8900000
  72.9700000  78.1910000  81.4900000  74.6360000  76.7940000  81.7640000
  75.5810000  76.5150000  81.2930000  74.8580000  77.1200000  82.7590000
  74.0330000  75.9090000  81.8630000  74.7090000  78.9450000  80.6280000
  74.1560000  79.6790000  80.6480000  72.6480000  78.1530000  78.7040000
  71.7410000  78.7970000  79.1970000  73.0270000  78.4220000  77.4290000
  73.8790000  77.9360000  77.0250000  72.3040000  79.3050000  76.5290000
  71.3220000  78.9300000  76.1870000  72.2010000  80.2500000  77.0180000
  73.0270000  79.4790000  75.1870000  73.3170000  78.5660000  74.4400000
  73.3930000  80.7150000  74.9160000  72.7340000  81.8670000  75.3650000
  73.2780000  82.2440000  76.2940000  71.6950000  81.7330000  75.6420000
  72.9350000  82.9240000  74.3340000  72.7700000  83.9440000  74.6250000
  72.3720000  82.6680000  73.4300000  74.3520000  82.6040000  73.9340000
  74.9560000  83.1980000  74.6830000  74.4710000  82.9340000  72.8950000
  74.4900000  81.1210000  74.0250000  74.2170000  80.7070000  73.0030000
  75.9060000  80.7150000  74.4380000  76.2030000  80.6150000  75.6030000
  76.8450000  80.6690000  73.5380000  76.6640000  80.7570000  72.5990000
  78.1980000  80.9220000  73.9450000  78.4080000  80.2230000  74.7280000
  79.1990000  80.5020000  72.8480000  80.2270000  80.7350000  73.1310000
  79.1590000  79.4600000  72.7690000  78.9210000  81.1620000  71.1660000
  78.4180000  82.3130000  74.5860000  77.9910000  83.3800000  74.0600000
  79.2040000  82.4280000  75.6770000  79.7120000  81.5590000  75.8680000
  79.3010000  83.7050000  76.5260000  78.3140000  83.8580000  76.8910000
  80.2760000  83.4880000  77.7370000  79.7700000  82.7360000  78.3810000
  81.2760000  83.0560000  77.5050000  80.4830000  84.6910000  78.7240000
  80.5810000  84.2980000  79.7510000  81.4850000  85.1040000  78.5540000
  79.4770000  85.8650000  78.7970000  79.8780000  86.5900000  79.4540000
  79.4650000  86.4500000  77.8820000  78.1340000  85.5170000  79.2810000
  78.0910000  85.4900000  80.3200000  77.0070000  85.7860000  78.6160000
  76.9860000  86.2000000  77.3690000  76.2270000  85.9920000  76.7420000
  77.9000000  86.0900000  76.9360000  75.8940000  85.6850000  79.2560000
  75.8970000  85.2460000  80.2150000  75.0010000  85.7650000  78.7290000
  79.7800000  84.9200000  75.7030000  79.0700000  85.9350000  75.5720000
  80.9250000  84.7860000  75.1180000  81.4550000  83.9120000  75.0840000
  81.5160000  85.8960000  74.2570000  81.2640000  86.8610000  74.7360000
  83.0130000  85.8280000  74.2260000  83.3690000  86.7020000  73.6430000
  83.7410000  85.8650000  75.5840000  83.3470000  86.6030000  76.2000000
  83.7290000  84.8550000  76.0660000  84.7770000  86.0630000  75.3440000
  83.3080000  84.5920000  73.6350000  84.2420000  84.6280000  73.4700000
  80.9670000  85.8830000  72.7800000  81.6320000  86.2910000  71.8300000
  79.6760000  85.4490000  72.6440000  79.2770000  85.0560000  73.4760000
  78.9100000  85.5260000  71.4160000  79.4750000  86.0780000  70.6380000
  78.7350000  84.1250000  70.8660000  77.9200000  83.6630000  71.3580000
  78.3960000  84.2750000  69.8470000  80.0240000  82.8800000  70.9810000
  77.5600000  86.2220000  71.5160000  77.0820000  86.8060000  70.6050000
  76.8790000  86.3260000  72.6580000  77.1860000  85.8270000  73.4960000
  75.6800000  87.0720000  72.8110000  75.8490000  88.1380000  72.5390000
  74.5160000  86.4120000  72.0850000  74.8450000  86.1390000  71.1430000
  74.1220000  85.5320000  72.6010000  73.3480000  87.3770000  71.7540000
  72.5150000  86.7500000  71.4940000  72.9210000  87.8400000  72.6210000
  73.6250000  88.6980000  70.4900000  73.0060000  90.1870000  71.3970000
  71.9420000  90.0390000  71.7250000  73.6400000  90.4370000  72.2370000
  73.1190000  91.0840000  70.7750000  75.3370000  87.1830000  74.2800000
  75.5360000  86.2280000  75.0560000  74.7590000  88.2230000  74.7070000
  74.6680000  89.0050000  74.0250000  74.5910000  88.4810000  76.1810000
  75.5320000  88.5260000  76.6340000  74.0960000  89.9040000  76.2530000
  73.0980000  89.9920000  75.8510000  74.1600000  90.5380000  77.6110000
  75.2020000  90.4320000  77.9820000  73.7950000  91.5710000  77.5320000
  73.5150000  89.9920000  78.2730000  74.7350000  90.7860000  75.4020000
  75.6760000  90.7370000  75.6560000  73.6780000  87.5020000  77.0180000
  73.9510000  87.3030000  78.1910000  72.5900000  86.9400000  76.5090000
  72.0640000  87.2880000  75.2320000  72.5830000  86.7580000  74.4210000
  72.0390000  88.3470000  75.1500000  70.5500000  86.8710000  75.2920000
  70.1660000  86.6000000  74.3020000  69.9560000  87.7350000  75.5380000
  70.5140000  85.7610000  76.3360000  70.6200000  84.7980000  75.9270000
  69.4850000  85.7740000  76.8820000  71.6860000  86.1260000  77.2660000
  71.4230000  86.7490000  78.1370000  72.3500000  84.9100000  78.0020000
  73.5160000  84.6560000  77.7870000  71.6900000  84.2120000  78.9190000
  70.8310000  84.6360000  79.1280000  72.2690000  83.5320000  80.0550000
  71.4320000  83.2190000  80.6760000  72.9540000  82.2070000  79.6320000
  73.6810000  81.7860000  80.3760000  72.1610000  81.5770000  79.3690000
  73.5600000  82.3350000  78.6760000  73.0870000  84.5470000  80.8960000
  74.2670000  84.4240000  81.1700000  72.4480000  85.7310000  81.0550000
  71.5350000  85.8670000  80.6780000  73.0540000  86.9230000  81.5370000
  73.9870000  87.2530000  81.0290000  72.0030000  88.0600000  81.3220000
  71.6320000  88.0030000  80.2860000  71.1110000  87.8460000  81.9730000
  72.3670000  89.4910000  81.7200000  71.5680000  90.2920000  82.5270000
  70.6810000  89.9250000  83.0500000  71.9250000  91.6220000  82.8430000
  71.2550000  92.2450000  83.4230000  73.1980000  92.0750000  82.4870000
  73.5710000  93.0870000  82.8040000  74.0200000  91.2610000  81.7650000
  75.0140000  91.5630000  81.5540000  73.6120000  90.0150000  81.3130000
  74.2560000  89.3860000  80.6700000  73.3520000  86.8980000  83.0930000
  72.8260000  86.0690000  83.8270000  73.9430000  87.9000000  83.6850000
  74.2750000  88.6880000  83.1110000  74.1160000  87.9840000  85.1680000
  74.6710000  87.0510000  85.4340000  75.0480000  89.2240000  85.5510000
  76.0430000  89.0940000  85.1970000  74.6120000  90.1400000  85.1210000
  75.2060000  89.3150000  87.0960000  74.2860000  89.6190000  87.5740000
  75.4920000  88.3030000  87.3750000  76.3000000  90.3710000  87.4120000
  75.9640000  91.3070000  86.9060000  76.3990000  90.5450000  88.4410000
  77.6150000  89.9370000  86.8890000  77.6730000  88.9920000  86.6410000
  78.6750000  90.6880000  86.6520000  78.6700000  91.9800000  86.8790000
  77.8170000  92.4510000  87.1470000  79.5700000  92.4590000  86.8250000
  79.7960000  90.1650000  86.2350000  79.9020000  89.2120000  86.1410000
  80.6190000  90.7600000  86.1830000  72.7990000  87.9050000  86.0550000
  72.7210000  87.3040000  87.1210000  71.7340000  88.4390000  85.5350000
  71.8850000  89.0620000  84.7930000  70.4580000  88.4690000  86.2480000
  70.5160000  88.5000000  87.3270000  69.6730000  89.6840000  85.7300000
  68.7160000  89.7490000  86.2070000  70.3060000  90.5530000  85.8810000
  69.4020000  89.5070000  84.6980000  69.7410000  87.0900000  85.9710000
  68.6880000  86.9120000  86.4630000  70.4190000  86.0940000  85.3910000
  71.2710000  86.3490000  84.9810000  70.0920000  84.6390000  85.6260000
  69.1520000  84.5550000  86.1660000  69.8260000  84.0130000  84.2480000
  70.6410000  83.5420000  83.7270000  69.2490000  83.1580000  84.3040000
  69.1090000  84.7250000  83.2400000  69.6500000  84.9370000  82.1480000
  67.9620000  85.2530000  83.4430000  67.4960000  85.6670000  82.6310000
  67.4620000  84.9900000  84.2550000  71.0730000  83.8410000  86.4710000
  70.9010000  82.6070000  86.5750000  71.9550000  84.5050000  87.2260000
  71.9840000  85.4850000  87.1530000  72.9850000  83.8790000  88.2120000
  72.6390000  82.8580000  88.3780000  74.3380000  83.8570000  87.4650000
  75.1290000  83.4100000  88.1660000  74.3730000  83.1450000  86.1320000
  73.6290000  83.6050000  85.5660000  75.3420000  83.2990000  85.6670000
  74.2950000  82.0820000  86.1590000  74.7900000  85.1830000  87.2760000
  75.7720000  85.1500000  87.2590000  73.1680000  84.6590000  89.5160000
  73.9300000  84.1840000  90.4040000  72.6130000  85.8720000  89.6420000
  72.1090000  86.2720000  88.8550000  72.8400000  86.7920000  90.7550000
  73.5380000  86.4010000  91.4770000  73.4870000  88.0500000  90.1540000
  74.4910000  87.9210000  89.7790000  72.9330000  88.3130000  89.2680000
  73.5710000  88.9240000  90.7900000  71.5570000  87.0720000  91.4940000
  70.5970000  87.6080000  90.9370000  71.5080000  86.7710000  92.7890000
  72.3820000  86.4630000  93.1850000  70.3650000  86.8120000  93.7470000
  69.6950000  87.6470000  93.5670000  69.5410000  85.5390000  93.4970000
  69.1100000  85.6130000  92.5080000  70.2470000  84.7530000  93.6020000
  68.4180000  85.3730000  94.4410000  67.6530000  86.2630000  94.6950000
  68.3740000  84.1920000  95.0150000  67.7200000  84.0290000  95.8070000
  69.1290000  83.5680000  94.9240000  70.9820000  86.7690000  95.1640000
  71.7910000  85.8590000  95.3980000  70.5320000  87.6320000  96.0660000
  69.5740000  88.6630000  95.8830000  68.6420000  88.1620000  95.6610000
  69.9200000  89.3450000  95.1690000  69.4730000  89.3780000  97.2480000
  68.8070000  88.8310000  97.8380000  69.2040000  90.3920000  97.0300000
  70.8090000  89.0370000  97.8770000  70.6820000  89.1320000  98.9060000
  71.5700000  89.7480000  97.4960000  71.1210000  87.6410000  97.3720000
  72.1650000  87.6240000  97.1880000  70.7640000  86.4780000  98.3230000
  71.5630000  86.3960000  99.2590000  69.9440000  85.4970000  97.9930000
  69.2390000  85.5810000  97.2620000  70.0380000  84.2220000  98.7370000
  69.9290000  84.5790000  99.7760000  68.9180000  83.2580000  98.1940000
  68.9690000  82.9760000  97.2000000  68.9680000  82.3520000  98.8740000
  67.5210000  83.8440000  98.3150000  66.8060000  83.7370000  97.2940000
  67.2390000  84.5860000  99.2880000  71.4360000  83.5850000  98.7110000
  71.8570000  82.9550000  99.7030000  72.1880000  83.7610000  97.6670000
  71.7140000  84.1600000  96.8400000  73.6060000  83.3050000  97.5620000
  74.0390000  82.9830000  98.4670000  73.6930000  82.0350000  96.7160000
  74.7240000  81.5640000  96.6520000  73.1040000  81.2800000  97.1980000
  73.1520000  82.2970000  95.3220000  73.8320000  82.8300000  94.2770000
  74.8540000  83.1610000  94.3730000  73.0890000  82.7810000  93.1170000
  73.3300000  83.3380000  92.2940000  71.8410000  82.3060000  93.4050000
  70.6420000  81.9730000  92.6360000  70.6080000  82.0600000  91.4910000
  69.4200000  81.5760000  93.2380000  68.5220000  81.2490000  92.6310000
  69.4790000  81.3300000  94.6300000  68.6250000  80.8390000  95.1430000
  70.6350000  81.5210000  95.4320000  70.5700000  81.3230000  96.5380000
  71.8390000  82.0270000  94.8200000  74.5910000  84.4280000  97.1750000
  75.5580000  84.5300000  97.8650000  74.3780000  85.2070000  96.0860000
  73.5420000  85.0760000  95.5410000  75.3790000  86.2260000  95.8040000
  75.6900000  86.6810000  96.7780000  76.5960000  85.5370000  95.1230000
  77.0360000  84.8100000  95.7470000  76.2500000  84.9470000  94.1940000
  77.7280000  86.5100000  94.7810000  77.6290000  87.7500000  95.0950000
  78.6710000  86.1150000  94.0440000  74.7220000  87.2290000  94.8260000
  74.2240000  86.7910000  93.8030000  74.8400000  88.5660000  95.0760000
  75.4430000  88.7760000  95.8250000  74.4650000  89.5990000  94.1460000
  74.2320000  89.1600000  93.2000000  73.2660000  90.2220000  94.7790000
  72.5220000  89.4540000  95.0750000  73.4400000  90.6340000  95.7020000
  72.3450000  91.1610000  94.0460000  72.3660000  92.5070000  94.2760000
  73.0530000  92.8900000  95.0380000  71.6720000  93.4630000  93.5060000
  71.9690000  94.5030000  93.6830000  70.7860000  92.9480000  92.5710000
  70.1310000  93.6620000  92.0280000  70.6540000  91.5940000  92.3320000
  70.0060000  91.2570000  91.5580000  71.4300000  90.6720000  93.0960000
  71.2550000  89.6090000  92.8910000  75.5790000  90.7030000  93.8670000
  75.4000000  91.8090000  93.3080000  76.7920000  90.3820000  94.2690000
  76.8590000  89.4650000  94.5960000  77.9950000  91.2480000  94.2210000
  77.8460000  91.9370000  95.0580000  79.2430000  90.5960000  94.7460000
  79.8030000  91.2860000  95.2770000  79.0030000  89.8340000  95.5000000
  80.0620000  90.1250000  93.5610000  80.8210000  90.9270000  93.0680000
  80.0030000  88.8280000  93.1380000  80.6220000  88.6270000  92.3720000
  79.3150000  88.1100000  93.4600000  78.2070000  92.0360000  92.9280000
  77.9300000  91.4480000  91.8700000  78.7830000  93.2690000  92.9320000
  79.0850000  94.0760000  94.1800000  80.0780000  93.7790000  94.5520000
  78.3670000  94.0200000  94.9950000  79.1810000  95.5470000  93.7200000
  79.7750000  96.1030000  94.4910000  78.1430000  95.8660000  93.5940000
  79.8730000  95.3270000  92.3690000  80.9220000  95.0530000  92.5490000
  79.9430000  96.2640000  91.7600000  79.1020000  94.1180000  91.7560000
  78.1520000  94.5530000  91.4540000  79.6680000  93.4770000  90.4690000
  79.1610000  93.6390000  89.3890000  80.6610000  92.5700000  90.5740000
  81.1650000  92.4930000  91.4780000  81.2300000  91.7500000  89.5080000
  80.5570000  91.9260000  88.6900000  82.6430000  92.1980000  89.2600000
  82.7280000  93.2800000  89.0900000  83.3900000  91.9460000  89.9370000
  83.0630000  91.6660000  87.8660000  82.2900000  91.5650000  86.9120000
  84.3720000  91.3680000  87.7830000  84.7210000  90.9330000  86.9130000
  84.9880000  91.4740000  88.5000000  81.0720000  90.2840000  89.7570000
  82.1220000  89.5340000  89.8830000  79.8020000  89.8630000  89.7810000
  79.1420000  90.6020000  89.6060000  79.4580000  88.4170000  89.7860000
  80.0980000  88.0070000  90.4800000  78.0690000  88.1000000  90.3750000
  77.9660000  88.5720000  91.4270000  77.1930000  88.4110000  89.6980000
  77.9720000  86.6000000  90.5750000  77.7290000  86.1230000  89.5910000
  78.8740000  86.2230000  91.0660000  76.7980000  86.0210000  91.3230000
  76.7210000  86.4760000  92.2560000  75.8440000  86.2410000  90.7840000
  76.9110000  84.4550000  91.4550000  75.9860000  84.0870000  92.0110000
  76.9140000  83.9600000  90.4090000  78.2620000  84.1840000  92.1230000
  78.3860000  84.8750000  92.8730000  78.4170000  83.2340000  92.4380000
  78.9390000  84.4770000  91.4110000  79.7910000  87.7480000  88.4560000
  78.8890000  87.5670000  87.6180000  81.0620000  87.2880000  88.2920000
  81.7650000  87.5070000  89.0110000  81.5430000  86.2320000  87.3330000
  82.6030000  86.3740000  87.2760000  81.3510000  84.8460000  88.0730000
  81.7070000  84.1160000  87.3760000  82.0830000  84.7960000  88.9100000
  79.9660000  84.4940000  88.5690000  79.0550000  84.7110000  87.7500000
  79.8290000  84.0800000  89.7670000  81.0220000  86.4780000  85.9070000
  81.0080000  87.6730000  85.5200000  80.6260000  85.4700000  85.1610000
  80.7490000  84.4860000  85.5000000  79.5450000  85.5790000  84.1350000
  79.3270000  84.4420000  84.0590000  78.1960000  86.1470000  84.6720000
  78.3370000  87.1840000  84.9670000  77.1060000  86.0970000  83.6320000
  76.1070000  86.2550000  84.0540000  77.2700000  86.7630000  82.8360000
  77.1790000  85.0490000  83.2140000  77.5660000  85.3020000  85.6940000
  78.1830000  85.2410000  86.4810000  80.0610000  86.1580000  82.8520000
  79.5460000  85.7980000  81.7550000  81.1400000  86.9010000  82.8890000
  81.5190000  87.2770000  83.7710000  81.7450000  87.4580000  81.7140000
  81.6960000  86.7200000  80.9090000  80.8590000  88.6090000  81.1670000
  81.2150000  89.0080000  80.1950000  79.8150000  88.2170000  81.0340000
  80.7550000  89.8850000  81.9930000  81.6690000  90.8030000  82.2590000
  82.7770000  90.7350000  81.9390000  81.1020000  91.7830000  83.0160000
  81.5920000  92.6690000  83.2580000  79.7630000  91.5390000  83.2620000
  78.7620000  92.3160000  83.8360000  78.9120000  93.2470000  84.3260000
  77.4200000  91.8970000  83.7290000  76.6450000  92.3710000  84.3360000
  77.1590000  90.6660000  83.1760000  76.1360000  90.2570000  83.1870000
  78.1890000  89.8290000  82.7670000  77.8560000  89.0070000  82.1530000
  79.5380000  90.2550000  82.6920000  83.2040000  87.8210000  81.9460000
  83.4970000  88.4160000  82.9910000  84.0770000  87.4780000  81.0220000
  84.1760000  86.1750000  80.2800000  83.3690000  86.0460000  79.6000000
  84.3250000  85.3290000  80.9240000  85.3790000  86.3470000  79.3960000
  85.1250000  86.6310000  78.4290000  85.9770000  85.4130000  79.3620000
  86.1730000  87.5650000  79.9750000  86.7680000  88.1030000  79.1710000
  86.9160000  87.1840000  80.6890000  85.0740000  88.4140000  80.6200000
  85.5640000  88.9890000  81.4500000  84.4340000  89.4180000  79.5670000
  84.2310000  90.5590000  79.8580000  83.8570000  88.9000000  78.4530000
  83.8240000  87.8980000  78.3880000  83.0610000  89.6970000  77.4670000
  82.9910000  90.7990000  77.7410000  83.7590000  89.6920000  76.0630000
  84.5820000  90.4460000  76.0550000  84.2100000  88.6910000  75.8970000
  82.8070000  90.1130000  74.9940000  82.4430000  89.4230000  74.0170000
  82.2980000  91.2330000  75.1730000  81.6110000  89.2470000  77.4430000
  81.2760000  88.0560000  77.2880000  80.6610000  90.1380000  77.7060000
  80.9750000  91.0940000  77.7970000  79.2440000  90.0120000  77.6030000
  78.9860000  88.9860000  77.6960000  78.6710000  90.7250000  78.8340000
  78.6710000  91.7780000  78.5630000  77.6500000  90.4810000  79.0710000
  79.3170000  90.5570000  79.6930000  78.5370000  90.4090000  76.2840000
  77.3060000  90.2310000  76.1870000  79.3270000  91.0050000  75.3980000
  80.3060000  90.8690000  75.5250000  78.8670000  91.6970000  74.1740000
  77.7250000  92.0040000  74.2940000  79.7790000  93.0150000  74.0430000
  80.8870000  92.6950000  73.8080000  79.4710000  93.7880000  73.3560000
  79.9720000  93.8600000  75.2830000  79.2060000  94.6140000  75.7570000
  81.0400000  93.5350000  75.9650000  81.1790000  93.9160000  76.8580000
  81.6470000  92.8650000  75.5790000  78.9080000  90.8330000  72.9150000
  77.8930000  90.3430000  72.5560000  80.1630000  90.5510000  72.3900000
  80.9860000  90.9670000  72.8440000  80.6660000  89.5450000  71.4760000
  80.8540000  88.7100000  72.1910000  79.6860000  89.0710000  70.3680000
  80.2000000  88.2880000  69.8940000  78.7780000  88.5840000  70.8150000
  79.2540000  90.0830000  69.3390000  78.7980000  90.9350000  69.8950000
  80.1370000  90.4390000  68.7810000  78.1770000  89.5630000  68.3970000
  77.9450000  90.3080000  67.7010000  78.5220000  88.6700000  67.9320000
  76.7660000  89.2540000  69.0040000  76.8740000  88.9880000  70.0190000
  76.0550000  90.0850000  68.9350000  76.1340000  88.1000000  68.3090000
  75.1870000  87.9570000  68.5800000  76.2090000  88.1620000  67.2920000
  76.6580000  87.3460000  68.6830000  82.0920000  89.9170000  70.9660000
  82.3520000  90.9530000  70.4240000  82.9610000  88.9150000  71.0360000
  82.6950000  88.1380000  71.6590000  84.0210000  88.5820000  70.0340000
  84.4130000  89.4850000  69.5460000  85.2020000  87.8580000  70.6870000
  84.7670000  86.9520000  71.1590000  86.3890000  87.5850000  69.7290000
  86.9970000  86.7430000  70.1770000  86.0950000  87.3090000  68.7690000
  87.0310000  88.4820000  69.7090000  85.7320000  88.5740000  71.9280000
  86.1070000  89.5770000  71.5890000  84.8930000  88.6380000  72.6600000
  86.5760000  87.9190000  72.3280000  83.3660000  87.7650000  68.9180000
  82.8820000  86.6820000  69.1480000  83.3040000  88.2480000  67.6660000
  83.5540000  89.6410000  67.2520000  84.5650000  89.9930000  66.9460000
  83.1140000  90.3100000  68.0030000  82.6230000  89.9140000  66.0760000
  82.9810000  90.6420000  65.3650000  81.6870000  90.2130000  66.4450000
  82.6380000  88.4980000  65.4330000  83.5280000  88.4050000  64.7820000
  81.7600000  88.2480000  64.9230000  82.7750000  87.4790000  66.5230000
  81.7370000  87.1620000  66.7620000  83.7270000  86.4340000  65.9490000
  84.8820000  86.4050000  66.4410000  83.4030000  85.7330000  64.8610000
  82.4820000  85.9630000  64.5290000  84.3410000  85.0480000  63.9330000
  84.7800000  84.2330000  64.5180000  83.4570000  84.3400000  62.8820000
  83.2250000  85.1020000  62.2320000  83.9650000  83.5380000  62.2800000
  82.5390000  83.8390000  63.3170000  85.2740000  86.1080000  63.4100000
  84.8060000  87.1820000  63.0330000  86.5660000  85.8510000  63.3930000
  86.8740000  84.9280000  63.8510000  87.6070000  86.8190000  63.1710000
  87.3460000  87.8080000  63.6400000  88.8850000  86.3210000  63.7960000
  89.1320000  85.3590000  63.3460000  89.7470000  86.9740000  63.5960000
  88.8060000  86.1810000  65.2910000  87.9910000  85.4750000  65.4930000
  89.7280000  85.7850000  65.7500000  88.4750000  87.4780000  65.9580000
  89.3460000  88.2110000  66.4450000  87.2650000  87.9500000  66.0660000
  86.4480000  87.2930000  66.1340000  87.2510000  88.9040000  66.3760000
  87.7520000  87.0790000  61.6640000  88.6440000  86.5450000  61.0210000
  86.9400000  88.0510000  61.2070000  86.2810000  88.3940000  61.8710000
  86.6820000  88.3290000  59.7900000  87.4940000  88.8880000  59.3410000
  86.5060000  87.3110000  59.3410000  85.3850000  89.0720000  59.7010000
  85.3400000  90.2540000  59.2180000  84.2910000  88.4900000  60.2190000
  84.5800000  87.5690000  60.6030000  82.9230000  88.9260000  60.6150000
  83.0230000  88.9800000  61.6770000  82.4780000  90.3100000  60.0250000
  82.5590000  90.2550000  58.9570000  81.1400000  90.7180000  60.4200000
  80.3950000  89.9690000  60.2520000  81.0930000  90.8840000  61.4570000
  80.7950000  91.6510000  59.9600000  83.2740000  91.3350000  60.4940000
  84.0680000  91.3420000  59.9990000  81.8980000  87.8690000  60.3800000
  81.4930000  87.1520000  61.3300000  81.5800000  87.6730000  59.1120000
  81.8890000  88.3910000  58.4390000  80.8970000  86.4290000  58.5250000
  80.5130000  85.8730000  59.3620000  79.6940000  86.7420000  57.7090000
  79.3470000  85.8110000  57.3520000  78.7690000  87.2360000  58.1910000
  80.1300000  87.4890000  56.5830000  79.3660000  87.7620000  56.1000000
  81.8410000  85.4700000  57.7490000  81.4750000  84.6340000  56.8370000
  83.1310000  85.5020000  58.1830000  83.3770000  85.9180000  59.0640000
  84.2930000  84.8510000  57.5040000  83.8000000  84.1360000  56.8050000
  85.1670000  85.8470000  56.6560000  85.7170000  86.4840000  57.3710000
  85.8650000  85.2660000  56.0390000  84.2070000  86.6280000  55.6570000
  84.7630000  86.8390000  54.7920000  83.3460000  85.9920000  55.4190000
  83.6980000  88.2270000  56.3870000  85.1410000  89.2410000  56.0130000
  85.3880000  89.2790000  55.0250000  84.9960000  90.2040000  56.4430000
  86.0300000  88.9240000  56.5040000  85.2380000  84.2460000  58.5450000
  85.4980000  84.9830000  59.4730000  85.7550000  83.0010000  58.3200000
  85.3450000  82.2850000  57.6690000  86.9220000  82.4470000  59.0540000
  87.7410000  83.1440000  59.0510000  86.6290000  82.1760000  60.4970000
  86.1900000  83.0300000  61.0270000  85.8560000  81.4300000  60.6510000
  87.7830000  81.7040000  61.3570000  88.8190000  82.6300000  61.6520000
  88.8110000  83.6320000  61.3050000  90.0320000  82.1250000  62.2620000
  90.7560000  82.9470000  62.4330000  90.2030000  80.7900000  62.6100000
  91.2490000  80.3400000  63.2710000  91.2860000  79.3750000  63.0990000
  89.1180000  79.8940000  62.3080000  89.2270000  78.9180000  62.6440000
  87.9520000  80.3610000  61.7420000  87.2850000  79.6520000  61.3500000
  87.3470000  81.0760000  58.4820000  86.4350000  80.2550000  58.2790000
  88.6620000  80.7700000  58.4250000  89.7570000  81.7070000  58.4720000
  90.0650000  81.7410000  59.5400000  89.4980000  82.7060000  58.1060000
  90.8880000  81.0980000  57.6040000  91.8760000  81.3190000  57.9900000
  90.8090000  81.4810000  56.5880000  90.6270000  79.5440000  57.6700000
  91.1800000  79.2200000  58.5540000  90.8960000  78.9530000  56.7890000
  89.1180000  79.4270000  57.9590000  88.6590000  79.2720000  56.9750000
  88.6980000  78.2310000  58.9000000  89.3220000  77.9970000  59.9120000
  87.6630000  77.5550000  58.4740000  87.2200000  77.8120000  57.5540000
  86.9840000  76.3850000  59.1260000  86.5690000  75.7990000  58.2580000
  87.8700000  75.4730000  59.8910000  88.5910000  75.2190000  59.1260000
  88.1870000  75.9160000  60.7940000  87.1240000  74.2690000  60.2490000
  87.6770000  73.5100000  60.2440000  85.9090000  76.8610000  60.0670000
  86.1810000  77.7060000  60.9410000  84.7180000  76.3050000  59.9290000
  84.5160000  75.6110000  59.1720000  83.6500000  76.5010000  60.9650000
  83.7720000  77.6010000  61.1750000  82.2210000  76.4430000  60.3330000
  82.0080000  77.4570000  59.9560000  82.2200000  75.8600000  59.4240000
  80.9090000  75.8220000  61.4030000  83.9300000  75.7170000  62.2730000
  83.4280000  76.1520000  63.3210000  84.7860000  74.6910000  62.3490000
  85.1940000  74.4260000  61.5220000  84.8920000  73.7500000  63.5000000
  83.8710000  73.4770000  63.5920000  85.6670000  72.4330000  63.1840000
  85.6630000  71.6660000  64.0010000  85.3780000  71.9710000  62.2970000
  87.4460000  72.8250000  63.0330000  87.3700000  73.8460000  62.1640000
  85.2510000  74.4270000  64.8410000  84.5210000  74.1580000  65.8690000
  86.0940000  75.5130000  64.8110000  86.5750000  75.5890000  63.9520000
  86.0220000  76.6540000  65.7550000  84.9630000  76.6910000  66.0270000
  86.8750000  76.3730000  67.0480000  86.6260000  75.4240000  67.4400000
  87.8670000  76.2370000  66.6450000  86.7500000  77.5680000  68.3780000
  86.2780000  77.9670000  65.0040000  87.2450000  78.0130000  64.2580000
  85.5510000  79.0790000  65.1760000  84.7760000  79.0410000  65.8090000
  85.7420000  80.3220000  64.4320000  86.3470000  80.1830000  63.5350000
  84.4170000  80.9050000  63.9170000  84.6450000  81.8810000  63.5840000
  83.8800000  80.0320000  62.8890000  82.9820000  80.4940000  62.4370000
  84.7410000  79.8900000  62.1410000  83.7640000  79.0050000  63.2280000
  83.5280000  81.1030000  64.9860000  82.6360000  81.3040000  64.6260000
  86.5260000  81.4050000  65.2060000  86.7040000  82.5350000  64.7910000
  86.9520000  81.0340000  66.4370000  86.7250000  80.0600000  66.6520000
  87.7540000  81.8700000  67.3790000  88.2420000  82.6620000  66.8010000
  86.7520000  82.4690000  68.4100000  86.2250000  81.6110000  68.8300000
  87.3240000  82.8260000  69.2780000  85.8420000  83.5370000  67.8100000
  86.4690000  84.4380000  67.7570000  85.3900000  83.2620000  66.8720000
  84.5890000  83.7560000  68.7230000  83.9080000  84.4340000  68.1690000
  83.9570000  82.8220000  68.8370000  84.8940000  84.4370000  70.0140000
  85.6700000  83.8740000  70.5200000  85.2320000  85.5120000  69.7710000
  83.6840000  84.5530000  70.8510000  83.0210000  83.7610000  70.7180000
  83.9970000  84.6390000  71.8020000  83.1150000  85.3980000  70.6480000
  88.8300000  81.0220000  68.1360000  88.4560000  80.1680000  68.9110000
  90.1200000  81.1500000  67.9370000  90.5940000  81.9840000  66.8070000
  90.3530000  83.0200000  66.9900000  90.0490000  81.6290000  65.8990000
  92.1100000  81.6790000  66.6540000  92.7370000  82.2630000  67.4030000
  92.3830000  81.8710000  65.6400000  92.0800000  80.2360000  67.0940000
  93.0510000  79.9180000  67.3170000  91.5550000  79.6640000  66.3500000
  91.1620000  80.1670000  68.2350000  90.7120000  79.2250000  68.4360000
  91.8780000  80.4400000  69.5130000  92.6510000  79.5920000  69.9310000
  91.6170000  81.5090000  70.2560000  90.8250000  81.9600000  69.9870000
  92.1120000  81.8640000  71.6200000  92.6850000  81.0170000  72.0280000
  92.9220000  83.1100000  71.5170000  93.0130000  83.5780000  72.5040000
  93.8710000  82.8830000  71.0280000  92.2410000  84.1510000  70.8510000
  91.8430000  84.7680000  71.4580000  90.8380000  82.0420000  72.5970000
  90.9370000  82.7490000  73.5930000  89.6690000  81.5010000  72.3240000
  89.5160000  80.8580000  71.5040000  88.4810000  81.8150000  73.0860000
  88.7760000  82.1450000  74.0420000  87.6830000  82.9150000  72.4940000
  88.3670000  83.7530000  72.2280000  87.2800000  82.5710000  71.5630000
  86.4680000  83.4870000  73.2840000  85.8190000  84.4850000  72.8140000
  86.1170000  82.9070000  74.3010000  87.5980000  80.5200000  73.2250000
  87.2440000  79.8980000  72.1740000  87.1390000  80.1840000  74.3870000
  87.3110000  80.8030000  75.1640000  86.3910000  78.9290000  74.5320000
  86.8040000  78.1010000  74.0210000  86.5670000  78.6640000  75.6120000
  84.8800000  79.0760000  74.1670000  84.0710000  78.4840000  74.8430000
  84.5810000  79.8660000  73.1310000  85.3370000  80.3010000  72.6440000
  83.1770000  80.2270000  72.7930000  82.4550000  79.5500000  73.3140000
  82.9930000  81.5900000  73.3970000  83.9070000  82.1660000  73.1240000
  82.2300000  82.1290000  73.0370000  82.9000000  81.5460000  74.8760000
  81.7890000  81.2980000  75.3990000  83.9130000  81.8810000  75.6050000
  83.9240000  81.9630000  76.5680000  84.7160000  82.1150000  74.9770000
  82.9850000  80.2490000  71.2730000  82.8890000  81.3260000  70.6610000
  83.1140000  79.0910000  70.6330000  83.1590000  78.2510000  71.1910000
  83.2730000  79.0300000  69.1880000  84.0570000  79.7620000  68.9140000
  83.6550000  77.5550000  68.7100000  82.8140000  76.8630000  68.7940000
  83.8900000  77.6000000  67.6050000  85.1550000  76.8210000  69.5070000
  81.9160000  79.3960000  68.5590000  80.8900000  79.2050000  69.1570000
  81.9860000  80.0950000  67.3830000  82.8220000  80.3280000  66.9980000
  80.8090000  80.8520000  66.8210000  79.8910000  80.6320000  67.3790000
  80.9090000  82.3740000  66.8740000  81.6350000  82.7150000  66.1110000
  79.5430000  83.0760000  66.6850000  79.2800000  83.1510000  65.6650000
  78.7080000  82.5050000  67.1770000  79.5510000  84.1330000  67.0130000
  81.5000000  82.7340000  68.0670000  81.2370000  82.0540000  68.7560000
  80.4400000  80.3170000  65.4670000  80.7800000  80.9860000  64.4540000
  79.7130000  79.2270000  65.3780000  79.4650000  78.7090000  66.2170000
  79.0230000  78.8530000  64.1580000  78.9320000  79.8200000  63.5880000
  79.9840000  77.9510000  63.3750000  80.9370000  78.4470000  63.3390000
  80.1010000  77.0280000  63.9170000  79.4510000  77.3550000  61.7360000
  77.7010000  78.1850000  64.5140000  77.5930000  77.2900000  65.3410000
  76.6410000  78.8460000  64.0040000  76.9000000  79.4850000  63.1970000
  75.2170000  78.5740000  64.2360000  75.0050000  78.7860000  65.3010000
  74.4660000  79.6530000  63.4640000  74.8350000  79.6220000  62.5020000
  72.9650000  79.3520000  63.3160000  72.6500000  80.0890000  62.5840000
  72.8210000  78.3280000  63.0480000  72.3950000  79.6390000  64.2450000
  74.6750000  81.0470000  64.1430000  74.4270000  80.9060000  65.1900000
  75.7740000  81.2670000  64.1610000  73.8300000  82.2810000  63.6200000
  72.7400000  82.1220000  63.7590000  74.2130000  83.0560000  64.1850000
  74.2490000  82.4300000  62.6210000  74.8150000  77.1320000  63.9350000
  75.3770000  76.5290000  63.0320000  73.8180000  76.5130000  64.5870000
  73.2060000  77.0810000  65.7990000  72.6300000  77.9250000  65.5180000
  73.9760000  77.2020000  66.5690000  72.1600000  76.1050000  66.0970000
  71.2400000  76.4380000  65.4910000  71.8130000  76.0750000  67.1340000
  72.6780000  74.7320000  65.6250000  71.8980000  74.1020000  65.3930000
  73.4250000  74.3680000  66.3640000  73.4050000  75.1430000  64.3010000
  74.2850000  74.4950000  64.1370000  72.4880000  75.0180000  63.0810000
  72.1930000  75.9070000  62.3210000  72.1600000  73.7010000  62.8560000
  72.5820000  72.9860000  63.4000000  71.1340000  73.2760000  61.8600000
  71.5140000  73.6750000  60.8820000  70.9390000  71.7680000  61.8500000
  70.4640000  71.4860000  62.7770000  69.9700000  71.4870000  60.6760000
  70.3040000  71.9470000  59.7600000  69.7910000  70.4080000  60.6010000
  69.0410000  71.9470000  60.9420000  72.2850000  70.9600000  61.6850000
  72.6870000  71.1080000  60.7010000  73.0360000  71.2970000  62.3610000
  72.2410000  69.4680000  62.0720000  73.2850000  68.9870000  62.0070000
  71.8950000  69.4180000  63.0860000  71.5960000  68.8860000  61.4320000
  69.8030000  74.0220000  62.2160000  69.3440000  73.8400000  63.3310000
  69.2140000  74.8120000  61.3000000  69.8420000  75.3350000  60.1000000
  69.6880000  74.6670000  59.2740000  70.8450000  75.6940000  60.2020000
  69.0030000  76.5200000  59.7490000  68.1900000  76.3210000  58.9930000
  69.6810000  77.3020000  59.3120000  68.2000000  76.9440000  60.9480000
  67.3600000  77.5170000  60.5300000  68.8440000  77.6070000  61.5900000
  67.9160000  75.5370000  61.5520000  67.8850000  75.5170000  62.6530000
  66.6880000  74.8680000  60.8900000  66.7790000  73.8250000  60.2050000
  65.5170000  75.5260000  61.0160000  65.4190000  76.4000000  61.4960000
  64.2070000  75.1230000  60.3790000  64.1470000  74.0370000  60.5540000
  63.0870000  75.8060000  61.1900000  62.0690000  75.5530000  60.8430000
  63.1550000  75.5990000  62.2440000  63.2670000  77.2100000  60.9590000
  62.9540000  77.3260000  59.9790000  64.0750000  75.4050000  58.8750000
  63.2540000  76.2730000  58.4620000  64.7850000  74.6660000  58.0740000
  65.3490000  74.0190000  58.5260000  64.9950000  74.8450000  56.6160000
  65.6500000  74.0130000  56.2170000  63.6530000  74.7280000  55.8950000
  63.0790000  75.6760000  56.1440000  63.8370000  74.7370000  54.8370000
  62.9390000  73.5550000  56.1570000  62.3520000  73.4430000  55.4550000
  65.6950000  76.1360000  56.2210000  66.1100000  76.9280000  57.0880000
  66.0410000  76.2810000  54.9050000  65.9960000  75.4860000  54.3050000
  66.8470000  77.4010000  54.4370000  67.2940000  77.0620000  53.4230000
  66.0350000  78.7110000  54.1900000  65.5700000  78.8790000  55.1130000
  66.7810000  79.5120000  53.9770000  65.0850000  78.6770000  52.9790000
  63.7450000  78.8680000  53.0510000  63.1850000  79.0650000  53.9580000
  63.2000000  79.0060000  51.7880000  62.2330000  79.3400000  51.5010000
  64.1640000  78.9060000  50.7800000  64.3030000  79.0990000  49.3910000
  63.4440000  79.2400000  48.7890000  65.4940000  79.0370000  48.7740000
  65.5250000  79.3000000  47.7780000  66.6610000  78.8790000  49.5340000
  67.5750000  78.9000000  49.0110000  66.5990000  78.6800000  50.8850000
  67.5020000  78.5750000  51.4570000  65.3280000  78.6330000  51.5570000
  68.1190000  77.6470000  55.2640000  68.2560000  78.7880000  55.6710000
  68.9460000  76.6620000  55.4690000  68.6430000  75.7950000  55.0050000
  70.2250000  76.6020000  56.2220000  70.1360000  77.2470000  57.1140000
  70.4470000  75.1740000  56.7410000  70.5160000  74.4560000  55.9490000
  71.3180000  74.9930000  57.3060000  69.5620000  74.8320000  57.2940000
  71.4010000  77.0960000  55.3940000  72.1310000  77.9800000  55.8630000
  71.6470000  76.5340000  54.1550000  71.1390000  75.7250000  53.8560000
  72.2670000  77.2690000  53.0420000  73.3000000  77.4850000  53.3800000
  72.3560000  76.4150000  51.7330000  73.1190000  75.5680000  51.8830000
  71.3610000  76.0900000  51.4970000  72.7290000  77.2560000  50.4670000
  74.0520000  77.4390000  50.1000000  74.8290000  76.9640000  50.6660000
  74.4540000  78.2720000  49.0340000  75.5100000  78.3310000  48.7490000
  73.4120000  78.8250000  48.2540000  73.6690000  79.3900000  47.3850000
  72.0630000  78.6560000  48.6410000  71.3070000  78.9110000  47.9220000
  71.7190000  77.9490000  49.7960000  70.6610000  77.8350000  50.0050000
  71.7330000  78.6770000  52.8230000  72.4730000  79.6540000  52.7330000
  70.4100000  78.8180000  52.7630000  69.8390000  77.9620000  52.8210000
  69.6360000  80.0910000  52.8120000  69.9030000  80.5580000  51.8810000
  68.5290000  80.0500000  52.7360000  70.0930000  81.1140000  53.8720000
  70.2770000  82.2860000  53.5440000  70.1700000  80.6540000  55.1000000
  70.0820000  79.6870000  55.2290000  70.7150000  81.3270000  56.2950000
  70.4380000  82.4060000  56.2780000  70.0640000  80.7260000  57.5530000
  70.2010000  79.5780000  57.4720000  70.5630000  81.1910000  58.3630000
  68.5430000  81.0260000  57.7840000  68.4300000  82.0930000  58.0270000
  67.9790000  80.9220000  56.8840000  67.8220000  80.1190000  58.9300000
  67.8880000  79.0420000  58.6710000  68.1780000  80.2900000  59.9220000
  66.2760000  80.3480000  58.7820000  65.6500000  79.9290000  59.6370000
  66.1940000  81.4670000  58.7760000  65.8140000  79.8030000  57.5550000
  66.5060000  79.9740000  56.7780000  65.7150000  78.7920000  57.6300000
  64.8690000  80.1320000  57.2490000  72.2520000  81.3390000  56.2540000
  72.8570000  81.7210000  57.2630000  72.9430000  80.9270000  55.1430000
  72.3070000  80.8140000  54.3710000  74.2880000  81.3680000  54.8630000
  74.6240000  81.8900000  55.7750000  75.1900000  80.1960000  54.5390000
  74.6200000  79.3900000  55.0550000  75.2250000  79.8830000  53.5390000
  76.6500000  80.2390000  54.9630000  77.5340000  81.3380000  54.7240000
  77.2680000  82.1860000  54.1410000  78.8410000  81.3040000  55.2260000
  79.5770000  82.0740000  55.1020000  79.2760000  80.2150000  56.0200000
  80.3030000  80.1770000  56.3610000  78.4530000  79.1170000  56.2800000
  78.7500000  78.2630000  56.8670000  77.1650000  79.1540000  55.7090000
  76.4760000  78.3450000  55.8170000  74.3480000  82.4160000  53.7610000
  74.9520000  83.4870000  54.0180000  73.5680000  82.2330000  52.6850000
  73.1670000  81.3010000  52.4820000  73.7510000  83.1750000  51.6030000
  74.7370000  83.0550000  51.0850000  72.7240000  82.7990000  50.4900000
  73.0460000  81.8090000  50.1840000  71.7070000  82.7370000  50.8980000
  72.7700000  83.6930000  49.1950000  72.4290000  84.7650000  49.3180000
  74.1080000  83.6670000  48.4530000  74.0180000  83.9470000  47.4010000
  74.7980000  84.4360000  48.8360000  74.5000000  82.6150000  48.5270000
  71.8000000  83.0130000  48.2000000  70.8500000  82.9710000  48.6390000
  71.6020000  83.5760000  47.2520000  72.2340000  81.9840000  47.9690000
  73.5710000  84.6550000  51.9210000  74.4690000  85.4340000  51.6940000
  72.3700000  85.0770000  52.4490000  71.7500000  84.3410000  52.7800000
  71.9210000  86.4730000  52.5270000  72.3000000  87.0250000  51.6710000
  70.4220000  86.6240000  52.5770000  70.0400000  86.0600000  51.6770000
  70.1210000  86.1750000  53.5260000  69.9060000  88.0370000  52.4950000
  69.8840000  88.9510000  53.4590000  70.0600000  88.7300000  54.5460000
  69.5460000  90.1790000  52.9130000  69.7510000  91.0580000  53.3990000
  69.3570000  90.1050000  51.5430000  69.2000000  91.1480000  50.6030000
  69.2000000  92.1690000  50.8820000  69.0250000  90.7320000  49.2690000
  68.8600000  91.4510000  48.4830000  69.1900000  89.3430000  48.9390000
  69.1830000  89.0120000  47.8950000  69.5020000  88.3740000  49.9270000
  69.6690000  87.3790000  49.6080000  69.5630000  88.7560000  51.2920000
  72.5630000  87.1190000  53.7920000  73.0080000  88.2230000  53.7580000
  72.7640000  86.2320000  54.7870000  72.1340000  85.4830000  54.7450000
  73.3890000  86.5600000  56.0470000  72.9180000  87.5200000  56.3720000
  73.1140000  85.4850000  57.1560000  73.4670000  84.5450000  56.7020000
  73.8410000  85.7400000  57.9920000  71.7130000  85.2830000  57.7640000
  71.7190000  84.2950000  58.2140000  71.6430000  86.0810000  58.4650000
  70.5440000  85.5230000  56.8120000  70.3850000  84.7520000  55.9130000
  69.8850000  86.5730000  56.9060000  74.8290000  86.9850000  55.8960000
  75.1190000  88.1480000  56.2650000  75.6630000  86.1730000  55.2310000
  75.3990000  85.1430000  55.0480000  77.0300000  86.5500000  54.8970000
  77.4630000  86.9340000  55.8050000  77.8480000  85.3510000  54.4200000
  78.2310000  84.8460000  55.2700000  77.1480000  84.7570000  53.9470000
  78.9790000  85.5900000  53.4460000  80.3220000  85.7630000  53.7260000
  80.7610000  85.6540000  54.6730000  81.0020000  86.1740000  52.6200000
  81.9480000  86.3300000  52.4530000  80.2090000  86.2600000  51.4970000
  80.5200000  86.7430000  50.2270000  81.5050000  87.0580000  50.0050000
  79.4600000  86.8230000  49.3130000  79.7090000  87.3030000  48.3430000
  78.1610000  86.4770000  49.7280000  77.3700000  86.5650000  48.9970000
  77.9540000  86.0290000  51.0150000  77.0240000  85.6400000  51.2880000
  78.9140000  85.9420000  52.0000000  76.9850000  87.8070000  54.0520000
  77.7340000  88.6910000  54.4360000  76.1230000  87.8190000  52.9950000
  75.5400000  87.0300000  52.7550000  76.1190000  89.0540000  52.2310000
  77.0690000  89.1950000  51.7330000  75.1170000  88.8980000  51.0930000
  75.2600000  89.6120000  50.3500000  75.1560000  87.9730000  50.5340000
  74.0580000  88.8790000  51.4150000  75.8210000  90.3660000  53.0300000
  76.5700000  91.3910000  52.9750000  74.7740000  90.3120000  53.8730000
  74.5040000  89.3520000  54.0880000  74.2870000  91.4150000  54.7470000
  74.1590000  92.3630000  54.1710000  72.9710000  91.0890000  55.3950000
  72.9830000  90.0360000  55.7520000  72.6300000  91.7880000  56.2360000
  71.9680000  91.1430000  54.3750000  72.0500000  90.3310000  53.7980000
  75.3650000  91.7820000  55.8110000  75.4180000  92.9500000  56.1530000
  76.0180000  90.7890000  56.3570000  75.6670000  89.8930000  56.1830000
  77.1120000  90.9590000  57.3140000  76.6980000  91.6510000  58.0670000
  77.2770000  89.6410000  58.0840000  77.8810000  89.6610000  58.9980000
  76.3380000  89.3590000  58.4530000  77.4900000  88.8120000  57.3820000
  78.4460000  91.4470000  56.6760000  79.3560000  91.8790000  57.3980000
  78.5610000  91.3370000  55.3170000  77.8030000  91.0700000  54.6670000
  79.8150000  91.5020000  54.4600000  80.5740000  91.5970000  55.1520000
  80.0130000  90.2590000  53.6430000  80.2350000  89.5370000  54.4720000
  79.0970000  90.0800000  53.1690000  81.2390000  90.0550000  52.6960000
  81.1980000  89.1040000  52.1510000  81.1750000  90.7780000  51.8840000
  82.4970000  90.0810000  53.5640000  82.4080000  91.0330000  54.1640000
  82.5500000  89.3140000  54.1780000  83.7340000  90.2420000  52.8180000
  84.1720000  89.3750000  52.4460000  84.2190000  91.3360000  52.3170000
  83.8080000  92.5940000  52.6610000  84.2210000  93.3960000  52.2030000
  83.1380000  92.6180000  53.3810000  85.0900000  91.0720000  51.4250000
  85.2530000  90.0450000  51.1780000  85.3960000  91.8140000  50.8380000
  79.9510000  92.8050000  53.6690000  81.0650000  93.3220000  53.5960000
  78.8210000  93.2350000  53.0780000  78.0590000  92.5810000  53.1650000
  78.5690000  94.4180000  52.2510000  79.5240000  94.9930000  52.3130000
  78.2220000  93.9340000  50.8100000  77.1810000  93.5930000  50.7450000
  78.1510000  94.7940000  50.1700000  79.0830000  92.8670000  50.1650000
  80.2140000  93.2030000  49.4000000  80.5360000  94.2120000  49.3720000
  80.9800000  92.1730000  48.8260000  81.9690000  92.3400000  48.3640000
  80.5150000  90.8560000  48.9420000  81.1950000  90.0860000  48.4900000
  79.3710000  90.5270000  49.5830000  79.0370000  89.5270000  49.5590000
  78.6290000  91.5040000  50.2180000  77.6430000  91.2410000  50.5120000
  77.5200000  95.3220000  52.8430000  76.6700000  95.8950000  52.1130000
  77.5970000  95.5650000  54.1730000  78.3890000  95.0960000  54.6800000
  76.5000000  95.9910000  55.0800000  75.5670000  95.4040000  54.9150000
  77.0120000  95.9150000  56.4680000  77.7790000  96.5990000  56.6260000
  76.2440000  96.1650000  57.2070000  77.5660000  94.6870000  56.7970000
  76.8140000  94.1020000  56.9240000  75.8470000  97.3670000  54.7850000
  74.6550000  97.5940000  55.2510000  76.5910000  98.3130000  54.1360000
  77.3460000  98.0340000  53.5820000  76.0590000  99.6170000  53.8410000
  75.7250000  99.9700000  54.7930000  77.2880000 100.4070000  53.3190000
  78.0900000 100.1570000  54.0400000  77.6000000 100.0660000  52.3550000
  77.2100000 101.8640000  53.2120000  76.5000000 102.5790000  52.3010000
  75.8310000 102.1470000  51.4990000  76.5800000 103.9150000  52.6400000
  76.0420000 104.6020000  52.0520000  77.2030000 104.1170000  53.8500000
  77.5710000 105.2820000  54.4830000  77.0910000 106.2040000  54.1900000
  78.4030000 105.1600000  55.6610000  78.7380000 106.1050000  56.1510000
  78.7770000 103.8950000  56.1900000  79.3390000 103.8240000  57.1500000
  78.4620000 102.8080000  55.4240000  78.6390000 101.8010000  55.7830000
  77.6930000 102.8410000  54.2230000  74.8650000  99.5390000  52.8960000
  73.8850000 100.2960000  52.9930000  74.8510000  98.5460000  52.0060000
  75.6990000  98.0010000  51.8560000  73.7280000  98.2480000  51.1080000
  73.5370000  99.0980000  50.4730000  73.9940000  97.0430000  50.1780000
  74.3450000  96.2430000  50.7380000  73.0950000  96.8690000  49.6020000
  75.2050000  97.2290000  49.2230000  76.1640000  97.5020000  49.7020000
  75.4340000  95.8900000  48.4850000  76.1990000  96.0330000  47.7010000
  75.9060000  95.1460000  49.1580000  74.4580000  95.4760000  48.0230000
  75.0640000  98.3220000  48.1540000  76.0150000  98.2480000  47.6130000
  74.2670000  98.1070000  47.4710000  75.0110000  99.2710000  48.5420000
  72.4690000  98.0860000  51.8810000  71.4320000  98.5180000  51.4000000
  72.4500000  97.4190000  53.0290000  73.3520000  97.0860000  53.3390000
  71.2660000  97.3990000  53.8690000  70.5600000  96.8930000  53.1770000
  71.4280000  96.4980000  55.2040000  70.4300000  96.2100000  55.5040000
  72.0650000  95.6580000  55.1020000  71.9700000  97.3410000  56.1020000
  72.9140000  97.1940000  55.9730000  70.5440000  98.7670000  54.1830000
  69.3780000  98.7040000  54.4980000  71.1850000  99.9040000  54.2740000
  72.2340000  99.8720000  54.1800000  70.6940000 101.2630000  54.5760000
  70.0870000 101.1420000  55.4040000  71.8070000 102.2460000  54.8220000
  72.3830000 102.5070000  53.8770000  71.1920000 103.0740000  55.0640000
  72.8060000 101.9710000  55.9780000  73.4680000 101.1100000  55.7800000
  73.7960000 103.1320000  56.1540000  73.2080000 104.0980000  56.1770000
  74.5640000 102.9230000  56.9520000  74.4340000 103.2380000  55.2190000
  72.1960000 101.8110000  57.3610000  71.2280000 102.1230000  57.4700000
  72.0370000 100.7060000  57.4620000  72.6970000 102.1340000  58.2090000
  69.7960000 101.7880000  53.4950000  68.8600000 102.5760000  53.8520000
  69.8860000 101.2540000  52.2580000  70.6170000 100.5770000  52.1530000
  69.0530000 101.6080000  51.0960000  68.6920000 102.6810000  51.1920000
  69.8540000 101.4080000  49.8210000  70.2850000 100.3810000  49.8290000
  69.1630000 101.3970000  49.0730000  70.9310000 102.4330000  49.4250000
  70.6740000 103.4710000  49.4850000  72.1060000 102.3720000  50.3100000
  72.6540000 101.4260000  50.1650000  72.7970000 103.1930000  50.0670000
  72.0290000 102.5970000  51.3170000  71.3440000 102.0620000  47.9790000
  71.6140000 101.0120000  47.9070000  70.4210000 102.1540000  47.3340000
  72.1380000 102.6980000  47.6180000  67.7550000 100.7370000  51.0230000
  67.4320000 100.1380000  49.9960000  66.9630000 100.6990000  52.1090000
  67.2460000 101.3260000  52.8020000  65.8330000  99.8800000  52.3840000
  66.1570000  98.7920000  52.5870000  65.1360000 100.3980000  53.6240000
  64.6850000 101.3570000  53.3390000  64.0970000  99.3610000  53.9990000
  63.2540000  99.2490000  53.1790000  64.6480000  98.4000000  54.1910000
  63.6250000  99.6670000  54.9040000  66.1300000 100.5720000  54.8000000
  66.7900000  99.7380000  54.9730000  66.7530000 101.4060000  54.5690000
  65.5680000 100.7690000  55.7350000  64.9030000  99.7910000  51.1430000
  64.4730000  98.6660000  50.9020000  64.5080000 100.8120000  50.3560000
  64.7440000 102.2630000  50.5390000  65.8110000 102.5680000  50.3400000
  64.4840000 102.4640000  51.5830000  63.6900000 102.9210000  49.7020000
  63.9270000 103.9220000  49.4380000  62.7230000 102.9600000  50.2020000
  63.5450000 102.0050000  48.5110000  64.4480000 102.1320000  47.8760000
  62.6230000 102.1160000  48.0110000  63.7330000 100.6260000  49.1450000
  62.7980000 100.3430000  49.4690000  64.1660000  99.5980000  48.1230000
  63.3770000  98.9490000  47.5350000  65.4770000  99.4500000  47.8530000
  66.1480000  99.9350000  48.4610000  66.0120000  98.4440000  46.8940000
  65.4010000  98.6160000  45.9310000  67.4650000  98.7090000  46.5360000
  67.5340000  98.7010000  45.4660000  67.7690000  99.7000000  46.8580000
  68.4070000  97.6790000  47.1040000  68.6590000  96.4390000  46.3770000
  68.2530000  96.1850000  45.4070000  69.5220000  95.4880000  46.9030000
  69.5540000  94.5170000  46.3400000  70.1130000  95.6660000  48.1300000
  70.7440000  94.8710000  48.5270000  69.8050000  96.7880000  48.9380000
  70.1920000  96.9400000  49.9870000  69.0370000  97.8220000  48.3670000
  68.8660000  98.6650000  48.9710000  65.6270000  97.0020000  47.2960000
  65.3060000  96.2210000  46.4330000  65.5790000  96.7470000  48.6090000
  65.9450000  97.4270000  49.2540000  64.9270000  95.5520000  49.2180000
  65.2840000  94.7570000  48.6260000  65.3880000  95.2600000  50.6570000
  65.2330000  96.1270000  51.2230000  64.8800000  93.9180000  51.2630000
  65.1820000  93.7020000  52.2370000  63.8040000  93.8590000  51.1980000
  65.1940000  93.1650000  50.5680000  66.8860000  95.0770000  50.7380000
  67.0850000  94.1600000  50.0990000  67.4200000  95.9940000  50.4750000
  67.2120000  94.8690000  51.7120000  63.4070000  95.4800000  49.0400000
  62.8750000  94.4100000  48.8750000  62.7300000  96.6140000  49.1900000
  63.2150000  97.4710000  49.2230000  61.2290000  96.5900000  48.9800000
  60.7850000  95.8370000  49.6600000  60.7050000  98.0100000  49.3680000
  61.0670000  98.7550000  48.7030000  59.6530000  98.1120000  49.2590000
  61.0100000  98.5270000  50.7540000  60.7110000  97.8210000  51.5020000
  62.0490000  98.3500000  50.9550000  60.6160000  99.9090000  51.0560000
  60.1690000 100.6450000  50.1970000  60.8380000 100.3880000  52.2780000
  61.1790000  99.9430000  53.1220000  60.6300000 101.3970000  52.2810000
  60.9830000  96.1280000  47.5370000  60.2100000  95.2130000  47.2960000
  61.6180000  96.7020000  46.5230000  62.3110000  97.4360000  46.8250000
  61.6710000  96.2070000  45.1440000  60.7310000  96.4290000  44.6900000
  62.6310000  97.0900000  44.3460000  62.2160000  98.0780000  44.2730000
  63.5710000  97.2560000  44.9020000  62.8690000  96.8540000  42.9270000
  63.8980000  96.2440000  42.3600000  64.7180000  95.7740000  42.9460000
  63.7400000  96.1590000  40.9760000  64.2540000  95.5600000  40.3190000
  62.5110000  96.6830000  40.6520000  61.9430000  96.7910000  39.4330000
  62.5430000  96.4460000  38.5810000  60.6650000  97.3930000  39.3470000
  60.2080000  97.5860000  38.4280000  59.9330000  97.6410000  40.4920000
  58.8780000  97.9700000  40.4400000  60.5500000  97.5100000  41.7920000
  59.9830000  97.7680000  42.6660000  61.9000000  97.1080000  41.8520000
  62.1000000  94.7530000  45.0510000  61.5720000  93.9920000  44.1870000
  63.0260000  94.2990000  45.8540000  63.4750000  94.9810000  46.3510000
  63.3980000  92.8410000  45.9650000  63.7300000  92.5580000  44.9610000
  64.5670000  92.6260000  46.8980000  65.3300000  93.3250000  46.5630000
  64.2010000  92.7560000  47.9450000  65.1690000  91.2550000  46.7790000
  65.0350000  90.3340000  47.8550000  64.4840000  90.5620000  48.7610000
  65.7820000  89.1520000  47.8290000  65.8010000  88.4190000  48.7190000
  66.5850000  88.8760000  46.6890000  67.2600000  88.0610000  46.6930000
  66.6580000  89.7420000  45.5760000  67.3030000  89.4660000  44.7360000
  66.0270000  90.9680000  45.6840000  66.0860000  91.7820000  44.9120000
  62.2100000  91.9300000  46.3760000  61.9660000  90.9460000  45.7160000
  61.4880000  92.3230000  47.4430000  61.7990000  93.0620000  48.0670000
  60.2400000  91.6000000  47.7590000  60.5200000  90.5610000  47.8180000
  59.7240000  92.1070000  49.1700000  59.5970000  93.1760000  49.2080000
  58.3480000  91.4450000  49.5210000  57.5640000  91.9010000  48.9280000
  58.2980000  90.2730000  49.2730000  58.0600000  91.7410000  50.5030000
  60.7010000  91.5480000  50.2140000  61.1050000  90.5530000  50.0180000
  61.6190000  92.1910000  50.1320000  60.2550000  91.6270000  51.2170000
  59.1810000  91.7630000  46.6910000  58.5120000  90.8270000  46.2590000
  59.1570000  92.9620000  46.0990000  59.7400000  93.6640000  46.5010000
  58.4850000  93.2710000  44.8420000  57.4560000  93.2730000  45.0870000
  58.6100000  94.2950000  44.4700000  58.7330000  92.3130000  43.6470000
  57.9100000  92.1960000  42.7130000  59.8220000  91.5330000  43.5780000
  60.5070000  91.5910000  44.3170000  60.0450000  90.4020000  42.6740000
  59.5560000  90.7360000  41.7460000  61.5910000  90.1070000  42.5140000
  61.9990000  89.6390000  43.3880000  61.5500000  89.3480000  41.6990000
  62.6130000  91.2370000  42.1520000  62.7950000  91.9060000  42.9810000
  63.9340000  90.5160000  41.9450000  64.8130000  91.1250000  41.5690000
  64.2530000  90.2030000  42.9160000  63.7710000  89.6820000  41.2510000
  62.1630000  92.0150000  40.9290000  62.2970000  91.3940000  39.9930000
  61.1260000  92.3300000  41.1110000  62.8040000  92.9410000  40.9290000
  59.1730000  89.1950000  43.1640000  59.7110000  88.0970000  43.2850000
  57.9070000  89.2750000  43.3610000  57.5640000  90.2550000  43.2020000
  56.9130000  88.2430000  43.5860000  57.2200000  87.7060000  44.4870000
  55.5450000  88.9090000  43.8430000  55.7700000  89.5670000  44.6060000
  55.1040000  89.4240000  42.9830000  54.6350000  87.9720000  44.3510000
  54.7940000  87.7830000  45.2340000  56.9510000  87.3410000  42.3540000
  57.1370000  87.8250000  41.2130000  56.5580000  86.0540000  42.4520000
  56.3450000  85.2970000  43.7000000  55.3580000  85.5410000  44.1260000
  57.1460000  85.5820000  44.4060000  56.5160000  83.7980000  43.2790000
  56.1680000  82.9710000  43.9300000  57.5360000  83.7070000  43.1960000
  55.9840000  83.8360000  41.8280000  54.8740000  83.8470000  41.8620000
  56.3040000  83.0350000  41.1890000  56.4670000  85.1820000  41.2570000
  57.4150000  85.0130000  40.8460000  55.4980000  85.6720000  40.1250000
  55.7900000  85.5440000  38.9380000  54.3520000  86.3290000  40.4470000
  54.1770000  86.3480000  41.4560000  53.4170000  87.0360000  39.5810000
  52.7920000  86.4360000  39.0480000  52.5930000  87.9780000  40.4750000
  51.9750000  88.5490000  39.8090000  51.6050000  87.1920000  41.3370000
  50.8920000  86.6760000  40.7110000  52.0710000  86.4780000  42.0850000
  50.9920000  87.9290000  41.8950000  53.2760000  88.8470000  41.3490000
  52.7820000  88.9420000  42.1380000  54.1520000  87.9820000  38.5850000
  53.8610000  87.9120000  37.3610000  54.9900000  88.8200000  39.1050000
  55.0580000  88.8280000  40.1200000  55.7910000  89.7690000  38.2820000
  55.1980000  90.3330000  37.4940000  56.4130000  90.7640000  39.2180000
  56.8620000  90.2690000  40.0910000  57.5400000  91.5960000  38.6270000
  57.8360000  92.3710000  39.3060000  58.4030000  90.9740000  38.5030000
  57.2920000  92.0120000  37.6440000  55.2330000  91.6450000  39.6930000
  54.5020000  91.0340000  40.2100000  55.4400000  92.5140000  40.2770000
  54.7330000  92.0410000  38.8230000  56.8880000  89.0990000  37.5150000
  57.0960000  89.3970000  36.3360000  57.5160000  88.1110000  38.0810000
  57.2510000  87.9710000  39.0550000  58.5710000  87.3540000  37.4220000
  59.2000000  88.0370000  36.9000000  59.2640000  86.5640000  38.5250000
  59.3850000  87.2080000  39.3600000  58.6690000  85.7190000  38.8360000
  60.5230000  85.8670000  38.0890000  60.6640000  85.0440000  37.0970000
  59.8810000  84.6840000  36.4760000  61.9840000  84.6040000  36.9050000
  62.3030000  84.0270000  36.1870000  62.7730000  85.2450000  37.7950000
  64.1420000  85.1810000  38.0710000  64.6920000  84.4350000  37.5870000
  64.7630000  85.8390000  39.1780000  65.7840000  85.7260000  39.5220000
  63.9220000  86.6100000  39.9350000  64.3170000  87.0350000  40.7860000
  62.5270000  86.7420000  39.6760000  61.9370000  87.4230000  40.3720000
  61.9210000  86.0330000  38.6270000  58.0480000  86.5290000  36.2280000
  58.7810000  86.4660000  35.2530000  56.8930000  85.9440000  36.2080000
  56.4150000  86.0100000  37.0940000  56.2330000  85.4620000  35.0180000
  56.9090000  84.7900000  34.5440000  54.9300000  84.7430000  35.4180000
  54.2600000  85.4560000  35.9070000  54.3420000  84.4450000  34.4540000
  54.9490000  83.5230000  36.3350000  55.2890000  83.9700000  37.2210000
  53.5210000  82.9550000  36.5350000  53.3330000  82.1070000  35.8440000
  53.3780000  82.4480000  37.4980000  52.7800000  83.7520000  36.4880000
  56.0650000  82.4860000  36.0380000  57.0280000  82.6570000  36.5090000
  55.6040000  81.5580000  36.3190000  56.1820000  82.4400000  34.9670000
  55.9970000  86.5380000  33.9660000  56.2200000  86.3320000  32.7620000
  55.5310000  87.6730000  34.4280000  55.5980000  87.7270000  35.4250000
  55.4570000  88.8430000  33.5420000  54.7740000  88.5250000  32.7560000
  54.7350000  89.9710000  34.3230000  55.3260000  90.3770000  35.0960000
  54.4510000  90.8220000  33.7190000  53.5390000  89.5910000  34.9490000
  53.6970000  88.7980000  35.5050000  56.7470000  89.3060000  32.9060000
  56.7190000  89.5920000  31.7000000  57.8570000  89.4200000  33.6950000
  57.7440000  89.2700000  34.6940000  59.1850000  89.6960000  33.1310000
  59.2140000  90.6460000  32.6420000  60.2390000  89.6670000  34.2860000
  60.1450000  88.7220000  34.7680000  61.6010000  89.9470000  33.6520000
  62.3880000  89.9860000  34.4270000  61.9710000  89.2270000  32.9990000
  61.5400000  90.8820000  33.1500000  59.9440000  90.8350000  35.3500000
  59.0350000  90.7550000  35.9590000  60.7840000  91.0030000  36.0200000
  59.8230000  91.7840000  34.8520000  59.5190000  88.7290000  31.9960000
  59.8900000  89.2700000  30.9740000  59.2650000  87.4730000  32.1060000
  58.8540000  87.1120000  32.9580000  59.4950000  86.5320000  30.9990000
  60.5290000  86.6390000  30.8260000  59.3080000  85.0850000  31.4880000
  58.2360000  85.0050000  31.8730000  59.3890000  84.1910000  30.2560000
  59.5860000  83.1370000  30.3320000  58.5330000  84.3790000  29.5830000
  60.2810000  84.4900000  29.6970000  60.3850000  84.7180000  32.5970000
  61.3730000  84.5260000  32.1780000  60.4040000  85.5590000  33.2970000
  59.9320000  83.4870000  33.4720000  60.7080000  83.3310000  34.2910000
  58.9540000  83.4250000  33.8510000  59.8830000  82.6420000  32.7440000
  58.6610000  86.9180000  29.7090000  59.1860000  86.8010000  28.6250000
  57.4340000  87.3380000  29.8480000  56.9430000  87.3890000  30.6870000
  56.6880000  87.8290000  28.6830000  56.7840000  87.0540000  27.9520000
  55.1690000  87.9920000  29.0130000  54.7260000  86.9610000  29.1530000
  55.0580000  88.5870000  29.9110000  54.4230000  88.5240000  27.8670000
  53.7630000  87.8040000  26.9230000  53.6180000  86.6940000  26.9640000
  53.1540000  88.6310000  26.0370000  52.6430000  88.3560000  25.2070000
  53.3530000  89.9280000  26.2480000  52.9500000  91.1320000  25.5860000
  52.3760000  91.1510000  24.6760000  53.4400000  92.3010000  26.1560000
  53.1280000  93.2070000  25.6220000  54.2180000  92.3170000  27.2790000
  54.5450000  93.2050000  27.7080000  54.5900000  91.1360000  27.9560000
  55.0600000  91.1990000  28.9040000  54.2310000  89.8630000  27.4470000
  57.3590000  89.1200000  28.0890000  57.4580000  89.2470000  26.8650000
  57.4680000  90.1770000  28.8860000  57.1080000  90.0720000  29.8040000
  57.9440000  91.4770000  28.4840000  57.2310000  91.9360000  27.7760000
  57.9540000  92.3060000  29.7550000  56.9680000  92.3800000  30.2490000
  58.6040000  91.7480000  30.4730000  58.5620000  93.7440000  29.5210000
  58.6600000  94.1580000  30.5500000  59.5380000  93.7350000  29.0100000
  57.4100000  94.6830000  28.4740000  56.3020000  95.2400000  29.7610000
  56.8500000  95.7780000  30.5660000  55.6750000  96.0220000  29.4630000
  55.8480000  94.4300000  30.2790000  59.3280000  91.3070000  27.8170000
  59.6050000  91.8440000  26.7670000  60.1930000  90.4810000  28.4410000
  59.9350000  89.9890000  29.2580000  61.5610000  90.1170000  27.9430000
  62.0740000  91.0570000  27.7780000  62.3180000  89.3110000  29.0080000
  62.3520000  89.8910000  29.9620000  61.6950000  88.3470000  29.1180000
  63.7340000  89.0010000  28.5070000  64.3630000  88.5700000  29.2350000
  63.5910000  88.3780000  27.6050000  64.6930000  90.5390000  27.9710000
  64.9260000  91.5670000  29.4520000  63.9010000  91.7360000  29.9410000
  65.4390000  91.0440000  30.2390000  65.3800000  92.5590000  29.1300000
  61.4980000  89.5090000  26.5360000  62.5050000  89.5690000  25.7890000
  60.3700000  88.8370000  26.1310000  59.5730000  88.8490000  26.7940000
  60.2170000  88.1930000  24.8570000  61.1670000  88.0350000  24.4170000
  59.6570000  86.8050000  25.1660000  60.2260000  86.1870000  25.8340000
  58.7090000  86.9480000  25.6990000  59.4300000  85.9140000  23.9950000
  58.2680000  85.3450000  23.6650000  57.3260000  85.6180000  24.1540000
  58.4520000  84.5780000  22.5920000  57.7270000  84.0380000  22.1580000
  59.7310000  84.6330000  22.1210000  60.2650000  83.9610000  21.0440000
  59.6870000  83.2750000  20.3900000  61.6330000  84.1340000  20.8420000
  62.1820000  83.5630000  20.0550000  62.3790000  84.9500000  21.7520000
  63.3720000  85.0140000  21.7070000  61.7610000  85.6850000  22.7780000
  62.3440000  86.3380000  23.3810000  60.4240000  85.4420000  23.0260000
  59.4520000  89.0630000  23.8220000  59.5680000  88.8160000  22.6430000
  58.7920000  90.1400000  24.2580000  58.6350000  90.2250000  25.2300000
  58.1420000  91.1360000  23.3490000  57.9600000  90.7530000  22.3470000
  56.7950000  91.5470000  23.9170000  56.1330000  90.7000000  23.7280000
  56.8900000  91.7080000  25.0210000  56.2250000  92.9860000  23.4710000
  55.9530000  94.0380000  24.4280000  55.9290000  93.9090000  25.4800000
  55.4510000  95.2830000  23.9130000  55.2470000  96.1000000  24.5850000
  55.4670000  95.4580000  22.5300000  55.0920000  96.6350000  21.9360000
  55.2420000  97.2920000  22.6040000  55.7330000  94.4030000  21.5780000
  55.5390000  94.4710000  20.4760000  56.1550000  93.1370000  22.0930000
  56.3380000  92.2550000  21.4360000  59.0920000  92.3140000  23.1400000
  59.5600000  92.4690000  22.0150000  59.2800000  93.2460000  24.1200000
  59.0560000  92.9570000  25.0590000  60.0970000  94.4940000  24.0020000
  60.0560000  94.8610000  22.9870000  59.3500000  95.6440000  24.7520000
  58.3190000  95.4060000  24.7280000  59.5830000  95.7120000  25.8190000
  59.6790000  96.9900000  24.2160000  59.3060000  97.5270000  23.0010000
  58.5210000  97.1340000  22.3120000  59.9520000  98.7500000  22.8540000
  59.9070000  99.3520000  21.9720000  60.7360000  99.0690000  23.9110000
  61.5880000 100.1370000  24.2050000  61.5590000 101.0580000  23.5380000
  62.1750000 100.2430000  25.4710000  62.7900000 101.1090000  25.6580000
  61.8900000  99.2410000  26.4250000  62.2240000  99.2960000  27.4230000
  61.1040000  98.1280000  26.0550000  60.9860000  97.3670000  26.7560000
  60.5340000  97.9710000  24.8010000  61.5620000  94.3380000  24.4950000
  62.4310000  95.2040000  24.1500000  61.8690000  93.2400000  25.2090000
  61.2030000  92.5820000  25.4660000  63.1810000  93.0790000  25.8070000
  63.3300000  93.7640000  26.6180000  63.1620000  92.1080000  26.2780000
  64.3490000  93.1930000  24.8670000  65.3460000  93.7660000  25.2930000
  64.2190000  92.7970000  23.5480000  63.0860000  92.1010000  22.9340000
  62.2720000  92.8620000  22.6230000  62.7160000  91.2990000  23.4830000
  63.7620000  91.4560000  21.7190000  63.0390000  91.1140000  20.9270000
  64.2090000  90.5840000  22.0730000  64.8060000  92.4700000  21.2060000
  64.2170000  93.1670000  20.5460000  65.5950000  91.9670000  20.7010000
  65.2370000  93.1510000  22.5270000  66.0940000  92.6150000  22.9000000
  65.6820000  94.6430000  22.3950000  66.8830000  95.0540000  22.3540000
  64.6980000  95.5360000  22.4980000  63.8200000  95.0800000  22.8340000
  64.9600000  96.9930000  22.6250000  65.7980000  97.2310000  21.9420000
  63.8220000  97.8880000  22.1360000  63.2640000  97.5130000  21.2840000
  63.1190000  97.9660000  22.9730000  64.3560000  99.1370000  21.7810000
  64.8040000  99.5230000  22.5380000  65.4780000  97.4180000  23.9990000
  66.4750000  98.1490000  23.9950000  64.9240000  96.8300000  25.0340000
  64.1760000  96.1880000  24.9410000  65.3190000  97.1320000  26.4010000
  65.1500000  98.1820000  26.5940000  64.5560000  96.2420000  27.5420000
  63.5030000  96.3210000  27.2550000  64.8370000  95.1890000  27.4240000
  64.8580000  96.7110000  28.9620000  65.9110000  96.6490000  29.0840000
  64.5710000  98.2080000  29.3030000  63.5750000  98.5140000  28.9160000
  64.6040000  98.3500000  30.3850000  65.3510000  98.7760000  28.8360000
  64.2240000  95.7100000  30.0520000  63.0870000  95.7690000  29.9130000
  64.6910000  94.7790000  29.9250000  64.4770000  95.9560000  31.0850000
  66.8500000  96.9090000  26.4620000  67.6390000  97.8180000  26.6490000
  67.2980000  95.6780000  26.0650000  66.6610000  94.9710000  25.7370000
  68.6700000  95.1640000  26.0860000  69.1350000  95.3390000  27.1060000
  68.7790000  93.6690000  25.8280000  68.5690000  93.0860000  26.7580000
  68.0660000  93.4060000  25.1030000  70.1720000  93.1740000  25.4670000
  70.4720000  93.0360000  24.1090000  69.7300000  93.0460000  23.3670000
  71.8240000  92.8820000  23.7660000  72.0390000  92.9810000  22.7200000
  72.7930000  92.6570000  24.7440000  74.0450000  92.3770000  24.2890000
  74.7320000  92.3000000  24.9690000  72.5040000  92.7680000  26.1160000
  73.2610000  92.7280000  26.8740000  71.1260000  92.9810000  26.4820000
  70.8240000  93.1270000  27.5410000  69.5500000  96.0190000  25.1900000
  70.7210000  96.0970000  25.5090000  69.0960000  96.5250000  24.0250000
  68.1310000  96.3030000  23.8710000  69.8970000  97.4360000  23.1500000
  70.8790000  96.9410000  22.9350000  69.1280000  97.8050000  21.8480000
  68.2060000  98.3670000  21.9920000  69.8110000  98.3840000  21.2310000
  68.7750000  96.5740000  21.2390000  68.0290000  96.2320000  21.8140000
  70.1980000  98.6980000  23.9920000  71.3360000  99.1290000  23.9960000
  69.2300000  99.3440000  24.6700000  68.2860000  98.8190000  24.8020000
  69.3890000 100.6300000  25.4340000  69.9070000 101.3890000  24.8280000
  68.0090000 101.1590000  25.9150000  67.5150000 100.3330000  26.3770000
  68.0740000 102.1350000  27.1320000  68.5720000 101.5860000  27.9790000
  68.5480000 103.0430000  26.7830000  67.0890000 102.4330000  27.3180000
  67.0650000 101.4560000  24.7340000  67.4280000 102.4020000  24.3210000
  67.1140000 100.6550000  24.0450000  65.5560000 101.4400000  24.9780000
  65.2870000 100.5860000  25.5610000  65.3930000 102.3700000  25.5360000
  65.0820000 101.5340000  23.9760000  70.3320000 100.4340000  26.6150000
  71.1690000 101.3080000  26.9290000  70.2800000  99.2830000  27.2780000
  69.6670000  98.6250000  26.8900000  71.1970000  98.9170000  28.4140000
  71.4010000  99.8500000  28.9280000  70.6170000  97.8020000  29.3230000
  70.4010000  96.9490000  28.6440000  71.3550000  97.3770000  30.0700000
  69.2320000  98.1730000  30.0040000  68.4970000  98.4820000  29.2990000
  68.6550000  96.9200000  30.6410000  69.1890000  96.7570000  31.5700000
  67.5730000  97.0790000  30.8840000  68.6530000  96.0770000  29.9130000
  69.3830000  99.2740000  31.0660000  68.4000000  99.5870000  31.3190000
  69.8090000  98.8590000  31.9930000  69.9680000 100.1150000  30.6830000
  72.6430000  98.4610000  27.9720000  73.6470000  98.6410000  28.6660000
  72.8190000  98.0520000  26.7060000  71.9500000  97.9180000  26.1020000
  74.1490000  97.4260000  26.2490000  74.2400000  96.6300000  27.0350000
  74.0900000  96.7470000  24.8910000  73.5240000  97.3860000  24.1720000
  75.2050000  96.7710000  24.4800000  73.5850000  95.4410000  25.1070000
  72.5910000  95.4970000  25.0890000  75.4650000  98.2060000  26.4140000
  76.4070000  97.7010000  27.0260000  75.4680000  99.4940000  26.0380000
  74.7630000  99.9360000  24.8750000  73.7040000  99.7390000  24.8620000
  75.2210000  99.3980000  24.0360000  74.9640000 101.4270000  24.6290000
  74.2790000 102.0100000  25.2920000  74.8010000 101.5870000  23.5770000
  76.4240000 101.5560000  25.1880000  76.6250000 102.5760000  25.5880000
  77.1200000 101.1520000  24.4220000  76.4930000 100.5140000  26.2800000
  77.5290000 100.0540000  26.2880000  76.4090000 101.1320000  27.7190000
  77.3720000 101.6160000  28.2080000  75.2500000 101.1260000  28.3180000
  74.4210000 100.7210000  27.8900000  75.1610000 101.6640000  29.6890000
  75.5920000 102.6320000  29.7090000  73.6610000 101.9070000  29.9350000
  73.0760000 102.5700000  29.2750000  73.1230000 100.9840000  29.8790000
  73.2480000 102.5090000  31.2450000  73.6160000 103.8040000  31.6340000
  74.1110000 104.3810000  30.8700000  73.1880000 104.3270000  32.8900000
  73.4040000 105.3670000  33.0560000  72.4430000 103.5150000  33.7620000
  72.0990000 103.8960000  34.6970000  72.0930000 102.2380000  33.3930000
  71.5300000 101.6300000  34.0840000  72.5690000 101.6860000  32.1940000
  72.4640000 100.6520000  31.9410000  75.9020000 100.8230000  30.7300000
  76.4060000 101.3720000  31.7410000  76.1330000  99.5360000  30.4290000
  75.7560000  99.1670000  29.5920000  76.9480000  98.7370000  31.3180000
  76.5200000  98.8290000  32.3620000  76.9390000  97.2490000  30.9140000
  77.4050000  97.0950000  29.9980000  77.6200000  96.7390000  31.5400000
  75.5660000  96.5350000  30.9250000  74.9570000  96.9840000  30.2150000
  75.6860000  95.0130000  30.5290000  74.6980000  94.5700000  30.5910000
  76.1740000  94.9720000  29.5780000  76.2740000  94.4640000  31.2130000
  74.8680000  96.6010000  32.2660000  73.8700000  96.1780000  32.0740000
  75.4970000  96.0010000  32.9570000  74.6950000  97.6300000  32.5590000
  78.4020000  99.2580000  31.5840000  78.7000000  99.4650000  32.7680000
  79.2260000  99.5730000  30.6050000  79.1750000  99.0670000  29.2550000
  78.2950000  99.2770000  28.6320000  79.2960000  97.9800000  29.3570000
  80.3780000  99.7130000  28.5960000  80.1590000 100.6730000  28.2160000
  80.7190000  99.0670000  27.8230000  81.4600000  99.9250000  29.7130000
  82.0620000 100.7710000  29.5420000  82.0180000  98.9620000  29.8780000
  80.5010000 100.2290000  30.8920000  80.9530000  99.7700000  31.8030000
  80.4760000 101.7220000  31.2770000  81.3830000 102.2850000  31.8710000
  79.4180000 102.4410000  30.9090000  78.6490000 102.0020000  30.4150000
  79.1820000 103.8890000  31.2590000  80.1220000 104.3830000  30.9390000
  78.1470000 104.3830000  30.3170000  78.4410000 104.2070000  29.3020000
  77.3410000 103.6980000  30.5070000  77.7680000 105.8610000  30.4580000
  77.4340000 105.9870000  31.4400000  78.9100000 106.8440000  30.1710000
  79.8420000 106.8210000  30.7610000  79.2900000 106.5640000  29.1810000
  78.5370000 107.8120000  30.0240000  76.5370000 106.0230000  29.5500000
  75.6820000 105.5940000  30.0500000  76.5940000 107.1460000  29.2780000
  76.6440000 105.4630000  28.6380000  78.9210000 104.1490000  32.7400000
  79.1300000 105.2630000  33.3410000  78.2990000 103.1440000  33.3720000
  78.1590000 102.3280000  32.8190000  77.6070000 103.2070000  34.6630000
  76.7920000 103.9290000  34.5820000  76.8890000 101.8370000  34.8320000
  76.0650000 101.9240000  34.1800000  77.5950000 101.0010000  34.5700000
  76.1860000 101.5110000  36.1890000  76.8510000 101.5690000  36.9840000
  75.0620000 102.4430000  36.4700000  74.5580000 102.0050000  37.3010000
  75.4630000 103.3350000  36.8680000  74.4330000 102.6870000  35.6550000
  75.7160000 100.0680000  36.1760000  74.7270000  99.9330000  35.6780000
  76.4710000  99.4260000  35.7530000  75.6690000  99.7550000  37.1890000
  78.4140000 103.6120000  35.9740000  77.9780000 104.3450000  36.8500000
  79.5940000 102.9760000  36.2680000  80.3840000 102.3220000  35.3420000
  80.5080000 102.9280000  34.4720000  80.0110000 101.3430000  35.0360000
  81.7680000 102.2810000  36.0000000  82.2270000 103.2420000  35.7500000
  82.2700000 101.4250000  35.5710000  81.4880000 102.0320000  37.4270000
  82.2980000 102.4070000  38.0660000  81.3170000 100.9830000  37.7170000
  80.2870000 103.0090000  37.6230000  79.5480000 102.5510000  38.3080000
  80.7500000 104.4060000  38.0350000  81.4300000 104.4660000  39.1000000
  80.3590000 105.4710000  37.3260000  79.7720000 105.3560000  36.5180000
  80.6650000 106.9050000  37.6420000  81.6980000 107.2070000  37.4180000
  79.8990000 107.8750000  36.6740000  78.8750000 107.5280000  36.5560000
  80.0340000 109.3020000  37.1430000  79.6800000 110.0900000  36.5140000
  79.3760000 109.3760000  38.0890000  81.0860000 109.5370000  37.3370000
  80.5840000 107.9030000  35.2460000  81.4550000 108.4970000  35.2160000
  80.7640000 106.8380000  34.9860000  79.6280000 108.4790000  34.1620000
  78.9630000 109.2850000  34.5140000  80.2630000 108.8470000  33.3520000
  78.9970000 107.6520000  33.7230000  80.3620000 107.2350000  39.1210000
  81.1420000 107.9560000  39.8030000  79.2540000 106.7120000  39.7060000
  78.7280000 106.2510000  39.0290000  78.8730000 106.9260000  41.0760000
  78.8010000 108.0510000  41.1250000  77.5010000 106.2680000  41.2970000
  77.2080000 106.4860000  42.2840000  76.7850000 106.7320000  40.6330000
  77.5030000 104.6970000  41.5020000  77.7980000 103.8120000  40.3990000
  77.8700000 104.2990000  39.4220000  77.7630000 102.4390000  40.4910000
  77.7140000 101.8280000  39.6110000  77.4690000 101.9280000  41.7740000
  77.1830000 100.9160000  41.9550000  77.3140000 102.7830000  42.9120000
  77.1530000 102.4290000  43.9530000  77.3970000 104.1910000  42.7850000
  77.4940000 104.8460000  43.6400000  79.9070000 106.5220000  42.1070000
  79.8830000 107.1160000  43.1770000  80.7190000 105.5420000  41.8020000
  80.6930000 105.0560000  40.9080000  81.7350000 104.9790000  42.6330000
  81.2890000 104.5960000  43.5460000  82.4360000 103.8300000  41.8560000
  81.6400000 103.2080000  41.3830000  83.0050000 104.2550000  41.0660000
  83.3760000 102.9500000  42.7020000  84.6810000 103.2840000  42.9660000
  85.1170000 104.1530000  42.5840000  85.4300000 102.5310000  43.8280000
  86.4180000 102.9600000  43.9600000  84.9320000 101.4090000  44.4860000
  85.5730000 100.8570000  45.1410000  83.6670000 100.9640000  44.1440000
  83.2180000 100.1650000  44.6720000  82.8520000 101.8030000  43.3910000
  81.7990000 101.5230000  43.2570000  82.8170000 106.0710000  43.0650000
  83.3260000 105.8840000  44.1710000  83.0740000 107.1330000  42.3140000
  82.5280000 107.2450000  41.4710000  84.0330000 108.1170000  42.6550000
  84.9060000 107.6770000  43.1290000  84.5670000 108.6750000  41.3350000
  85.5010000 109.2440000  41.6280000  84.7630000 107.9110000  40.6770000
  83.4760000 109.8110000  40.4310000  82.3990000 109.0720000  40.6710000
  83.5680000 109.2180000  43.6010000  84.3100000 110.1010000  43.9860000
  82.2650000 109.2280000  43.8560000  81.6320000 108.5210000  43.5280000
  81.8220000 109.9070000  45.0620000  82.6010000 110.5020000  45.4580000
  80.6530000 110.8130000  44.7690000  79.9860000 110.4510000  44.0460000
  79.9250000 110.7980000  45.6050000  80.9760000 112.3100000  44.4790000
  81.6820000 112.6450000  45.1930000  81.5440000 112.6410000  43.1180000
  81.9060000 113.6780000  43.1440000  82.4580000 112.1260000  42.7970000
  80.8060000 112.4150000  42.3950000  79.6310000 113.0160000  44.6060000
  79.2650000 112.8850000  45.6270000  79.6450000 114.0590000  44.3380000
  78.9840000 112.4480000  43.9430000  81.4170000 108.9080000  46.1840000
  81.5540000 109.1960000  47.3750000  81.0280000 107.6350000  45.8380000
  80.7050000 107.4250000  44.9210000  80.7110000 106.5880000  46.8330000
  79.9890000 107.1510000  47.4490000  79.9950000 105.3740000  46.1560000
  79.3980000 105.8670000  45.3770000  80.7970000 104.8000000  45.7120000
  79.2400000 104.5330000  47.0980000  77.9540000 104.1060000  46.9110000
  77.3180000 104.6160000  46.1630000  77.5580000 103.3500000  48.0180000
  76.5840000 103.1750000  48.2320000  78.5960000 102.9780000  48.8240000
  78.6300000 102.0780000  49.9060000  77.7550000 101.5890000  50.2630000
  79.8840000 101.7860000  50.4000000  79.9470000 101.0180000  51.1370000
  81.0560000 102.3070000  49.7870000  82.0300000 101.9600000  50.0660000
  80.9540000 103.1900000  48.6700000  81.8260000 103.4960000  48.1450000
  79.7250000 103.5770000  48.1940000  81.8910000 106.0980000  47.6860000
  81.8370000 106.2830000  48.9090000  83.1000000 105.7940000  47.1090000
  83.1510000 106.0540000  46.1490000  84.4110000 105.6900000  47.7860000
  84.1640000 105.4840000  48.8910000  85.2790000 104.5440000  47.2010000
  85.0990000 104.4890000  46.1710000  86.7930000 104.4090000  47.5160000
  87.4130000 105.2710000  47.3680000  86.9010000 104.2200000  48.5870000
  87.1960000 103.5530000  47.0160000  84.6690000 103.2370000  47.7770000
  83.7800000 102.9840000  47.2480000  85.3140000 102.3940000  47.7160000
  84.5270000 103.3370000  48.8310000  84.9850000 107.1130000  47.9120000
  86.0700000 107.3820000  47.4090000  84.3010000 108.0040000  48.6170000
  83.4040000 107.6410000  48.9080000  84.7030000 109.3700000  48.9430000
  85.7240000 109.3100000  49.2500000  84.7080000 110.1880000  47.7180000
  84.4000000 109.7100000  46.7720000  83.8920000 110.9000000  47.8880000
  86.0850000 110.9000000  47.5230000  86.9470000 110.4020000  46.5340000
  86.7600000 109.6410000  45.7470000  88.2900000 110.8290000  46.6850000
  88.9950000 110.3950000  46.1070000  88.6700000 111.7960000  47.6220000
  89.9870000 112.1800000  47.5300000  90.0830000 112.9650000  47.9820000
  87.7110000 112.3920000  48.3710000  87.9550000 113.1970000  48.9430000
  86.4190000 111.9550000  48.4250000  85.7160000 112.2890000  49.2010000
  83.8860000 109.9920000  50.0840000  84.4660000 110.7230000  50.8940000
  82.5410000 109.7690000  50.1170000  82.0640000 109.3550000  49.2870000
  81.5320000 110.2620000  51.0940000  82.1440000 110.5990000  51.8830000
  80.7310000 111.4880000  50.5180000  80.2710000 111.1520000  49.5970000
  79.7510000 112.0990000  51.5380000  79.0250000 111.4270000  51.8200000
  80.3850000 112.3740000  52.3650000  79.2190000 113.0050000  51.1810000
  81.7390000 112.6180000  50.0670000  82.3880000 112.9190000  50.9200000
  82.4320000 112.1980000  49.3260000  81.0690000 113.9090000  49.4940000
  81.8280000 114.4740000  48.9800000  80.3810000 113.5710000  48.6730000
  80.5370000 114.4920000  50.2580000  80.6670000 109.1040000  51.6440000
  80.8610000 108.8290000  52.8740000  79.8250000 108.6300000  50.9150000
  78.5050000 136.5170000  40.4930000  78.9860000 135.6490000  40.9790000
  77.5510000 136.3570000  40.2430000  78.4590000 137.3380000  41.2280000
  79.3120000 136.9560000  39.1810000  79.2160000 138.0770000  39.2230000
  80.3280000 136.5700000  39.3710000  78.5610000 136.4550000  37.9140000
  78.3990000 135.3610000  37.9230000  77.5920000 136.9340000  37.7950000
  79.3990000 136.7430000  36.6180000  79.4560000 137.8670000  36.6470000
  80.3890000 136.3010000  36.5920000  78.5720000 136.4200000  35.3600000
  78.4200000 135.3130000  35.2290000  77.5560000 136.8470000  35.4340000
  79.2090000 137.0210000  34.0660000  78.4830000 137.5360000  33.4230000
  79.9010000 137.8310000  34.3570000  79.9760000 136.0020000  33.1920000
  80.7940000 135.6030000  33.7010000  79.2830000 135.1630000  32.8910000
  80.5440000 136.6590000  31.9480000  81.0440000 137.5420000  32.3470000
  81.2770000 135.9680000  31.5100000  79.4580000 136.9870000  30.9490000
  79.1670000 136.0160000  30.5970000  78.5650000 137.4900000  31.3320000
  79.8770000 137.7110000  29.6050000  80.7100000 137.2470000  29.0560000
  79.0070000 137.4980000  28.9630000  80.1510000 139.1880000  29.8690000
  80.7770000 139.2630000  30.7550000  80.6440000 139.7030000  29.0260000
  78.8940000 139.9430000  29.9660000  78.4390000 139.8560000  28.9550000
  78.3090000 139.4020000  30.6810000  79.0920000 141.3810000  30.3550000
  79.7300000 141.5210000  31.2290000  79.5350000 141.9060000  29.5950000
  77.7270000 142.1340000  30.5650000  77.0180000 141.6510000  31.2980000
  77.9220000 143.1610000  30.8250000  76.8300000 142.2960000  29.3660000
  76.5310000 141.3120000  28.9090000  75.9280000 142.7820000  29.5570000
  77.5550000 143.0830000  28.3570000  77.8750000 144.2090000  28.5930000
  77.8650000 142.4530000  27.2380000  78.6160000 143.0220000  26.1760000
  78.1120000 142.7860000  25.2090000  78.8940000 144.0780000  26.4300000
  80.0500000 142.4350000  25.9920000  80.6650000 142.5840000  26.8820000
  80.7730000 143.1810000  24.8030000  81.0680000 144.1650000  25.0590000
  81.6800000 142.6820000  24.5090000  79.9650000 143.3740000  23.6300000
  79.8590000 142.2050000  22.4740000  78.2640000 141.7590000  22.7030000
  77.7580000 140.5840000  23.4720000  78.5450000 139.9480000  23.8110000
  77.2080000 140.9280000  24.3560000  76.8280000 139.7050000  22.6310000
  76.5300000 138.8290000  23.2170000  75.8950000 140.2490000  22.4230000
  77.3010000 139.1530000  21.3020000  76.3540000 138.0900000  20.8300000
  76.1370000 137.4230000  21.6580000  75.4080000 138.6230000  20.4910000
  76.7120000 137.4870000  19.9750000  77.3150000 140.2860000  20.2160000
  76.3140000 140.6360000  20.1440000  78.0150000 141.0180000  20.5000000
  77.5170000 139.8960000  19.2050000  78.6870000 138.5970000  21.4660000
  78.5030000 137.7430000  22.1480000  79.3370000 139.3720000  21.9310000
  79.0260000 138.2890000  20.4850000  80.0340000 142.8530000  21.1720000
  80.6690000 141.0460000  22.8150000  79.9440000 141.0280000  25.6860000
  81.0090000 140.1920000  25.7950000  82.1190000 140.6350000  26.0100000
  80.6600000 138.7730000  25.6870000  79.5770000 138.6380000  25.6290000
  80.9730000 138.3650000  26.6680000  81.3770000 138.0310000  24.5300000
  82.3570000 138.4090000  24.4570000  80.8560000 138.3420000  23.6360000
  81.4630000 136.4550000  24.5430000  80.5220000 136.0250000  24.3650000
  81.8160000 136.1950000  25.5350000  82.4000000 135.8950000  23.4590000
  82.3020000 136.4460000  22.4890000  82.1170000 134.8670000  23.2540000
  83.8910000 135.8940000  23.9150000  83.9610000 135.2570000  24.8250000
  84.1150000 136.9370000  24.1930000  84.8490000 135.3540000  22.8550000
  84.6890000 135.8680000  21.8610000  84.6480000 134.3050000  22.6850000
  86.3640000 135.4520000  23.2670000  87.0690000 135.0350000  22.5540000
  86.4820000 134.9010000  24.1830000  86.7040000 136.9450000  23.5150000
  86.7770000 137.5130000  22.6160000  86.9670000 137.5150000  24.6580000
  87.2520000 138.5890000  24.7410000  86.9130000 136.9060000  26.0690000
  87.8470000 137.1520000  26.6410000  86.9630000 135.8420000  26.0540000
  85.6320000 137.4350000  26.7460000  84.7730000 137.5330000  26.1320000
  85.7740000 138.5160000  26.7660000  85.4100000 136.8810000  28.1870000
  86.3480000 136.6220000  28.6730000  84.7830000 136.0010000  28.1920000
  84.5460000 137.7680000  29.0950000  83.7090000 137.9870000  28.4640000
  85.2000000 138.5970000  29.3430000  84.0520000 137.0160000  30.3630000
  84.8010000 136.1440000  30.6280000  83.1370000 136.4790000  30.0850000
  83.8640000 137.9130000  31.5540000  82.9580000 138.4060000  31.4030000
  84.6490000 138.6680000  31.5110000  83.8280000 137.2100000  32.9040000
  84.7150000 136.6100000  32.9880000  82.9960000 136.5830000  32.9680000
  83.9220000 138.2930000  34.0150000  84.7690000 139.0330000  33.8890000
  83.8760000 137.8030000  34.9750000  83.0690000 138.9090000  33.9580000
 146.6940000 114.9480000  33.2980000 146.7100000 114.1460000  34.0330000
 145.8210000 115.5540000  33.5220000 147.6670000 115.4660000  33.3970000
 146.5810000 114.3930000  31.8420000 145.5260000 114.0940000  31.7100000
 146.8960000 115.1000000  31.0160000 147.5260000 113.1480000  31.7840000
 148.5250000 113.1980000  32.2350000 147.0180000 112.3850000  32.3310000
 147.6490000 112.6400000  30.3470000 148.0040000 113.5020000  29.7260000
 148.4380000 111.9620000  30.2370000 146.3980000 112.0850000  29.6130000
 145.8560000 111.4830000  30.2890000 145.7370000 112.8290000  29.2290000
 146.7550000 111.1560000  28.3880000 147.4360000 111.6900000  27.6840000
 147.2640000 110.2380000  28.7710000 145.5130000 110.5200000  27.6940000
 144.8940000 109.9380000  28.3680000 144.9330000 111.4490000  27.4570000
 145.7990000 109.6440000  26.4230000 146.5150000 108.8550000  26.6400000
 144.9060000 109.1280000  26.1350000 146.3070000 110.5820000  25.2740000
 145.5010000 111.0440000  24.7210000 146.9630000 111.4360000  25.6220000
 147.0560000 109.9030000  24.1800000 146.3850000 109.2100000  23.6770000
 147.1870000 110.7080000  23.4170000 148.3710000 109.2660000  24.5210000
 148.3300000 108.5320000  25.3200000 148.6420000 108.6090000  23.6560000
 149.5590000 110.2140000  24.8330000 149.9100000 110.8760000  23.9950000
 149.2540000 110.9510000  25.5420000 150.7190000 109.4160000  25.4450000
 150.3200000 108.9170000  26.3320000 151.0590000 108.6400000  24.7880000
 151.8800000 110.2870000  25.9740000 151.3990000 110.9710000  26.7540000
 152.6280000 109.6220000  26.4520000 152.5590000 111.1380000  24.8450000
 151.8030000 111.7890000  24.3690000 153.1530000 111.8920000  25.3770000
 153.2150000 110.3080000  23.7940000 154.1270000 109.5630000  24.0230000
 152.6770000 110.5060000  22.5890000 153.2470000 109.7520000  21.4800000
 153.1060000 110.4000000  20.5950000 154.3020000 109.7420000  21.5930000
 152.5640000 108.3970000  21.1640000 152.9530000 107.8930000  20.2740000
 151.1140000 108.6800000  20.8730000 150.6370000 108.9970000  21.7690000
 151.0890000 109.5580000  20.1870000 150.3840000 107.5770000  20.2340000
 150.3730000 107.3710000  18.6400000 149.4520000 106.0920000  18.3990000
 148.0040000 106.1140000  18.5130000 147.7560000 105.8110000  19.5580000
 147.5320000 107.1480000  18.4160000 147.2760000 105.2070000  17.4820000
 147.6800000 104.1870000  17.5470000 146.2020000 105.2210000  17.6740000
 147.4180000 105.3790000  15.9900000 148.7190000 104.8270000  15.5220000
 148.8810000 104.9240000  14.5140000 149.5040000 105.3750000  16.0220000
 148.8520000 103.8030000  15.8230000 146.2980000 104.7120000  15.2660000
 146.3790000 103.7670000  15.7550000 145.3470000 105.2690000  15.4400000
 146.4610000 104.6310000  14.1990000 147.4190000 106.8500000  15.5520000
 147.4020000 107.0320000  14.4510000 148.1970000 107.4610000  16.0860000
 146.4480000 107.1300000  15.8050000 149.7830000 108.5040000  18.0070000
 151.7100000 106.9410000  18.1880000 152.6880000 107.4750000  22.2900000
 153.7320000 106.6290000  22.4000000 154.6510000 106.6640000  21.6040000
 153.5960000 105.7200000  23.6220000 154.6270000 105.1550000  23.6040000
 152.7370000 105.0860000  23.5600000 153.5520000 106.6800000  24.8660000
 152.8020000 107.4980000  24.8260000 154.5900000 107.1450000  25.0540000
 153.1950000 105.9060000  26.1340000 153.9550000 105.2630000  26.3250000
 152.3000000 105.3100000  26.0180000 152.8720000 106.8070000  27.3650000
 151.9280000 107.3890000  27.1630000 153.7250000 107.4050000  27.7310000
 152.5230000 105.9380000  28.6000000 153.4050000 105.3450000  28.8150000
 151.6590000 105.3150000  28.2700000 152.2460000 106.5680000  29.9540000
 153.1280000 107.1030000  30.2130000 152.2560000 105.7970000  30.6050000
 150.8950000 107.2280000  30.1800000 150.6740000 107.5510000  31.2350000
 150.0730000 106.5400000  29.8930000 150.5510000 108.5200000  29.3320000
 150.1150000 108.3500000  28.3400000 150.7050000 109.7410000  29.8100000
 150.4340000 110.6760000  29.3280000 151.1890000 110.0850000  31.2430000
 151.8990000 109.3930000  31.5640000 150.3980000 110.0230000  31.9830000
 151.9870000 111.4730000  31.2360000 151.3280000 112.2560000  30.9230000
 152.7100000 111.3560000  30.4320000 152.6670000 111.7300000  32.5740000
 153.5010000 111.0160000  32.6610000 151.9510000 111.6300000  33.3820000
 153.3750000 113.0910000  32.7360000 152.6040000 113.8450000  32.4690000
 154.1710000 113.1660000  31.9040000 153.9540000 113.5270000  34.0430000
 153.2390000 113.6270000  34.8080000 154.4000000 114.5060000  33.8540000
 155.1310000 112.6800000  34.5640000 155.8050000 112.4040000  33.7080000
 154.6680000 111.7870000  34.9910000 156.1310000 113.3950000  35.4860000
 155.5460000 113.9800000  36.2250000 156.8440000 114.0410000  34.9720000
 157.0640000 112.3710000  36.1140000 157.5230000 111.7960000  35.3280000
 156.4610000 111.8060000  36.8070000 157.8560000 112.9060000  36.6720000
  27.4890000  53.0400000  42.9970000  27.5780000  52.1770000  43.6300000
  28.2600000  53.7850000  43.3610000  27.7940000  52.7860000  41.9770000
  26.0060000  53.6760000  42.9910000  25.6790000  53.9780000  43.9530000
  25.8350000  54.4950000  42.3280000  24.9500000  52.6160000  42.5830000
  24.9500000  51.7570000  43.2720000  23.8830000  53.0490000  42.7120000
  25.1350000  52.0190000  41.1710000  25.9340000  51.3130000  41.2690000
  24.2190000  51.5870000  40.9000000  25.4390000  53.0080000  40.1120000
  24.5400000  53.6770000  40.0660000  26.2820000  53.7010000  40.4490000
  25.6530000  52.4210000  38.6860000  25.9000000  53.2700000  38.0670000
  26.5690000  51.7650000  38.6820000  24.4770000  51.6710000  38.0460000
  24.0440000  51.0160000  38.7730000  23.6480000  52.3690000  37.7630000
  24.9880000  50.8180000  36.8680000  25.6550000  51.5050000  36.3460000
  25.5950000  49.9220000  37.1790000  23.9030000  50.4610000  35.8910000
  23.2640000  51.3260000  35.6040000  24.3770000  50.1010000  34.9270000
  22.8710000  49.3970000  36.2930000  22.3920000  49.6700000  37.1950000
  22.0450000  49.2990000  35.5420000  23.4340000  48.0100000  36.5680000
  24.0620000  48.1240000  37.4530000  22.6190000  47.3440000  36.7720000
  24.3300000  47.4710000  35.3970000  25.1520000  48.2400000  35.3680000
  24.8400000  46.5870000  35.6160000  23.6760000  47.2090000  34.0480000
  22.9970000  46.3420000  34.0350000  23.0570000  48.0440000  33.7640000
  24.6900000  47.0490000  32.9160000  25.2560000  47.9620000  32.7610000
  25.3440000  46.2180000  33.3110000  23.9710000  46.5120000  31.6070000
  23.5580000  45.5420000  31.8580000  23.1630000  47.2240000  31.3940000
  24.9150000  46.5040000  30.4630000  25.5430000  45.4930000  30.1140000
  24.8850000  47.6270000  29.8160000  25.7780000  47.7460000  28.6990000
  26.0570000  48.7310000  28.7450000  26.6820000  47.2020000  28.8420000
  25.1320000  47.5770000  27.2730000  24.8910000  46.5490000  27.1290000
  26.0570000  47.9690000  26.0670000  26.1630000  49.0340000  25.9280000
  27.1030000  47.6740000  26.2300000  25.6530000  47.2790000  24.8510000
  24.8950000  48.0000000  23.6160000  23.3910000  47.5880000  23.8650000
  22.5970000  46.7960000  22.9730000  23.0080000  46.4480000  22.0820000
  22.3540000  45.7890000  23.5040000  21.2560000  47.5250000  22.6340000
  20.7270000  46.9010000  22.0010000  20.6130000  47.6530000  23.5420000
  21.3580000  48.9270000  21.9690000  22.3910000  48.9150000  20.9110000
  23.2740000  48.4940000  21.3410000  21.9610000  48.3590000  20.0590000
  22.5430000  49.9500000  20.5960000  19.9700000  49.1990000  21.2860000
  19.2200000  49.3600000  21.9940000  20.1680000  50.1290000  20.7300000
  19.7130000  48.4510000  20.5590000  21.4560000  50.0240000  22.9630000
  20.7100000  49.8240000  23.6730000  21.3070000  51.0470000  22.5370000
  22.3980000  49.8520000  23.3980000  24.9040000  49.4240000  23.7980000
  25.3870000  47.4350000  22.3880000  23.9210000  48.3550000  27.0700000
  22.7720000  47.7540000  27.4470000  22.6940000  46.5670000  27.7620000
  21.5800000  48.6800000  27.2590000  21.1210000  48.4160000  26.2670000
  21.9010000  49.7080000  27.3130000  20.5930000  48.3520000  28.3570000
  21.0900000  48.7110000  29.2580000  20.5130000  47.2650000  28.4980000
  19.2120000  49.1080000  28.1450000  18.6120000  48.5530000  27.4330000
  19.3690000  50.1310000  27.7430000  18.5820000  49.2310000  29.5410000
  19.1650000  49.8220000  30.1100000  18.6790000  48.2050000  29.8020000
  17.0980000  49.6090000  29.4880000  16.4640000  48.7520000  29.6190000
  16.8250000  49.9530000  28.4950000  16.6670000  50.6050000  30.6030000
  17.2410000  51.4730000  30.5440000  16.8320000  50.0960000  31.5310000
  15.1490000  50.7770000  30.4360000  14.6390000  49.7930000  30.6620000
  15.0290000  51.1060000  29.4110000  14.6000000  51.7700000  31.4460000
  14.9310000  52.8030000  31.1530000  13.7670000  51.5380000  32.4650000
  13.4700000  52.3490000  33.1050000  13.2770000  50.2140000  32.8900000
  13.6270000  49.4730000  32.2030000  12.1980000  50.1010000  32.8520000
  13.6740000  49.8550000  34.3420000  13.1680000  48.8920000  34.6190000
  13.3550000  50.4920000  35.0960000  15.1900000  49.4990000  34.5350000
  15.7600000  50.3760000  34.4410000  15.5140000  48.8800000  33.7100000
  15.5580000  48.8780000  35.8850000  15.0650000  47.8430000  35.9160000
  15.1160000  49.5410000  36.6790000  17.0400000  48.7130000  36.2010000
  17.4930000  49.7080000  36.1840000  17.3740000  48.1450000  35.3600000
  17.3650000  48.0610000  37.6070000  16.8630000  47.1490000  37.7560000
  16.9010000  48.7470000  38.3090000  18.8910000  47.9800000  37.8010000
  19.3150000  47.6830000  36.8730000  19.0580000  47.1450000  38.4470000
  19.5120000  49.2460000  38.4030000  19.8430000  49.9460000  37.6890000
  20.4010000  48.8490000  38.8810000  18.9020000  49.6920000  39.1270000
 136.9520000 120.6390000  36.2920000 137.1520000 119.9350000  37.0460000
 135.9070000 120.3830000  35.9630000 136.8910000 121.6290000  36.6980000
 138.0020000 120.5020000  35.2200000 138.0890000 119.5530000  34.7940000
 137.6460000 121.1270000  34.4470000 139.4360000 120.8330000  35.6390000
 139.4820000 121.8290000  36.0370000 139.7780000 120.0680000  36.3340000
 140.4650000 120.7070000  34.4920000 140.4730000 119.7020000  34.1760000
 140.1270000 121.3430000  33.6310000 141.8090000 121.2180000  34.9850000
 141.6770000 122.1860000  35.3720000 142.1580000 120.6600000  35.7680000
 142.8520000 121.2550000  33.7980000 142.9790000 120.2920000  33.3120000
 142.5370000 122.0250000  33.0420000 144.2350000 121.7520000  34.3780000
 144.2560000 122.7290000  34.9140000 144.6510000 120.9930000  35.1460000
 145.2070000 121.6880000  33.2210000 144.6020000 122.1610000  32.3340000
 146.0900000 122.2780000  33.4450000 145.6540000 120.3370000  32.6520000
 146.5600000 120.0120000  33.1840000 144.8900000 119.5480000  32.7510000
 146.2110000 120.2330000  31.2850000 147.1900000 120.7050000  31.3390000
 146.5140000 119.2330000  30.9060000 145.4280000 120.8650000  30.1580000
 145.4320000 121.9440000  30.1600000 145.9510000 120.6330000  29.2940000
 144.0710000 120.0730000  29.9650000 144.2560000 118.9610000  30.0600000
 143.2250000 120.2360000  30.7210000 143.5270000 120.3870000  28.5270000
 143.5860000 121.4900000  28.3690000 144.2070000 119.8660000  27.8720000
 142.0400000 119.9640000  28.4170000 141.8820000 118.9410000  28.6880000
 141.4640000 120.5260000  29.2130000 141.5220000 120.2180000  27.0170000
 141.4810000 121.3210000  26.8540000 142.3230000 119.8180000  26.3800000
 140.1890000 119.5340000  26.7950000 139.1820000 119.9000000  27.3510000
 140.2650000 118.4380000  26.0190000 139.1020000 118.0990000  25.1560000
 139.1140000 116.9960000  25.0560000 138.1310000 118.3590000  25.5890000
 139.2230000 118.7160000  23.7010000 138.9010000 119.7770000  23.7140000
 138.3150000 117.9420000  22.6960000 138.3170000 116.9320000  22.9460000
 137.3000000 118.3200000  22.8210000 138.7450000 118.0820000  21.2890000
 138.6080000 119.4340000  20.4250000 137.3140000 119.1380000  19.5340000
 137.4350000 119.2840000  18.1160000 138.5330000 119.4060000  17.8550000
 136.9570000 118.3980000  17.6820000 136.6130000 120.5470000  17.7530000
 135.5830000 120.2010000  17.7680000 136.8120000 121.2180000  18.5740000
 136.7480000 121.2170000  16.4460000 135.7000000 122.2080000  16.2410000
 135.9490000 123.1490000  16.8080000 135.5790000 122.5490000  15.2470000
 134.7120000 121.8430000  16.6620000 138.0110000 121.9450000  16.3000000
 137.8530000 122.5340000  15.4230000 138.1500000 122.6390000  17.1480000
 138.8900000 121.2380000  16.2650000 136.7720000 120.2580000  15.3480000
 137.4310000 120.6330000  14.5190000 135.7600000 120.1330000  14.9810000
 137.1530000 119.3700000  15.7660000 138.2700000 120.5510000  21.3200000
 139.9020000 119.4470000  19.6950000 140.5650000 118.6290000  23.1380000
 141.3180000 119.7750000  23.0480000 141.0640000 120.7930000  23.6480000
 142.6260000 119.5530000  22.2710000 142.6030000 120.2900000  21.4570000
 142.6160000 118.5400000  21.9160000 143.7800000 119.6520000  23.2710000
 143.6510000 118.9730000  24.1070000 143.7970000 120.6560000  23.7830000
 145.1120000 119.3840000  22.6210000 145.2120000 120.1930000  21.8880000
 145.0990000 118.4030000  22.0640000 146.3070000 119.5660000  23.6690000
 146.2660000 118.8640000  24.4570000 146.3800000 120.5290000  24.2190000
 147.6810000 119.2400000  23.1140000 147.7690000 119.5630000  22.0920000
 147.7590000 118.1510000  23.0170000 148.8620000 119.8260000  23.8260000
 148.7180000 120.8710000  23.9300000 149.6570000 119.8430000  23.1490000
 149.3410000 119.1600000  25.1080000 150.2620000 119.6390000  25.3540000
 149.4470000 118.1000000  24.9160000 148.4530000 119.4080000  26.2850000
 147.4460000 119.8000000  26.0920000 148.8270000 119.1400000  27.5200000
 148.1230000 119.2850000  28.3330000 150.1700000 118.5560000  27.8380000
 150.6520000 119.3810000  28.4270000 150.8150000 118.5000000  26.8890000
 150.1300000 117.2740000  28.6640000 151.0930000 116.8560000  28.6490000
 149.4030000 116.6430000  28.1640000 149.8030000 117.6210000  30.1750000
 148.7680000 117.5980000  30.3460000 150.2120000 118.5800000  30.3380000
 150.5110000 116.6160000  31.1510000 151.5480000 116.5120000  30.8040000
 149.9700000 115.6720000  31.1020000 150.3840000 117.2200000  32.5510000
 149.4130000 117.6250000  32.7080000 151.1240000 117.9770000  32.6980000
 150.5810000 116.1580000  33.6550000 151.5340000 115.6180000  33.4540000
 149.7340000 115.4830000  33.4860000 150.4920000 116.6060000  35.1280000
 149.4410000 116.7800000  35.2750000 151.0630000 117.4670000  35.4290000
 150.6760000 115.4000000  36.0380000 151.7130000 115.0220000  36.0180000
 149.9460000 114.6260000  35.7810000 150.4990000 115.7770000  37.0620000
  89.0830000  39.6830000  34.5730000  90.1710000  39.5100000  34.6950000
  88.7460000  40.0690000  35.4930000  88.9070000  40.2650000  33.6670000
  88.4110000  38.3230000  34.5400000  88.9630000  37.7560000  33.7620000
  88.6840000  37.8030000  35.5010000  86.9020000  38.2240000  34.3760000
  86.3710000  38.4730000  35.3120000  86.4970000  39.0000000  33.6790000
  86.5550000  36.7800000  34.0800000  86.9460000  36.0510000  34.7620000
  85.4640000  36.6470000  34.3100000  86.9690000  36.3080000  32.7000000
  86.5560000  36.9760000  32.1080000  88.0680000  36.3990000  32.5630000
  86.3060000  35.0050000  32.2780000  86.4340000  34.3040000  33.0420000
  85.2750000  35.2630000  32.1620000  86.9350000  34.4970000  30.9670000
  87.1700000  35.3820000  30.4260000  87.8750000  34.1200000  31.1460000
  86.0560000  33.3930000  30.3260000  85.8630000  32.5870000  31.0330000
  85.0890000  33.8030000  30.0370000  86.7080000  32.9000000  28.9540000
  86.6650000  33.6910000  28.1100000  87.7670000  32.8150000  29.1690000
  85.9780000  31.5580000  28.6230000  86.0080000  30.7320000  29.3750000
  84.9880000  32.0150000  28.2860000  86.5350000  30.8290000  27.3560000
  87.6490000  30.6960000  27.5290000  86.1280000  29.8870000  27.1100000
  86.4430000  31.6560000  26.0490000  85.4160000  31.6560000  25.7750000
  86.8000000  32.7030000  26.1760000  87.2780000  31.1760000  24.8040000
  86.8610000  30.2520000  24.4690000  87.0110000  31.9160000  24.0350000
  88.8340000  30.9980000  24.9730000  89.1820000  31.9020000  25.5060000
  89.0580000  30.1780000  25.6270000  89.5620000  31.1380000  23.6350000
  89.1500000  31.9760000  23.1110000  90.6350000  31.3550000  23.6980000
  89.5520000  29.8300000  22.8500000  89.8740000  28.7230000  23.2550000
  89.2210000  30.0610000  21.5140000  89.3080000  28.9380000  20.5930000
  89.6330000  29.3010000  19.5600000  90.0210000  28.2310000  20.9330000
  87.9480000  28.1080000  20.4580000  87.7260000  27.6970000  21.4990000
  87.9640000  27.0730000  19.3210000  88.7860000  26.4450000  19.6170000
  87.0680000  26.5140000  19.3310000  88.0820000  27.6280000  17.9690000
  88.0750000  26.6330000  16.6990000  89.5620000  26.7670000  16.1950000
  89.9380000  27.9330000  15.4800000  90.7520000  27.7790000  14.7280000
  89.1440000  28.3870000  14.9150000  90.6130000  28.8570000  16.5700000
  90.8510000  29.7920000  16.1290000  89.9380000  28.9670000  17.4090000
  91.9530000  28.5840000  17.0850000  92.2960000  29.6620000  18.0260000
  92.4270000  29.2620000  19.0470000  93.2830000  29.9820000  17.7560000
  91.5920000  30.5360000  17.9990000  91.9830000  27.1970000  17.6660000
  91.7440000  26.4360000  17.0150000  93.0620000  27.0240000  17.9180000
  91.4490000  27.1040000  18.5870000  93.0160000  28.6110000  15.9900000
  92.7350000  27.8880000  15.2380000  93.9820000  28.3660000  16.4150000
  93.0770000  29.5870000  15.4720000  87.8540000  25.2260000  17.1730000
  87.2210000  27.1370000  15.6090000  86.8610000  29.0570000  20.1540000
  85.7530000  28.8360000  20.9460000  85.3740000  27.7420000  21.2130000
  85.1970000  30.1490000  21.5320000  85.1600000  30.8420000  20.6440000
  86.0450000  30.5170000  22.1360000  83.9040000  29.9960000  22.4320000
  84.1330000  29.0800000  23.0300000  83.0150000  29.7970000  21.8510000
  83.6650000  31.1110000  23.3780000  83.7190000  32.1300000  22.9290000
  84.4750000  31.0450000  24.1220000  82.3650000  30.8920000  24.1480000
  82.2390000  29.8290000  24.3010000  81.5230000  31.1510000  23.5060000
  82.2090000  31.6010000  25.4890000  82.8840000  31.3080000  26.2850000
  81.1960000  31.3680000  25.9920000  82.2640000  33.1400000  25.4540000
  81.5770000  33.5350000  24.6960000  83.2700000  33.4970000  25.2560000
  81.8880000  33.8830000  26.7660000  82.1910000  34.9130000  26.5660000
  82.5360000  33.5470000  27.6330000  80.3650000  33.8200000  27.0760000
  79.7630000  34.0750000  26.1640000  79.8200000  33.4810000  28.2580000
  78.7890000  33.6190000  28.2480000  80.5110000  32.9830000  29.4820000
  81.5750000  32.8270000  29.4180000  80.0890000  32.0090000  29.6670000
  80.1820000  33.8710000  30.6190000  80.5170000  33.3530000  31.5450000
  79.0900000  33.9140000  30.7860000  80.7150000  35.2580000  30.6010000
  80.2140000  35.7390000  31.4610000  80.3080000  35.6690000  29.6570000
  82.2560000  35.3520000  30.6590000  82.6930000  34.7780000  29.8410000
  82.4630000  34.8290000  31.5960000  82.6780000  36.8020000  30.7020000
  82.0780000  37.5440000  30.1140000  83.7370000  36.8770000  30.3230000
  82.6860000  37.4360000  32.0870000  83.4670000  37.0480000  32.7300000
  81.7620000  37.3100000  32.6230000  82.9810000  38.9490000  31.8060000
  82.0910000  39.4140000  31.3480000  83.8550000  39.0790000  31.2360000
  83.4100000  39.7430000  33.0650000  82.5310000  39.9660000  33.6840000
  83.9120000  40.6540000  32.8850000  84.1410000  39.1210000  33.6640000
  41.4420000   6.6800000  28.7230000  41.3490000   5.5680000  28.5250000
  41.1000000   6.9470000  29.7260000  42.4350000   7.0160000  28.5710000
  40.6410000   7.4440000  27.6650000  40.9300000   8.5100000  27.8460000
  40.9060000   7.0990000  26.6150000  39.1560000   7.4410000  27.9080000
  38.6160000   6.4930000  27.7120000  39.0500000   7.6150000  29.0040000
  38.4080000   8.5260000  27.2920000  37.4010000   8.4300000  27.5870000
  38.8460000   9.3320000  27.7830000  38.5010000   8.7840000  25.7670000
  38.2430000   9.8200000  25.5640000  39.5520000   8.7740000  25.3850000
  37.6960000   7.8320000  24.8810000  36.6510000   7.5830000  25.1890000
  37.6050000   8.3210000  23.8560000  38.4400000   6.4310000  24.7290000
  39.4930000   6.6790000  24.4030000  38.5720000   6.0130000  25.7580000
  37.7550000   5.4800000  23.7510000  36.6790000   5.4070000  24.0460000
  37.7710000   5.9310000  22.7590000  38.5520000   4.2170000  23.5820000
  38.5870000   3.7000000  24.4560000  38.0450000   3.4630000  22.9890000
  39.9980000   4.2720000  23.0510000  40.6540000   4.7750000  23.7950000
  40.3670000   3.2360000  22.9190000  40.3120000   4.9850000  21.6340000
  39.5050000   4.6930000  20.9580000  40.2380000   6.1190000  21.9220000
  41.5950000   4.5480000  20.9890000  42.3020000   4.3000000  21.8340000
  41.4560000   3.7380000  20.3260000  42.3300000   5.7190000  20.2410000
  41.7200000   6.0670000  19.3890000  42.6220000   6.4800000  20.9020000
  43.5890000   5.0870000  19.6070000  44.1840000   4.5780000  20.4080000
  43.2170000   4.3020000  18.8840000  44.4390000   6.2100000  18.8530000
  44.7730000   6.9680000  19.6820000  45.3110000   5.7490000  18.4180000
  43.7680000   7.0000000  17.7730000  43.0040000   6.5670000  16.8910000
  44.1090000   8.3200000  17.8310000  43.7810000   9.1980000  16.6250000
  44.4190000  10.1330000  16.6510000  44.0020000   8.6250000  15.7560000
  42.2610000   9.6530000  16.6780000  41.6400000   8.8210000  16.5550000
  41.9550000  10.7360000  15.6290000  42.0620000  10.3210000  14.6050000
  40.9110000  11.0220000  15.7330000  42.9020000  11.8910000  15.8090000
  42.3620000  13.3760000  15.6100000  43.1420000  14.2380000  16.7170000
  42.7580000  14.2780000  18.0870000  43.1100000  15.2340000  18.5900000
  41.6480000  14.2430000  18.0000000  43.2410000  13.0770000  18.9080000
  42.8510000  13.1140000  19.9060000  42.9150000  12.0660000  18.5180000
  44.7310000  12.8500000  19.1200000  45.1820000  11.4180000  19.1590000
  46.1580000  11.5410000  19.6550000  44.4560000  10.8580000  19.7780000
  45.2830000  11.0730000  18.1410000  45.5440000  13.5240000  18.0390000
  45.3230000  14.5700000  18.0040000  46.5810000  13.3580000  18.3130000
  45.2950000  13.0660000  17.0440000  45.0760000  13.4620000  20.4360000
  44.6270000  12.7440000  21.1680000  44.4660000  14.3900000  20.5560000
  46.1600000  13.6150000  20.5390000  42.8750000  13.8830000  14.3760000
  40.9570000  13.3650000  15.8780000  42.0280000  10.2030000  17.9940000
  40.7130000  10.3210000  18.4110000  39.7180000   9.9920000  17.7930000
  40.7220000  10.9830000  19.7990000  41.0220000  12.0120000  19.6670000
  41.4600000  10.4130000  20.4420000  39.4330000  11.0460000  20.6560000
  38.6450000  11.1470000  19.9500000  39.4490000  12.1300000  21.0910000
  39.1370000   9.8410000  21.5360000  38.3440000  10.0390000  22.2640000
  40.0010000   9.6600000  22.2030000  38.7810000   8.4820000  20.8860000
  38.9840000   7.6540000  21.5210000  39.4670000   8.2960000  20.0920000
  37.3200000   8.4310000  20.3760000  37.2810000   9.2390000  19.7020000
  36.6640000   8.6440000  21.1400000  36.9290000   7.1680000  19.6780000
  37.1450000   6.3500000  20.3750000  37.6240000   6.9450000  18.8690000
  35.3910000   7.1020000  19.2650000  35.1540000   8.0340000  18.7190000
  34.7700000   7.1640000  20.1370000  35.1400000   5.8910000  18.4470000
  34.9620000   6.0540000  17.4060000  35.0350000   4.6460000  18.8080000
  34.6130000   3.9710000  18.1070000  35.2020000   3.9910000  20.1780000
  34.2460000   3.7710000  20.5570000  35.7450000   4.7250000  20.8010000
  36.0420000   2.6710000  20.0700000  37.0790000   2.9590000  19.6800000
  35.4920000   2.1480000  19.2430000  36.0630000   1.8410000  21.3930000
  35.0010000   1.6460000  21.6250000  36.4410000   2.4310000  22.1490000
  36.7260000   0.4580000  21.2780000  36.4920000  -0.0260000  22.1890000
  37.8510000   0.5710000  21.2120000  36.1440000  -0.3710000  20.1520000
  36.5580000  -1.3740000  20.2280000  36.4230000   0.0550000  19.2290000
  34.5690000  -0.4530000  20.0320000  34.1930000   0.4850000  19.6350000
  34.1120000  -0.5770000  21.0650000  33.9240000  -1.5270000  19.1140000
  32.8430000  -1.1850000  18.9330000  33.9700000  -2.4830000  19.5710000
  34.7460000  -1.5410000  17.8070000  34.7000000  -0.6470000  17.1710000
  34.3410000  -2.3370000  17.1430000  35.7630000  -1.8290000  17.9370000
  55.9920000  52.4600000  33.9240000  55.1040000  51.9320000  34.2870000
  55.7900000  53.5000000  34.3210000  56.8800000  52.1560000  34.4130000
  56.0590000  52.1920000  32.4160000  55.1340000  52.5340000  32.0540000
  56.7900000  52.8560000  31.9600000  56.1940000  50.7510000  31.8850000
  57.0590000  50.1830000  32.2680000  55.3300000  50.1900000  32.1890000
  56.2160000  50.5130000  30.4230000  56.9950000  51.1560000  30.0060000
  56.6060000  49.4430000  30.3330000  54.9740000  50.7500000  29.5500000
  54.1110000  50.3610000  30.0910000  54.9390000  51.8740000  29.5160000
  55.0830000  50.0570000  28.1290000  55.9980000  50.3560000  27.5720000
  55.3270000  49.0340000  28.3110000  53.8960000  50.2060000  27.1660000
  52.9180000  49.9240000  27.6300000  53.7800000  51.2270000  26.9670000
  54.1260000  49.3870000  25.8650000  55.0500000  49.6390000  25.3770000
  54.1350000  48.3140000  26.2880000  52.9140000  49.6090000  24.9230000
  52.0840000  49.8930000  25.5900000  53.0700000  50.4010000  24.2550000
  52.6590000  48.3450000  24.1300000  53.4720000  48.1480000  23.3470000
  52.6980000  47.4480000  24.8030000  51.1630000  48.4280000  23.5670000
  50.6600000  49.3140000  24.0350000  51.1950000  48.5740000  22.5420000
  50.3700000  47.1700000  23.8580000  50.7540000  46.3040000  23.3240000
  50.5350000  47.0150000  24.9380000  48.8590000  47.2660000  23.5950000
  48.5690000  48.2890000  23.6960000  48.5970000  46.9920000  22.5950000
  47.9540000  46.4130000  24.5720000  48.2530000  46.7420000  25.5890000
  46.9010000  46.5960000  24.3590000  48.1650000  44.9170000  24.3820000
  49.1090000  44.5880000  24.8840000  47.3620000  44.4340000  24.9320000
  48.1090000  44.5920000  22.9300000  47.2180000  44.7470000  22.1650000
  49.2440000  43.9660000  22.6890000  49.5840000  43.5910000  21.3570000
  49.9710000  42.5380000  21.3840000  48.7970000  43.7630000  20.7000000
  50.7010000  44.4650000  20.9010000  51.2990000  44.6840000  21.8630000
  50.1680000  45.7970000  20.2110000  49.6540000  46.4740000  20.9350000
  51.0080000  46.3970000  19.9040000  49.2380000  45.5840000  19.0460000
  49.8500000  45.5320000  17.5240000  48.6220000  46.1680000  16.6580000
  47.5090000  45.3570000  16.2400000  46.7880000  45.9800000  15.6600000
  48.0060000  44.6370000  15.5850000  46.7010000  44.6200000  17.3870000
  46.1310000  43.8070000  16.8840000  47.4530000  44.0200000  18.0310000
  45.7720000  45.2860000  18.3570000  45.4760000  44.3470000  19.4430000
  46.3940000  44.1320000  19.9890000  44.8140000  44.8970000  20.1580000
  44.9040000  43.4570000  19.1460000  46.3020000  46.4410000  19.1210000
  45.5490000  46.8560000  19.8380000  47.1090000  46.0760000  19.7160000
  46.5960000  47.1580000  18.3830000  44.4580000  45.6860000  17.7480000
  44.6650000  46.3590000  16.8910000  43.8210000  46.2340000  18.4740000
  44.0010000  44.7630000  17.4480000  51.0460000  46.4500000  17.5190000
  49.9460000  44.0980000  17.1290000  51.4450000  43.8110000  19.9000000
  52.7190000  43.8240000  20.0540000  53.3630000  44.2590000  20.9990000
  53.4050000  43.3200000  18.8390000  53.0920000  43.9910000  17.9930000
  52.9370000  42.3750000  18.6220000  54.9640000  43.3960000  19.0000000
  55.1680000  43.0720000  20.0330000  55.2720000  44.4670000  18.9110000
  55.6300000  42.4680000  17.9670000  55.2310000  42.7380000  16.9570000
  55.4380000  41.3170000  18.2530000  57.1580000  42.6320000  17.9360000
  57.5570000  43.6750000  17.8870000  57.5840000  42.1310000  17.0080000
  57.8140000  42.0310000  19.1650000  57.4010000  40.9950000  19.2860000
  57.6480000  42.6130000  20.0910000  59.2940000  41.9250000  19.0690000
  59.7560000  42.8390000  18.8180000  59.5260000  41.1970000  18.2620000
  59.8830000  41.5530000  20.4920000  59.5280000  40.5950000  20.7340000
  59.7420000  42.4190000  21.2350000  61.3620000  41.4430000  20.3060000
  61.5860000  41.1730000  19.2560000  62.3640000  41.8300000  21.0750000
  63.4190000  41.6720000  20.6810000  62.2840000  42.3760000  22.4390000
  61.7590000  43.2920000  22.4840000  63.3170000  42.7010000  22.6280000
  61.9180000  41.3540000  23.5530000  62.6290000  40.4900000  23.3440000
  60.8480000  41.0230000  23.5230000  62.1990000  41.8890000  24.9050000
  61.5360000  42.6540000  25.0500000  63.3250000  42.1920000  25.0050000
  61.7650000  40.7950000  25.8950000  62.1490000  39.8380000  25.6780000
  60.6800000  40.6910000  25.7020000  61.9610000  41.0260000  27.4270000
  61.5550000  40.1780000  27.9190000  61.4810000  41.8860000  27.8100000
  63.4120000  41.2740000  27.8230000  63.6620000  42.2720000  27.4540000
  64.0770000  40.5660000  27.4500000  63.5610000  41.2480000  29.3550000
  63.2110000  40.3260000  29.8170000  62.9130000  42.0370000  29.7600000
  64.9960000  41.6970000  29.6410000  65.6120000  40.8950000  29.3190000
  65.2010000  41.9580000  30.7080000  65.2500000  42.5210000  28.9990000
  68.0870000  64.8040000  40.6130000  68.9270000  64.1100000  40.5980000
  67.6600000  64.6080000  41.5500000  68.4830000  65.8180000  40.5950000
  67.1050000  64.6550000  39.4630000  66.5470000  63.6560000  39.4340000
  66.2910000  65.3920000  39.6100000  67.6460000  65.0030000  38.0840000
  67.8230000  66.0370000  37.9810000  68.6330000  64.6320000  37.9960000
  66.7520000  64.6660000  36.8910000  66.7740000  63.6170000  36.9040000
  65.7340000  65.0100000  37.1230000  67.1950000  65.1520000  35.4630000
  66.4600000  64.8300000  34.7400000  67.1190000  66.2250000  35.3340000
  68.5120000  64.5460000  35.0380000  69.1020000  64.2150000  35.8820000
  68.3610000  63.7150000  34.4230000  69.3820000  65.5240000  34.2130000
  69.7840000  66.2350000  34.8600000  70.2660000  65.0020000  33.7810000
  68.7010000  66.2390000  33.0790000  67.7750000  66.9530000  33.3930000
  69.4480000  66.8190000  32.5030000  68.3080000  65.1900000  32.0100000
  69.0700000  64.4650000  31.8580000  67.5210000  64.6460000  32.4940000
  67.9150000  65.8120000  30.6920000  68.7540000  66.3720000  30.3150000
  67.7820000  65.1020000  29.9240000  66.6880000  66.7390000  30.7320000
  66.8570000  67.6790000  31.3110000  66.5160000  67.2180000  29.7580000
  65.3940000  66.0070000  31.1290000  65.4470000  65.7790000  32.2000000
  64.5730000  66.7390000  31.0290000  64.9950000  64.7350000  30.3330000
  65.8370000  64.0500000  30.2830000  64.2590000  64.3280000  30.9110000
  64.4980000  64.8910000  28.9580000  63.5760000  65.5220000  28.9340000
  65.2940000  65.4310000  28.4440000  64.2370000  63.4920000  28.4170000
  63.8070000  62.8230000  29.2160000  63.4800000  63.5580000  27.6560000
  65.3280000  62.9670000  27.5580000  65.8630000  61.8840000  27.8000000
  65.6800000  63.7770000  26.5360000  66.6280000  63.3410000  25.6140000
  67.0160000  64.0740000  24.8880000  67.5290000  63.0270000  26.0970000
  66.1310000  62.0730000  24.8750000  65.9180000  61.2400000  25.5990000
  67.0230000  61.4360000  23.7930000  67.9510000  61.0430000  24.2440000
  66.4350000  60.6710000  23.2850000  67.3720000  62.4020000  22.7240000
  68.7860000  63.1410000  22.7240000  68.2850000  64.6110000  22.3690000
  68.2830000  65.0360000  21.0410000  68.1980000  66.1230000  20.9330000
  69.3060000  64.8280000  20.6220000  67.2860000  64.3070000  20.1250000
  67.6430000  64.5470000  19.1390000  67.2800000  63.2290000  20.4360000
  65.8200000  64.8190000  20.1950000  65.0700000  64.1910000  19.0880000
  64.0360000  64.5770000  19.0270000  65.5830000  64.4570000  18.1620000
  65.0880000  63.0630000  19.1370000  65.1140000  64.6660000  21.4560000
  65.7460000  64.9840000  22.2580000  64.1720000  65.2400000  21.4550000
  64.9200000  63.6450000  21.5350000  65.8640000  66.3310000  20.0470000
  66.4080000  66.6060000  19.1380000  66.2960000  66.7940000  20.9950000
  64.8430000  66.7040000  19.8850000  69.2340000  63.1940000  24.0620000
  69.7550000  62.6440000  21.6940000  64.8860000  62.4560000  24.3240000
  63.6900000  62.0080000  24.7500000  63.5940000  61.1790000  25.5630000
  62.7030000  62.6240000  23.8240000  62.9620000  62.1050000  22.8240000
  62.8220000  63.7300000  23.6340000  61.1600000  62.2530000  24.1830000
  60.9780000  62.7110000  25.1460000  61.0380000  61.1460000  24.2150000
  60.1690000  62.7170000  23.0940000  60.5530000  62.4490000  22.1130000
  60.2020000  63.7900000  23.1850000  58.7530000  62.2650000  23.3640000
  58.5830000  61.2300000  22.9940000  58.1440000  62.9700000  22.8290000
  58.1870000  62.3530000  24.7770000  57.8120000  63.3350000  24.8450000
  59.0130000  62.3430000  25.5310000  57.1020000  61.2730000  25.0740000
  57.6050000  60.3110000  25.0120000  56.3510000  61.2230000  24.2900000
  56.4630000  61.3860000  26.5210000  57.2490000  61.3550000  27.2370000
  55.7850000  60.5270000  26.7170000  55.5730000  62.6000000  26.6350000
  55.0510000  62.9050000  25.7300000  55.4060000  63.4400000  27.6700000
  54.8820000  64.3640000  27.4870000  56.0670000  63.2630000  28.9780000
  56.3840000  62.2400000  29.1400000  55.3830000  63.6070000  29.7880000
  57.3240000  64.0950000  29.0570000  57.1040000  65.2080000  28.8390000
  58.0340000  63.7640000  28.2920000  57.9860000  63.9890000  30.3950000
  58.0630000  62.9430000  30.7220000  57.3960000  64.4290000  31.1270000
  59.3960000  64.6610000  30.4160000  59.3090000  65.7510000  30.2840000
  60.0050000  64.2860000  29.5830000  60.0550000  64.3280000  31.7690000
  59.9680000  63.2810000  32.0270000  59.4650000  64.9330000  32.5060000
  61.5530000  64.6430000  31.9120000  61.8130000  65.6740000  31.7040000
  62.1400000  64.0780000  31.1620000  62.1480000  64.2460000  33.2910000
  63.1750000  64.4800000  33.3310000  61.9810000  63.1340000  33.2390000
  61.4280000  64.8530000  34.4860000  61.4460000  65.9580000  34.4090000
  62.0470000  64.5160000  35.3720000  60.4220000  64.5590000  34.6510000
  56.2110000  80.0660000  41.5970000  56.7000000  80.9910000  41.1930000
  56.7730000  79.5520000  42.3850000  55.3100000  80.4030000  42.0930000
  55.6750000  78.9850000  40.6020000  56.3840000  78.1740000  40.5320000
  54.8120000  78.4980000  41.0400000  55.2550000  79.4700000  39.1670000
  54.7350000  80.4190000  39.2040000  56.2080000  79.6400000  38.7260000
  54.4870000  78.4350000  38.2250000  55.0400000  77.5560000  38.0670000
  53.5280000  78.2830000  38.6840000  54.1330000  79.1760000  36.9830000
  53.4220000  79.9380000  37.2900000  54.9500000  79.6450000  36.4620000
  53.2440000  78.3450000  36.0230000  53.7970000  77.4810000  35.6500000
  52.5150000  78.0000000  36.7740000  52.5910000  79.1420000  34.9040000
  51.9100000  78.4400000  34.3890000  52.0010000  80.0070000  35.2870000
  53.5780000  79.6960000  33.8480000  54.1350000  80.5060000  34.3100000
  54.3280000  79.0000000  33.6100000  52.9350000  80.0430000  32.4970000
  51.9910000  80.6180000  32.6420000  53.5770000  80.6380000  31.8470000
  52.5370000  78.8030000  31.6750000  53.4200000  78.3010000  31.2090000
  52.1770000  78.0230000  32.3100000  51.6100000  79.0710000  30.5100000
  50.6260000  79.4870000  30.8510000  52.0230000  79.8200000  29.8850000
  51.6020000  77.8180000  29.5880000  52.6050000  77.7180000  29.1330000
  51.4030000  76.9480000  30.1690000  50.5120000  77.8350000  28.5260000
  49.5820000  77.8650000  29.0770000  50.5150000  78.7970000  27.9800000
  50.6450000  76.6250000  27.5780000  51.5510000  76.7890000  27.0390000
  50.7720000  75.6520000  28.0080000  49.4510000  76.4400000  26.5490000
  48.5780000  75.9070000  26.9090000  49.1310000  77.4980000  26.2010000
  49.8800000  75.6170000  25.3860000  50.0120000  74.4300000  25.5090000
  50.0770000  76.1850000  24.1670000  50.0980000  75.2250000  22.9990000
  50.4830000  75.7600000  22.1800000  50.7590000  74.3910000  23.2530000
  48.6930000  74.7180000  22.7010000  48.3550000  74.1930000  23.5520000
  48.6340000  73.8830000  21.3990000  49.4500000  73.1470000  21.2440000
  47.6420000  73.4370000  21.3720000  48.7270000  74.7830000  20.2230000
  47.5920000  74.9810000  19.0980000  48.2260000  76.3690000  18.4680000
  47.5150000  77.5990000  18.5960000  48.0310000  78.3500000  17.9340000
  46.4410000  77.5780000  18.4400000  47.6940000  77.9800000  20.1020000
  47.0200000  78.7720000  20.3790000  47.5590000  77.0400000  20.7310000
  49.0730000  78.5580000  20.4530000  49.1490000  78.6460000  21.9160000
  49.9140000  79.2890000  22.3900000  48.1360000  79.0220000  22.1840000
  49.1770000  77.6400000  22.4020000  50.2160000  77.9020000  19.8390000
  50.2290000  76.8550000  20.1200000  50.1220000  77.9510000  18.7710000
  51.1800000  78.3580000  20.0850000  49.0490000  79.9840000  20.1090000
  48.3080000  80.5150000  20.6740000  48.8180000  79.9990000  19.0680000
  49.9830000  80.3890000  20.3840000  47.6980000  73.8940000  18.0930000
  46.2680000  75.3320000  19.7140000  47.8150000  75.8920000  22.6250000
  46.5320000  75.7730000  22.9160000  45.9400000  74.7080000  23.2090000
  45.7570000  77.1150000  22.7520000  44.9240000  76.9030000  22.0910000
  46.3980000  77.8050000  22.2640000  45.1000000  77.5580000  24.0710000
  44.6800000  76.7670000  24.7050000  44.2050000  78.2280000  23.8790000
  46.0960000  78.3050000  24.9910000  46.5210000  79.1170000  24.3600000
  46.8940000  77.7030000  25.3770000  45.3270000  78.9740000  26.1890000
  44.8830000  78.1070000  26.7500000  44.5300000  79.5810000  25.7890000
  46.1120000  79.9520000  27.0580000  47.2020000  79.7170000  26.9820000
  45.9080000  79.7810000  28.1590000  45.8960000  81.4610000  26.8080000
  44.8100000  81.5580000  27.0890000  45.9320000  81.7370000  25.7650000
  46.7270000  82.3330000  27.7800000  46.6900000  83.4780000  27.5780000
  47.7880000  82.0950000  27.5090000  46.2880000  82.1600000  29.2960000
  45.2450000  82.2300000  29.5040000  47.1160000  81.9040000  30.2470000
  46.7110000  81.6450000  31.1990000  48.6190000  81.9090000  30.2600000
  48.9850000  82.6180000  29.5850000  49.0340000  80.9560000  29.9090000
  49.0810000  82.4130000  31.6250000  48.5970000  83.2750000  32.0120000
  50.1620000  82.6950000  31.5100000  48.8210000  81.3910000  32.7200000
  49.2740000  80.4930000  32.3550000  47.7290000  81.1660000  32.7830000
  49.3530000  81.7430000  34.0990000  50.3650000  82.1100000  34.1630000
  49.3850000  80.8080000  34.6550000  48.5120000  82.7410000  34.7900000
  47.4210000  82.3790000  34.9300000  48.3560000  83.6200000  34.1060000
  49.1080000  82.9570000  36.1940000  50.1430000  83.2450000  36.1380000
  49.1500000  81.9940000  36.7640000  48.4250000  83.9770000  37.0770000
  47.4300000  83.6290000  37.0830000  48.3090000  84.9720000  36.5760000
  48.9730000  83.9920000  38.4860000  48.4260000  83.1520000  39.0520000
  48.6620000  84.9010000  38.9510000  50.0590000  83.9040000  38.6820000
  35.2230000 109.2490000  31.2290000  35.7150000 110.1170000  31.5820000
  34.7320000 108.7820000  32.0640000  34.4410000 109.4370000  30.4630000
  36.2490000 108.2880000  30.5710000  35.7530000 107.4490000  30.0160000
  36.7280000 108.8890000  29.7520000  37.4090000 107.6350000  31.4770000
  38.0690000 107.1210000  30.7770000  38.0510000 108.3790000  31.7920000
  36.8730000 106.7800000  32.6170000  37.6590000 106.5570000  33.2630000
  36.1180000 107.3540000  33.1460000  36.2880000 105.4590000  32.1190000
  35.8280000 105.6630000  31.1460000  36.9720000 104.5700000  32.0550000
  35.0900000 105.1920000  33.0550000  35.4020000 105.3870000  34.1100000
  34.3640000 105.9330000  32.8030000  34.5030000 103.8050000  32.8850000
  35.1860000 103.0470000  33.3510000  33.6240000 103.6780000  33.5380000
  34.0850000 103.4070000  31.3920000  35.0520000 103.2430000  30.8190000
  33.6030000 102.4480000  31.3800000  33.2980000 104.4380000  30.5290000
  32.2600000 104.3460000  30.8650000  33.6480000 105.4090000  30.6830000
  33.2790000 104.1380000  28.9940000  34.3040000 104.2630000  28.5900000
  32.9840000 103.0270000  28.9370000  32.3430000 105.1200000  28.2410000
  31.4060000 105.1660000  28.7910000  32.6260000 106.1580000  28.3460000
  32.0840000 104.7400000  26.7970000  31.6560000 103.6800000  26.7730000
  31.2310000 105.3210000  26.3640000  33.3440000 104.8490000  25.8260000
  34.1560000 104.6400000  26.4950000  33.3070000 104.1620000  24.9880000
  33.3890000 106.3630000  25.3470000  32.4730000 106.6060000  24.7490000
  33.4870000 107.0800000  26.1700000  34.5650000 106.6280000  24.4280000
  34.4220000 106.0900000  23.4690000  34.5090000 107.6850000  24.1810000
  35.9930000 106.3840000  24.9790000  36.3320000 106.6140000  26.1400000
  36.7960000 105.9530000  24.0000000  38.2660000 105.9190000  24.1200000
  38.5080000 105.2800000  25.0120000  38.5300000 105.3580000  23.2580000
  38.8900000 107.3510000  24.1300000  38.5730000 107.8250000  23.2700000
  40.4450000 107.2990000  24.0120000  40.8450000 108.2440000  23.8430000
  40.7430000 106.9620000  24.9370000  40.8730000 106.5290000  22.9150000
  40.7050000 106.8860000  21.3670000  42.1990000 107.1590000  20.8550000
  43.2670000 106.2540000  20.9400000  44.1880000 106.8750000  20.9710000
  43.1760000 105.7260000  21.8660000  43.3140000 105.0880000  20.0000000
  44.1910000 104.4480000  20.2100000  42.4360000 104.4120000  20.2430000
  43.2370000 105.3190000  18.5490000  41.8000000 105.1780000  18.1050000
  41.3930000 104.2060000  18.3530000  41.1510000 105.8990000  18.5920000
  41.6840000 105.3950000  17.0570000  43.6840000 106.6730000  18.2620000
  43.7320000 106.8490000  17.1530000  42.9410000 107.3910000  18.6540000
  44.6650000 106.8650000  18.7150000  43.9310000 104.3210000  17.6770000
  43.4850000 103.4000000  17.8290000  44.9520000 104.2510000  18.1850000
  43.9810000 104.6150000  16.6350000  40.1420000 105.6290000  20.7390000
  39.9700000 108.1440000  21.2120000  38.7290000 108.1500000  25.2900000
  37.8300000 109.1180000  25.3390000  36.9350000 109.1820000  24.5150000
  37.8970000 110.0300000  26.5440000  38.6890000 109.7130000  27.1950000
  37.0410000 110.0450000  27.1170000  38.2950000 111.4360000  26.0680000
  37.5280000 111.7990000  25.3030000  39.2570000 111.3960000  25.5650000
  38.3610000 112.4100000  27.2490000  38.8070000 113.2640000  26.8580000
  39.0050000 112.0500000  28.0250000  36.9930000 112.8220000  27.7620000
  36.3210000 112.0290000  28.0700000  36.4190000 113.3240000  26.9990000
  37.0240000 113.7180000  28.9820000  37.6630000 114.5830000  28.7710000
  37.2610000 113.1160000  29.8000000  35.6130000 114.2920000  29.3440000
  35.1350000 114.8140000  28.4910000  35.7460000 115.1260000  30.1130000
  34.6330000 113.2450000  29.8590000  35.1390000 112.3580000  30.3580000
  34.1110000 112.8680000  29.0010000  33.6220000 113.8460000  30.8700000
  33.1630000 114.7440000  30.5150000  33.1990000 113.2900000  31.9740000
  32.3370000 113.8830000  32.4360000  33.8640000 112.1540000  32.7950000
  34.9640000 112.0010000  32.6050000  33.4330000 111.2650000  32.4030000
  33.6340000 112.3180000  34.2550000  32.6020000 112.5450000  34.4200000
  34.1230000 113.2260000  34.4190000  34.0070000 111.1350000  35.1900000
  35.0200000 110.8230000  34.9020000  33.4010000 110.2230000  34.9360000
  34.0330000 111.4410000  36.7100000  34.4100000 110.6780000  37.3250000
  33.0460000 111.5220000  36.9960000  34.8940000 112.6600000  37.0590000
  34.8810000 112.6060000  38.1260000  34.4510000 113.5900000  36.7610000
  36.4410000 112.7020000  36.6880000  36.5810000 112.9650000  35.6540000
  36.8510000 111.7040000  36.7930000  37.2080000 113.7320000  37.5690000
  36.9920000 113.5240000  38.6300000  36.7430000 114.7620000  37.4380000
  38.7140000 113.8030000  37.4020000  39.0690000 112.7020000  37.4270000
  39.0890000 114.3740000  38.2160000  39.0080000 114.3510000  36.5430000
 137.4410000 120.3110000  30.3680000 138.0140000 119.4080000  30.3170000
 138.1240000 121.1720000  30.1670000 136.7650000 120.1100000  29.5020000
 136.7140000 120.3680000  31.7630000 135.9460000 119.5950000  31.8270000
 137.4710000 120.1730000  32.5870000 135.9210000 121.6660000  32.0370000
 135.1900000 121.7830000  31.1740000 135.4240000 121.7150000  33.0080000
 136.7450000 122.9500000  31.8670000 137.5290000 123.0800000  32.6390000
 137.3650000 122.9360000  30.9560000 135.8750000 124.2590000  31.7730000
 135.4120000 124.3010000  30.7650000 135.0970000 124.4160000  32.4470000
 136.8750000 125.5360000  31.7160000 137.2150000 125.5660000  32.7740000
 137.7110000 125.3030000  31.0540000 136.1920000 126.8810000  31.3270000
 135.5800000 127.2470000  32.1370000 136.9050000 127.6470000  31.1880000
 135.3720000 126.7590000  30.0000000 134.5180000 126.0530000  30.0520000
 135.0720000 127.7470000  29.7540000 136.2580000 126.2180000  28.8290000
 137.1870000 126.8450000  28.7080000 136.6430000 125.2260000  29.0700000
 135.4080000 126.2230000  27.5280000 134.8110000 127.1440000  27.3830000
 136.0680000 126.1360000  26.7000000 134.4110000 125.0650000  27.5670000
 133.6330000 125.1790000  28.2920000 133.8570000 125.2460000  26.6650000
 134.9650000 123.5680000  27.6120000 135.8780000 123.4730000  27.0320000
 135.1890000 123.4280000  28.6650000 134.0120000 122.5340000  27.0610000
 133.0370000 122.7100000  27.5490000 133.8970000 122.6470000  25.9680000
 134.6150000 121.1140000  27.3640000 134.5310000 121.0340000  28.4050000
 133.9020000 120.3650000  27.0940000 136.0320000 120.7570000  26.8490000
 136.7800000 121.4550000  27.3020000 136.2290000 119.7590000  27.2140000
 136.2140000 120.6400000  25.3990000 136.0410000 119.5530000  24.7970000
 136.4670000 121.8260000  24.8440000 136.4490000 121.9930000  23.3840000
 136.9460000 122.9340000  23.2240000 137.0500000 121.1220000  23.0800000
 135.0780000 121.8890000  22.7700000 134.7200000 120.9350000  22.9720000
 135.2740000 122.1740000  21.2190000 136.0570000 121.4930000  20.8160000
 134.3160000 122.0040000  20.7250000 135.5980000 123.5380000  20.9520000
 135.6340000 124.0570000  19.4490000 135.7650000 125.6170000  19.6450000
 134.6210000 126.4170000  20.0930000 134.8730000 127.4420000  19.9700000
 133.8050000 126.2740000  19.3250000 134.2040000 126.0900000  21.4950000
 133.2260000 126.4620000  21.6340000 134.1840000 125.0510000  21.6420000
 135.0820000 126.6460000  22.6390000 134.6920000 126.2670000  24.0240000
 133.6500000 126.7240000  24.1340000 134.5520000 125.1700000  24.0750000
 135.4820000 126.7670000  24.6510000 136.4650000 126.3880000  22.4260000
 136.7920000 125.4010000  22.8140000 136.7630000 126.5380000  21.4170000
 136.9900000 127.0900000  23.0440000 134.8880000 128.0900000  22.6800000
 135.2850000 128.4530000  21.7890000 135.3490000 128.5070000  23.4980000
 133.7620000 128.2910000  22.7180000 136.8720000 123.5040000  18.8570000
 134.3380000 123.8660000  18.8100000 134.0890000 122.8500000  23.2600000
 132.7800000 122.5640000  23.2520000 132.2130000 121.6150000  22.7420000
 131.9510000 123.6020000  23.9960000 131.5070000 124.3280000  23.2930000
 132.6350000 124.1520000  24.6860000 130.7940000 122.9470000  24.7460000
 131.1960000 122.0750000  25.3710000 130.1350000 122.5860000  23.9900000
 129.9150000 123.8320000  25.6960000 129.0910000 123.1780000  26.1200000
 129.5660000 124.7030000  25.1230000 130.7320000 124.3400000  26.9120000
 131.5380000 124.9180000  26.5620000 131.1850000 123.5240000  27.4290000
 129.8590000 125.0010000  27.9780000 129.0040000 124.4470000  28.2890000
 129.3960000 125.8870000  27.6580000 130.6000000 125.3620000  29.2360000
 129.8880000 125.8460000  29.8720000 131.3910000 126.0730000  29.0690000
 131.0980000 124.2790000  30.1420000 131.6300000 124.6840000  31.0420000
 131.8650000 123.7370000  29.5320000 130.0000000 123.2940000  30.4390000
 129.0140000 123.7270000  30.3640000 130.0840000 121.9730000  30.6650000
 129.2140000 121.3980000  30.9090000 131.4090000 121.2690000  30.7210000
 132.2390000 121.7850000  30.2280000 131.2370000 120.3770000  30.2470000
 131.8460000 120.9460000  32.1830000 132.6170000 120.2880000  32.0800000
 131.1370000 120.3720000  32.8350000 132.4020000 122.1690000  32.9560000
 131.6030000 122.8900000  32.8890000 133.3560000 122.5190000  32.4890000
 132.6130000 121.8230000  34.4370000 133.5310000 121.2450000  34.5720000
 131.8680000 121.1370000  34.8100000 132.6130000 123.1080000  35.3410000
 131.5460000 123.3860000  35.3500000 133.1960000 123.9110000  34.8460000
 133.1790000 122.8300000  36.7280000 133.8620000 122.0260000  36.6580000
 132.3420000 122.3850000  37.2280000 133.6400000 123.9850000  37.6010000
 134.0310000 123.6740000  38.5360000 132.8100000 124.7390000  37.7520000
 134.8340000 124.7290000  36.9670000 134.6810000 124.9630000  35.8810000
 135.6820000 124.1610000  36.9090000 135.1090000 125.5760000  37.4860000
  60.5710000  67.1320000  24.4970000  61.4680000  66.6080000  24.8820000
  60.7660000  68.2390000  24.4720000  60.3400000  66.8380000  23.4180000
  59.4270000  66.8780000  25.4330000  58.9320000  67.7570000  25.7680000
  58.6860000  66.2660000  24.9070000  59.8260000  66.1630000  26.7900000
  58.9300000  66.0740000  27.4210000  60.0710000  65.1160000  26.4870000
  61.0260000  66.7240000  27.6180000  61.1690000  66.2260000  28.6020000
  61.9180000  66.5840000  27.0290000  60.8700000  68.2480000  27.8090000
  60.9380000  68.7280000  26.8460000  59.8560000  68.3680000  28.2460000
  61.9820000  68.8320000  28.6850000  62.9070000  68.6130000  28.1890000
  61.9240000  69.8880000  28.7050000  62.0090000  68.2880000  30.1130000
  62.4120000  67.2560000  30.2110000  62.7340000  68.9100000  30.6610000
  60.7200000  68.3580000  30.9210000  60.0130000  67.8640000  30.2700000
  60.9030000  67.8730000  31.8560000  60.2050000  69.8040000  31.2060000
  61.0900000  70.3620000  31.6250000  59.9430000  70.2890000  30.2520000
  59.0550000  69.9850000  32.2140000  59.5010000  69.7070000  33.1710000
  58.8580000  71.0720000  32.1840000  57.7460000  69.2320000  31.9380000
  57.8510000  68.2450000  31.9840000  57.0530000  69.4100000  32.8120000
  57.0940000  69.6760000  30.5990000  57.0760000  70.8070000  30.5580000
  57.8050000  69.3720000  29.7750000  55.7170000  69.0170000  30.3420000
  55.7490000  67.9680000  30.6240000  55.0570000  69.5610000  31.0020000
  55.3050000  69.0990000  28.8640000  54.2180000  68.9750000  28.9920000
  55.4120000  70.0740000  28.3700000  55.8280000  68.0130000  27.9040000
  56.8320000  67.6840000  28.1850000  55.3080000  67.1680000  28.1840000
  55.7790000  68.3680000  26.3930000  55.7910000  69.4960000  25.9810000
  55.8110000  67.2720000  25.6880000  55.9630000  67.5060000  24.3330000
  55.0460000  68.0490000  23.9650000  56.9270000  68.0190000  24.1160000
  56.0010000  66.1570000  23.5220000  56.6800000  65.5340000  24.1160000
  56.2810000  66.2400000  21.9700000  57.1290000  66.7990000  21.8670000
  56.5900000  65.2800000  21.6920000  55.2800000  66.8430000  21.0900000
  54.8320000  68.3650000  21.1010000  53.5310000  68.3570000  21.9430000
  52.2880000  68.0680000  21.4400000  52.2460000  68.2480000  20.3210000
  51.9160000  67.0720000  21.6670000  51.3840000  69.2150000  21.8940000
  51.7270000  70.1440000  21.4390000  50.3720000  69.0820000  21.4450000
  51.1250000  69.5540000  23.3580000  49.9580000  68.7160000  23.8360000
  49.2510000  68.6930000  22.9620000  50.2120000  67.7470000  24.0160000
  49.3980000  69.0630000  24.6830000  52.2650000  69.3810000  24.2720000
  52.6190000  68.3290000  24.2450000  53.0160000  70.1450000  24.0820000
  51.9260000  69.5040000  25.3230000  50.7500000  70.9680000  23.3990000
  51.4950000  71.5540000  22.9520000  50.5140000  71.2510000  24.4050000
  49.8780000  71.2460000  22.8200000  55.8490000  69.1090000  21.8190000
  54.5320000  68.7250000  19.6840000  54.6250000  65.6440000  23.6020000
  54.5300000  64.3460000  23.3880000  55.4150000  63.5720000  23.0720000
  53.0930000  63.9060000  23.4160000  52.9980000  62.8130000  23.3020000
  52.7420000  64.2520000  22.4600000  52.4570000  64.3130000  24.7540000
  53.1070000  64.8640000  25.3790000  52.3350000  63.3470000  25.2920000
  51.0180000  64.9140000  24.6580000  50.3990000  64.1710000  24.3460000
  50.9580000  65.6420000  23.9220000  50.6280000  65.4830000  25.9690000
  50.6140000  64.7780000  26.8380000  49.6480000  65.8180000  25.8270000
  51.4650000  66.7420000  26.2840000  51.1800000  67.4320000  25.5480000
  52.5140000  66.4950000  26.1830000  50.9360000  67.3010000  27.6260000
  49.8610000  67.2940000  27.7930000  51.1600000  68.3960000  27.6600000
  51.7830000  66.8190000  28.8430000  52.7460000  67.3380000  28.9540000
  52.0370000  65.7250000  28.7270000  50.9640000  67.1480000  30.0590000
  50.7740000  68.2290000  30.1960000  50.6320000  66.2510000  30.9470000
  50.1200000  66.5470000  31.8880000  51.1220000  64.7820000  30.9610000
  51.3130000  64.4230000  29.9600000  50.2960000  64.0920000  31.3240000
  52.3640000  64.5660000  31.8200000  52.1170000  64.6130000  32.8550000
  53.0250000  65.4040000  31.5780000  53.0640000  63.2100000  31.5910000
  53.3590000  63.0930000  30.5740000  52.4060000  62.4690000  32.0360000
  54.4960000  63.0100000  32.2140000  55.1730000  63.8370000  31.9520000
  54.8750000  62.1510000  31.7970000  54.4720000  62.8220000  33.6900000
  54.0360000  61.9130000  34.0610000  53.6860000  63.5540000  34.0690000
  55.8600000  63.0050000  34.3080000  55.8030000  62.9920000  35.3600000
  56.2470000  63.9650000  34.0730000  56.9110000  61.9390000  33.9280000
  57.0270000  61.9390000  32.8130000  56.5420000  60.9320000  34.2650000
  58.3140000  62.3040000  34.5310000  58.2960000  62.3660000  35.6360000
  58.7320000  63.2690000  34.2830000  58.9580000  61.4560000  34.2180000
  49.4520000  87.8090000  36.5100000  49.5140000  88.7440000  37.0820000
  49.3550000  86.9130000  37.1530000  48.5040000  87.8190000  35.8930000
  50.6850000  87.5360000  35.6320000  50.9600000  88.4670000  35.1560000
  51.5080000  87.2210000  36.3140000  50.3420000  86.3930000  34.6940000
  50.0240000  85.5350000  35.2500000  49.4470000  86.6060000  34.0720000
  51.5480000  85.9920000  33.8970000  52.1670000  86.7590000  33.5740000
  52.2410000  85.4410000  34.5880000  51.2190000  84.9970000  32.7890000
  50.8210000  84.0730000  33.2410000  50.3840000  85.3520000  32.2180000
  52.3970000  84.6270000  31.8560000  53.2440000  84.2100000  32.3890000
  52.0300000  83.8020000  31.1820000  52.9970000  85.7840000  30.9950000
  53.2400000  86.6720000  31.5620000  53.9310000  85.4430000  30.6050000
  52.0720000  86.2160000  29.8390000  51.2350000  86.6450000  30.3630000
  52.6180000  86.9490000  29.2770000  51.5010000  85.0870000  28.8740000
  50.6570000  84.7570000  29.3830000  51.0160000  85.5860000  28.0020000
  52.4840000  83.9330000  28.4840000  53.4240000  84.3020000  28.1910000
  52.9370000  83.4450000  29.3690000  51.8660000  83.0160000  27.4410000
  52.2500000  81.9690000  27.5030000  50.7920000  83.0240000  27.7350000
  51.9020000  83.6400000  26.0370000  51.5480000  84.6430000  26.1530000
  52.9550000  83.6550000  25.7590000  51.1750000  82.9150000  24.8950000
  51.3120000  83.4190000  23.9580000  51.6430000  82.0350000  24.6200000
  49.6850000  82.7350000  25.0410000  49.6090000  82.1480000  25.9580000
  49.3040000  83.7300000  25.3800000  48.8950000  82.0120000  23.9430000
  49.3010000  81.0410000  23.7510000  47.9030000  81.8000000  24.3820000
  48.9390000  82.8300000  22.6460000  49.6220000  82.4100000  21.7120000
  48.3690000  84.0040000  22.8240000  48.2010000  84.9380000  21.6960000
  48.7340000  84.5300000  20.8080000  47.1520000  84.9800000  21.3860000
  48.8910000  86.2950000  21.9070000  48.6470000  86.6800000  22.9420000
  48.2760000  87.2860000  20.9640000  48.2940000  88.2530000  21.4260000
  48.8690000  87.2170000  20.0510000  46.8700000  87.1180000  20.5740000
  45.6950000  87.7190000  21.4710000  45.4940000  89.1210000  20.7660000
  44.6490000  89.3230000  19.5400000  45.4020000  89.4710000  18.7380000
  44.1010000  88.3900000  19.2460000  43.6210000  90.5050000  19.6850000
  43.0450000  90.6750000  18.7940000  42.9310000  90.2270000  20.4450000
  44.0980000  91.7560000  20.1500000  45.2100000  92.2850000  19.2880000
  46.0580000  91.7770000  19.6380000  45.0120000  92.0840000  18.2100000
  45.3950000  93.3580000  19.4040000  42.9900000  92.7360000  19.9260000
  42.5990000  92.5820000  18.9440000  42.1640000  92.5920000  20.6570000
  43.3010000  93.8100000  19.9930000  44.4990000  91.8320000  21.5160000
  43.6550000  91.5610000  22.1680000  44.7660000  92.8780000  21.6390000
  45.3120000  91.1250000  21.8040000  44.4440000  86.9660000  21.3060000
  46.2160000  88.0030000  22.7630000  50.3140000  86.1410000  21.7050000
  51.1560000  86.3510000  22.7800000  50.8740000  86.8090000  23.8880000
  52.6280000  86.1090000  22.5150000  52.7280000  85.1180000  22.0890000
  53.1500000  86.1700000  23.4890000  53.3630000  87.0950000  21.5680000
  52.9700000  87.0000000  20.6030000  54.3160000  86.6620000  21.3840000
  53.6280000  88.5850000  21.9210000  54.4830000  89.0210000  21.3620000
  53.8590000  88.7140000  23.0040000  52.3980000  89.3750000  21.5070000
  51.6020000  89.1050000  22.3080000  52.1440000  89.0500000  20.4990000
  52.5140000  90.9000000  21.4750000  53.2940000  90.9960000  20.6720000
  52.9940000  91.2540000  22.3720000  51.2590000  91.7390000  21.2200000
  50.6510000  91.3460000  20.3960000  51.7480000  92.6780000  20.9910000
  50.2900000  91.8620000  22.3910000  49.7240000  92.8220000  22.1800000
  50.9110000  91.9570000  23.3310000  49.3130000  90.7130000  22.4840000
  48.6750000  90.5290000  21.7080000  49.0440000  89.9970000  23.5760000
  48.2310000  89.2270000  23.6300000  49.8760000  89.9090000  24.8690000
  49.9990000  90.8960000  25.2390000  50.9180000  89.5600000  24.6500000
  49.2030000  89.1070000  25.9420000  49.1910000  88.1200000  25.5630000
  48.1160000  89.3190000  26.0540000  49.7950000  89.0300000  27.3410000
  50.8410000  88.7130000  27.2300000  49.3280000  88.3030000  27.9240000
  49.6700000  90.3270000  28.1660000  48.6300000  90.6730000  28.1350000
  50.1800000  91.0430000  27.5960000  50.1590000  90.2980000  29.6030000
  49.7310000  89.3970000  30.1280000  49.8820000  91.2100000  30.1360000
  51.7080000  90.2690000  29.7550000  52.2300000  91.0350000  29.0940000
  52.1230000  89.3120000  29.3800000  52.1770000  90.4040000  31.2740000
  51.8350000  91.3530000  31.7130000  53.2670000  90.4620000  31.3920000
  51.6430000  89.1810000  32.1170000  51.8920000  89.2810000  33.1760000
  51.9380000  88.1680000  31.8250000  50.6030000  89.3240000  32.2690000
 145.8140000  35.7690000  29.8860000 145.8140000  36.5380000  29.1330000
 146.5710000  36.1380000  30.6250000 144.8580000  35.8530000  30.3700000
 145.9980000  34.3540000  29.3340000 146.0980000  33.6770000  30.1680000
 145.0860000  34.1900000  28.7210000 147.2540000  34.2350000  28.5070000
 148.0830000  34.5330000  29.1430000 147.4530000  33.1750000  28.2990000
 147.3060000  34.8750000  27.1030000 146.5190000  34.4680000  26.4370000
 147.0930000  35.9980000  27.1680000 148.5600000  34.5210000  26.3530000
 149.2910000  35.2350000  26.7720000 148.9000000  33.6150000  26.7160000
 148.5250000  34.6430000  24.8030000 149.5510000  34.5120000  24.3510000
 148.0000000  33.8030000  24.3270000 147.9390000  36.0220000  24.2610000
 146.8660000  36.0330000  24.4840000 148.3460000  36.9060000  24.7760000
 148.2150000  36.1930000  22.7160000 147.7850000  35.4240000  22.1750000
 147.8900000  37.1830000  22.4400000 149.6590000  36.1270000  22.1040000
 150.1520000  37.0090000  22.5280000 150.2310000  35.2590000  22.4990000
 149.6830000  36.0900000  20.5300000 149.2330000  35.1010000  20.2240000
 149.0340000  36.9470000  20.3320000 151.0020000  36.2870000  19.6840000
 151.5450000  35.3420000  19.7880000 150.7320000  36.3820000  18.5730000
 151.9090000  37.4450000  20.1330000 151.7600000  37.6380000  21.1640000
 153.0230000  37.1350000  20.1350000 151.7580000  38.7840000  19.2850000
 152.6310000  39.3600000  19.4720000 151.9480000  38.4860000  18.2560000
 150.4300000  39.5870000  19.6070000 149.6340000  38.8980000  19.9210000
 150.6550000  40.2390000  20.4620000 149.8830000  40.4110000  18.4210000
 149.2530000  41.2610000  18.6730000 150.8480000  40.7810000  18.0320000
 149.1470000  39.5570000  17.4150000 149.7010000  38.7160000  16.7380000
 147.8160000  39.7820000  17.3580000 146.8320000  38.8300000  16.8240000
 145.8060000  39.2230000  16.8230000 147.0810000  38.6880000  15.7600000
 146.6730000  37.5500000  17.5960000 147.6370000  37.2490000  18.0990000
 146.0640000  36.3750000  16.7720000 146.7290000  35.9440000  16.0210000
 145.7910000  35.5780000  17.3850000 144.9740000  36.9740000  16.0300000
 143.4060000  36.8860000  16.4590000 143.0040000  38.2460000  17.1540000
 142.5750000  39.3960000  16.4160000 142.6050000  40.3170000  17.1000000
 143.3080000  39.6350000  15.7140000 141.1660000  39.3150000  15.7610000
 140.9180000  40.2970000  15.3110000 141.1730000  38.6470000  14.8470000
 140.0990000  38.9490000  16.8180000 140.0730000  39.7980000  18.0220000
 139.2910000  39.6290000  18.7640000 141.0410000  39.7980000  18.5270000
 139.8370000  40.8370000  17.6590000 138.9080000  39.2650000  16.0040000
 138.8730000  38.7830000  15.0360000 137.9970000  39.0010000  16.5450000
 138.8450000  40.3810000  15.7890000 140.0030000  37.4850000  17.1660000
 139.1130000  37.3770000  17.7980000 140.9320000  37.4720000  17.8380000
 140.0110000  36.9230000  16.2800000 142.6130000  36.6890000  15.2110000
 143.3660000  35.8110000  17.4990000 145.7540000  37.8830000  18.6480000
 145.6470000  37.0630000  19.7240000 146.4130000  36.1430000  19.8940000
 144.5370000  37.5200000  20.6470000 143.5480000  37.1790000  20.2530000
 144.4750000  38.6240000  20.7290000 144.6640000  37.0250000  22.0370000
 145.6760000  36.8730000  22.3390000 144.1480000  36.0000000  21.9890000
 143.9470000  37.8000000  23.1560000 142.8940000  37.9440000  23.0320000
 144.3470000  38.8060000  23.2300000 144.0450000  37.0210000  24.5290000
 145.1210000  36.8280000  24.7420000 143.6800000  36.0350000  24.2810000
 143.2150000  37.5820000  25.6910000 142.1790000  37.8290000  25.3960000
 143.6600000  38.5120000  25.9330000 143.3010000  36.6730000  26.9160000
 143.0410000  37.4260000  27.7590000 144.3350000  36.2870000  26.9720000
 142.3370000  35.4680000  26.9240000 142.3210000  34.9290000  25.9580000
 141.3850000  35.8910000  27.0850000 142.5840000  34.4470000  28.0470000
 143.1040000  33.5570000  27.7770000 142.1520000  34.6530000  29.2370000
 142.3210000  33.9110000  30.0000000 141.5610000  35.9060000  29.8650000
 141.4900000  36.6780000  29.1320000 142.2880000  36.3400000  30.6450000
 140.1850000  35.5910000  30.5550000 139.8610000  36.5210000  30.9850000
 140.4050000  34.8390000  31.3040000 139.0980000  35.0590000  29.6300000
 139.4460000  34.1570000  29.1760000 138.7810000  35.7410000  28.7760000
 137.9140000  34.6240000  30.5150000 138.2590000  33.8990000  31.1720000
 137.1470000  34.2020000  29.8930000 137.1510000  35.7520000  31.3290000
 137.8540000  36.1820000  32.0360000 136.3790000  35.3390000  31.9430000
 136.5340000  36.8790000  30.4700000 135.6830000  36.4980000  29.9370000
 137.3070000  37.2590000  29.8750000 136.0660000  38.1270000  31.2440000
 136.8980000  38.4920000  31.8550000 135.2770000  37.8400000  31.9330000
 135.5190000  39.2250000  30.3790000 134.6090000  38.9420000  29.8020000
 136.3140000  39.6140000  29.7270000 135.2080000  40.0220000  31.0120000
 132.0120000  92.0680000  30.8320000 131.2590000  92.8420000  31.0950000
 132.8280000  92.6070000  30.2560000 132.4440000  91.7350000  31.8060000
 131.4420000  90.9820000  29.9110000 132.2980000  90.4640000  29.5320000
 130.7780000  90.3410000  30.5720000 130.6070000  91.4890000  28.7760000
 130.1920000  90.6790000  28.1810000 129.5960000  91.8410000  29.1860000
 131.2580000  92.5870000  27.9210000 130.6110000  92.7950000  27.1490000
 131.3280000  93.4980000  28.4730000 132.6830000  92.2040000  27.3190000
 133.1530000  93.0040000  26.8290000 133.4340000  91.9060000  28.0790000
 132.5880000  90.9540000  26.3570000 132.2820000  90.0050000  26.8710000
 131.8150000  90.9990000  25.5870000 133.8960000  90.5940000  25.6450000
 134.6530000  90.4450000  26.4200000 133.7370000  89.7140000  25.0910000
 134.4830000  91.5750000  24.6120000 134.5810000  92.5540000  25.1750000
 135.4570000  91.2340000  24.3810000 133.6560000  91.7050000  23.2850000
 133.3800000  90.6530000  23.0900000 132.8050000  92.2810000  23.5250000
 134.4480000  92.3280000  22.1750000 134.7810000  93.2790000  22.5530000
 135.4100000  91.7510000  22.0650000 133.7170000  92.4180000  20.8260000
 132.8180000  92.9730000  20.9100000 134.2880000  93.0230000  20.0320000
 133.5410000  91.0630000  20.1250000 132.7600000  90.4760000  20.6780000
 133.1080000  91.2230000  19.2020000 134.8800000  90.3150000  19.8950000
 134.8830000  89.9120000  18.9310000 135.8000000  90.9600000  19.9070000
 135.0190000  89.1860000  20.9830000 135.9600000  88.6690000  20.9080000
 135.1060000  89.6490000  22.0030000 133.9660000  88.1120000  20.9300000
 134.3060000  87.3510000  21.7480000 132.9910000  88.5350000  21.2350000
 133.8410000  87.3060000  19.6900000 134.4430000  86.2510000  19.5000000
 132.9830000  87.9690000  18.8350000 132.5020000  87.3050000  17.6360000
 132.4940000  88.0440000  16.7960000 133.2290000  86.5360000  17.3430000
 131.0460000  86.7400000  17.8730000 130.6810000  86.4120000  16.9180000
 130.1910000  87.8970000  18.4430000 129.2170000  87.4940000  18.6770000
 130.6810000  88.3470000  19.2970000 130.1730000  88.9320000  17.4130000
 128.9190000  89.8890000  17.5660000 127.7280000  88.9880000  17.0340000
 127.6620000  88.5910000  15.6460000 126.7870000  89.1440000  15.2630000
 128.5140000  89.0300000  15.1240000 127.4450000  87.0780000  15.4900000
 127.4130000  86.9160000  14.3540000 128.3060000  86.5530000  15.7870000
 126.3040000  86.3050000  16.0540000 126.6090000  84.8610000  15.7740000
 127.7100000  84.7350000  15.9940000 125.9370000  84.1770000  16.3440000
 126.4730000  84.6830000  14.6860000 126.2850000  86.5670000  17.5770000
 125.5110000  85.9800000  18.1080000 127.1820000  86.2080000  18.0110000
 126.0750000  87.6490000  17.6900000 125.0670000  86.7870000  15.5250000
 124.2790000  86.4630000  16.2120000 124.9370000  86.2730000  14.5950000
 125.0740000  87.8300000  15.5100000 128.6200000  90.0370000  19.0380000
 129.0640000  91.1000000  16.7560000 131.0630000  85.6680000  18.8770000
 130.1070000  84.7320000  18.7970000 129.2290000  84.8150000  17.9730000
 130.1920000  83.6180000  19.8230000 131.2190000  83.5900000  20.1020000
 129.9110000  82.7030000  19.3780000 129.3480000  83.8430000  21.0310000
 129.2940000  84.8530000  21.2800000 129.9210000  83.3780000  21.8610000
 127.8810000  83.2550000  21.1760000 127.6930000  83.0020000  22.2130000
 127.8660000  82.2660000  20.7110000 126.7670000  84.1310000  20.6300000
 125.8740000  83.6230000  20.9350000 126.8410000  84.1680000  19.5200000
 126.8050000  85.5400000  21.2890000 127.7090000  86.0510000  21.0020000
 126.8500000  85.4760000  22.3730000 125.4880000  86.4230000  21.0240000
 124.9880000  86.3680000  20.0680000 125.8190000  87.4970000  21.2130000
 124.3100000  86.2960000  22.0430000 123.6650000  87.1780000  21.9560000
 124.7830000  86.2460000  23.0160000 123.6140000  84.9180000  21.7980000
 123.3170000  84.7230000  20.6950000 123.4780000  83.9120000  22.7100000
 122.9070000  83.0720000  22.3840000 123.9620000  83.9960000  24.1620000
 123.2380000  83.4620000  24.7050000 124.0660000  85.0360000  24.5210000
 125.3550000  83.4140000  24.3470000 125.9490000  83.9560000  23.5920000
 125.3680000  82.3280000  24.1100000 125.8160000  83.7500000  25.7620000
 126.6530000  83.0890000  26.1040000 125.0360000  83.5720000  26.4840000
 126.3620000  85.1960000  25.9440000 125.6610000  85.9910000  25.5650000
 127.1170000  85.3810000  25.2240000 127.0740000  85.3560000  27.3770000
 127.9880000  84.8090000  27.3490000 126.4860000  84.8420000  28.1460000
 127.3740000  86.7860000  27.7530000 127.7510000  86.7850000  28.7670000
 126.3940000  87.3010000  27.6590000 128.3910000  87.4010000  26.7750000
 127.9300000  87.9470000  25.9360000 128.9760000  86.5900000  26.2940000
 129.3880000  88.3670000  27.5280000 129.7590000  87.8840000  28.4080000
 128.7040000  89.1470000  27.8320000 130.1040000  88.7570000  26.7790000
 145.0600000  46.6640000  29.8450000 145.3430000  45.6520000  30.0710000
 145.7610000  47.3920000  30.2490000 145.0350000  46.7770000  28.7630000
 143.6710000  47.0560000  30.4170000 143.8470000  47.4030000  31.4930000
 143.2880000  47.9520000  29.9810000 142.5490000  45.9610000  30.3720000
 142.7380000  45.2540000  29.6020000 142.5950000  45.3160000  31.3550000
 141.1750000  46.5700000  30.0890000 140.8160000  47.1070000  30.9990000
 141.2950000  47.2580000  29.2650000 140.1400000  45.5370000  29.6200000
 140.4230000  45.0490000  28.6810000 140.2100000  44.7140000  30.3610000
 138.7190000  46.2160000  29.5550000 138.5510000  46.7880000  30.4480000
 138.8180000  46.9700000  28.8250000 137.5060000  45.3460000  29.2940000
 137.7140000  44.5050000  28.6110000 137.2040000  44.8790000  30.2430000
 136.2230000  46.1120000  28.8920000 135.4940000  45.3560000  28.9350000
 135.9840000  46.7740000  29.6740000 136.3350000  46.7660000  27.4950000
 135.8690000  47.7350000  27.6210000 137.3410000  46.7210000  27.1600000
 135.3380000  46.1090000  26.4560000 135.4750000  45.0210000  26.3300000
 134.2940000  46.2180000  26.9070000 135.4100000  46.7550000  25.0430000
 135.3380000  47.8680000  25.2480000 136.4290000  46.6280000  24.6800000
 134.2500000  46.2300000  24.1780000 134.2640000  45.1330000  24.0250000
 133.3590000  46.4470000  24.7880000 134.1240000  46.9840000  22.8390000
 135.0040000  46.8800000  22.1890000 133.2160000  46.6480000  22.3480000
 133.9330000  48.4700000  23.0470000 133.0310000  48.6030000  23.6180000
 134.8900000  48.7270000  23.4520000 133.7250000  49.2490000  21.6850000
 134.4640000  48.8270000  20.9700000 132.7630000  49.1300000  21.2370000
 134.1340000  50.7370000  21.6990000 133.6330000  51.5580000  22.4390000
 135.1280000  51.0010000  20.8730000 135.4840000  52.3730000  20.6980000
 134.5610000  52.9160000  20.4560000 135.8220000  52.8220000  21.6060000
 136.6460000  52.5290000  19.5910000 136.9840000  53.5560000  19.5940000
 136.0810000  52.1560000  18.2530000 135.8560000  51.0660000  18.3270000
 135.1100000  52.6250000  18.0010000 137.0520000  52.4580000  17.2230000
 137.2410000  51.4250000  15.9840000 137.7560000  49.9920000  16.6350000
 137.8730000  48.9520000  15.7800000 137.1210000  49.0620000  14.9670000
 138.9280000  49.0310000  15.3720000 137.6300000  47.6440000  16.6370000
 137.9790000  46.7710000  16.1980000 138.1660000  47.7450000  17.5430000
 136.2110000  47.2750000  17.0130000 136.4000000  46.0040000  17.8890000
 136.7520000  45.0990000  17.3130000 137.1840000  46.2790000  18.5360000
 135.4800000  45.7380000  18.5320000 135.4640000  48.3930000  17.6090000
 134.4790000  47.9820000  17.7630000 135.8810000  48.7030000  18.5170000
 135.4560000  49.2310000  16.9770000 135.4090000  46.8500000  15.8390000
 135.2800000  47.7340000  15.1200000 134.4280000  46.5070000  16.2140000
 136.0340000  46.1370000  15.2880000 135.8930000  51.1560000  15.4310000
 138.2890000  52.2000000  15.2450000 137.6550000  51.5910000  19.8520000
 138.5380000  51.7870000  20.8280000 138.5930000  52.8600000  21.4510000
 139.5210000  50.6880000  20.9050000 139.0140000  49.7200000  20.6930000
 139.8620000  50.3930000  21.8720000 140.7730000  50.9100000  20.0090000
 140.5080000  51.0860000  18.9070000 141.4280000  50.0280000  19.9250000
 141.8650000  52.0120000  20.4560000 142.2050000  51.7680000  21.4630000
 141.3290000  52.9840000  20.5160000 143.0150000  52.1260000  19.4330000
 143.6770000  52.9430000  19.7120000 142.6000000  52.4080000  18.4940000
 143.8930000  50.8310000  19.2790000 143.2790000  49.9310000  18.9190000
 144.2370000  50.6990000  20.2680000 145.0820000  51.0280000  18.4250000
 145.7100000  51.7720000  18.9190000 144.7710000  51.5120000  17.5100000
 145.9620000  49.7280000  18.2060000 146.6350000  49.9130000  17.4170000
 145.3800000  48.9640000  17.8460000 146.6860000  49.4340000  19.5160000
 146.9610000  50.3270000  20.0320000 146.7570000  48.2420000  20.0670000
 147.1190000  48.1480000  21.0200000 146.5120000  46.9260000  19.4200000
 146.0140000  47.0020000  18.4530000 145.8410000  46.3320000  20.1040000
 147.8180000  46.1300000  19.2840000 148.5680000  46.5310000  18.5470000
 147.5450000  45.1520000  18.9740000 148.5040000  45.9740000  20.6270000
 148.9400000  46.8860000  20.9870000 149.3640000  45.2540000  20.4590000
 147.6790000  45.3560000  21.7280000 147.1830000  44.4290000  21.3590000
 146.8960000  46.0180000  21.8770000 148.5410000  45.0500000  23.0230000
 149.0840000  45.9550000  23.2630000 149.2930000  44.2670000  22.8550000
 147.5980000  44.6000000  24.1850000 147.0760000  43.6330000  23.9360000
 146.8270000  45.3580000  24.3790000 148.3270000  44.5320000  25.4640000
 148.4060000  45.4850000  25.9490000 149.4050000  44.3500000  25.3170000
 147.7780000  43.5020000  26.4950000 148.5580000  42.8160000  27.0180000
 146.9510000  42.9260000  26.0670000 147.3820000  44.1570000  27.2410000
  64.1620000  19.9420000  32.6650000  64.5070000  20.9330000  32.4940000
  65.1010000  19.3110000  32.6590000  63.6690000  19.9400000  33.6630000
  63.0880000  19.3020000  31.6970000  63.8220000  18.9880000  30.8690000
  62.6610000  18.3490000  32.1200000  62.0560000  20.1500000  31.0090000
  61.3780000  20.4690000  31.7640000  62.5650000  21.0120000  30.6680000
  61.2770000  19.5280000  29.8670000  60.7200000  18.7000000  30.2890000
  60.5480000  20.1580000  29.4670000  62.1640000  19.0430000  28.6040000
  62.6150000  19.9200000  28.1630000  62.8930000  18.3510000  28.9210000
  61.2300000  18.2520000  27.5850000  60.9290000  17.3930000  28.1520000
  60.3850000  18.8270000  27.2830000  61.8810000  17.8810000  26.2460000
  61.0680000  17.6290000  25.5030000  62.4220000  18.7610000  25.8660000
  62.5860000  16.5640000  26.4620000  62.9830000  16.4530000  27.4750000
  61.8700000  15.7560000  26.2350000  63.7530000  16.6730000  25.4720000
  63.1970000  16.4850000  24.5220000  64.2380000  17.6480000  25.3960000
  64.8320000  15.7120000  25.5820000  64.4420000  14.6980000  25.5440000
  65.6410000  15.7300000  24.8210000  65.5620000  15.9270000  26.9690000
  65.9520000  16.9690000  27.1420000  64.9410000  15.6440000  27.7710000
  66.8590000  15.1040000  27.1770000  67.4970000  15.2650000  26.3220000
  67.4540000  15.5400000  27.9940000  66.6130000  13.5400000  27.4000000
  66.3160000  13.5480000  28.4630000  65.8410000  13.1350000  26.7630000
  67.8150000  12.6450000  27.4200000  68.4050000  13.0930000  28.2090000
  67.5480000  11.6980000  27.8400000  68.5740000  12.5810000  26.1110000
  68.8110000  13.5840000  25.8670000  69.4420000  11.9920000  26.2290000
  67.8920000  12.0450000  24.8950000  67.9270000  10.8890000  24.5230000
  67.3980000  12.9820000  24.1720000  66.7050000  12.7420000  22.9030000
  66.4460000  13.6690000  22.4220000  67.4120000  12.3000000  22.1620000
  65.5130000  11.7770000  22.9210000  65.9110000  10.8530000  23.3510000
  64.9340000  11.4530000  21.5030000  64.1600000  10.6360000  21.5450000
  64.5280000  12.4100000  21.2040000  66.0120000  11.0250000  20.6870000
  65.9010000  11.0220000  19.0410000  66.7640000  12.2330000  18.5540000
  66.3400000  13.5670000  18.7730000  65.6790000  13.9470000  17.9110000
  65.7520000  13.6470000  19.6600000  67.6030000  14.3700000  18.9920000
  67.3340000  15.3420000  19.5210000  68.2730000  13.8260000  19.6880000
  68.4340000  14.7630000  17.7980000  69.6630000  15.4690000  18.1930000
  69.5820000  15.5970000  19.3040000  70.5570000  15.0000000  17.8970000
  69.5960000  16.5580000  17.8510000  68.8020000  13.6080000  16.9630000
  69.4930000  12.9530000  17.4950000  67.9260000  13.0150000  16.8540000
  69.1540000  14.0320000  16.0360000  67.7120000  15.7130000  16.9430000
  67.4620000  16.6700000  17.4450000  66.8560000  15.2540000  16.4910000
  68.4270000  15.8870000  16.1220000  66.6380000   9.8010000  18.6260000
  64.4530000  11.1870000  18.6680000  64.5350000  12.2980000  23.8480000
  63.3650000  11.6210000  24.0430000  63.0240000  10.5310000  23.6180000
  62.3970000  12.4370000  24.8160000  61.4760000  12.5690000  24.2790000
  62.9510000  13.4050000  24.9250000  62.0090000  11.8050000  26.2130000
  62.8200000  11.9400000  26.8640000  61.7700000  10.7180000  26.0720000
  60.6990000  12.5660000  26.7140000  59.8480000  12.3250000  26.0290000
  60.8480000  13.5990000  26.5780000  60.3060000  12.2320000  28.2400000
  61.1020000  12.5380000  28.9280000  60.1270000  11.1680000  28.2870000
  58.9730000  12.9650000  28.6080000  58.1550000  12.6000000  27.9190000
  59.1280000  14.0280000  28.4820000  58.5890000  12.7800000  30.0960000
  58.2310000  11.7230000  30.2150000  57.6960000  13.3880000  30.2100000
  59.5640000  13.2130000  31.1990000  59.0070000  13.4010000  32.1110000
  60.0100000  14.1470000  31.0490000  60.6000000  12.1250000  31.4630000
  60.1820000  11.1150000  31.5360000  61.8930000  12.2310000  31.5370000
  62.4140000  11.2570000  31.5990000  62.6280000  13.4990000  31.6970000
  63.0360000  13.5430000  32.7060000  61.8710000  14.3260000  31.6880000
  63.7020000  13.7110000  30.6020000  63.2450000  13.6540000  29.6280000
  64.4370000  12.9200000  30.6120000  64.3660000  15.1500000  30.8050000
  63.5810000  15.8420000  30.9840000  64.8480000  15.4110000  29.8150000
  65.4350000  15.1870000  31.8240000  66.3290000  14.7680000  31.3550000
  65.0650000  14.5850000  32.6660000  65.8620000  16.5980000  32.2240000
  64.9950000  17.1730000  32.5900000  66.2020000  17.2390000  31.4030000
  66.9640000  16.6770000  33.3130000  67.3600000  17.6860000  33.3540000
  67.6480000  15.9130000  33.0120000  66.3910000  16.3470000  34.7130000
  66.0380000  15.3200000  34.7220000  65.5400000  17.0480000  34.8810000
  67.4880000  16.5060000  35.8450000  68.0320000  17.3880000  35.6710000
  68.2060000  15.7170000  35.8490000  67.0470000  16.5840000  36.8290000
   7.5480000 114.8670000  31.4170000   6.5250000 114.7260000  31.6780000
   8.2280000 115.0100000  32.3070000   7.7100000 114.0500000  30.7750000
   7.7100000 116.0500000  30.4090000   7.5500000 117.0790000  30.9040000
   8.6970000 115.9780000  30.0740000   6.8080000 115.8740000  29.2000000
   7.0210000 114.9570000  28.6950000   5.7990000 115.8500000  29.6430000
   7.0220000 117.1570000  28.2370000   6.2280000 117.0500000  27.4370000
   6.9050000 118.1320000  28.7750000   8.3880000 117.2790000  27.4920000
   8.3820000 118.2110000  26.8980000   9.2880000 117.1800000  28.1390000
   8.5100000 116.1160000  26.4940000   8.2900000 115.1730000  26.9600000
   7.7220000 116.3200000  25.7510000   9.9110000 115.8570000  25.8310000
  10.5520000 115.4630000  26.6120000   9.8060000 114.9890000  25.1290000
  10.5690000 117.0570000  25.1360000  10.5690000 117.8750000  25.8750000
  11.5440000 116.7410000  24.8400000   9.6890000 117.5690000  23.9860000
   9.0600000 116.8000000  23.5710000   9.0130000 118.3920000  24.2400000
  10.5690000 118.1960000  22.9050000  11.0410000 119.1400000  23.2080000
  11.3590000 117.4890000  22.7500000   9.8480000 118.3990000  21.5960000
   9.4630000 117.5100000  21.1170000   8.8890000 118.9940000  21.7790000
  10.7510000 119.1380000  20.5400000  10.2260000 119.1230000  19.6010000
  10.8330000 120.1490000  20.9680000  12.1320000 118.5690000  20.3520000
  12.5770000 118.6280000  21.3860000  12.0560000 117.5930000  19.9290000
  12.8280000 119.5530000  19.4060000  12.3000000 119.5340000  18.3890000
  12.7900000 120.5770000  19.8430000  14.3070000 119.1920000  19.1320000
  14.4500000 118.4980000  18.3390000  14.7500000 120.1300000  18.7120000
  15.1370000 118.9030000  20.3740000  14.9750000 119.6080000  21.4000000
  15.9370000 117.8710000  20.1620000  16.9800000 117.5500000  21.1630000
  17.7730000 116.9500000  20.5700000  17.2020000 118.5490000  21.5240000
  16.4070000 116.5470000  22.1490000  17.2290000 116.3680000  22.8710000
  16.0720000 115.2520000  21.4600000  15.5040000 114.7650000  22.1760000
  15.6380000 115.4020000  20.4770000  17.2700000 114.4410000  21.4290000
  17.2730000 112.7890000  20.9740000  18.8060000 112.4840000  20.8250000
  19.7620000 112.6310000  21.8750000  20.7330000 112.6890000  21.3710000
  19.5280000 113.5510000  22.3600000  19.6160000 111.4910000  22.8740000
  20.2600000 111.6370000  23.7640000  18.5570000 111.4340000  23.2050000
  20.0440000 110.1220000  22.3100000  21.4440000 110.0250000  21.7060000
  21.6110000 110.8990000  21.0900000  22.1580000 109.8640000  22.5180000
  21.5690000 109.1310000  21.0830000  19.9910000 109.2570000  23.4510000
  18.9660000 109.3930000  23.9090000  20.2020000 108.2320000  23.1830000
  20.7560000 109.4600000  24.1710000  19.0180000 109.5690000  21.3740000
  17.9480000 109.5260000  21.7400000  19.2930000 108.4950000  21.1890000
  19.0320000 110.1690000  20.4340000  16.6800000 111.9190000  21.9750000
  16.6900000 112.7120000  19.6240000  15.1940000 117.0480000  22.7800000
  15.3400000 117.9080000  23.7560000  16.4300000 118.1490000  24.1810000
  14.1020000 118.3290000  24.4650000  13.6040000 117.3780000  24.7030000
  13.5400000 118.9070000  23.7590000  14.3980000 119.1310000  25.8150000
  14.4700000 120.2390000  25.6220000  15.2820000 118.7640000  26.2980000
  13.2470000 118.8410000  26.7390000  13.0880000 117.7340000  26.9770000
  12.2560000 119.1840000  26.3600000  13.5280000 119.5970000  28.0610000
  13.4500000 120.6260000  27.8120000  14.5090000 119.3600000  28.4920000
  12.4740000 119.3280000  29.1840000  12.8700000 119.7770000  30.0360000
  12.5450000 118.3260000  29.5470000  10.9890000 119.6950000  28.9210000
  10.5520000 119.0530000  28.1490000  10.8330000 120.7750000  28.7090000
  10.2080000 119.3480000  30.2120000  10.7000000 119.9150000  30.9510000
  10.3310000 118.3360000  30.6230000   8.7720000 119.7200000  30.0660000
   8.4810000 119.9150000  29.0410000   7.9360000 119.9360000  31.0500000
   6.9850000 120.3800000  30.7110000   8.1450000 119.6240000  32.5160000
   8.4280000 120.5750000  33.0420000   9.0500000 119.0300000  32.5600000
   6.9230000 118.9730000  33.2180000   6.9110000 117.9540000  32.8930000
   6.0080000 119.4780000  32.9520000   7.0270000 119.0030000  34.7470000
   6.8720000 120.0280000  35.1450000   8.0460000 118.7030000  34.9940000
   6.0540000 118.0030000  35.3860000   6.0820000 117.1300000  34.8410000
   5.0310000 118.3600000  35.2540000   6.3150000 117.5990000  36.7840000
   5.9560000 118.3200000  37.4850000   7.4270000 117.4000000  36.8960000
   5.6730000 116.2740000  37.1750000   6.1350000 115.4780000  36.4940000
   4.6300000 116.4160000  36.9770000   5.8150000 115.8180000  38.6420000
   5.2000000 114.9240000  38.8050000   5.4610000 116.5760000  39.2830000
   7.2240000 115.2850000  39.0610000   7.9810000 116.0510000  38.9850000
   7.5130000 114.3300000  38.5160000   7.2280000 115.0630000  40.0910000
 143.5620000  71.1250000  35.2400000 143.9650000  70.5860000  36.1290000
 142.5280000  71.4480000  35.5170000 144.1300000  72.0220000  34.9840000
 143.7000000  70.3900000  33.8900000 144.7210000  70.0790000  33.7370000
 143.0680000  69.5860000  34.0010000 143.3460000  71.2280000  32.6560000
 142.3730000  71.6430000  32.6540000 144.0310000  72.1270000  32.6480000
 143.7010000  70.4700000  31.3100000 143.8170000  71.2080000  30.5410000
 144.7840000  70.1590000  31.4690000 142.8860000  69.2790000  30.8130000
 143.2870000  68.8100000  29.9300000 143.0290000  68.4100000  31.4360000
 141.3700000  69.5910000  30.7090000 140.8510000  68.6480000  30.3750000
 140.9520000  69.9500000  31.6110000 141.1790000  70.5370000  29.6070000
 141.4320000  71.5350000  29.7130000 141.8510000  70.2330000  28.7280000
 139.7510000  70.6360000  29.1560000 139.1140000  70.8200000  30.0560000
 139.6900000  71.5500000  28.6320000 139.2200000  69.5600000  28.2240000
 139.8420000  69.6050000  27.2600000 139.3400000  68.5410000  28.6360000
 137.7260000  69.7130000  27.8620000 137.0920000  69.8240000  28.7210000
 137.6270000  70.6840000  27.3880000 137.1970000  68.5640000  26.9410000
 136.3990000  68.9560000  26.3770000 138.0290000  68.1780000  26.3270000
 136.6080000  67.2920000  27.7450000 137.4970000  66.6760000  28.1230000
 136.0420000  67.5810000  28.6700000 135.7610000  66.3640000  26.8460000
 134.9590000  66.9120000  26.3090000 136.3300000  65.8610000  26.0680000
 135.2590000  65.2970000  27.7710000 136.0880000  64.7310000  28.1180000
 134.6810000  65.7860000  28.5960000 134.3280000  64.2950000  27.1340000
 133.9830000  63.5520000  27.9620000 133.4540000  64.7560000  26.7420000
 134.9440000  63.4880000  26.0990000 135.9580000  62.8540000  26.3070000
 134.2570000  63.4060000  24.9240000 134.9220000  62.8060000  23.7850000
 135.8920000  63.3080000  23.6000000 135.1880000  61.8050000  24.1270000
 133.9400000  62.7750000  22.5700000 133.0900000  62.1030000  22.8580000
 134.7040000  62.2350000  21.3200000 135.5510000  62.9370000  21.1390000
 135.1870000  61.2550000  21.5110000 133.7860000  62.1240000  20.1660000
 133.9890000  63.1500000  18.9830000 133.2590000  64.3770000  19.4410000
 133.2680000  65.5700000  18.6230000 133.8190000  65.5780000  17.6880000
 132.2580000  65.7000000  18.3670000 133.7410000  66.7060000  19.5080000
 133.4610000  67.6500000  19.0640000 133.2080000  66.7900000  20.4510000
 135.2020000  66.7900000  19.8390000 135.7520000  65.7330000  20.7470000
 135.8870000  64.7750000  20.1610000 136.7010000  65.9170000  21.2240000
 134.9980000  65.5160000  21.4680000 135.9760000  66.6660000  18.4980000
 136.0200000  65.6480000  18.1840000 135.4290000  67.2520000  17.7690000
 136.9200000  67.1300000  18.6160000 135.4990000  68.1180000  20.4010000
 135.1530000  68.8870000  19.6670000 136.5440000  68.1130000  20.5690000
 134.9420000  68.2750000  21.3620000 135.4140000  63.3330000  18.7890000
 133.1940000  62.7030000  17.8440000 133.5090000  64.0980000  22.3790000
 132.1810000  64.3690000  22.2890000 131.2850000  63.5640000  22.3780000
 131.8790000  65.9060000  22.2380000 131.6520000  66.2120000  21.2610000
 132.7770000  66.4260000  22.5540000 130.8190000  66.3160000  23.3060000
 129.9430000  65.6970000  23.0750000 130.4610000  67.3790000  23.2490000
 131.2000000  66.1260000  24.7690000 132.1200000  66.5700000  25.0800000
 131.2150000  65.0590000  24.9360000 129.9770000  66.7290000  25.5160000
 129.0670000  66.2640000  25.1410000 129.8880000  67.8140000  25.5150000
 130.0550000  66.4330000  27.0570000 130.9260000  66.8790000  27.4190000
 130.1900000  65.3150000  27.0770000 128.8610000  66.8040000  27.9410000
 128.0390000  66.1480000  27.6740000 128.5510000  67.7980000  27.6310000
 129.0920000  66.7960000  29.4580000 128.2330000  67.2200000  29.9300000
 129.9750000  67.4940000  29.5680000 129.4240000  65.4220000  30.0780000
 128.6800000  64.6290000  29.9250000 130.4530000  65.1300000  30.8840000
 130.5480000  64.1610000  31.3540000 131.3600000  66.2450000  31.4560000
 131.2270000  66.4080000  32.5260000 131.2640000  67.2100000  30.9970000
 132.8000000  65.7580000  31.4080000 133.3600000  66.2800000  32.2040000
 133.2410000  65.8790000  30.4200000 132.9940000  64.2600000  31.7940000
 132.6160000  63.8420000  30.8370000 132.4020000  64.0530000  32.6250000
 134.4640000  64.0150000  32.2080000 134.7110000  64.7590000  33.0770000
 135.1210000  64.2380000  31.4330000 134.7100000  62.5690000  32.7720000
 133.8320000  62.2030000  33.2180000 135.4710000  62.6400000  33.6190000
 135.0930000  61.4090000  31.7890000 134.1960000  61.2960000  31.0590000
 135.2340000  60.4560000  32.3110000 136.2920000  61.7570000  30.8890000
 136.0960000  62.6490000  30.2160000 136.4360000  60.9320000  30.1430000
 137.5720000  61.9830000  31.6500000 138.4600000  61.9160000  31.0450000
 137.6590000  61.2520000  32.4770000 137.5980000  62.9100000  32.1420000
  11.8800000 121.8160000  36.6630000  12.7070000 121.1440000  36.4480000
  11.1410000 121.3310000  37.2150000  12.2750000 122.5940000  37.3190000
  11.2020000 122.3430000  35.3620000  10.8380000 121.4560000  34.7910000
  10.3020000 122.8870000  35.7190000  12.1260000 123.3590000  34.6450000
  12.3280000 124.2410000  35.2410000  13.0260000 122.7940000  34.3770000
  11.3450000 123.7650000  33.3600000  11.0150000 122.9360000  32.7550000
  10.4220000 124.2740000  33.5710000  12.2280000 124.7110000  32.5580000
  12.5730000 125.5780000  33.2010000  13.1600000 124.2500000  32.3230000
  11.5930000 125.2280000  31.2370000  10.5570000 125.7150000  31.4390000
  12.2230000 125.9750000  30.7320000  11.2820000 124.1040000  30.1950000
  10.4820000 123.4000000  30.5440000  10.7840000 124.5410000  29.3110000
  12.5640000 123.2970000  29.7520000  13.0330000 122.7280000  30.6050000
  12.2020000 122.5660000  28.9900000  13.6880000 124.1290000  29.0670000
  13.1470000 124.7730000  28.3240000  14.2170000 124.8540000  29.7580000
  14.7670000 123.2360000  28.3430000  14.2330000 122.5620000  27.6530000
  15.3780000 123.9760000  27.7110000  15.6810000 122.4910000  29.2840000
  15.8600000 123.1630000  30.1220000  15.0700000 121.6300000  29.7120000
  17.0510000 122.1430000  28.6310000  17.5780000 123.0040000  28.3490000
  17.7580000 121.6710000  29.3260000  17.0480000 121.1160000  27.4900000
  16.5340000 120.2560000  27.9170000  16.3730000 121.5180000  26.6790000
  18.3700000 120.7210000  27.0250000  18.8740000 120.1460000  27.7900000
  18.0990000 120.0070000  26.1410000  19.2770000 121.8640000  26.5650000
  19.5530000 122.4570000  27.4120000  20.2610000 121.4960000  26.1560000
  18.7390000 122.8750000  25.5610000  17.9440000 122.6070000  24.6840000
  19.2500000 124.0810000  25.7450000  19.0320000 125.1680000  24.7300000
  17.9610000 125.1940000  24.4860000  19.2210000 126.0870000  25.2500000
  20.0300000 125.2270000  23.5160000  21.0750000 125.1320000  23.8240000
  19.9250000 126.6210000  22.8810000  20.3040000 127.2580000  23.7030000
  20.5310000 126.6710000  22.0280000  18.5490000 126.8790000  22.4690000
  17.9840000 126.4880000  20.9840000  16.8070000 125.4800000  21.2880000
  15.5320000 125.8110000  21.7840000  15.5550000 126.2550000  22.7430000
  14.9870000 126.4780000  21.0620000  14.7000000 124.5090000  21.8170000
  13.7330000 124.7600000  22.2260000  14.6300000 124.1530000  20.7510000
  15.0650000 123.3940000  22.7180000  13.8760000 122.4450000  22.7130000
  13.7100000 122.0850000  21.6730000  13.8550000 121.6800000  23.5440000
  12.9610000 122.9520000  23.0010000  16.3190000 122.6380000  22.4320000
  16.2450000 122.3540000  21.3690000  17.1100000 123.3740000  22.6090000
  16.2780000 121.8130000  23.1640000  15.1830000 123.8800000  24.0950000
  15.5110000 123.0030000  24.6560000  14.2140000 124.2110000  24.5630000
  15.9640000 124.6600000  24.1960000  17.3140000 127.6850000  20.4210000
  18.9590000 125.7380000  20.0730000  19.6230000 124.1550000  22.5660000
  20.4940000 123.6580000  21.6720000  21.7250000 123.7580000  21.8010000
  19.8450000 122.8170000  20.6220000  19.9570000 123.1820000  19.6310000
  18.7690000 122.8030000  20.8140000  20.3410000 121.3640000  20.6940000
  21.4630000 121.2890000  20.6570000  20.0200000 120.8140000  19.7920000
  19.7930000 120.6080000  21.9680000  18.7080000 120.4380000  21.8570000
  20.0780000 121.0430000  22.8780000  20.3940000 119.1280000  21.9590000
  21.4300000 119.1550000  21.9220000  19.9530000 118.5750000  21.0720000
  19.9300000 118.3120000  23.1730000  20.2800000 117.3260000  23.0660000
  18.8240000 118.2410000  23.2140000  20.5990000 118.7730000  24.4550000
  20.3170000 119.7530000  24.7310000  21.7120000 118.7480000  24.2820000
  20.2620000 117.8210000  25.5240000  20.4680000 116.8510000  25.0300000
  19.1660000 117.9050000  25.6030000  20.9680000 118.2220000  26.8120000
  21.9880000 118.6170000  26.6980000  20.5430000 118.0090000  28.0680000
  21.2340000 118.1540000  28.8980000  19.1470000 117.5610000  28.4800000
  19.1270000 116.5260000  28.3930000  18.3590000 117.8670000  27.7270000
  18.7230000 118.0040000  29.8700000  18.9980000 119.0610000  29.8090000
  19.3090000 117.5650000  30.6450000  17.2260000 117.8060000  30.1320000
  16.9530000 116.7590000  30.0120000  16.6840000 118.3900000  29.4400000
  16.7410000 118.2630000  31.4930000  17.2140000 119.2030000  31.8240000
  16.9600000 117.4910000  32.2900000  15.1720000 118.4460000  31.3700000
  14.6260000 117.8000000  30.6640000  15.0460000 119.4260000  31.0010000
  14.5420000 118.4910000  32.6510000  13.6440000 119.0960000  32.5920000
  15.1740000 119.0140000  33.3060000  14.2880000 117.1150000  33.2600000
  15.2990000 116.6740000  33.3820000  13.6780000 116.4560000  32.6810000
  13.8620000 117.1540000  34.7620000  12.8750000 117.6490000  34.9420000
  14.5740000 117.7280000  35.3260000  13.8760000 116.0910000  35.1620000
 148.0020000  29.8680000  35.6050000 147.0680000  30.3370000  36.0190000
 148.5390000  30.7430000  35.0350000 148.6770000  29.6280000  36.4150000
 147.7570000  28.6070000  34.8780000 147.6590000  27.8150000  35.6150000
 146.8430000  28.6030000  34.3260000 149.0730000  28.2560000  34.1190000
 149.2420000  28.9280000  33.2780000 149.9520000  28.4510000  34.7060000
 149.1930000  26.8570000  33.4980000 150.1590000  26.6530000  33.1330000
 149.1280000  26.0500000  34.2200000 148.0940000  26.7060000  32.4300000
 148.1580000  25.7210000  32.0890000 147.0090000  26.8020000  32.8390000
 148.2740000  27.6740000  31.2390000 148.1780000  28.7710000  31.5350000
 149.3100000  27.4570000  30.9560000 147.3500000  27.3060000  30.1230000
 147.4060000  26.2490000  30.1100000 146.3140000  27.5840000  30.3590000
 147.8720000  27.7400000  28.7760000 148.0710000  28.9010000  28.8220000
 148.7980000  27.2610000  28.7010000 147.0320000  27.3460000  27.5640000
 147.0910000  26.3100000  27.5750000 145.9400000  27.6650000  27.6890000
 147.5700000  27.8990000  26.2200000 148.5970000  27.5770000  26.2310000
 147.0740000  27.4190000  25.3250000 147.4410000  29.4310000  26.0180000
 147.9350000  29.8430000  26.9100000 147.9160000  29.7360000  25.1100000
 146.0110000  29.9430000  25.9320000 145.5110000  29.3990000  25.1660000
 145.4810000  29.8050000  26.8970000 145.9690000  31.4720000  25.5810000
 146.3650000  31.9520000  26.4400000 146.6770000  31.7040000  24.7460000
 144.5970000  32.0820000  25.3730000 143.8860000  31.5830000  26.0280000
 144.6830000  33.1890000  25.7230000 143.9870000  31.9730000  23.9380000
 143.8160000  30.8480000  23.6700000 142.9800000  32.3950000  23.9620000
 144.8190000  32.6870000  22.8310000 145.5980000  33.6180000  22.9720000
 144.5610000  32.1230000  21.6570000 145.2420000  32.6850000  20.4400000
 144.9240000  32.1750000  19.5680000 144.8520000  33.6110000  20.2920000
 146.7780000  32.6720000  20.4410000 147.1290000  33.4930000  21.1720000
 147.1840000  32.9940000  18.9820000 147.1830000  34.0610000  18.8920000
 148.1970000  32.8320000  18.8220000 146.3780000  32.4940000  17.9040000
 146.6920000  31.0990000  17.1490000 145.7620000  30.0640000  18.0110000
 146.3130000  29.0770000  18.8770000 146.3040000  28.1660000  18.3470000
 147.3140000  29.3740000  19.2330000 145.4070000  28.9450000  20.1410000
 145.7760000  28.0790000  20.7610000 145.4160000  29.9120000  20.7270000
 143.9590000  28.6180000  19.9710000 143.4370000  28.4010000  21.3810000
 144.0260000  27.6070000  21.8060000 143.5420000  29.2750000  21.8570000
 142.3360000  28.1180000  21.3980000 143.2040000  29.7250000  19.3330000
 143.3970000  29.7850000  18.2680000 142.1420000  29.4400000  19.4500000
 143.5250000  30.5910000  19.9230000 143.7660000  27.4260000  19.1270000
 144.4840000  26.6190000  19.4030000 143.8670000  27.7770000  18.1130000
 142.7780000  27.0140000  19.2720000 146.1470000  31.2270000  15.7840000
 148.1040000  30.7760000  17.2940000 147.2900000  31.3830000  20.9380000
 148.5930000  31.1760000  21.1750000 149.4660000  32.0410000  21.0450000
 148.8820000  29.7570000  21.5940000 149.3430000  29.1960000  20.7820000
 148.1330000  29.1220000  21.9960000 149.8240000  29.7260000  22.7360000
 149.6100000  28.8160000  23.3200000 149.5210000  30.4570000  23.4070000
 151.3290000  29.7980000  22.3400000 151.5240000  30.5550000  21.6060000
 151.6980000  28.8150000  22.0720000 152.1610000  30.3400000  23.5680000
 151.7650000  31.2140000  24.0380000 153.1460000  30.6200000  23.1930000
 152.4500000  29.3640000  24.7700000 152.9540000  28.4580000  24.3110000
 151.5480000  28.9220000  25.2770000 153.2400000  30.0190000  25.9530000
 154.0750000  30.6860000  25.6210000 153.7470000  29.1900000  26.5190000
 152.4290000  30.6840000  27.0690000 153.0240000  30.8670000  27.9160000
 151.7180000  29.9950000  27.4500000 151.7120000  31.9670000  26.6290000
 150.8120000  31.7740000  26.0410000 152.0920000  33.1800000  26.9490000
 151.4290000  33.9720000  26.6360000 153.1950000  33.6560000  27.8150000
 154.1240000  33.6150000  27.3150000 153.3930000  33.0430000  28.7120000
 152.7170000  35.0760000  28.2060000 152.4240000  35.5940000  27.3400000
 153.5980000  35.5770000  28.6000000 151.5580000  34.9530000  29.2590000
 151.9080000  34.4530000  30.1170000 150.8340000  34.2150000  28.8410000
 150.8840000  36.2820000  29.5160000 150.1450000  36.5390000  28.6810000
 151.6780000  36.9870000  29.4340000 150.0940000  36.2780000  30.8980000
 149.2400000  35.5270000  30.9830000 149.6040000  37.2500000  30.9880000
 151.1070000  36.0610000  32.1240000 152.0990000  36.6130000  32.0900000
 151.2750000  34.9860000  32.1040000 150.3030000  36.3290000  33.4230000
 149.8510000  37.3280000  33.3890000 151.0640000  36.4480000  34.2160000
 149.2830000  35.2170000  33.9370000 149.0920000  35.4050000  35.0210000
 149.7760000  34.2600000  33.7650000 148.3140000  35.2870000  33.5080000
  38.7230000  54.8010000  37.9190000  39.1410000  55.5960000  38.5580000
  39.4720000  53.9830000  37.9200000  37.7700000  54.3390000  38.2910000
  38.5110000  55.3990000  36.5060000  37.8470000  54.7280000  35.8550000
  37.9710000  56.3540000  36.5350000  39.8890000  55.6980000  35.8290000
  40.5890000  56.0490000  36.5610000  40.2070000  54.7820000  35.3170000
  39.9530000  56.7450000  34.7430000  39.4550000  56.4010000  33.8370000
  39.4590000  57.6910000  35.0780000  41.4090000  57.0660000  34.3930000
  41.8230000  57.5170000  35.2950000  41.9700000  56.0910000  34.1000000
  41.5140000  57.9850000  33.1790000  40.9390000  57.5620000  32.3860000
  41.1660000  58.9750000  33.3520000  43.0080000  57.9590000  32.6580000
  43.6020000  58.2180000  33.5500000  43.2860000  57.0670000  32.1790000
  43.3230000  58.9790000  31.5810000  42.6710000  58.6890000  30.7490000
  43.0550000  60.0060000  31.9040000  44.7990000  59.0280000  31.0680000
  45.4430000  59.5360000  31.8010000  45.1410000  57.9450000  30.9600000
  45.2380000  59.8150000  29.8080000  44.8420000  60.9020000  29.7520000
  46.2580000  59.9870000  29.8820000  44.9780000  59.0710000  28.5050000
  45.3040000  58.0700000  28.6110000  43.9130000  58.9920000  28.2370000
  45.6940000  59.5870000  27.2730000  46.7430000  59.7200000  27.5970000
  45.6020000  58.8540000  26.4510000  45.3510000  60.9810000  26.8870000
  45.9290000  61.7030000  27.3930000  45.6230000  61.0280000  25.8720000
  43.8390000  61.3550000  26.9930000  43.5140000  61.3510000  28.0490000
  43.7420000  62.4240000  26.7590000  42.9500000  60.5870000  26.0960000
  42.7670000  59.6030000  26.4330000  42.0780000  61.0400000  26.1690000
  43.3390000  60.5020000  24.6770000  43.5840000  61.4330000  23.9490000
  43.2070000  59.2860000  24.1920000  43.5340000  59.0220000  22.7880000
  43.3190000  57.9510000  22.7070000  42.8810000  59.6080000  22.0730000
  45.1110000  59.2750000  22.5130000  45.2940000  60.3310000  22.6390000
  45.3250000  59.0600000  21.0660000  45.3110000  58.0000000  20.8900000
  44.5390000  59.6080000  20.4280000  46.6010000  59.5260000  20.6670000
  46.9380000  60.4340000  19.3640000  46.8310000  59.3690000  18.1800000
  47.5180000  58.1210000  18.3040000  48.3470000  58.0390000  17.5460000
  47.9620000  58.1110000  19.2930000  46.5580000  56.9700000  17.9980000
  45.6640000  57.1230000  18.6100000  46.3800000  57.0590000  16.8940000
  47.0950000  55.6400000  18.2560000  47.2780000  55.2530000  19.7300000
  46.2460000  54.9770000  20.2150000  47.9880000  54.2900000  19.7850000
  47.8250000  56.0550000  20.2050000  46.1060000  54.6780000  17.6450000
  45.9980000  54.9270000  16.6120000  46.5630000  53.7250000  17.8010000
  45.1900000  54.8870000  18.1300000  48.2850000  55.3670000  17.5090000
  48.1610000  55.9230000  16.5970000  48.4260000  54.3210000  17.3380000
  49.1430000  55.7000000  18.0630000  45.7490000  61.2860000  19.2120000
  48.2800000  60.9820000  19.5420000  45.9470000  58.3700000  23.2900000
  47.0530000  58.8750000  23.8700000  47.0920000  60.0910000  24.0630000
  48.0200000  57.8520000  24.3620000  48.0550000  57.0270000  23.6000000
  47.6590000  57.4600000  25.3270000  49.3590000  58.5570000  24.5070000
  49.1940000  59.4260000  25.1750000  49.7410000  58.8730000  23.5360000
  50.4120000  57.6830000  25.2780000  50.7080000  56.8300000  24.6770000
  49.9040000  57.4420000  26.1440000  51.7060000  58.4650000  25.5980000
  52.1150000  58.9820000  24.7070000  52.4850000  57.7490000  25.9110000
  51.6390000  59.5280000  26.7840000  51.1820000  58.9830000  27.6880000
  50.9810000  60.3270000  26.4420000  52.9170000  60.1960000  27.1280000
  53.2160000  60.8170000  26.2430000  53.7030000  59.4300000  27.1470000
  52.8670000  60.9750000  28.4920000  53.9060000  61.3820000  28.6880000
  52.8090000  60.2450000  29.3010000  51.8430000  62.0670000  28.5490000
  51.9920000  62.8930000  27.8510000  50.7250000  62.0980000  29.2160000
  50.2270000  63.0730000  29.1930000  50.3380000  61.0190000  30.1780000
  51.1940000  60.6920000  30.7430000  50.0410000  60.0840000  29.6100000
  49.1580000  61.3190000  31.1170000  48.3780000  61.7000000  30.4830000
  49.4210000  62.1240000  31.8390000  48.6750000  60.1110000  31.8410000
  48.6320000  59.2550000  31.1970000  47.6370000  60.3020000  32.1850000
  49.5600000  59.6730000  33.0390000  49.5130000  60.4210000  33.8950000
  50.6130000  59.5700000  32.6940000  49.1010000  58.3300000  33.6610000
  49.1510000  57.5440000  32.9240000  48.0500000  58.3710000  33.9160000
  49.9210000  57.8490000  34.8510000  49.7230000  58.5550000  35.6920000
  51.0040000  57.8770000  34.6740000  49.6870000  56.3220000  35.1980000
  50.4160000  56.0460000  36.0280000  50.1110000  55.6000000  34.4650000
  48.1570000  56.0030000  35.5730000  47.9750000  56.5620000  36.5120000
  47.9110000  54.9690000  35.8960000  47.5410000  56.3460000  34.7960000
 120.8540000 130.3180000  30.5520000 119.8670000 130.3070000  30.1710000
 121.4540000 130.0940000  29.6820000 121.2300000 131.3420000  30.7890000
 120.9780000 129.1420000  31.5580000 120.3630000 129.2890000  32.4130000
 120.6540000 128.3170000  30.9730000 122.4500000 128.9190000  32.0280000
 122.9670000 129.2280000  31.1140000 122.6280000 129.6400000  32.8180000
 122.7950000 127.4900000  32.5960000 122.4440000 127.4610000  33.6290000
 122.3450000 126.7300000  31.9680000 124.3120000 127.1320000  32.6070000
 124.6270000 127.1170000  31.5400000 124.9000000 127.8800000  33.1490000
 124.6960000 125.7970000  33.0880000 124.6170000 125.7810000  34.1790000
 123.8870000 125.0980000  32.6700000 126.1220000 125.2250000  32.6450000
 126.8450000 125.8000000  33.1910000 126.1900000 124.3100000  33.2640000
 126.2760000 125.0640000  31.1130000 126.0070000 125.9620000  30.5530000
 127.3080000 124.9010000  30.9360000 125.4970000 123.8310000  30.6180000
 125.9680000 123.0090000  31.1160000 124.5100000 123.8900000  31.0230000
 125.4850000 123.5480000  29.1100000 126.4860000 123.2530000  28.7810000
 124.9430000 122.6440000  28.9450000 125.0210000 124.6720000  28.1860000
 125.8360000 125.3660000  28.0460000 124.7880000 124.1450000  27.1740000
 123.6950000 125.2870000  28.5660000 122.9160000 124.5350000  28.6340000
 123.7980000 125.6290000  29.6120000 123.2460000 126.4840000  27.7290000
 124.1060000 127.1380000  27.5740000 122.9830000 126.0180000  26.8290000
 122.1460000 127.3010000  28.3590000 122.2910000 127.1870000  29.4570000
 122.3200000 128.3350000  28.1560000 120.6650000 126.9430000  28.1250000
 120.4490000 125.8720000  28.1070000 120.1210000 127.3960000  28.9770000
 120.0190000 127.5620000  26.8760000 119.4840000 128.6530000  26.9150000
 120.2850000 126.9830000  25.6800000 120.2780000 127.7900000  24.5180000
 120.0950000 127.0680000  23.7440000 119.4660000 128.4730000  24.4710000
 121.6130000 128.5800000  24.2830000 121.4740000 129.2220000  23.4380000
 122.8240000 127.5890000  24.0140000 123.7150000 128.1390000  23.9990000
 122.8950000 127.0330000  24.9600000 122.6460000 126.6930000  22.8860000
 122.5460000 127.3370000  21.4410000 122.4410000 126.0030000  20.5280000
 123.6090000 125.1950000  20.0340000 124.1780000 125.7650000  19.2450000
 124.2330000 124.8740000  20.8790000 123.0700000 123.8940000  19.4210000
 123.9280000 123.1170000  19.5310000 122.1970000 123.5510000  19.9580000
 122.5200000 124.0290000  18.0190000 121.9760000 122.6720000  17.7640000
 122.8010000 121.9620000  17.8610000 121.1590000 122.3860000  18.4660000
 121.6410000 122.5000000  16.7640000 121.4300000 125.0160000  17.8520000
 121.5490000 125.8920000  18.3250000 121.2310000 125.0390000  16.7770000
 120.5300000 124.5180000  18.2400000 123.6610000 124.1750000  17.0020000
 123.2750000 124.2210000  16.0030000 124.2760000 123.2720000  17.1580000
 124.1510000 125.0870000  17.2860000 121.2840000 128.1690000  21.3760000
 123.8300000 127.9850000  21.1250000 122.0830000 129.4430000  25.4090000
 121.7500000 130.7280000  25.3750000 121.0880000 131.2430000  24.4670000
 122.0430000 131.4910000  26.5820000 122.9590000 131.2060000  27.0710000
 121.3950000 131.2280000  27.4030000 121.9490000 133.0510000  26.2940000
 120.9990000 133.5100000  26.0000000 122.6300000 133.2170000  25.4690000
 122.5330000 133.8270000  27.5740000 121.9840000 133.4810000  28.4520000
 122.1510000 134.8730000  27.4800000 124.1110000 133.9250000  27.6220000
 124.4610000 134.2420000  26.6380000 124.5540000 133.0530000  27.8370000
 124.5510000 134.9150000  28.7130000 124.3360000 135.8930000  28.3570000
 125.6210000 134.9360000  28.7810000 124.0000000 134.7650000  30.1680000
 122.9560000 134.5910000  30.2740000 124.1210000 135.7080000  30.6770000
 124.8700000 133.7760000  30.9500000 125.8890000 134.1530000  30.9240000
 124.8750000 132.8530000  30.4240000 124.3770000 133.5910000  32.3980000
 123.2720000 133.7660000  32.5180000 125.2250000 133.3280000  33.4160000
 124.7890000 133.2040000  34.3650000 126.6790000 133.0660000  33.3580000
 127.2110000 133.8960000  33.7700000 127.0590000 132.7900000  32.3340000
 127.0270000 131.7610000  34.0740000 126.6190000 130.9610000  33.5760000
 126.6730000 131.8930000  35.1040000 128.5790000 131.5890000  34.1990000
 129.0830000 132.5060000  34.3230000 128.9550000 131.0980000  33.2960000
 128.9620000 130.7940000  35.4560000 128.8920000 131.3500000  36.3990000
 129.9990000 130.4340000  35.3610000 128.1060000 129.5000000  35.5660000
 128.1300000 128.9310000  34.6180000 127.0290000 129.7560000  35.5970000
 128.4270000 128.4560000  36.6720000 128.0970000 128.7160000  37.6920000
 129.4890000 128.2450000  36.6120000 127.5810000 127.1440000  36.4110000
 126.5340000 127.3880000  36.1220000 127.5620000 126.4320000  37.3270000
 128.3340000 126.3540000  35.3700000 129.2680000 125.9880000  35.8520000
 128.7080000 126.9730000  34.4930000 127.6560000 125.5910000  35.0160000
  26.0930000 119.2470000  33.8600000  26.6400000 118.3620000  33.7310000
  25.2390000 119.2840000  34.5210000  26.7320000 120.0620000  34.2430000
  25.4580000 119.6460000  32.4750000  24.8800000 120.6050000  32.5480000
  26.2940000 119.9030000  31.7590000  24.5410000 118.6650000  31.7730000
  25.1170000 117.8580000  31.3680000  23.9280000 118.2410000  32.5960000
  23.6330000 119.1640000  30.6690000  22.8620000 118.3580000  30.4670000
  23.0340000 119.9680000  31.0590000  24.4480000 119.4560000  29.3500000
  24.0200000 120.2860000  28.7970000  25.4310000 119.7650000  29.6790000
  24.5940000 118.1700000  28.5200000  25.0310000 117.2970000  29.0270000
  23.7310000 117.7990000  27.9480000  25.4810000 118.4630000  27.2850000
  24.9050000 119.2590000  26.7170000  26.5230000 118.7350000  27.6110000
  25.5940000 117.2780000  26.3480000  26.4570000 117.3950000  25.7360000
  25.7660000 116.4230000  27.0350000  24.4340000 116.9080000  25.4640000
  23.6470000 116.3660000  26.0870000  24.0440000 117.7580000  24.8580000
  24.8060000 115.8970000  24.4680000  25.5330000 116.3140000  23.6760000
  25.2120000 115.0180000  24.9170000  23.5920000 115.4060000  23.6480000
  22.9170000 114.8130000  24.2780000  23.0190000 116.2620000  23.3060000
  23.9550000 114.6200000  22.3860000  23.0470000 114.2200000  22.0320000
  24.2200000 115.3620000  21.5900000  24.9820000 113.4720000  22.6260000
  25.9440000 113.8180000  23.0360000  24.5160000 112.7840000  23.3040000
  25.1430000 112.6710000  21.2520000  24.9390000 111.6210000  21.4910000
  24.3740000 113.0300000  20.4920000  26.5290000 112.6820000  20.6120000
  27.2490000 112.2520000  21.3010000  26.4200000 111.9690000  19.7280000
  27.0640000 114.0570000  20.2270000  27.6970000 114.7540000  20.9780000
  26.6880000 114.5260000  18.9890000  27.2680000 115.8110000  18.4420000
  28.2000000 115.9400000  18.9450000  27.4150000 115.6250000  17.3870000
  26.3810000 117.0550000  18.5790000  25.3690000 116.7650000  18.2720000
  26.8770000 118.3630000  17.8000000  26.7010000 118.3230000  16.6860000
  26.2020000 119.1490000  18.1850000  28.2850000 118.7680000  18.0400000
  28.6450000 119.6200000  19.2980000  29.1700000 118.5460000  20.2730000
  30.5180000 118.0650000  20.1040000  30.3540000 117.1380000  19.6170000
  31.1130000 118.7520000  19.5110000  31.1450000 117.8280000  21.4930000
  32.1250000 117.4660000  21.3600000  30.9890000 118.8090000  21.9380000
  30.5640000 116.7140000  22.3070000  31.3180000 116.7680000  23.6100000
  31.3380000 117.8420000  23.9950000  30.7450000 116.0680000  24.2950000
  32.2520000 116.2920000  23.3640000  29.1430000 116.9080000  22.6020000
  28.5080000 117.0530000  21.6730000  28.8260000 115.9810000  23.1470000
  29.1620000 117.7150000  23.3920000  30.7060000 115.4050000  21.6360000
  30.3160000 114.6290000  22.2410000  31.7750000 115.2520000  21.4110000
  30.0620000 115.5170000  20.7250000  29.7820000 120.4660000  19.0070000
  27.4430000 120.2980000  19.8640000  26.3380000 117.4700000  19.9940000
  25.2180000 118.2100000  20.3390000  24.3960000 118.5760000  19.4960000
  25.2090000 118.5340000  21.8140000  26.1280000 118.2660000  22.3570000
  24.3280000 118.0090000  22.2520000  25.0550000 119.9790000  22.0540000
  24.1720000 120.3730000  21.5590000  25.8830000 120.5470000  21.6230000
  24.9440000 120.4550000  23.4860000  25.8680000 121.0070000  23.6760000
  24.6460000 119.6440000  24.2120000  23.9220000 121.5010000  23.7600000
  23.0130000 120.9960000  23.3310000  24.1810000 122.4540000  23.2200000
  23.5690000 121.8090000  25.2640000  23.2930000 120.8390000  25.7030000
  22.7610000 122.5010000  25.2090000  24.7270000 122.5220000  25.9600000
  25.0400000 123.4100000  25.4420000  25.5780000 121.8720000  25.8970000
  24.6210000 122.9010000  27.4480000  25.4200000 123.6110000  27.5270000
  24.7620000 121.9230000  27.9540000  23.2700000 123.5540000  27.7870000
  22.4970000 123.5570000  27.0160000  22.9880000 124.0790000  28.9870000
  21.9870000 124.5220000  29.0880000  23.8440000 123.7920000  30.2480000
  24.3610000 122.8400000  30.0930000  23.2300000 123.7290000  31.1280000
  24.9260000 124.8500000  30.5580000  24.3830000 125.8530000  30.6220000
  25.5920000 124.9830000  29.6840000  25.7600000 124.7510000  31.7930000
  25.1250000 124.5950000  32.6660000  26.3880000 125.6240000  31.9600000
  26.6750000 123.5200000  31.7820000  27.4840000 123.6590000  31.0680000
  26.0550000 122.6350000  31.5460000  27.4720000 123.3100000  33.0860000
  26.7970000 123.3270000  33.9490000  28.1830000 124.1410000  33.1990000
  28.3990000 122.0630000  33.0540000  29.1080000 122.1660000  32.2700000
  27.7990000 121.2060000  32.8600000  29.1100000 121.8630000  34.4210000
  28.3900000 121.7150000  35.2410000  29.5630000 122.7830000  34.6220000
  30.1010000 120.6970000  34.1880000  30.7870000 120.6500000  35.0430000
  30.6510000 120.9090000  33.2510000  29.5150000 119.7510000  34.1670000
 112.1850000  19.8530000  30.9310000 111.8180000  20.8370000  30.9850000
 113.0200000  19.7550000  31.7090000 111.4210000  19.1420000  31.2180000
 112.6730000  19.7880000  29.4840000 111.8010000  19.6380000  28.7720000
 113.2530000  20.6230000  29.1340000 113.6330000  18.5250000  29.3320000
 114.5090000  18.6450000  30.1000000 113.0770000  17.6290000  29.6180000
 114.2490000  18.2680000  27.9110000 113.4940000  18.1390000  27.0600000
 114.7790000  19.1850000  27.6480000 115.1740000  17.0160000  27.7850000
 115.9640000  17.2540000  28.4660000 114.7480000  16.0890000  28.1270000
 115.8440000  16.8830000  26.4320000 116.4520000  15.9800000  26.3610000
 114.9300000  16.7120000  25.8580000 116.5520000  18.1160000  25.8400000
 115.8240000  18.8600000  25.6420000 117.3040000  18.4980000  26.5290000
 117.3300000  17.7760000  24.4870000 117.9220000  16.9780000  24.7740000
 116.5210000  17.4740000  23.7800000 118.2700000  18.8450000  23.8290000
 119.0860000  19.0890000  24.5190000 118.6810000  18.3380000  22.8090000
 117.4110000  20.0590000  23.4850000 116.6700000  19.5880000  22.8670000
 116.9270000  20.5030000  24.3120000 118.1560000  21.1210000  22.6440000
 119.0430000  21.4430000  23.1610000 118.5150000  20.7770000  21.6680000
 117.3100000  22.3500000  22.4200000 116.5250000  22.1840000  21.7200000
 116.8200000  22.6680000  23.3830000 118.1600000  23.4870000  21.8180000
 118.9490000  23.8300000  22.4270000 118.7050000  23.1330000  20.9030000
 117.1820000  24.6170000  21.3580000 116.2830000  24.7390000  22.0270000
 117.5970000  25.6330000  21.4810000 116.7160000  24.3440000  19.9650000
 116.5640000  23.2840000  19.8500000 115.7110000  24.7690000  19.7420000
 117.7450000  24.9710000  18.9680000 117.9320000  26.1560000  18.8460000
 118.2820000  24.0780000  18.1400000 119.3380000  24.5980000  17.2210000
 119.5720000  23.7060000  16.6030000 118.9010000  25.4170000  16.6500000
 120.6060000  25.0360000  18.0250000 120.2520000  25.7270000  18.7830000
 121.8320000  25.4470000  17.1840000 121.5820000  26.3600000  16.6910000
 122.6480000  25.6350000  17.8850000 122.1720000  24.3730000  16.2180000
 121.8090000  24.4050000  14.6650000 120.6260000  23.3160000  14.3360000
 120.8690000  22.1870000  13.4600000 119.9250000  21.7060000  13.4010000
 121.2060000  22.4190000  12.4300000 121.8400000  21.1230000  14.2360000
 122.1010000  20.2430000  13.6210000 122.7720000  21.5380000  14.5600000
 121.3110000  20.5160000  15.4460000 121.1580000  21.4260000  16.5800000
 122.0470000  22.0130000  16.6730000 120.3390000  22.0610000  16.3790000
 120.8750000  20.8300000  17.4750000 120.0100000  19.9000000  15.1750000
 119.3340000  20.6150000  14.7230000 120.2090000  19.0680000  14.4960000
 119.5260000  19.5570000  16.0160000 122.3170000  19.4710000  15.8220000
 121.9110000  18.9770000  16.6640000 123.2330000  19.9270000  16.2210000
 122.5270000  18.7700000  14.9570000 121.1820000  25.6990000  14.3680000
 122.9570000  23.8660000  13.8920000 121.0000000  23.7620000  18.5610000
 121.6080000  23.6210000  19.7280000 121.8430000  24.5260000  20.4950000
 122.0960000  22.2220000  20.0150000 121.3410000  21.4400000  19.7140000
 122.2500000  22.2540000  21.0820000 123.3830000  21.9800000  19.1810000
 124.0050000  22.7110000  19.6070000 123.0400000  22.3270000  18.1670000
 123.9240000  20.5280000  19.0870000 124.5750000  20.5490000  18.2080000
 123.1490000  19.8140000  18.9900000 124.6190000  20.2250000  20.3950000
 124.0260000  20.4290000  21.2660000 125.4950000  20.7580000  20.4390000
 125.1930000  18.7730000  20.4130000 125.8210000  18.6690000  21.2990000
 125.8430000  18.6390000  19.5160000 124.1230000  17.6090000  20.4140000
 124.5750000  16.6950000  20.3160000 123.3380000  17.6430000  19.6700000
 123.2170000  17.4550000  21.6560000 123.8150000  17.6770000  22.5530000
 122.9830000  16.4270000  21.6430000 122.0280000  18.3690000  21.5740000
 121.4680000  18.2970000  20.5860000 121.6420000  19.2630000  22.4550000
 120.7090000  19.7950000  22.3240000 122.4170000  19.5160000  23.7510000
 123.5040000  19.3940000  23.6840000 121.9820000  18.8440000  24.4650000
 122.2490000  20.9450000  24.1600000 121.2270000  21.0720000  24.3030000
 122.5860000  21.5970000  23.3100000 123.0370000  21.2280000  25.4440000
 123.4950000  22.2890000  25.3610000 123.9290000  20.5710000  25.4350000
 122.1500000  21.1450000  26.6660000 121.6830000  20.1630000  26.6500000
 121.3840000  21.9380000  26.4760000 122.8090000  21.5070000  28.0630000
 123.1740000  22.5260000  27.8720000 123.6690000  20.8580000  28.1330000
 121.8000000  21.6330000  29.1920000 121.2430000  20.7060000  29.1300000
 121.0620000  22.4730000  28.8870000 122.2950000  21.8850000  30.6610000
 122.8030000  20.9680000  30.9800000 121.4090000  21.8980000  31.3140000
 123.1050000  23.1740000  30.8400000 123.6000000  23.1710000  31.8270000
 122.4090000  24.0520000  30.7640000 123.7770000  23.2880000  30.0230000
  67.4380000 120.4120000  33.1770000  67.1030000 120.1850000  34.1960000
  66.6580000 121.0160000  32.8020000  68.1970000 121.2120000  33.2880000
  67.7770000 119.2210000  32.2840000  68.7160000 118.7750000  32.6200000
  67.0020000 118.4130000  32.4340000  67.9940000 119.6400000  30.7890000
  67.0960000 120.0460000  30.3490000  68.7270000 120.4370000  30.7660000
  68.4520000 118.4410000  29.8850000  69.4070000 118.1090000  30.1360000
  67.8030000 117.5790000  29.9980000  68.5170000 118.8700000  28.3990000
  68.8340000 120.0080000  28.2970000  69.2730000 118.3450000  27.7860000
  67.1540000 118.8220000  27.6180000  66.8730000 117.7630000  27.6490000
  66.3500000 119.3970000  28.0700000  67.1730000 119.1920000  26.1250000
  67.8340000 118.4690000  25.5870000  66.1770000 119.0260000  25.6490000
  67.6680000 120.5900000  25.7990000  67.0360000 121.3340000  26.2580000
  68.6620000 120.7400000  26.2430000  67.9060000 120.7560000  24.2720000
  68.3270000 119.8210000  23.8860000  66.9680000 120.8300000  23.6780000
  68.7030000 122.0480000  23.9030000  69.6880000 121.8450000  24.3340000
  68.7570000 122.0890000  22.8350000  68.0730000 123.2940000  24.4750000
  68.0170000 123.2140000  25.5620000  68.6280000 124.2140000  24.2550000
  66.5450000 123.4890000  24.0240000  66.3770000 123.1570000  23.0190000
  65.9920000 122.8520000  24.6010000  66.1100000 124.9800000  24.1750000
  66.1290000 125.2240000  25.2560000  66.7930000 125.6300000  23.6470000
  64.7370000 125.2460000  23.5230000  63.9730000 124.6760000  24.0040000
  64.4590000 126.3170000  23.7130000  64.6650000 125.0870000  21.9990000
  64.9910000 124.1000000  21.6940000  63.6810000 125.3540000  21.6000000
  65.5790000 126.0580000  21.3020000  65.6320000 127.2650000  21.4930000
  66.3770000 125.4660000  20.3800000  67.5320000 126.1600000  19.8130000
  67.5310000 125.8070000  18.7520000  67.3560000 127.2690000  19.8050000
  68.9250000 125.9160000  20.6000000  69.8570000 126.3480000  20.1670000
  69.2220000 124.4240000  20.6630000  69.9270000 124.2150000  21.4790000
  68.3610000 123.7940000  20.8100000  69.9290000 123.9930000  19.4550000
  70.6830000 122.6410000  19.3730000  72.2120000 123.0760000  19.5840000
  72.7910000 124.2730000  19.0370000  72.1640000 124.7690000  18.2360000
  72.8400000 125.0670000  19.8000000  74.2210000 123.9340000  18.5040000
  74.5890000 124.8140000  18.0050000  74.9020000 123.6850000  19.3420000
  74.3700000 122.8790000  17.3900000  74.1920000 121.5180000  17.8400000
  73.1050000 121.2970000  18.2050000  74.3220000 120.9200000  16.8850000
  74.9590000 121.1770000  18.5920000  73.4190000 123.3340000  16.3510000
  73.4200000 124.3340000  16.2210000  73.6900000 122.8420000  15.3920000
  72.4620000 123.0700000  16.7610000  75.6790000 123.0470000  16.6950000
  76.4800000 122.7830000  17.4900000  75.8520000 124.1190000  16.4080000
  75.7490000 122.3460000  15.8310000  70.2550000 121.7850000  20.4800000
  70.4800000 122.1460000  18.0060000  68.8740000 126.2890000  22.0040000
  68.8540000 127.5830000  22.3770000  68.9950000 128.4910000  21.5840000
  68.5930000 127.7870000  23.8720000  68.8490000 126.9130000  24.4650000
  67.5420000 127.9870000  24.0160000  69.5030000 128.9460000  24.3810000
  69.2630000 129.8890000  23.8650000  70.5110000 128.6700000  23.9770000
  69.4740000 128.9730000  25.9320000  70.1830000 129.7370000  26.2280000
  69.7650000 128.0350000  26.3810000  68.1950000 129.3930000  26.5740000
  67.3640000 128.6800000  26.4210000  68.0530000 130.4340000  26.2670000
  68.2230000 129.5140000  28.1300000  68.5190000 128.5450000  28.4810000
  67.2710000 129.6630000  28.5700000  69.1470000 130.5590000  28.6090000
  68.5170000 131.4100000  28.5900000  69.9640000 130.8280000  27.9660000
  69.6380000 130.2560000  30.0190000  70.1060000 129.2730000  30.0390000
  68.7350000 130.3360000  30.6170000  70.6880000 131.2570000  30.5520000
  71.3960000 131.5300000  29.7610000  70.7760000 131.7250000  31.8130000
  71.5750000 132.3900000  32.1370000  69.8850000 131.3590000  32.9760000
  68.8070000 131.4330000  32.6360000  70.0740000 132.1000000  33.7980000
  70.3390000 130.0510000  33.6090000  71.1780000 130.1450000  34.2570000
  70.6200000 129.4310000  32.7780000  69.2950000 129.3490000  34.5820000
  68.8650000 129.9930000  35.3780000  69.6850000 128.3940000  34.9010000
  68.0610000 129.0070000  33.7380000  68.3360000 129.0280000  32.7000000
  67.3430000 129.8380000  33.9110000  67.2340000 127.7150000  33.9870000
  67.0190000 127.6360000  35.0240000  67.6490000 126.8280000  33.6030000
  65.7940000 127.9500000  33.4170000  65.3950000 128.7700000  33.9410000
  65.1190000 127.0910000  33.6220000  65.8290000 128.2210000  31.8680000
  66.4470000 127.3910000  31.3770000  66.4500000 129.1230000  31.6690000
  64.4970000 128.2710000  31.1970000  64.0690000 127.2740000  31.1800000
  64.5710000 128.6880000  30.1730000  63.8320000 128.8910000  31.7250000
  45.6300000  60.4030000  35.4370000  46.4330000  59.9460000  34.8130000
  44.9470000  59.7000000  35.9320000  46.2110000  60.8200000  36.2240000
  44.7720000  61.3150000  34.6830000  43.9660000  60.7360000  34.2530000
  44.2340000  61.9850000  35.4010000  45.3870000  62.1680000  33.6340000
  46.2500000  62.7840000  34.0190000  45.9510000  61.5460000  32.9800000
  44.3890000  63.1260000  32.9840000  43.4060000  63.2240000  33.5570000
  44.8000000  64.1910000  32.9540000  43.9430000  62.8650000  31.5770000
  44.7720000  63.0860000  30.8930000  43.5990000  61.8560000  31.4070000
  42.8940000  63.8370000  31.0400000  43.1400000  64.8180000  31.2400000
  42.7910000  63.6970000  29.9950000  41.4300000  63.6740000  31.4860000
  41.4550000  63.5580000  32.6110000  40.8670000  64.5410000  31.1040000
  40.6860000  62.3980000  31.0240000  41.0480000  61.5740000  31.6160000
  39.6210000  62.5700000  31.2880000  40.8160000  62.0190000  29.5250000
  40.7430000  62.9180000  28.9370000  41.9080000  61.8280000  29.3920000
  39.8080000  61.0130000  28.9610000  38.8420000  61.3810000  29.2450000
  39.9270000  61.0080000  27.9060000  40.0540000  59.5940000  29.5590000
  41.0760000  59.2560000  29.3710000  39.9390000  59.6630000  30.6860000
  39.1230000  58.5420000  29.0190000  38.1110000  59.0150000  29.0510000
  39.3590000  58.3390000  27.9820000  39.0900000  57.1250000  29.7640000
  38.9850000  57.2520000  30.8560000  38.1600000  56.5490000  29.6120000
  40.1880000  56.1530000  29.3650000  41.1060000  56.6910000  29.5580000
  40.2450000  55.4000000  30.1710000  40.1710000  55.5510000  27.8890000
  40.7160000  54.5610000  27.8790000  39.1130000  55.2420000  27.7430000
  40.8270000  56.3690000  26.7750000  41.6500000  57.2670000  27.0460000
  40.6100000  55.8130000  25.5630000  40.9070000  56.5930000  24.3720000
  41.7660000  57.2990000  24.5850000  41.3220000  55.9790000  23.6020000
  39.6990000  57.3740000  23.8940000  38.8860000  56.6800000  23.6140000
  40.0660000  58.1750000  22.6110000  40.9880000  58.7170000  22.7880000
  40.2650000  57.5410000  21.7630000  38.9860000  59.0680000  22.2580000
  39.0080000  59.9690000  20.9700000  40.4870000  60.5600000  20.9400000
  40.9470000  61.5620000  21.8500000  40.1410000  62.3310000  21.8440000
  40.9520000  61.2070000  22.8290000  42.2380000  62.2240000  21.3590000
  42.4630000  63.0510000  22.0440000  43.0540000  61.5300000  21.4790000
  42.2340000  62.8380000  19.9750000  43.4880000  63.7220000  19.8550000
  43.6250000  63.9040000  18.8050000  43.2500000  64.6640000  20.4000000
  44.3710000  63.1970000  20.3030000  42.4100000  61.7530000  18.9030000
  43.4650000  61.5140000  19.0040000  41.8650000  60.8360000  19.1260000
  42.2260000  62.1960000  17.8880000  41.0120000  63.6530000  19.8510000
  40.2010000  62.9570000  19.9800000  41.0000000  64.1520000  18.8920000
  41.0510000  64.4220000  20.6420000  38.7470000  59.1640000  19.8020000
  38.0950000  61.1400000  21.2330000  39.2830000  58.3650000  24.8330000
  37.9640000  58.6320000  24.9170000  37.1550000  57.7800000  24.5990000
  37.6390000  59.6940000  26.0020000  38.4640000  60.4280000  26.1700000
  37.4450000  59.0370000  26.8810000  36.3770000  60.5420000  25.7760000
  35.4630000  59.9930000  25.4800000  36.5260000  61.1600000  24.8750000
  36.1530000  61.5860000  26.9240000  35.2720000  62.1200000  26.6560000
  37.0140000  62.2130000  27.0130000  35.9680000  60.8480000  28.2020000
  36.8970000  60.5140000  28.5830000  35.3140000  59.9960000  28.0270000
  35.3870000  61.6990000  29.3280000  34.4030000  62.0370000  29.1580000
  36.0050000  62.5590000  29.4650000  35.4920000  60.9620000  30.6870000
  36.5880000  60.7490000  30.8130000  34.9270000  60.0610000  30.5670000
  34.9310000  61.7770000  31.8660000  33.8540000  61.9180000  31.6170000
  35.3590000  62.7310000  31.9160000  34.8880000  60.9320000  33.1440000
  33.8710000  60.5800000  33.4350000  35.9660000  60.5500000  33.7490000
  35.8180000  59.9190000  34.6790000  37.3440000  61.0610000  33.4100000
  37.3800000  62.0460000  32.8330000  37.9100000  60.3280000  32.7820000
  38.1180000  61.4070000  34.6810000  38.2320000  60.5180000  35.3280000
  37.7300000  62.1820000  35.2970000  39.6040000  61.7130000  34.2320000
  39.7260000  62.5440000  33.5060000  40.0220000  60.8860000  33.6540000
  40.5450000  62.2040000  35.3900000  41.6230000  62.0900000  35.1200000
  40.2910000  61.6270000  36.2850000  40.3110000  63.7040000  35.7910000
  39.2130000  63.8510000  35.8090000  40.7310000  64.3010000  35.0560000
  40.7770000  64.1330000  37.1470000  40.5800000  63.4530000  37.9080000
  40.1560000  64.9900000  37.4780000  42.2490000  64.4830000  37.0880000
  42.4620000  65.1850000  36.2840000  42.6690000  63.4910000  36.8040000
  42.8090000  64.9840000  38.3960000  42.3850000  64.3590000  39.2310000
  42.5030000  66.0580000  38.5190000  43.8740000  64.9120000  38.4240000
  95.6150000 132.3480000  34.0380000  94.8600000 133.1340000  34.0910000
  96.5020000 132.5230000  34.6860000  95.1100000 131.4960000  34.4500000
  95.9390000 131.9590000  32.4870000  96.7760000 131.2350000  32.3110000
  95.0480000 131.5490000  31.9980000  96.4180000 133.2770000  31.8010000
  95.6510000 134.0950000  31.9720000  97.3730000 133.4630000  32.3020000
  96.7830000 133.1110000  30.2870000  97.7860000 133.6000000  30.0510000
  96.8270000 132.0430000  30.1090000  95.7410000 133.7560000  29.4370000
  94.7220000 133.3440000  29.5240000  95.6040000 134.8730000  29.6050000
  96.1170000 133.6810000  27.9340000  97.0100000 134.3000000  27.8530000
  96.3040000 132.6320000  27.6580000  95.1400000 134.3260000  27.0050000
  94.6700000 135.1860000  27.5260000  95.7540000 134.7120000  26.1950000
  94.0760000 133.2830000  26.5610000  93.8870000 132.5360000  27.3460000
  93.1060000 133.7330000  26.4310000  94.4890000 132.5270000  25.3040000
  94.2810000 133.1780000  24.4280000  95.5660000 132.4320000  25.3280000
  93.7430000 131.2590000  24.9870000  92.7020000 131.4540000  25.2260000
  93.7130000 131.1630000  23.9010000  94.2020000 129.9840000  25.7420000
  93.8820000 130.0460000  26.8180000  93.7090000 129.1240000  25.3600000
  95.7180000 129.7880000  25.8000000  96.1250000 129.9760000  24.8170000
  96.2800000 130.5930000  26.2100000  96.1920000 128.3950000  26.3550000
  95.9580000 128.3820000  27.4220000  95.6950000 127.5410000  25.9000000
  97.6570000 128.1010000  26.1770000  98.1820000 128.8420000  26.8080000
  97.8870000 127.0660000  26.5090000  98.1070000 128.1690000  24.6860000
  98.0440000 129.2000000  24.2880000  99.1410000 127.8390000  24.6490000
  97.3720000 127.2160000  23.8340000  97.5760000 126.0150000  23.8360000
  96.3880000 127.7160000  23.0000000  95.7380000 126.7990000  22.0240000
  95.3400000 127.3910000  21.2220000  96.5070000 126.1710000  21.6510000
  94.5960000 126.0050000  22.7280000  94.9190000 125.8750000  23.7730000
  94.5120000 124.6070000  22.1630000  95.5270000 124.2460000  21.9510000
  94.0690000 124.0350000  22.8930000  93.6640000 124.5730000  21.0120000
  94.2060000 124.4870000  19.5270000  92.9220000 124.7820000  18.7110000
  91.8860000 123.8160000  18.5220000  91.3770000 124.0180000  17.5830000
  92.4040000 122.7530000  18.4240000  90.9180000 123.8390000  19.7720000
  90.1360000 123.0990000  19.6550000  91.5250000 123.7840000  20.6970000
  90.1120000 125.1330000  20.0030000  89.4040000 124.9960000  21.2800000
  88.6900000 125.8410000  21.3360000  88.9380000 123.9940000  21.2190000
  90.1100000 125.0920000  22.1330000  90.9980000 126.3640000  19.9860000
  91.4520000 126.4100000  19.0350000  90.3810000 127.2170000  20.1400000
  91.8270000 126.2480000  20.6380000  89.1280000 125.3180000  18.9310000
  88.2960000 124.5950000  19.0300000  89.6020000 125.2100000  17.9950000
  88.7880000 126.3900000  19.0360000  95.2200000 125.5050000  19.3380000
  94.4960000 123.0340000  19.3430000  93.2560000 126.6820000  22.6280000
  92.6480000 126.8620000  23.8130000  92.8440000 126.2750000  24.8840000
  91.5670000 127.9540000  23.7120000  90.9040000 127.6940000  22.8930000
  92.0850000 128.9340000  23.5810000  90.7230000 128.0570000  25.0180000
  91.4230000 128.5360000  25.7380000  90.4270000 127.0910000  25.3120000
  89.4680000 128.9410000  24.8360000  88.7640000 128.6040000  24.0450000
  89.8940000 129.9160000  24.5780000  88.6440000 129.0370000  26.1040000
  88.0990000 128.0940000  26.1370000  87.9200000 129.8440000  25.9390000
  89.5720000 129.3240000  27.3950000  90.0910000 130.2180000  27.0680000
  90.3370000 128.5380000  27.4580000  88.9040000 129.4600000  28.7450000
  88.1900000 130.2740000  28.6530000  89.7100000 129.5170000  29.4610000
  87.9260000 128.3080000  29.0970000  87.9970000 128.2000000  30.1700000
  88.2780000 127.3240000  28.7720000  86.4360000 128.5750000  28.8290000
  86.1400000 128.2280000  27.8280000  85.4900000 128.9510000  29.7600000
  84.4290000 129.1230000  29.5460000  85.7340000 129.4700000  31.1470000
  86.8180000 129.6430000  31.2770000  85.4900000 128.5890000  31.8420000
  84.9860000 130.7500000  31.2990000  83.9780000 130.6200000  30.8460000
  85.5040000 131.5050000  30.7400000  84.9490000 131.1210000  32.8290000
  86.0130000 131.3060000  33.0630000  84.7160000 130.2850000  33.4980000
  84.0630000 132.3150000  33.0980000  83.0240000 131.9280000  33.1970000
  84.0960000 132.9600000  32.1990000  84.2020000 133.1100000  34.4710000
  83.5060000 134.0070000  34.4880000  85.3050000 133.3420000  34.5420000
  83.8180000 132.3070000  35.7290000  84.0290000 133.0330000  36.5300000
  84.4540000 131.4460000  35.9090000  82.3550000 131.8560000  35.8400000
  82.3850000 130.9490000  36.4000000  81.9280000 131.5070000  34.8390000
  81.4560000 132.9360000  36.4390000  81.5230000 132.8940000  37.5150000
  80.4210000 132.8540000  36.1310000  81.8090000 133.9730000  36.2580000
 134.4840000   0.7640000  24.4360000 135.2360000  -0.0480000  24.6250000
 134.4270000   0.9290000  23.3890000 133.5220000   0.4980000  24.8130000
 134.8650000   2.0360000  25.1520000 134.1850000   2.9160000  24.9380000
 134.7640000   1.7730000  26.1820000 136.2630000   2.4680000  24.8080000
 136.4340000   3.4100000  25.3080000 136.9950000   1.7260000  25.2550000
 136.5380000   2.5030000  23.2550000 137.6610000   2.7330000  23.2950000
 136.6500000   1.4870000  22.8510000 135.6920000   3.5380000  22.4940000
 134.7910000   3.0350000  22.2730000 135.5290000   4.4210000  23.1550000
 136.2060000   4.0560000  21.1220000 136.4910000   3.1490000  20.5280000
 135.3070000   4.6420000  20.6770000 137.4250000   4.9940000  21.0680000
 138.3120000   4.5320000  21.4440000 137.4970000   5.4040000  20.0690000
 137.0320000   6.1190000  22.0520000 135.9850000   6.3230000  21.9200000
 137.1890000   5.8250000  23.0790000 137.7970000   7.4280000  21.7960000
 137.9120000   7.5840000  20.7470000 137.2240000   8.2400000  22.1570000
 139.2240000   7.3840000  22.3870000 139.8030000   6.4020000  22.2520000
 139.9380000   8.0420000  21.8880000 139.2530000   7.7080000  23.9010000
 138.4410000   7.1940000  24.3990000 140.1210000   7.2580000  24.3710000
 139.0410000   9.1840000  24.3390000 137.9260000   9.3560000  24.4170000
 139.4740000   9.2930000  25.4020000 139.7640000  10.1300000  23.3470000
 140.8060000   9.7600000  23.1870000 139.3090000  10.1130000  22.3500000
 139.8300000  11.5070000  23.9940000 138.8530000  11.9380000  23.9410000
 140.0670000  11.3270000  25.0850000 140.9050000  12.4700000  23.4100000
 140.6030000  12.7990000  22.4950000 140.8810000  13.4450000  23.9730000
 142.2900000  11.9290000  23.4600000 142.8970000  11.8400000  22.4090000
 142.7700000  11.5430000  24.6810000 144.0760000  10.9580000  24.7850000
 144.1530000   9.9910000  24.2240000 144.9290000  11.5990000  24.4210000
 144.4030000  10.7850000  26.2480000 144.1380000  11.7870000  26.6840000
 145.8300000  10.3830000  26.6210000 146.0660000  10.5250000  27.6950000
 146.0170000   9.3240000  26.3210000 146.7750000  11.0410000  25.7770000
 146.9930000  12.6490000  25.8290000 147.8100000  12.7730000  27.2410000
 148.7270000  13.8350000  27.4380000 149.5080000  13.4860000  28.0460000
 149.1690000  14.1520000  26.4480000 147.8760000  15.0150000  28.0730000
 148.4430000  15.9120000  28.1600000 147.0760000  15.3430000  27.4560000
 147.0190000  14.8240000  29.3270000 146.4410000  16.1980000  29.7810000
 147.3460000  16.7840000  30.0440000 145.8800000  16.7610000  28.9650000
 145.8410000  16.1280000  30.7050000 145.8020000  14.0370000  28.9910000
 145.3020000  14.6180000  28.2010000 146.1330000  13.0690000  28.7110000
 145.0830000  13.9170000  29.8100000 147.7400000  14.0730000  30.4290000
 147.1300000  14.0700000  31.3480000 148.6440000  14.6330000  30.6160000
 148.0370000  13.1130000  30.0400000 147.8600000  12.9790000  24.6780000
 145.6950000  13.3300000  26.0070000 143.4960000   9.7550000  26.8120000
 143.1720000   9.7400000  28.1140000 143.6840000  10.4210000  28.9780000
 142.1860000   8.6120000  28.3350000 141.8140000   8.1550000  27.3880000
 141.4070000   9.1560000  28.9130000 142.8940000   7.5980000  29.2880000
 143.5460000   8.2170000  29.9440000 143.4600000   6.9200000  28.6660000
 141.9850000   6.7780000  30.3070000 141.5500000   7.4160000  31.0890000
 142.6330000   6.0430000  30.8250000 140.8310000   5.9380000  29.7360000
 140.1940000   6.5770000  29.1710000 140.4290000   5.3660000  30.5890000
 141.2980000   4.8240000  28.7440000 141.8220000   4.2040000  29.4460000
 141.9670000   5.2320000  27.9490000 140.2220000   4.1090000  27.9060000
 140.6360000   3.4460000  27.1670000 139.7370000   4.9310000  27.3340000
 139.1860000   3.3340000  28.7940000 138.8240000   4.0980000  29.5070000
 139.8220000   2.4450000  29.2310000 138.0590000   2.6940000  28.0540000
 137.8260000   3.1430000  27.1070000 137.4060000   1.6000000  28.3960000
 136.5820000   1.1460000  27.7100000 137.7920000   0.7130000  29.5100000
 136.9270000   0.0670000  29.7120000 138.0350000   1.4160000  30.3070000
 139.0320000  -0.1910000  29.2660000 140.0260000   0.3670000  29.2350000
 138.8320000  -0.7680000  28.3490000 139.2640000  -1.1740000  30.5180000
 139.9660000  -1.9580000  30.3560000 138.2460000  -1.6150000  30.6930000
 139.7920000  -0.4090000  31.7860000 139.1060000   0.3950000  31.9190000
 140.7360000   0.1130000  31.5020000 140.0500000  -1.2950000  32.9760000
 140.7860000  -0.9100000  33.6230000 140.4810000  -2.2610000  32.6320000
 138.7280000  -1.5360000  33.7890000 137.9970000  -1.9240000  33.0920000
 138.3580000  -0.6150000  34.2380000 138.8950000  -2.4770000  34.9660000
 139.6560000  -2.0190000  35.6890000 139.2760000  -3.4200000  34.5740000
 137.6700000  -2.9240000  35.6050000 137.1310000  -2.0990000  36.1310000
 138.0190000  -3.5750000  36.4460000 137.0100000  -3.5050000  34.9120000
 142.1380000  77.8940000  31.2520000 143.0250000  77.7620000  30.6240000
 141.8030000  76.9080000  31.4630000 142.4550000  78.3470000  32.2010000
 141.0070000  78.7820000  30.6830000 141.4370000  79.7630000  30.5290000
 140.7390000  78.3880000  29.6550000 139.7430000  78.8620000  31.6150000
 139.3470000  77.8250000  31.7260000 139.8950000  79.1860000  32.6220000
 138.5430000  79.7460000  31.0930000 138.7890000  80.7650000  31.2810000
 138.2230000  79.4780000  30.0760000 137.4090000  79.5380000  32.0720000
 136.4890000  79.8800000  31.5400000 137.1530000  78.4410000  32.2450000
 137.5080000  80.2990000  33.4400000 138.3380000  79.9860000  34.0010000
 137.7160000  81.3800000  33.3770000 136.3370000  80.1780000  34.3710000
 136.2350000  79.1530000  34.6990000 136.6790000  80.6530000  35.2510000
 135.0580000  80.8960000  33.8350000 134.5990000  80.2430000  33.0870000
 134.2620000  80.9170000  34.4880000 135.2670000  82.3450000  33.3310000
 135.5800000  82.9970000  34.1660000 136.1170000  82.5090000  32.6350000
 133.9380000  82.7580000  32.6670000 133.1360000  82.7600000  33.3810000
 134.0380000  83.7800000  32.2760000 133.6750000  81.9870000  31.3010000
 133.5220000  80.8510000  31.3700000 132.7500000  82.4250000  30.9280000
 134.7820000  82.3250000  30.2830000 134.9630000  83.3850000  30.1480000
 135.7340000  81.9210000  30.6820000 134.4390000  81.7240000  28.9170000
 134.0460000  80.7110000  29.0100000 133.6710000  82.3030000  28.4320000
 135.6590000  81.7800000  28.0100000 136.4880000  81.4580000  28.5930000
 135.6210000  80.9230000  27.2560000 135.8760000  83.0480000  27.2310000
 136.2460000  83.8770000  27.7160000 136.6510000  82.7310000  26.5120000
 134.7390000  83.3960000  26.2850000 134.5010000  82.7940000  25.2470000
 134.0970000  84.4910000  26.6450000 132.9660000  84.8590000  25.8340000
 132.8500000  85.8330000  26.1100000 133.2300000  84.7300000  24.7970000
 131.7290000  84.0760000  26.2040000 131.9690000  83.0100000  26.2200000
 130.6650000  84.4490000  25.2000000 130.7410000  83.8830000  24.2720000
 129.6830000  84.2690000  25.5540000 130.6830000  85.9160000  24.7880000
 131.3360000  86.5110000  23.4700000 130.0780000  87.4240000  22.9620000
 130.2920000  88.8970000  23.0060000 130.3820000  89.1160000  24.1140000
 131.1140000  89.1770000  22.3000000 129.1280000  89.5710000  22.3600000
 129.1390000  89.1760000  21.3490000 128.2240000  89.1410000  22.8590000
 129.0440000  91.1010000  22.2880000 129.0710000  91.5910000  23.7330000
 128.2050000  91.1820000  24.3350000 129.9920000  91.3740000  24.2130000
 129.0090000  92.6660000  23.7780000 130.2000000  91.5940000  21.6040000
 129.9890000  92.6890000  21.5320000 131.0890000  91.4150000  22.2390000
 130.3750000  91.1460000  20.5980000 127.7830000  91.5020000  21.6590000
 127.9160000  91.2240000  20.6270000 127.7020000  92.5670000  21.5430000
 126.8740000  91.1900000  22.2120000 132.3930000  87.4880000  23.8580000
 131.6150000  85.4900000  22.4480000 131.2850000  84.3730000  27.5510000
 130.4940000  83.4660000  28.1990000 129.9220000  82.6410000  27.5330000
 130.5400000  83.6570000  29.7150000 130.1670000  84.6610000  29.8700000
 131.6280000  83.6160000  29.9960000 129.8360000  82.5100000  30.5100000
 130.3510000  81.6700000  30.2130000 128.7610000  82.4450000  30.3590000
 130.0440000  82.7030000  32.0270000 129.4060000  83.5660000  32.2820000
 131.0450000  82.8280000  32.3530000 129.4230000  81.5900000  32.8800000
 128.4550000  81.2680000  32.4470000 129.2360000  81.8870000  33.8640000
 130.3420000  80.3670000  32.7980000 131.2580000  80.6570000  33.4060000
 130.6430000  80.3040000  31.7590000 129.7890000  79.0370000  33.3140000
 130.6500000  78.3190000  33.3020000 129.0290000  78.7090000  32.6350000
 129.2480000  79.0610000  34.7490000 128.3000000  79.5330000  34.7470000
 129.9340000  79.5030000  35.4830000 129.0950000  77.6240000  35.2500000
 129.9450000  77.2770000  35.8470000 127.9940000  76.8900000  35.0610000
 127.9420000  75.8300000  35.4030000 126.8710000  77.3850000  34.1950000
 127.1080000  77.3380000  33.1470000 126.5910000  78.3950000  34.3800000
 125.5750000  76.6670000  34.4910000 125.4960000  76.7910000  35.5950000
 125.6990000  75.5580000  34.4200000 124.3280000  77.1240000  33.7210000
 123.5660000  76.4070000  33.9880000 124.4580000  77.0700000  32.6570000
 123.8040000  78.4810000  34.1450000 124.4720000  79.2400000  33.8650000
 123.8540000  78.4230000  35.2360000 122.3830000  78.7950000  33.5620000
 121.6140000  78.1160000  33.9590000 122.3900000  78.6770000  32.5180000
 121.9520000  80.2930000  33.9650000 122.7930000  80.9510000  33.7980000
 121.8580000  80.2710000  35.0870000 120.7330000  80.8580000  33.2820000
 119.8870000  80.4280000  33.8270000 120.7190000  80.6510000  32.2170000
 120.4500000  82.3860000  33.5810000 121.3230000  83.0300000  33.4200000
 120.3840000  82.4460000  34.6930000 119.5460000  82.6130000  33.0560000
 101.0790000  78.3130000  36.3870000 100.7340000  77.2980000  36.4790000
 101.8280000  78.5390000  37.1830000 101.6440000  78.4270000  35.4290000
  99.8790000  79.2680000  36.5710000  99.1860000  79.0360000  37.3050000
 100.3460000  80.2460000  36.7820000  99.0940000  79.3020000  35.2210000
  99.0930000  78.3290000  34.6500000  98.0960000  79.6900000  35.3580000
  99.7710000  80.2390000  34.2040000  99.8140000  81.2290000  34.6820000
 100.8300000  79.9160000  33.9920000  99.0040000  80.5390000  32.9430000
  98.7360000  79.5960000  32.4490000  98.0630000  80.9780000  33.1590000
  99.9320000  81.3820000  32.0460000 100.0120000  82.3700000  32.4660000
 100.8770000  80.8820000  32.1250000  99.4190000  81.5580000  30.6200000
  99.2820000  80.5740000  30.0620000  98.4730000  82.0470000  30.6750000
 100.4020000  82.4680000  29.8670000 100.4310000  83.4240000  30.3110000
 101.4130000  82.1380000  29.9090000  99.8960000  82.6520000  28.4330000
  99.6080000  81.6960000  28.0170000  98.9540000  83.2050000  28.5270000
 100.9140000  83.2470000  27.4590000 100.9070000  84.2760000  27.6180000
 101.8730000  82.9140000  27.7860000 100.6390000  82.8230000  26.0340000
 100.6610000  81.7940000  25.9890000  99.6310000  83.1000000  25.7370000
 101.6950000  83.4050000  25.0670000 101.3590000  84.5000000  24.9420000
 102.6920000  83.3020000  25.4570000 101.5560000  82.7530000  23.6450000
 101.6480000  81.6930000  23.7650000 100.4900000  82.9600000  23.3330000
 102.4800000  83.2650000  22.5820000 103.5550000  83.0720000  22.9010000
 102.2850000  82.6450000  21.6950000 102.1960000  84.7380000  22.1260000
 102.1390000  85.4230000  22.9680000 103.0360000  85.1860000  21.6050000
 101.0310000  84.9740000  21.2540000 100.6080000  84.2970000  20.3460000
 100.4110000  86.1190000  21.6330000  99.2290000  86.6410000  20.9800000
  98.8570000  87.5800000  21.4610000  99.4840000  86.8400000  19.9500000
  97.9880000  85.6460000  20.9140000  98.1710000  84.7720000  20.2740000
  96.7670000  86.4240000  20.3550000  95.8350000  86.4090000  20.9370000
  97.0200000  87.5380000  20.1890000  96.4120000  85.9810000  18.9370000
  95.1300000  85.1190000  18.7000000  95.6540000  84.0550000  17.5850000
  96.1390000  82.7370000  17.9550000  96.8950000  82.4780000  17.1810000
  96.6220000  82.8190000  18.9160000  95.0020000  81.6110000  17.9990000
  95.4790000  80.6540000  18.4290000  94.2270000  81.9810000  18.6670000
  94.2750000  81.3830000  16.7360000  93.6150000  80.0050000  16.8100000
  92.7520000  80.0410000  16.1410000  94.3420000  79.3130000  16.4690000
  93.2690000  79.7900000  17.7840000  93.2400000  82.4210000  16.6760000
  92.5220000  82.1550000  15.9160000  92.7270000  82.4880000  17.6200000
  93.7940000  83.3360000  16.3950000  95.1460000  81.3740000  15.5270000
  95.8730000  80.5640000  15.7640000  95.7140000  82.3150000  15.3500000
  94.6440000  80.9470000  14.6630000  94.8750000  84.4930000  20.0000000
  94.0570000  86.0440000  18.1690000  97.5650000  85.1720000  22.2740000
  97.6140000  83.8440000  22.5330000  98.2560000  83.0070000  21.9910000
  96.7100000  83.4930000  23.6710000  96.1810000  84.3220000  24.0790000
  97.4020000  83.2440000  24.4410000  95.9470000  82.1730000  23.4150000
  96.6990000  81.4290000  23.0580000  95.2610000  82.4030000  22.5460000
  95.1510000  81.5110000  24.5310000  94.6400000  80.6130000  24.1030000
  94.2790000  82.1820000  24.7600000  95.9200000  81.1990000  25.8160000
  95.2320000  81.0360000  26.6310000  96.4110000  81.9970000  26.2900000
  96.7310000  79.9510000  25.8780000  97.5700000  80.0610000  25.1570000
  96.0800000  79.1530000  25.4650000  97.2520000  79.4470000  27.3080000
  97.9720000  80.1700000  27.7640000  97.7070000  78.4600000  27.1530000
  96.2420000  79.2700000  28.4770000  95.3480000  78.7000000  28.0930000
  95.8760000  80.2540000  28.7980000  96.8560000  78.4900000  29.6680000
  97.8480000  78.0800000  29.5420000  96.3370000  78.2700000  30.8450000
  96.8940000  77.6960000  31.6010000  94.9820000  78.7400000  31.2050000
  94.6050000  77.9190000  31.8740000  94.2500000  78.7710000  30.3350000
  95.1470000  80.0550000  31.9940000  95.6530000  80.8110000  31.3880000
  95.8290000  79.6640000  32.7180000  93.8340000  80.5170000  32.6880000
  93.0510000  80.4690000  31.9480000  94.0310000  81.4840000  33.1210000
  93.4530000  79.5760000  33.9620000  94.1600000  79.6550000  34.7610000
  93.5080000  78.4770000  33.6700000  92.0330000  79.8510000  34.4750000
  91.2870000  79.8520000  33.6470000  92.1060000  80.9360000  34.8110000
  91.5930000  78.9440000  35.6430000  91.8250000  77.9660000  35.3060000
  90.5470000  79.0660000  35.7920000  92.2940000  79.3150000  36.9490000
  91.9450000  80.3180000  37.1880000  93.3750000  79.2810000  36.8670000
  91.7880000  78.4500000  38.1720000  90.6970000  78.4650000  38.4200000
  92.3640000  78.6480000  39.0650000  91.9370000  77.3620000  37.9780000
   3.7540000  41.3150000  22.6980000   4.7920000  41.0280000  22.9340000
   3.7820000  42.4090000  22.5730000   3.4920000  40.7950000  21.7900000
   2.8650000  40.9080000  23.8940000   3.3100000  41.1090000  24.8610000
   1.9000000  41.4430000  23.9490000   2.5850000  39.3800000  23.7910000
   2.1050000  39.1870000  22.8010000   3.4540000  38.7800000  23.8170000
   1.5780000  39.0370000  24.9590000   2.1140000  38.8870000  25.8920000
   0.8570000  39.8160000  25.0210000   0.8410000  37.7090000  24.8740000
   0.6780000  37.4350000  25.9100000  -0.1490000  37.9170000  24.4600000
   1.5080000  36.6710000  24.0150000   1.4230000  36.8660000  22.9320000
   2.5380000  36.6060000  24.2870000   0.9760000  35.2950000  24.2930000
   1.2530000  35.0800000  25.3370000  -0.1130000  35.2120000  24.2390000
   1.6010000  34.1820000  23.3870000   2.6490000  34.4650000  23.2030000
   1.5760000  33.2070000  23.9640000   0.8780000  34.0170000  22.0800000
  -0.0700000  33.4570000  22.3000000   0.5330000  34.8910000  21.6430000
   1.6520000  33.1520000  21.0310000   1.7360000  32.1330000  21.3790000
   1.1060000  33.0360000  20.0620000   3.0950000  33.5650000  20.6950000
   3.7770000  33.3430000  21.5190000   3.5650000  33.0060000  19.7730000
   3.1360000  35.1230000  20.4130000   2.4950000  35.5180000  19.5920000
   2.9860000  35.7400000  21.3300000   4.5320000  35.5650000  19.9260000
   5.1990000  35.1170000  20.6810000   4.7260000  35.2390000  18.8170000
   4.7350000  37.0930000  20.0830000   3.9200000  37.6290000  19.6520000
   4.7830000  37.4310000  21.1280000   6.0570000  37.4210000  19.3490000
   6.1800000  36.9590000  18.3780000   6.0910000  38.4850000  19.1290000
   7.3040000  37.1620000  20.1730000   7.5390000  37.8090000  21.1220000
   8.1130000  36.2380000  19.6720000   9.4340000  35.9730000  20.2190000
   9.8970000  35.3660000  19.4950000  10.0630000  36.8930000  20.2720000
   9.4920000  35.2880000  21.6010000   9.1890000  36.0810000  22.2660000
  10.9730000  34.8720000  21.9230000  11.7160000  35.4940000  21.4680000
  11.0370000  35.0000000  23.0220000  11.3040000  33.5860000  21.5500000
  11.5160000  33.0840000  20.0610000  10.0460000  32.6700000  19.4800000
   9.6180000  31.3380000  19.7280000   9.7400000  30.6950000  18.8690000
  10.1020000  30.8290000  20.5600000   8.1180000  31.4770000  20.0480000
   7.8100000  30.4180000  20.1660000   8.0290000  32.0760000  20.9970000
   7.2560000  32.0810000  18.9680000   6.0290000  31.4150000  19.1170000
   6.2660000  30.3440000  19.0450000   5.6880000  31.6870000  20.1390000
   5.2900000  31.7570000  18.3360000   7.0240000  33.5600000  19.2460000
   6.4460000  34.0430000  18.4490000   6.5850000  33.6390000  20.2380000
   8.0140000  33.9230000  19.2770000   7.7950000  31.8900000  17.5560000
   7.1750000  32.3760000  16.8470000   8.0330000  30.8510000  17.4090000
   8.6840000  32.4660000  17.5690000  11.9910000  34.2430000  19.2810000
  12.4420000  31.9430000  20.2320000   8.4960000  34.1760000  21.6760000
   8.0630000  33.9510000  22.9950000   8.6480000  34.3250000  23.9540000
   6.8750000  33.0340000  23.1150000   7.2340000  31.9840000  23.0160000
   6.0620000  33.1790000  22.3630000   6.1240000  32.9620000  24.4540000
   6.7440000  32.4330000  25.1820000   5.2220000  32.4710000  24.1490000
   5.7450000  34.4030000  24.9630000   5.4210000  35.0790000  24.1530000
   6.5620000  34.8970000  25.5190000   4.6820000  34.3910000  26.0960000
   5.0900000  33.6750000  26.9170000   3.7890000  33.9230000  25.7490000
   4.4860000  35.7750000  26.6430000   3.5670000  35.8160000  27.2590000
   4.2560000  36.4100000  25.7680000   5.6040000  36.3940000  27.5480000
   6.3950000  36.8170000  26.9850000   5.9850000  35.5690000  28.2590000
   5.1000000  37.6800000  28.3160000   4.6680000  38.4520000  27.6590000
   5.9080000  38.1530000  28.8270000   4.0940000  37.2000000  29.3280000
   4.3080000  36.4160000  30.0020000   2.8910000  37.6860000  29.5240000
   2.2460000  37.2080000  30.2780000   2.2640000  38.9200000  28.7890000
   1.5290000  38.4970000  28.0640000   2.9950000  39.5380000  28.2270000
   1.7310000  39.8230000  29.9330000   0.9810000  39.3310000  30.6110000
   1.1640000  40.5320000  29.4220000   2.7220000  40.6170000  30.7720000
   3.2520000  39.8870000  31.4560000   2.1790000  41.3570000  31.2650000
   3.6580000  41.4700000  29.9510000   3.0550000  42.0540000  29.2700000
   4.2410000  40.8880000  29.2790000   4.4090000  42.4790000  30.8530000
   5.2500000  42.0340000  31.3300000   3.7120000  42.9070000  31.5760000
   4.9550000  43.5540000  29.8450000   4.3480000  43.5650000  28.9590000
   5.9980000  43.3750000  29.4890000   4.9380000  45.0170000  30.2610000
   3.9380000  45.3970000  30.6350000   5.1120000  45.6360000  29.4000000
   6.0330000  45.5350000  31.2120000   7.0650000  45.3740000  30.9300000
   5.8540000  45.2530000  32.2910000   5.8980000  46.6200000  31.2270000
 150.8130000  62.4770000  14.1550000 151.1250000  63.4740000  14.5430000
 149.8740000  62.6130000  13.5900000 151.5650000  62.2770000  13.3290000
 150.9170000  61.5060000  15.3660000 151.8880000  61.5290000  15.8010000
 150.1630000  61.9120000  16.1100000 150.3530000  60.1300000  14.9700000
 149.3010000  60.2470000  14.6780000 151.0830000  59.6650000  14.2680000
 150.3200000  59.2980000  16.1580000 151.2210000  59.5170000  16.8220000
 149.3850000  59.5470000  16.7020000 150.1810000  57.8130000  15.8940000
 149.2660000  57.5570000  15.3820000 151.0260000  57.4130000  15.2650000
 150.2590000  57.0160000  17.1780000 151.3010000  57.1250000  17.5160000
 149.5990000  57.4560000  17.9170000 149.9700000  55.5140000  17.0830000
 150.7930000  55.1880000  16.4310000 150.0620000  55.0270000  18.0780000
 148.5690000  55.0160000  16.6400000 148.4910000  55.4200000  15.6090000
 148.5380000  53.8200000  16.5120000 147.3720000  55.4620000  17.4900000
 147.7160000  55.3570000  18.5140000 147.1260000  56.5200000  17.4260000
 146.0870000  54.6340000  17.3340000 146.3850000  53.5600000  17.2570000
 145.4460000  54.8200000  18.2430000 145.3810000  54.8470000  15.9900000
 146.1180000  54.7170000  15.2360000 144.6410000  54.1570000  15.8120000
 144.8710000  56.3220000  16.0290000 144.1730000  56.3100000  16.8750000
 145.6540000  56.8860000  16.3680000 144.3140000  57.0070000  14.7120000
 145.0540000  56.6720000  13.9630000 143.3510000  56.6460000  14.4740000
 144.2500000  58.5160000  14.9470000 145.1970000  58.8500000  15.2740000
 144.1830000  59.0680000  14.0110000 143.1320000  59.1260000  15.7780000
 142.9330000  58.5850000  16.7370000 143.4920000  60.0740000  16.1580000
 141.8860000  59.4160000  14.9790000 141.7300000  60.5000000  14.4360000
 141.0540000  58.3220000  14.8510000 140.0070000  58.5080000  13.8780000
 139.1740000  57.9020000  14.2110000 139.6170000  59.5330000  13.7000000
 140.3400000  57.9550000  12.4270000 141.1670000  58.4870000  11.9540000
 139.1430000  58.2030000  11.3490000 138.8470000  59.2050000  11.2570000
 139.5280000  57.8710000  10.4370000 137.9910000  57.3670000  11.5680000
 136.8470000  57.6180000  12.6780000 137.3340000  56.4920000  13.7160000
 136.8820000  55.1070000  13.5330000 136.3360000  55.0850000  12.6260000
 137.7790000  54.5530000  13.3720000 136.1220000  54.4610000  14.6810000
 136.0180000  53.3990000  14.5060000 136.5770000  54.5880000  15.6470000
 134.6790000  54.9110000  14.9390000 134.5780000  56.3600000  15.4250000
 134.4240000  56.8930000  14.4810000 133.6980000  56.6500000  16.0910000
 135.6000000  56.6820000  15.6720000 133.7220000  54.8610000  13.6860000
 132.7960000  55.3320000  13.8960000 134.3040000  55.3560000  12.9330000
 133.6000000  53.7960000  13.4100000 134.1240000  54.0030000  15.9490000
 134.8260000  54.2120000  16.7020000 134.2410000  53.0060000  15.5220000
 133.0950000  54.3740000  16.1420000 137.0180000  58.9050000  13.3010000
 135.5290000  57.2310000  12.2330000 140.5890000  56.5440000  12.6400000
 141.0830000  55.8370000  11.6470000 141.6370000  56.3670000  10.6630000
 141.2880000  54.4140000  12.0630000 141.5570000  53.8720000  11.1080000
 140.3000000  54.0780000  12.5450000 142.5510000  54.2480000  12.9740000
 142.3530000  54.8430000  13.8210000 143.3530000  54.5510000  12.3420000
 142.8860000  52.7870000  13.3960000 143.9060000  52.8910000  13.8490000
 143.0500000  52.1140000  12.5490000 141.9820000  52.1150000  14.4320000
 140.9890000  51.8590000  14.0520000 141.9010000  52.7650000  15.2820000
 142.5390000  50.7940000  14.8450000 143.5160000  51.1440000  15.3410000
 142.6860000  50.1900000  13.9910000 141.5210000  50.2590000  15.8600000
 140.5250000  50.3090000  15.5150000 141.4450000  50.8990000  16.7210000
 142.0130000  48.8760000  16.3960000 141.4880000  48.5720000  17.2790000
 143.0640000  48.9690000  16.7360000 141.7590000  47.8550000  15.3220000
 140.8350000  47.8950000  14.7910000 142.6380000  46.9130000  14.8730000
 142.3070000  46.1530000  14.1480000 144.0060000  46.7600000  15.5480000
 144.1990000  45.6500000  15.4680000 143.9830000  47.0220000  16.5310000
 145.0090000  47.7170000  14.8310000 144.9140000  48.8190000  14.9980000
 144.9460000  47.5730000  13.7340000 146.4510000  47.4090000  15.3350000
 146.4530000  47.3850000  16.3880000 147.0600000  48.2660000  14.9920000
 147.0530000  46.1110000  14.7400000 147.5900000  46.4110000  13.8620000
 146.2590000  45.4480000  14.5140000 148.0310000  45.4090000  15.6680000
 147.5650000  45.2870000  16.7330000 148.9820000  45.9420000  15.8330000
 148.2480000  43.9700000  15.0680000 148.5670000  43.9750000  14.0350000
 147.2450000  43.5130000  15.0200000 148.9990000  43.0540000  16.0250000
 149.0430000  42.0170000  15.6340000 148.5000000  43.0750000  17.0010000
 150.4720000  43.4960000  16.2250000 150.9160000  42.7080000  16.7730000
 150.6530000  44.5420000  16.6570000 151.0820000  43.4480000  15.3260000
  46.2690000  93.6190000  38.3970000  47.0230000  93.9400000  39.1290000
  45.3150000  93.4550000  38.9070000  46.0960000  94.4080000  37.6210000
  46.7520000  92.4000000  37.7460000  47.6910000  92.6200000  37.3820000
  46.7840000  91.6040000  38.5020000  45.9720000  91.9840000  36.5050000
  44.9350000  91.7700000  36.7510000  45.9740000  92.7700000  35.7360000
  46.5930000  90.6270000  36.0600000  47.6920000  90.6360000  35.9530000
  46.3990000  89.8630000  36.8190000  46.0280000  90.0830000  34.7610000
  46.4710000  89.0720000  34.5360000  44.9640000  89.9330000  34.9030000
  46.2680000  90.9540000  33.5330000  45.6800000  91.8220000  33.5370000
  47.3160000  91.3400000  33.5190000  45.9850000  90.1880000  32.1950000
  46.6660000  89.4450000  32.0030000  45.0030000  89.7390000  32.1810000
  45.9850000  91.0610000  30.9490000  46.9710000  91.3100000  30.5150000
  45.6730000  90.2690000  30.3050000  44.9050000  92.2040000  30.9250000
  43.9270000  91.8940000  31.3570000  45.2070000  93.1580000  31.4950000
  44.6710000  92.6180000  29.4830000  45.5890000  92.9380000  28.9570000
  44.4720000  91.7420000  28.8590000  43.5430000  93.6820000  29.2600000
  43.7600000  94.5920000  29.7570000  43.5330000  94.0500000  28.2680000
  42.1480000  93.2300000  29.7430000  42.0560000  92.2390000  29.3480000
  42.1070000  93.1500000  30.7970000  41.1240000  94.2930000  29.2910000
  41.2860000  95.1990000  29.9750000  41.2660000  94.5530000  28.2650000
  39.5900000  93.9150000  29.5000000  39.4560000  93.8160000  30.6070000
  38.9890000  94.7020000  29.0730000  39.1660000  92.6360000  28.8390000
  39.7730000  91.7940000  29.1420000  38.1120000  92.3460000  28.9800000
  39.3060000  92.6630000  27.3010000  38.5820000  93.3620000  26.6360000
  40.1760000  91.7720000  26.7820000  40.3220000  91.6740000  25.3610000
  40.7710000  90.7310000  25.1670000  39.3580000  91.7410000  24.8200000
  41.3200000  92.7450000  24.8080000  41.1200000  93.6910000  25.3420000
  41.2210000  92.8270000  23.2640000  40.1430000  93.1490000  23.1000000
  41.9630000  93.5420000  22.9820000  41.5490000  91.5730000  22.5220000
  40.5100000  90.3950000  22.2350000  40.9210000  89.2830000  23.2740000
  42.1670000  88.6430000  23.1390000  42.6080000  88.7770000  22.1000000
  42.8880000  88.9370000  23.9270000  41.7800000  87.2220000  23.2740000
  42.6640000  86.6700000  23.1400000  41.4540000  87.0550000  24.2780000
  40.8350000  86.5840000  22.3410000  41.1090000  85.1590000  22.4060000
  40.9040000  84.8560000  23.4770000  40.3590000  84.8090000  21.7510000
  42.1620000  85.0400000  22.1700000  39.4030000  86.8680000  22.5610000
  39.1330000  87.8170000  22.1340000  38.8230000  85.9730000  22.1070000
  39.2440000  86.8670000  23.6640000  41.0920000  86.9030000  20.8480000
  40.7020000  87.9190000  20.7260000  40.5310000  86.0590000  20.3090000
  42.1560000  86.8880000  20.6360000  39.1400000  90.8560000  22.5020000
  40.8900000  89.9480000  20.8600000  42.6710000  92.2290000  25.1580000
  43.6510000  93.1900000  25.3240000  43.4670000  94.3520000  25.4120000
  44.9870000  92.5290000  25.4590000  44.9200000  91.4630000  25.3350000
  45.3810000  92.6810000  26.4290000  45.9730000  93.1880000  24.4840000
  45.8280000  94.3440000  24.4790000  45.7450000  92.7490000  23.4970000
  47.4260000  92.8070000  24.7790000  48.0960000  92.7550000  23.9720000
  47.5130000  91.8140000  25.2560000  48.2280000  93.8130000  25.6570000
  48.2920000  94.8230000  25.2240000  49.2310000  93.4460000  25.5340000
  47.8950000  93.7310000  27.0990000  47.8190000  92.7010000  27.3380000
  46.8650000  94.1380000  27.3000000  48.8570000  94.4570000  28.0450000
  49.0180000  95.4730000  27.6480000  49.7690000  93.9760000  27.9740000
  48.2380000  94.4420000  29.4940000  48.9350000  94.8630000  30.1690000
  48.0260000  93.3860000  29.8120000  46.9260000  95.2260000  29.5870000
  46.5040000  95.3930000  28.5780000  46.3900000  95.8260000  30.5810000
  45.4280000  96.3220000  30.4050000  46.7640000  95.7770000  32.0320000
  47.1900000  94.7290000  32.2090000  45.7940000  95.8270000  32.6650000
  47.7220000  96.9350000  32.4540000  47.2210000  97.8380000  32.1440000
  48.6480000  96.9840000  31.8270000  48.2980000  96.7870000  33.8880000
  47.4550000  96.6990000  34.5670000  48.9370000  97.6790000  34.0310000
  49.2180000  95.5680000  34.0410000  50.0450000  95.7540000  33.3620000
  48.7730000  94.5850000  33.9410000  49.9600000  95.5380000  35.4100000
  50.6630000  96.3930000  35.5220000  50.5420000  94.5970000  35.3110000
  49.1440000  95.5070000  36.6950000  48.8110000  94.5040000  36.9350000
  48.2470000  96.1850000  36.6530000  49.9080000  95.9920000  37.9440000
  50.1930000  97.0320000  37.7750000  50.7870000  95.3230000  38.0260000
  49.2100000  95.9760000  39.2900000  49.8420000  96.3490000  40.0520000
  48.6450000  95.0390000  39.5480000  48.3310000  96.6160000  39.1620000
 104.5740000 127.9900000  38.1230000 103.9870000 128.9150000  37.9650000
 105.4350000 128.1860000  38.8060000 104.0820000 127.0780000  38.5680000
 105.0850000 127.6130000  36.7690000 105.5530000 128.5220000  36.2920000
 105.9120000 126.8610000  36.8560000 103.9940000 127.1450000  35.7410000
 103.6520000 126.1410000  36.0090000 103.0680000 127.7800000  35.8230000
 104.5140000 126.8420000  34.2890000 105.3100000 126.1270000  34.3180000
 103.7270000 126.3940000  33.6570000 105.0490000 128.1620000  33.7110000
 104.2720000 128.9180000  33.5410000 105.9190000 128.5720000  34.2770000
 105.5900000 127.9730000  32.2950000 106.5090000 127.3930000  32.2420000
 104.7400000 127.6430000  31.6780000 106.0750000 129.4010000  31.7900000
 105.1630000 129.9710000  31.5940000 106.7220000 129.8420000  32.5540000
 106.9090000 129.3640000  30.5140000 107.7800000 128.6760000  30.6360000
 106.2700000 128.9430000  29.7780000 107.4120000 130.8640000  30.2700000
 106.5320000 131.4970000  30.2550000 108.0690000 131.1430000  31.0980000
 108.0670000 131.0050000  28.9020000 108.9770000 130.4700000  28.8110000
 107.4870000 130.5240000  28.1780000 108.3080000 132.5050000  28.4990000
 109.0770000 132.8700000  29.1730000 108.6420000 132.5300000  27.5040000
 107.1410000 133.4770000  28.4260000 106.4580000 133.1100000  27.7060000
 106.6390000 133.6570000  29.3870000 107.3700000 134.8640000  27.8210000
 108.3660000 135.3120000  28.0240000 107.1670000 134.7290000  26.7560000
 106.2880000 135.8730000  28.3720000 105.2230000 135.5400000  28.1780000
 106.4230000 135.9020000  29.4500000 106.3520000 137.3640000  27.8500000
 105.3750000 137.8940000  27.9750000 107.0730000 137.9210000  28.3090000
 106.6310000 137.3670000  26.3230000 105.8430000 136.8800000  25.6000000
 107.8850000 137.7800000  26.0660000 108.3400000 137.3210000  24.7810000
 108.4200000 136.2820000  24.9410000 107.6280000 137.6430000  23.9630000
 109.7500000 137.8460000  24.3210000 109.7300000 138.9440000  23.9600000
 110.2530000 136.9700000  23.1560000 110.1920000 136.0270000  23.4450000
 109.6550000 137.2450000  22.3530000 111.6790000 137.3110000  22.8350000
 112.3340000 137.0390000  21.4720000 112.1030000 135.4570000  21.3930000
 112.9650000 134.5470000  22.0220000 113.1770000 134.8450000  23.0490000
 112.4820000 133.5810000  22.0680000 114.3390000 134.3970000  21.3990000
 114.9760000 135.2660000  21.5190000 114.8210000 133.5740000  21.9310000
 114.3290000 134.0580000  19.9050000 115.5660000 133.2430000  19.5830000
 115.5700000 133.0420000  18.5020000 116.4570000 133.7950000  19.9140000
 115.4130000 132.3490000  20.1320000 113.2470000 133.2270000  19.4450000
 113.1870000 132.3040000  20.0620000 112.3280000 133.8540000  19.4510000
 113.4200000 132.7440000  18.4690000 114.3920000 135.4050000  19.1840000
 114.4100000 135.1980000  18.0990000 115.3330000 135.8550000  19.5810000
 113.5450000 136.0090000  19.4870000 111.5160000 137.7350000  20.4550000
 113.8140000 137.2810000  21.5620000 110.7020000 137.5750000  25.4130000
 111.4340000 138.5710000  25.8360000 111.2560000 139.7260000  25.5020000
 112.5870000 138.1360000  26.7130000 112.9760000 137.1960000  26.2800000
 112.3280000 138.0900000  27.7390000 113.8130000 139.0460000  26.6290000
 113.7330000 139.9600000  27.2730000 114.0280000 139.3500000  25.5690000
 115.1050000 138.2650000  26.9780000 115.9300000 138.9790000  26.9160000
 115.2520000 137.6300000  26.0740000 115.1420000 137.5820000  28.3410000
 115.7790000 136.7850000  28.2310000 114.2240000 137.0900000  28.5840000
 115.4640000 138.6010000  29.4270000 114.7610000 139.3930000  29.3960000
 116.4560000 139.0170000  29.3360000 115.3720000 138.0630000  30.8600000
 115.9230000 137.1320000  30.8440000 114.3580000 137.9180000  31.0880000
 115.9660000 139.0770000  31.8550000 115.5980000 140.0200000  31.7010000
 117.0580000 139.1480000  31.7510000 115.4920000 138.6670000  33.2760000
 116.0870000 138.0030000  33.8550000 114.5070000 139.0630000  33.9360000
 114.3670000 138.7180000  34.9550000 113.2360000 139.7750000  33.3960000
 112.3820000 139.2040000  33.7610000 113.1100000 139.7430000  32.2610000
 113.1760000 141.1370000  34.1650000 113.9320000 141.8490000  33.7980000
 113.5420000 140.8820000  35.2070000 111.6440000 141.6870000  34.2750000
 110.9470000 140.8450000  34.5050000 111.1310000 142.0050000  33.3520000
 111.5040000 142.6330000  35.4040000 111.9790000 143.5520000  35.1700000
 112.0740000 142.2860000  36.2150000 110.1370000 143.0200000  35.9390000
 110.2020000 143.6000000  36.8510000 109.6760000 142.0470000  36.2510000
 109.1240000 143.6380000  34.9400000 108.0990000 143.6430000  35.4140000
 109.0640000 143.0250000  34.0300000 109.5220000 145.0700000  34.6130000
 110.3670000 145.1150000  33.9130000 109.7380000 145.4740000  35.6350000
 108.3900000 145.7130000  33.8620000 108.5290000 146.8390000  33.8670000
 107.3910000 145.5190000  34.2660000 108.3590000 145.2910000  32.9040000
  11.3360000  65.2160000  33.4760000  12.0430000  65.1370000  34.2800000
  11.2400000  66.2130000  33.0730000  11.6430000  64.5930000  32.6380000
   9.9550000  64.7980000  33.9430000  10.1530000  63.8730000  34.4810000
   9.6220000  65.3700000  34.8260000   8.9580000  64.7590000  32.8010000
   7.9290000  64.7320000  33.2540000   8.9420000  65.7100000  32.3110000
   9.1330000  63.6380000  31.7600000   9.8980000  63.7740000  31.0120000
   9.3730000  62.7870000  32.3670000   7.8090000  63.4520000  30.9480000
   6.9820000  63.6650000  31.6490000   7.7880000  64.2360000  30.2150000
   7.6380000  62.1280000  30.1670000   8.5990000  61.7550000  29.7450000
   7.2960000  61.4230000  30.8980000   6.5960000  62.2070000  28.9990000
   5.7070000  62.3740000  29.6080000   6.8350000  62.9680000  28.2680000
   6.4240000  60.8330000  28.2560000   7.4380000  60.5500000  27.9200000
   5.9800000  60.1480000  29.0380000   5.4380000  60.9900000  27.1070000
   5.3030000  60.0500000  26.6020000   4.4440000  61.3170000  27.3840000
   5.9460000  61.8040000  25.9030000   5.0930000  62.2080000  25.3010000
   6.3850000  62.7560000  26.1880000   6.8460000  61.0390000  24.9050000
   7.6500000  60.5660000  25.4780000   6.2190000  60.1840000  24.5020000
   7.4220000  61.7710000  23.6910000   7.4140000  60.8670000  23.0430000
   6.6600000  62.5070000  23.3210000   8.6910000  62.3950000  24.2070000
   8.4110000  62.9520000  25.1140000   9.3480000  61.6220000  24.6680000
   9.4040000  63.3310000  23.1530000   9.5910000  62.7710000  22.1770000
   8.6940000  64.1530000  23.0560000  10.7960000  63.9490000  23.5130000
  10.8340000  64.6060000  24.4570000  11.5440000  63.1720000  23.6280000
  11.4250000  64.8270000  22.4330000  10.7360000  65.3940000  21.6420000
  12.7280000  65.0670000  22.6200000  13.4250000  65.7120000  21.5450000
  12.8030000  66.1540000  20.7110000  14.0100000  66.5620000  22.0430000
  14.4890000  64.7330000  20.9210000  15.2860000  64.6080000  21.6970000
  15.1060000  65.2570000  19.6090000  15.4190000  66.2940000  19.7420000
  15.9980000  64.6540000  19.3270000  14.0250000  65.1790000  18.6010000
  14.1770000  64.2240000  17.2800000  12.6820000  63.6530000  17.0310000
  11.7320000  63.1950000  18.0650000  10.9870000  62.4670000  17.6540000
  12.1920000  62.7420000  18.8970000  11.0690000  64.5100000  18.7840000
  10.2770000  64.1090000  19.3470000  11.8200000  65.0710000  19.4280000
  10.5450000  65.6400000  17.9680000   9.7380000  66.5150000  18.9220000
  10.3950000  67.3070000  19.3250000   8.9470000  67.0500000  18.3660000
   9.3510000  65.8910000  19.7010000  11.5100000  66.5890000  17.2940000
  11.7760000  66.1480000  16.3000000  10.9850000  67.5160000  17.0520000
  12.3210000  66.7390000  17.9770000   9.5920000  65.1920000  16.8600000
   9.2900000  66.0760000  16.2880000   8.6330000  64.8070000  17.3610000
  10.1340000  64.5360000  16.1630000  14.5070000  65.1280000  16.1140000
  15.0130000  63.1060000  17.5520000  13.9750000  63.3540000  20.7210000
  14.9420000  62.3960000  20.6410000  16.0900000  62.5190000  20.9900000
  14.4230000  61.0030000  20.3640000  14.4700000  60.9710000  19.2810000
  13.4180000  61.0450000  20.7550000  15.2430000  59.8170000  20.9370000
  15.0920000  59.8940000  22.0820000  16.2670000  59.9380000  20.7640000
  14.8310000  58.4360000  20.3130000  15.3400000  58.3750000  19.3630000
  13.7130000  58.3840000  20.2040000  15.3800000  57.2070000  21.0740000
  16.4280000  57.3520000  21.3640000  15.3580000  56.3550000  20.3370000
  14.5890000  56.7400000  22.3050000  13.5610000  56.4300000  22.0940000
  14.3830000  57.5130000  22.9670000  15.3670000  55.5290000  22.9670000
  16.3990000  55.8360000  23.3560000  15.4340000  54.7650000  22.1990000
  14.6590000  54.6830000  24.0560000  15.1530000  53.6910000  24.3030000
  13.6720000  54.4640000  23.6950000  14.6270000  55.4020000  25.4120000
  15.4340000  56.1000000  25.7170000  13.5500000  55.3410000  26.1840000
  13.6230000  55.7940000  27.1290000  12.3990000  54.4030000  26.0430000
  12.3000000  53.7340000  26.9040000  12.4950000  53.7710000  25.2050000
  11.0890000  55.1590000  25.8540000  10.2780000  54.5320000  25.4880000
  11.2010000  55.8420000  24.9970000  10.6860000  55.8140000  27.2010000
  11.4960000  56.5200000  27.5600000  10.4700000  55.0460000  27.7930000
   9.3240000  56.5990000  27.0780000   8.5170000  55.9150000  26.7740000
   9.3770000  57.4040000  26.3060000   8.9380000  57.3300000  28.3950000
   8.8740000  56.5430000  29.2100000   7.8970000  57.8140000  28.3470000
   9.9630000  58.4250000  28.8040000   9.4530000  59.3580000  28.6560000
  10.8700000  58.3830000  28.1600000  10.5580000  58.4270000  30.2240000
  10.7840000  57.4370000  30.6850000   9.8290000  58.8900000  30.8450000
  11.6840000  59.4560000  30.2620000  11.9730000  59.5950000  31.3370000
  11.4510000  60.4450000  29.7780000  12.6250000  59.0010000  29.8210000
  92.5560000   4.1210000  36.9010000  93.5320000   3.7280000  37.2590000
  91.9970000   4.2830000  37.8630000  92.7380000   5.0680000  36.3680000
  91.7840000   3.1210000  36.1190000  91.6290000   2.3300000  36.7900000
  90.8340000   3.5880000  35.7790000  92.5030000   2.5320000  34.8710000
  93.4940000   2.0400000  35.1500000  92.0150000   1.6270000  34.6040000
  92.7670000   3.4400000  33.6350000  91.8130000   3.7060000  33.3010000
  93.3160000   4.3310000  33.9240000  93.6350000   2.6810000  32.5570000
  93.5600000   1.6030000  32.7630000  93.1930000   3.0420000  31.5950000
  95.0830000   3.0900000  32.6670000  95.2260000   4.1460000  32.5160000
  95.4180000   2.7650000  33.6870000  96.0420000   2.5420000  31.6730000
  96.3360000   1.4510000  31.8310000  95.6230000   2.6490000  30.6340000
  97.3860000   3.3230000  31.5360000  97.1650000   4.4160000  31.3520000
  97.8610000   3.2110000  32.5540000  98.4300000   2.8000000  30.4620000
  98.9250000   1.8690000  30.7650000  97.9040000   2.6120000  29.5540000
  99.5180000   3.8890000  30.1530000  99.9690000   4.2650000  31.1400000
 100.2970000   3.4220000  29.4800000  99.0600000   5.2170000  29.4930000
  98.4330000   5.7670000  30.2250000  99.9520000   5.7200000  29.2020000
  98.2620000   4.9960000  28.2260000  98.8720000   4.4500000  27.5130000
  97.4310000   4.2830000  28.5030000  97.8090000   6.3330000  27.6160000
  97.5900000   6.9740000  28.4240000  98.5520000   6.7170000  26.9220000
  96.5350000   6.1410000  26.7980000  95.9460000   5.3830000  27.2950000
  96.0640000   7.1660000  26.7960000  96.7190000   5.7580000  25.3370000
  97.5480000   6.3720000  24.8810000  97.0850000   4.7340000  25.3210000
  95.5290000   5.8910000  24.4540000  94.4690000   6.3560000  24.8630000
  95.8290000   5.4540000  23.1880000  94.8070000   5.7000000  22.1420000
  95.0850000   5.1830000  21.1850000  93.8840000   5.4450000  22.6090000
  94.5710000   7.2450000  21.9700000  94.1960000   7.6130000  22.8440000
  93.5200000   7.6910000  20.9070000  92.5430000   7.5080000  21.4250000
  93.6580000   8.7180000  20.6390000  93.4330000   6.7670000  19.8190000
  93.5600000   7.2940000  18.3410000  95.0550000   7.7400000  18.1220000
  95.6130000   8.0310000  16.8850000  96.1020000   7.1380000  16.4660000
  94.8220000   8.3080000  16.1580000  96.6010000   9.1570000  17.0450000
  97.4840000   8.8800000  17.6320000  97.0110000   9.4510000  16.1320000
  96.1680000  10.4650000  17.7500000  97.0890000  11.6530000  17.4800000
  96.8270000  12.0960000  16.5560000  96.9480000  12.3980000  18.2290000
  98.0610000  11.2580000  17.6620000  94.8790000  10.8140000  17.1730000
  94.6330000  11.8070000  17.5480000  94.9930000  10.8880000  16.0170000
  94.1720000  10.1120000  17.4810000  96.0770000  10.2810000  19.1940000
  95.5900000   9.3350000  19.5360000  95.5210000  11.1790000  19.3730000
  97.1060000  10.4110000  19.6610000  93.3460000   6.1060000  17.5170000
  92.8100000   8.4900000  18.1190000  95.8290000   7.8470000  21.8230000
  96.0520000   9.0150000  22.4610000  95.1500000   9.8460000  22.6710000
  97.5320000   9.3390000  22.6240000  97.8060000   9.9110000  21.7550000
  98.1930000   8.4910000  22.7520000  97.7290000  10.3100000  23.8290000
  97.0650000  11.1050000  23.7040000  98.7640000  10.6980000  23.9200000
  97.3910000   9.6970000  25.2370000  98.3430000   9.0630000  25.3230000
  96.4990000   9.0330000  25.1330000  97.1100000  10.7830000  26.3190000
  96.3530000  11.4400000  25.9220000  97.9200000  11.4850000  26.5250000
  96.7210000  10.1430000  27.7040000  97.5950000   9.4970000  27.8510000
  95.7930000   9.5810000  27.5810000  96.5450000  11.1890000  28.8520000
  95.9730000  11.9800000  28.5790000  97.4840000  11.5370000  29.1350000
  95.8450000  10.5150000  30.0050000  96.3300000   9.5150000  30.3210000
  94.8300000  10.2020000  29.8020000  95.8800000  11.5480000  31.1520000
  94.9390000  12.1500000  31.1540000  96.7710000  11.6900000  32.1340000
  96.6730000  12.5480000  32.8200000  97.9010000  10.7190000  32.3990000
  97.6150000   9.6850000  32.0610000  97.9450000  10.6640000  33.5040000
  99.2550000  11.1450000  31.8870000  99.6020000  12.1010000  32.2900000
  98.9960000  11.4240000  30.8700000 100.2940000   9.9880000  31.9970000
  99.8700000   9.0230000  31.6850000 100.7110000   9.9300000  33.0310000
 101.5310000  10.2340000  31.0450000 102.3430000   9.5590000  31.2620000
 101.9180000  11.2340000  31.2690000 101.2320000  10.0510000  29.5180000
 100.6770000  10.8840000  29.2600000 100.5470000   9.1530000  29.4070000
 102.5290000  10.0110000  28.6620000 102.9320000   9.0650000  29.0160000
 103.2380000  10.8540000  28.8550000 102.3550000   9.9870000  27.1160000
 102.0170000  10.9830000  26.9350000 101.5770000   9.2570000  26.8330000
 103.6170000   9.5070000  26.3560000 103.8560000   8.4680000  26.5070000
 104.3960000  10.0450000  26.7780000 103.4730000   9.8080000  25.2800000
  37.2190000 116.6020000  32.2420000  37.8290000 115.9160000  32.7920000
  37.3830000 117.6110000  32.4640000  37.3970000 116.4590000  31.1990000
  35.7010000 116.4640000  32.6270000  35.3610000 115.4320000  32.4310000
  35.4940000 116.7690000  33.6850000  34.9220000 117.4500000  31.6970000
  35.2880000 118.4700000  31.8350000  34.9740000 117.1600000  30.6690000
  33.3890000 117.4880000  31.9500000  32.8780000 116.5450000  31.7510000
  33.2510000 117.7270000  32.9760000  32.6950000 118.6050000  31.1440000
  32.9830000 119.5770000  31.4110000  33.0250000 118.4370000  30.1970000
  31.1700000 118.5110000  31.3280000  30.9270000 117.5590000  30.9090000
  30.8320000 118.5080000  32.3690000  30.2420000 119.5060000  30.5690000
  30.2770000 120.4050000  31.1280000  30.7110000 119.7300000  29.5440000
  28.7140000 119.1680000  30.5410000  28.3510000 119.2020000  31.6110000
  28.1720000 119.8390000  29.8270000  28.3810000 117.6390000  30.1530000
  28.7820000 117.1130000  30.9790000  27.2600000 117.4420000  30.0910000
  29.0290000 117.3170000  28.8420000  28.8720000 118.1080000  28.0840000
  30.1310000 117.1670000  28.9180000  28.3860000 115.9910000  28.2830000
  27.2860000 115.9830000  28.3660000  28.6350000 116.0170000  27.2100000
  29.0170000 114.8090000  28.9660000  30.0570000 115.0310000  29.1440000
  28.5350000 114.6270000  29.8940000  28.5870000 113.6280000  27.9940000
  27.5210000 113.7580000  27.7820000  29.0430000 113.6640000  26.9800000
  28.8170000 112.2060000  28.5760000  28.1720000 112.1480000  29.5310000
  28.4020000 111.4740000  27.9140000  30.2900000 111.7870000  28.9160000
  30.8150000 112.6530000  29.2820000  30.3960000 111.0270000  29.6850000
  31.0970000 111.2610000  27.7960000  30.6730000 110.5840000  26.8730000
  32.4060000 111.4150000  28.0400000  33.3490000 111.1010000  27.0040000
  34.2780000 111.1680000  27.5050000  33.1220000 110.0870000  26.6220000
  33.2910000 112.2110000  25.9100000  32.2840000 112.2490000  25.4190000
  34.3100000 111.8040000  24.8180000  35.2820000 111.7060000  25.3930000
  34.0370000 110.8420000  24.3560000  34.5360000 112.8480000  23.8450000
  33.6150000 113.0420000  22.5650000  34.1160000 111.8690000  21.6130000
  35.3500000 111.8630000  21.0050000  35.4050000 111.1960000  20.1220000
  35.5110000 112.9540000  20.6930000  36.2840000 111.3040000  22.0100000
  36.5810000 112.1290000  22.6590000  35.9110000 110.5870000  22.7490000
  37.4700000 110.5300000  21.4250000  38.6140000 110.6960000  22.3720000
  38.8230000 111.7650000  22.3590000  38.3260000 110.1950000  23.3310000
  39.4450000 110.1560000  21.8580000  37.1160000 109.1060000  21.3190000
  36.9700000 108.5420000  22.2380000  36.2480000 108.9100000  20.6780000
  37.9580000 108.6320000  20.8710000  38.0270000 111.0770000  20.1350000
  38.8080000 110.3920000  19.8060000  38.5580000 111.9630000  20.3250000
  37.2310000 111.2330000  19.4270000  32.1970000 112.7610000  22.8490000
  33.9640000 114.3180000  21.9420000  33.7640000 113.4890000  26.3400000
  32.8680000 114.4320000  26.6800000  31.7570000 114.1800000  27.0470000
  33.3830000 115.8040000  26.4260000  33.0060000 116.2070000  25.5120000
  34.5090000 115.7360000  26.3930000  32.8720000 116.7570000  27.4690000
  33.0700000 116.4870000  28.4730000  31.7900000 116.6630000  27.3070000
  33.3420000 118.2110000  27.2690000  32.6270000 118.8370000  27.8080000
  33.2050000 118.3390000  26.1800000  34.7550000 118.5530000  27.7440000
  35.3370000 117.5980000  27.6750000  34.7120000 118.8960000  28.7710000
  35.2590000 119.6170000  26.8300000  35.2690000 119.2460000  25.8040000
  36.2810000 119.8760000  27.1160000  34.4930000 120.9480000  26.9510000
  33.4500000 120.8410000  26.6300000  35.0330000 121.5900000  26.2380000
  34.5620000 121.5240000  28.3380000  35.5260000 121.7900000  28.5620000
  34.2480000 120.7120000  28.9900000  33.6520000 122.7350000  28.3880000
  33.4950000 123.1920000  27.3900000  32.8210000 123.0020000  29.3790000
  32.0180000 123.7410000  29.2210000  32.8140000 122.4470000  30.8360000
  33.6050000 121.6910000  30.9010000  31.8150000 121.9820000  30.9910000
  33.0810000 123.5780000  31.9120000  34.1310000 123.9500000  31.9240000
  32.4590000 124.4710000  31.6140000  32.5810000 123.2830000  33.3560000
  33.1040000 122.3290000  33.7010000  31.4810000 123.0910000  33.3190000
  32.9660000 124.4060000  34.2920000  32.6260000 125.3640000  33.9290000
  34.0530000 124.4080000  34.1880000  32.4740000 124.2640000  35.7700000
  32.6550000 123.3210000  36.2650000  31.3740000 124.2340000  35.7610000
  32.9400000 125.4740000  36.6090000  32.5030000 126.4160000  36.2440000
  34.0690000 125.6440000  36.5080000  32.5710000 125.2340000  38.0930000
  31.5180000 124.9550000  38.1100000  32.4410000 126.0820000  38.7330000
  33.4110000 124.1240000  38.7760000  32.8240000 123.7160000  39.6450000
  34.3890000 124.5300000  39.0860000  33.6340000 123.2800000  38.1700000
   1.0850000 130.1130000  33.4200000   0.7820000 129.8560000  32.3550000
   0.3740000 129.6730000  34.1490000   2.0830000 129.6410000  33.6070000
   1.0220000 131.6500000  33.5880000   1.3450000 131.8800000  34.6450000
   1.7930000 132.0200000  32.9480000  -0.2210000 132.4720000  33.4680000
  -0.6280000 132.3470000  32.4720000  -0.9070000 132.0890000  34.2140000
  -0.0730000 133.9700000  33.8650000  -1.0510000 134.4070000  33.9160000
   0.3740000 134.1140000  34.8800000   0.7200000 134.8980000  32.9050000
   1.7350000 134.6650000  32.9680000   0.5360000 134.7620000  31.8920000
   0.5200000 136.4300000  33.1480000  -0.5570000 136.7350000  32.9050000
   0.7150000 136.7740000  34.2180000   1.4120000 137.0990000  32.0020000
   2.3900000 136.7100000  32.0690000   1.0790000 136.7810000  31.0670000
   1.3030000 138.6300000  32.1300000   0.2700000 138.9110000  32.1230000
   1.8600000 139.0750000  32.9670000   2.0800000 139.1950000  30.9400000
   3.0710000 138.8990000  31.0800000   1.7190000 138.7470000  30.0530000
   1.9740000 140.7260000  30.9390000   0.8990000 140.8870000  30.6510000
   2.2250000 141.1680000  31.9370000   2.9260000 141.4420000  29.9600000
   3.8010000 141.8150000  30.4550000   3.2190000 140.6860000  29.2000000
   2.2180000 142.6050000  29.2270000   1.4060000 142.1260000  28.7550000
   1.8370000 143.3750000  29.9290000   3.0060000 143.2510000  28.0890000
   3.4300000 142.5050000  27.4460000   2.4490000 143.8990000  27.5220000
   4.1020000 144.1150000  28.6170000   3.7670000 144.7900000  29.4850000
   4.9230000 143.4530000  28.8810000   4.7350000 145.0310000  27.4790000
   3.9980000 145.6360000  26.9400000   5.3050000 145.7920000  28.0510000
   5.6050000 144.4250000  26.4090000   5.2400000 143.8690000  25.4050000
   6.8780000 144.7880000  26.6510000   7.8390000 144.5640000  25.6280000
   8.8500000 144.7630000  26.0310000   7.7630000 143.5040000  25.2400000
   7.6220000 145.4270000  24.3630000   6.5860000 145.2790000  24.0630000
   8.6800000 145.0920000  23.2830000   8.5770000 144.0160000  23.1700000
   8.4400000 145.5830000  22.2800000  10.1380000 145.2460000  23.7190000
  11.2210000 145.5820000  22.6520000  11.0620000 147.1180000  22.3340000
  11.5680000 148.1460000  23.3060000  10.9340000 148.9850000  23.3390000
  11.7160000 147.7770000  24.3480000  13.0140000 148.6120000  22.8350000
  13.1970000 149.5370000  23.4170000  13.7960000 147.8730000  23.1060000
  13.1900000 149.0110000  21.3530000  14.4860000 149.7080000  21.1540000
  14.5940000 150.1180000  20.1610000  14.4990000 150.4680000  21.8750000
  15.2600000 148.9790000  21.3210000  13.2450000 147.7900000  20.4380000
  12.2710000 147.2110000  20.6000000  13.1710000 148.1640000  19.4070000
  14.1470000 147.1850000  20.5730000  12.1240000 149.9580000  20.9290000
  11.1270000 149.4090000  21.1080000  12.2060000 150.3200000  19.9160000
  12.2070000 150.8790000  21.5420000  12.5080000 145.3620000  23.2790000
  10.9520000 144.8400000  21.3850000   7.7810000 146.8650000  24.8050000
   6.9400000 147.7080000  24.1760000   6.2530000 147.4520000  23.2300000
   6.9540000 149.0970000  24.8340000   6.4900000 149.8230000  24.1820000
   7.9330000 149.3470000  25.1110000   6.1720000 149.1450000  26.1690000
   6.4310000 150.0810000  26.6450000   6.4910000 148.2820000  26.7780000
   4.6280000 148.9580000  26.0300000   4.3120000 147.8250000  25.8780000
   4.3640000 149.4360000  25.1050000   3.8650000 149.5330000  27.1910000
   2.8950000 149.5990000  26.7660000   4.1540000 150.5820000  27.4460000
   3.8050000 148.7160000  28.4520000   4.6940000 148.7040000  29.0120000
   3.7200000 147.6780000  28.0760000   2.6550000 149.0980000  29.4610000
   2.7330000 150.1080000  29.8260000   2.7150000 148.5010000  30.3420000
   1.1950000 148.8890000  29.0490000   1.0480000 149.3940000  28.1150000
   0.4590000 149.3440000  29.7170000   0.8980000 147.4220000  28.7860000
   0.7830000 147.1590000  27.7060000   0.5260000 146.5470000  29.7430000
   0.2720000 145.5090000  29.4630000   0.5460000 146.8540000  31.2320000
  -0.4940000 146.8080000  31.4760000   0.9160000 147.8900000  31.4640000
   1.2850000 145.8620000  32.0800000   2.3670000 145.7960000  31.7420000
   0.7800000 144.9050000  31.8380000   1.1460000 146.1040000  33.5950000
   0.1050000 146.0800000  33.7760000   1.5490000 147.1100000  33.7440000
   1.9320000 145.0620000  34.4050000   1.6780000 145.2110000  35.4600000
   2.9600000 145.2440000  34.2070000   1.5580000 143.5730000  34.1420000
   2.2940000 142.8920000  34.5420000   1.5300000 143.3300000  33.0740000
   0.2220000 143.1450000  34.7640000  -0.5540000 143.8140000  34.3760000
   0.4060000 143.3720000  35.8050000  -0.1410000 141.7100000  34.4790000
   0.6010000 141.0490000  34.8690000  -0.2430000 141.6620000  33.3790000
  -1.4760000 141.3680000  35.1200000  -1.3910000 141.4520000  36.2510000
  -1.8400000 140.3310000  34.8710000  -2.2430000 142.1130000  34.7410000
   2.0000000  37.6300000  35.7910000   1.7430000  38.0890000  36.8200000
   1.4430000  36.7010000  35.6630000   1.4950000  38.1940000  34.9900000
   3.5210000  37.5130000  35.6700000   4.0300000  38.4640000  35.6130000
   3.9220000  37.0280000  36.5600000   3.8760000  36.7990000  34.2870000
   3.8370000  37.5190000  33.4390000   4.9550000  36.4760000  34.3970000
   3.0790000  35.5520000  33.8200000   3.2690000  34.7960000  34.5550000
   1.9840000  35.6500000  33.8150000   3.4270000  35.2000000  32.4050000
   2.8370000  35.9350000  31.8380000   4.5110000  35.2510000  32.1520000
   2.9020000  33.8170000  32.0320000   3.0310000  33.1140000  32.9130000
   1.8790000  33.7680000  31.7480000   3.7300000  33.2000000  30.8040000
   3.5870000  33.8600000  29.8960000   4.7860000  33.1710000  30.9920000
   3.3680000  31.7630000  30.4010000   3.3100000  31.1220000  31.2970000
   2.4400000  31.7480000  29.8230000   4.4840000  31.3290000  29.3360000
   4.2860000  31.9200000  28.4510000   5.4580000  31.6630000  29.7640000
   4.3940000  29.8010000  29.0570000   4.3680000  29.3200000  30.0520000
   3.4670000  29.5340000  28.6130000   5.5870000  29.2690000  28.3220000
   6.4960000  29.3980000  28.9240000   5.5260000  28.2530000  28.2050000
   5.6560000  29.8100000  26.9170000   4.6370000  29.6130000  26.4310000
   5.8140000  30.8950000  26.8400000   6.8100000  29.0420000  26.0640000
   7.8490000  29.3130000  26.3360000   6.7700000  27.9520000  26.1550000
   6.7760000  29.2890000  24.5330000   7.1330000  30.3250000  24.2670000
   7.5110000  28.6100000  24.0230000   5.3340000  29.1430000  23.9740000
   5.1000000  28.0930000  24.0640000   4.5720000  29.8540000  24.4800000
   5.2290000  29.4650000  22.5250000   5.9570000  30.0750000  21.7860000
   4.0800000  28.8840000  22.0870000   3.7390000  28.9200000  20.6830000
   2.6090000  28.8470000  20.4900000   3.9650000  29.9570000  20.3100000
   4.5640000  27.7780000  19.9620000   5.6040000  27.9530000  20.0940000
   4.4270000  27.9240000  18.4010000   5.0890000  28.6720000  18.0150000
   4.6230000  26.9790000  17.8940000   3.1060000  28.3770000  18.0930000
   2.8190000  29.7040000  17.1570000   1.3900000  29.3850000  16.5640000
   0.1170000  29.3550000  17.3900000  -0.6390000  28.9150000  16.8290000
   0.3500000  28.5770000  18.1660000  -0.2460000  30.7850000  17.9530000
  -1.1670000  30.7390000  18.5720000   0.6190000  31.2060000  18.5510000
  -0.4950000  31.8800000  16.9920000   0.7570000  32.4300000  16.4270000
   1.4490000  32.7190000  17.2130000   1.2590000  31.6440000  15.8950000
   0.5820000  33.2500000  15.7080000  -1.2420000  31.3940000  15.8400000
  -1.5480000  32.1150000  15.1190000  -0.6700000  30.6400000  15.3330000
  -2.1560000  30.9440000  16.1000000  -1.4040000  32.8520000  17.7490000
  -0.8460000  33.3580000  18.6060000  -2.1950000  32.2740000  18.1810000
  -1.5840000  33.5760000  16.9910000   2.7270000  30.8970000  17.9820000
   3.7890000  29.6440000  16.0600000   3.9870000  26.4690000  20.3920000
   4.5840000  26.0350000  21.4960000   5.6950000  26.4100000  21.8750000
   3.8150000  24.9080000  22.2460000   4.0990000  23.8930000  21.8620000
   2.7600000  24.9260000  21.9850000   3.9130000  25.0050000  23.7550000
   2.9910000  24.6260000  24.1990000   3.9650000  26.0560000  23.9890000
   5.1310000  24.3070000  24.3830000   5.9850000  24.7310000  23.9010000
   5.0960000  23.2720000  24.1200000   5.2930000  24.6100000  25.8530000
   5.4430000  25.6300000  25.9380000   6.1140000  24.0110000  26.1920000
   4.0800000  24.2390000  26.7480000   3.9380000  23.1490000  26.6900000
   3.1500000  24.6670000  26.2770000   4.2870000  24.6690000  28.1700000
   4.2300000  25.6700000  28.3810000   5.2740000  24.3390000  28.3450000
   3.4700000  23.9310000  29.2290000   3.7060000  24.3940000  30.1290000
   3.7810000  22.8690000  29.2780000   1.9850000  24.0790000  28.9400000
   1.5310000  23.2290000  28.4630000   1.2900000  25.2100000  29.1250000
   0.2120000  25.3670000  28.9130000   1.8320000  26.4940000  29.6790000
   2.2670000  27.0230000  28.8410000   2.5450000  26.3130000  30.3710000
   0.8080000  27.3740000  30.2370000   0.4150000  26.9250000  31.1310000
   0.0310000  27.5170000  29.4620000   1.3110000  28.8270000  30.4540000
   1.4730000  29.3370000  29.5020000   2.2840000  28.9000000  31.0180000
   0.2220000  29.6180000  31.2430000  -0.7110000  29.6090000  30.6740000
   0.4860000  30.6940000  31.2400000  -0.0940000  29.1310000  32.7180000
  -0.6430000  28.1880000  32.6290000  -0.7570000  29.8970000  33.1760000
   1.1130000  28.7470000  33.6250000   1.7600000  29.6920000  33.6750000
   1.7290000  27.9430000  33.1990000   0.6960000  28.3710000  35.0580000
   0.1250000  27.4320000  35.0380000   0.0630000  29.1720000  35.4220000
   1.9530000  28.4140000  35.8900000   1.7020000  28.0860000  36.8110000
   2.3150000  29.4410000  35.8240000   2.6180000  27.7090000  35.4300000
  95.3310000  15.7890000  31.4210000  94.4540000  16.4880000  31.2830000
  95.5270000  15.7500000  32.5280000  95.1740000  14.8200000  30.9550000
  96.4760000  16.4400000  30.6920000  96.4090000  17.5110000  30.9750000
  97.3440000  15.9320000  31.0500000  96.2690000  16.1670000  29.2220000
  96.0080000  15.0740000  29.0750000  95.4220000  16.6960000  28.8200000
  97.4670000  16.6280000  28.4050000  97.2400000  16.6640000  27.3160000
  97.7300000  17.6370000  28.7100000  98.6920000  15.7700000  28.5960000
  99.6430000  16.3140000  28.3130000  98.8260000  15.5920000  29.6710000
  98.5700000  14.4490000  27.7520000  97.6560000  13.8790000  28.1980000
  98.2260000  14.6040000  26.6560000  99.7860000  13.5830000  27.8770000
 100.0580000  13.6990000  28.9180000  99.3980000  12.5610000  27.6060000
 100.8730000  14.0030000  26.9160000 101.0950000  15.0400000  27.1140000
 101.7690000  13.4120000  27.2170000 100.5250000  13.6380000  25.4320000
 100.4710000  12.5370000  25.2200000  99.6020000  14.1040000  25.1590000
 101.6740000  14.0570000  24.4450000 102.5930000  13.3610000  24.6080000
 101.3340000  13.8120000  23.4200000 102.0890000  15.5160000  24.3720000
 102.5050000  15.7460000  25.3200000 102.9530000  15.6810000  23.6050000
 100.9620000  16.5650000  24.0590000 100.2290000  16.6050000  24.8890000
 101.4730000  17.5360000  23.9390000 100.2290000  16.2830000  22.7500000
 101.0160000  16.1060000  21.9920000  99.6610000  15.3870000  22.9490000
  99.3120000  17.4240000  22.2530000 100.0310000  18.2450000  22.2220000
  98.9610000  17.0370000  21.2850000  98.0650000  17.9330000  23.0860000
  98.4040000  18.1960000  24.0400000  97.6850000  18.8200000  22.5530000
  96.8470000  16.9670000  23.1050000  95.7660000  17.1810000  22.5770000
  97.1970000  15.9290000  23.8410000  96.3820000  14.6350000  23.7720000
  96.8980000  13.9660000  24.4450000  95.3360000  14.8350000  24.0700000
  96.4740000  13.9870000  22.3630000  96.2420000  14.6970000  21.5790000
  95.4970000  12.7630000  22.3890000  95.7930000  11.9540000  21.6890000
  95.5670000  12.2380000  23.3060000  94.2030000  13.3090000  22.0170000
  93.7280000  13.1320000  20.5670000  93.2510000  11.6260000  20.6320000
  92.0730000  11.2980000  21.3600000  92.0050000  10.2210000  21.5650000
  92.0370000  11.7250000  22.3950000  90.7430000  11.6850000  20.6690000
  89.9400000  11.3620000  21.3600000  90.7180000  12.7640000  20.5440000
  90.4310000  11.0560000  19.2750000  89.0350000  11.2920000  18.8310000
  89.0190000  12.3200000  18.4560000  88.7940000  10.4910000  18.0480000
  88.3210000  11.2760000  19.6380000  91.3770000  11.4310000  18.2120000
  92.2650000  10.9330000  18.4970000  91.0690000  11.0600000  17.3020000
  91.5480000  12.4900000  18.4120000  90.3890000   9.5790000  19.5480000
  89.8790000   8.8990000  18.7410000  89.7470000   9.4650000  20.3890000
  91.3910000   9.2090000  19.7670000  92.5770000  14.0340000  20.2990000
  94.8550000  13.2110000  19.6000000  97.8160000  13.4590000  22.0330000
  98.2830000  13.5660000  20.7750000  97.8600000  14.2290000  19.8800000
  99.5200000  12.7540000  20.4790000  99.1950000  11.7280000  20.3400000
 100.0320000  12.7690000  21.4450000 100.4360000  13.3250000  19.2790000
  99.8390000  13.4280000  18.3980000 101.1190000  12.5580000  19.1010000
 101.2690000  14.6430000  19.5660000 101.9800000  14.4970000  20.4460000
 100.6050000  15.4670000  19.7180000 102.2120000  14.9820000  18.4160000
 101.6820000  15.1880000  17.5260000 102.7990000  14.0500000  18.2640000
 103.1620000  16.1970000  18.7860000 103.7300000  16.5160000  17.8690000
 103.7770000  15.7660000  19.6080000 102.5370000  17.5240000  19.3410000
 101.8550000  17.3350000  20.1250000 102.0420000  17.8890000  18.4990000
 103.4870000  18.6690000  19.7130000 103.9050000  19.1320000  18.8750000
 104.2320000  18.0640000  20.3390000 102.7740000  19.7200000  20.5360000
 101.9230000  20.1720000  20.0440000 103.0920000  20.0590000  21.7790000
 102.5220000  20.8180000  22.2950000 103.9870000  19.3010000  22.7840000
 104.9750000  19.6150000  22.6760000 104.0260000  18.2000000  22.6010000
 103.5650000  19.5490000  24.2370000 102.6360000  19.0720000  24.2550000
 103.4770000  20.6180000  24.5390000 104.5570000  18.8160000  25.1000000
 105.5180000  19.1680000  24.8740000 104.4970000  17.7440000  24.9160000
 104.5040000  19.1780000  26.5950000 103.3880000  19.2490000  26.8490000
 104.8960000  20.1860000  26.7200000 105.1020000  18.2060000  27.5140000
 106.1700000  18.0300000  27.2020000 104.4790000  17.3220000  27.3790000
 105.0030000  18.5290000  28.9660000 105.5070000  19.4840000  29.1720000
 105.4280000  17.7390000  29.5700000 103.6160000  18.6150000  29.5790000
 103.1640000  19.5850000  29.3220000 103.7450000  18.5430000  30.6220000
 102.6910000  17.4480000  29.2430000 101.6550000  17.5860000  29.6380000
 103.1520000  16.5610000  29.7350000 102.6220000  17.1930000  28.1880000
  74.3250000 114.6450000  34.1230000  74.3610000 115.3350000  35.0080000
  75.2260000 114.7900000  33.4930000  74.4320000 113.6370000  34.6370000
  72.9910000 114.7680000  33.3630000  72.1420000 114.6370000  34.0340000
  72.9880000 115.7880000  32.9870000  72.9160000 113.7630000  32.2040000
  73.8410000 113.6850000  31.5940000  72.7670000 112.7800000  32.6540000
  71.7190000 114.0760000  31.3100000  70.7880000 113.9790000  31.9400000
  71.8120000 115.1330000  31.1150000  71.6110000 113.2850000  29.9940000
  71.5690000 112.1890000  30.3060000  70.6970000 113.5740000  29.4270000
  72.6630000 113.6080000  28.9690000  72.5700000 114.6840000  28.7310000
  73.7290000 113.4050000  29.2810000  72.4600000 112.8780000  27.5910000
  71.5770000 113.2680000  27.1380000  73.2740000 113.1490000  26.8500000
  72.3320000 111.3770000  27.7160000  71.3350000 111.0920000  28.1710000
  72.2620000 111.1030000  26.6880000  73.4760000 110.5830000  28.4040000
  74.4170000 110.9410000  28.0190000  73.5890000 110.9230000  29.4470000
  73.3740000 109.0160000  28.3580000  73.4600000 108.6560000  27.3150000
  74.2220000 108.6570000  28.9480000  71.9890000 108.5450000  28.9220000
  72.0450000 108.9250000  29.9540000  71.1620000 108.9100000  28.3100000
  71.9340000 106.9640000  29.0130000  72.9500000 106.7070000  29.4410000
  71.1580000 106.6100000  29.6870000  71.6380000 106.3440000  27.6190000
  70.5710000 106.4920000  27.4060000  72.1120000 107.0550000  26.8770000
  72.2570000 104.8570000  27.4250000  71.8750000 104.1740000  28.1470000
  71.8680000 104.4580000  26.5080000  73.7950000 104.5990000  27.4230000
  74.3390000 105.0300000  28.3480000  73.8880000 103.4950000  27.4660000
  74.4160000 105.1910000  26.2750000  74.7180000 104.4790000  25.3430000
  74.6810000 106.5150000  26.3770000  75.1700000 107.2320000  25.2340000
  75.5120000 108.1830000  25.5610000  76.0770000 106.7590000  24.8880000
  74.2340000 107.3160000  23.9750000  73.8350000 106.2490000  23.8130000
  74.8690000 108.0220000  22.7770000  74.0890000 107.9550000  21.9270000
  75.1180000 109.0780000  23.1480000  76.0910000 107.2950000  22.4080000
  77.5530000 107.9220000  22.6080000  77.7000000 108.6890000  21.2210000
  77.6190000 110.1520000  21.1240000  77.6020000 110.5350000  20.1230000
  76.7210000 110.5050000  21.6730000  78.8780000 110.6230000  21.8380000
  78.9200000 111.6950000  21.9820000  78.8260000 110.3320000  22.8810000
  80.1870000 110.2310000  21.3500000  81.1290000 111.1280000  21.9510000
  81.1600000 110.9670000  23.0430000  82.1120000 110.9100000  21.5840000
  80.8410000 112.2010000  21.6650000  80.6510000 108.7520000  21.6460000
  81.7500000 108.6140000  21.5550000  80.3450000 108.5270000  22.6810000
  80.0940000 108.1350000  20.9660000  80.1340000 110.3850000  19.8380000
  79.7480000 111.3470000  19.5890000  79.5130000 109.6350000  19.4770000
  81.1540000 110.3240000  19.5050000  77.3950000 108.9090000  23.6860000
  78.6650000 106.9380000  22.7070000  73.1300000 108.1590000  24.4400000
  71.9120000 108.1250000  23.8820000  71.6710000 107.4310000  22.9220000
  70.9640000 109.0280000  24.6100000  71.5930000 109.6800000  25.2860000
  70.2910000 108.4420000  25.1950000  70.1540000 109.8580000  23.6830000
  69.6860000 109.2960000  22.8760000  70.8450000 110.5680000  23.1930000
  69.0130000 110.5910000  24.3670000  68.2890000 109.9020000  24.7620000
  68.5370000 111.2510000  23.6410000  69.3720000 111.4170000  25.5920000
  70.2110000 112.1140000  25.4540000  69.7460000 110.8110000  26.3880000
  68.2920000 112.3260000  26.1030000  68.5340000 112.4600000  27.1450000
  67.3170000 111.8710000  25.9660000  68.2600000 113.7140000  25.4250000
  67.7860000 113.5180000  24.4470000  69.2300000 114.1200000  25.2670000
  67.2830000 114.7030000  26.1520000  67.2290000 115.5950000  25.5130000
  67.7150000 115.0450000  27.0680000  65.8910000 114.0830000  26.3520000
  65.5240000 113.3960000  25.5460000  65.2030000 114.0890000  27.4870000
  64.2480000 113.5980000  27.5140000  65.5550000 114.9080000  28.7020000
  64.8490000 115.7100000  28.8240000  66.5380000 115.3970000  28.7030000
  65.4150000 114.1480000  30.0380000  66.0470000 113.2790000  30.0090000
  64.3640000 113.7330000  30.1720000  65.7690000 115.0530000  31.3190000
  65.2690000 116.0460000  31.2410000  66.7750000 115.3130000  31.1150000
  65.5700000 114.2690000  32.7040000  66.2810000 113.4750000  32.5360000
  64.5750000 113.9100000  32.8440000  65.8940000 115.0530000  33.9630000
  65.0240000 115.6290000  34.2230000  66.6100000 115.8040000  33.7030000
  66.1260000 114.2030000  35.2830000  65.1230000 113.7970000  35.6690000
  66.4420000 114.9080000  36.0610000  67.1940000 113.1070000  35.1520000
  67.8070000 113.1090000  36.0770000  67.9050000 113.2860000  34.4090000
  66.4580000 111.7680000  34.8890000  65.7030000 111.6210000  35.6910000
  67.0920000 110.8850000  34.9730000  66.0670000 111.7380000  33.8810000
 114.7360000 134.6910000  33.8470000 113.8410000 134.7190000  34.4420000
 115.1280000 135.6540000  33.8370000 115.4050000 133.9380000  34.3950000
 114.3310000 134.2280000  32.4320000 113.4970000 134.9000000  32.0720000
 115.2460000 134.3410000  31.8560000 113.8330000 132.7530000  32.3950000
 114.6410000 132.1230000  32.6510000 113.0650000 132.4520000  33.1790000
 113.3420000 132.3810000  30.9750000 112.5980000 133.1090000  30.6550000
 114.1510000 132.5660000  30.2810000 112.7110000 131.0180000  30.8100000
 113.4000000 130.3270000  31.3310000 111.7530000 130.8160000  31.3760000
 112.5570000 130.5210000  29.3430000 111.8110000 131.1500000  28.8240000
 113.4600000 130.7430000  28.6780000 112.2730000 129.0370000  29.2340000
 111.3950000 128.7020000  29.8560000 111.8610000 128.8670000  28.2680000
 113.5560000 128.1300000  29.4470000 113.7930000 128.1220000  30.5270000
 113.3110000 127.0430000  29.2760000 114.7430000 128.3700000  28.4700000
 114.2600000 128.0880000  27.5580000 115.0730000 129.3860000  28.4460000
 115.9050000 127.4730000  28.9640000 116.5170000 128.1060000  29.5660000
 115.4600000 126.6650000  29.6060000 116.6560000 126.7660000  27.8110000
 117.1450000 127.4380000  27.1160000 117.4780000 126.1000000  28.1980000
 115.8500000 125.8600000  26.8280000 115.7200000 124.9490000  27.3890000
 114.8600000 126.3340000  26.6450000 116.6330000 125.4250000  25.5390000
 117.5300000 124.8500000  25.7630000 115.9560000 124.7440000  24.9810000
 116.9980000 126.5480000  24.5630000 117.7280000 127.1940000  25.1690000
 117.5350000 126.2310000  23.7300000 115.7590000 127.4630000  24.1640000
 115.3890000 127.8460000  25.1570000 115.9150000 128.3020000  23.6240000
 114.7050000 126.7790000  23.3970000 114.8910000 125.8460000  22.6660000
 113.6150000 127.5430000  23.4750000 112.5920000 127.3510000  22.4540000
 113.0560000 127.4280000  21.4890000 112.1190000 126.3400000  22.4540000
 111.6070000 128.5220000  22.5570000 110.7610000 128.3760000  21.9010000
 112.1580000 129.9620000  22.2120000 111.2960000 130.6430000  22.0820000
 112.7060000 130.3720000  22.9850000 112.8110000 129.9800000  20.9490000
 114.3800000 130.1310000  20.7970000 115.0730000 128.6510000  20.8970000
 115.3780000 127.9050000  19.7370000 115.5530000 126.9070000  20.1230000
 114.5590000 127.9290000  19.0090000 116.7170000 128.3560000  19.1190000
 117.0030000 127.6030000  18.3200000 116.5710000 129.3130000  18.5590000
 117.9370000 128.5090000  19.9730000 118.0010000 127.7780000  21.2540000
 117.8380000 126.7550000  20.9480000 118.9520000 127.8370000  21.6990000
 117.2020000 128.1030000  21.9610000 119.1440000 128.1650000  19.1760000
 119.9460000 128.3960000  19.8280000 119.1930000 127.0070000  19.0980000
 119.2420000 128.6580000  18.1590000 118.0400000 129.9760000  20.3240000
 117.2610000 130.2230000  21.0270000 117.9280000 130.5030000  19.3550000
 119.0580000 130.1440000  20.6460000 114.5200000 130.5640000  19.3920000
 114.9480000 131.0780000  21.8160000 111.1060000 128.6610000  23.9260000
 110.0120000 128.0560000  24.2510000 109.3840000 127.2290000  23.5950000
 109.7350000 128.3940000  25.7320000 108.9410000 129.0150000  25.7770000
 110.5090000 129.0000000  26.2440000 109.6470000 127.0730000  26.5350000
 110.4790000 126.4800000  26.3380000 108.8400000 126.5510000  26.1430000
 109.3800000 127.1720000  27.9830000 108.3590000 127.5580000  28.1830000
 110.0440000 127.8760000  28.4650000 109.5390000 125.8030000  28.6330000
 108.8350000 125.1190000  28.2710000 109.2580000 125.8870000  29.6810000
 111.0420000 125.2260000  28.6190000 111.6980000 125.9270000  28.9300000
 111.4000000 125.1540000  27.6270000 111.3900000 123.9530000  29.3760000
 110.6540000 123.1590000  29.0770000 111.3610000 124.1020000  30.4230000
 112.8040000 123.6310000  29.0370000 113.5160000 124.5260000  29.1670000
 112.8980000 123.4570000  27.9940000 113.3160000 122.3050000  29.5910000
 112.7330000 121.4940000  29.4090000 114.4300000 122.1440000  30.3190000
 114.6330000 121.1160000  30.5800000 115.5380000 123.0680000  30.7410000
 115.4750000 124.0250000  30.2180000 116.5040000 122.5440000  30.6430000
 115.3030000 123.3590000  32.2660000 116.3500000 123.5940000  32.5350000
 115.0270000 122.3980000  32.7610000 114.2650000 124.5350000  32.6100000
 113.3140000 124.2530000  31.9860000 114.6460000 125.4700000  32.0820000
 114.0020000 124.7170000  34.1250000 114.9410000 124.7070000  34.5910000
 113.3850000 123.8610000  34.5020000 113.3860000 126.1280000  34.4130000
 114.0130000 126.8700000  33.9170000 113.5170000 126.2370000  35.5380000
 111.8970000 126.1980000  34.0160000 111.1730000 125.6390000  34.6020000
 111.8160000 125.8260000  32.9650000 111.3640000 127.5990000  34.1370000
 112.1570000 128.3730000  33.8520000 111.1240000 127.6370000  35.1920000
 110.1070000 127.7950000  33.1880000 109.6790000 128.8420000  33.3000000
 109.4300000 126.9290000  33.3000000 110.4650000 127.7540000  32.0770000
 144.9640000  36.1820000  34.0520000 144.6900000  35.4920000  33.2840000
 145.0660000  35.7340000  35.0360000 145.9170000  36.6890000  33.7050000
 143.7660000  37.1070000  34.1500000 142.8140000  36.5430000  33.9770000
 143.7490000  37.5260000  35.1580000 143.8190000  38.2990000  33.2030000
 143.6330000  37.9330000  32.1840000 142.9350000  38.8890000  33.4720000
 145.0970000  39.1910000  33.2300000 145.6260000  39.1890000  34.2130000
 145.8540000  38.7780000  32.5290000 144.7830000  40.6360000  32.7830000
 143.7590000  40.9070000  32.9880000 145.5340000  41.4200000  33.2010000
 144.9630000  40.6940000  31.2800000 145.9610000  40.4180000  31.0390000
 144.2440000  40.0190000  30.7740000 144.6770000  42.0920000  30.6650000
 144.0270000  42.5560000  31.3460000 145.6590000  42.5550000  30.6300000
 144.0910000  42.1020000  29.1840000 143.0390000  41.9900000  29.2040000
 144.3090000  43.1120000  28.7660000 144.7260000  41.0040000  28.2640000
 145.8210000  40.9500000  28.5290000 144.3510000  40.0050000  28.5370000
 144.6940000  41.3530000  26.7900000 144.9850000  42.4150000  26.7080000
 145.3200000  40.7070000  26.1580000 143.2450000  41.3780000  26.2280000
 142.6830000  40.5210000  26.6160000 142.7290000  42.2670000  26.6100000
 143.3650000  41.3210000  24.7180000 143.8810000  42.2140000  24.3650000
 143.9280000  40.4790000  24.4680000 142.0600000  41.3490000  23.9820000
 141.5320000  40.3840000  24.0240000 141.5300000  42.1380000  24.5210000
 142.2380000  41.9420000  22.5270000 142.5820000  42.9830000  22.6120000
 142.9800000  41.5020000  21.9670000 141.0290000  41.7630000  21.5130000
 140.2070000  42.3640000  21.8600000 141.2590000  42.0300000  20.4670000
 140.6270000  40.3030000  21.4220000 141.4230000  39.4290000  21.2500000
 139.2800000  40.1080000  21.4030000 138.8640000  38.6740000  21.1660000
 138.7680000  38.4520000  20.1100000 139.5380000  38.0410000  21.5820000
 137.5950000  38.4480000  21.9740000 137.5050000  37.3500000  22.0280000
 136.3420000  39.0540000  21.3550000 135.6130000  39.3190000  22.1170000
 136.5970000  39.9710000  20.7630000 135.6790000  38.0630000  20.5130000
 136.1840000  37.7880000  18.9820000 137.2740000  36.6190000  19.1900000
 137.0190000  35.1990000  19.2080000 136.1670000  34.9400000  18.5380000
 137.9770000  34.8180000  18.7700000 136.6850000  34.8160000  20.6270000
 137.6250000  34.7990000  21.1690000 136.0230000  35.5740000  21.0180000
 135.8890000  33.5710000  20.9850000 135.9470000  33.4420000  22.5000000
 135.4800000  32.4760000  22.7990000 136.9920000  33.4590000  22.7200000
 135.4970000  34.2990000  22.9900000 134.4330000  33.5780000  20.5460000
 133.8510000  34.2620000  21.1400000 134.3250000  33.8460000  19.4630000
 133.9960000  32.5590000  20.5790000 136.4970000  32.3110000  20.4520000
 137.5480000  32.3140000  20.6620000 136.2410000  32.4420000  19.3960000
 135.9660000  31.4380000  20.8410000 135.0730000  37.2340000  18.1940000
 136.8590000  39.0130000  18.5310000 137.7960000  39.0480000  23.2580000
 137.3610000  38.3640000  24.2760000 136.7820000  37.3080000  24.2120000
 137.8220000  38.9440000  25.5320000 137.2320000  38.4740000  26.2350000
 137.4990000  39.9520000  25.7050000 139.3380000  38.7880000  25.8040000
 139.8820000  39.6320000  25.3600000 139.5580000  37.8790000  25.1950000
 139.6520000  38.5670000  27.3530000 140.7650000  38.4190000  27.4140000
 139.2860000  37.5670000  27.7160000 139.2450000  39.6860000  28.3100000
 139.1730000  39.1890000  29.2670000 138.2110000  40.0000000  28.0200000
 140.1350000  40.9380000  28.3810000 140.2180000  41.2200000  27.3340000
 141.1620000  40.6710000  28.7250000 139.6330000  42.0200000  29.3560000
 138.7420000  42.5340000  28.9350000 140.4660000  42.7210000  29.4090000
 139.2500000  41.5360000  30.7770000 140.0560000  40.9790000  31.1900000
 138.4490000  40.9480000  30.6550000 138.9980000  42.7000000  31.6910000
 139.8980000  43.3120000  31.9530000 137.8560000  42.8510000  32.3720000
 137.8380000  43.7210000  33.0340000 136.5230000  42.0790000  32.2920000
 136.7920000  41.0660000  32.7430000 136.1200000  41.9610000  31.2340000
 135.4570000  42.7600000  33.1220000 135.4730000  43.8960000  32.9460000
 135.6380000  42.5420000  34.1630000 134.0160000  42.2890000  32.7620000
 133.9360000  41.2330000  33.1560000 133.8190000  42.3690000  31.6960000
 133.0550000  43.0870000  33.6530000 133.2550000  44.1220000  33.3840000
 133.3420000  42.9780000  34.7290000 131.6120000  42.7720000  33.4070000
 131.3800000  41.7420000  33.6520000 131.3620000  42.8270000  32.3520000
 130.7750000  43.8730000  34.0520000 131.0480000  44.8570000  33.6660000
 130.9480000  43.9290000  35.1010000 129.2580000  43.5760000  33.9350000
 129.0970000  42.4740000  34.1400000 128.9690000  43.8170000  32.9430000
 128.3840000  44.3190000  34.9050000 128.5660000  45.3640000  34.8410000
 128.6090000  43.9760000  35.9270000 127.3600000  43.9870000  34.7130000
  62.8260000  76.1490000  34.9970000  63.6620000  75.6760000  35.5310000
  61.8810000  75.7870000  35.4050000  62.9030000  77.2490000  35.1250000
  62.8860000  75.6990000  33.5440000  63.9000000  75.7920000  33.0940000
  62.8170000  74.5920000  33.5790000  61.7530000  76.3810000  32.6930000
  60.8540000  76.3500000  33.3080000  61.9220000  77.3910000  32.3950000
  61.5340000  75.6220000  31.3510000  62.3940000  75.7700000  30.6880000
  61.5510000  74.5130000  31.5240000  60.2880000  76.1460000  30.5910000
  60.3210000  75.5110000  29.7150000  59.3430000  75.9450000  31.2210000
  60.3110000  77.6060000  30.0770000  60.6430000  78.3850000  30.7380000
  60.9760000  77.5630000  29.2530000  58.8990000  78.1760000  29.7300000
  58.3580000  78.2990000  30.6520000  59.0920000  79.1610000  29.4430000
  58.0550000  77.3880000  28.7360000  57.8620000  76.3390000  29.1440000
  57.0610000  77.7920000  28.6610000  58.7080000  77.3810000  27.3310000
  58.8200000  78.4040000  26.9350000  59.7260000  76.8530000  27.4600000
  58.0450000  76.4510000  26.2160000  57.2840000  77.0290000  25.8080000
  58.7200000  76.3430000  25.4290000  57.4410000  75.1110000  26.6500000
  56.9430000  75.2330000  27.6000000  56.7230000  74.8330000  25.8740000
  58.5020000  73.9560000  26.6050000  58.9440000  73.9050000  25.6010000
  59.4110000  74.0960000  27.2400000  57.8880000  72.5490000  27.0730000
  57.5510000  72.5520000  28.1790000  57.0010000  72.4370000  26.4590000
  58.8900000  71.4170000  26.7770000  59.7100000  71.4580000  27.4980000
  58.4190000  70.4570000  26.9130000  59.4710000  71.4290000  25.3990000
  60.0660000  72.2650000  25.2410000  60.1030000  70.5480000  25.3730000
  58.4800000  71.2570000  24.2310000  58.2880000  70.1750000  23.6700000
  57.8870000  72.3680000  23.9060000  56.8470000  72.3980000  22.8750000
  56.7760000  73.3310000  22.3720000  57.0340000  71.5480000  22.2000000
  55.4710000  72.0020000  23.5240000  55.6680000  71.0690000  24.0610000
  54.4450000  71.9600000  22.3980000  54.7050000  71.1360000  21.7300000
  53.4980000  71.6910000  22.9230000  54.3650000  73.1750000  21.6600000
  53.0470000  73.6450000  20.7730000  53.4060000  72.9810000  19.3980000
  53.1110000  71.5990000  19.0080000  53.5070000  71.3500000  18.0140000
  53.5570000  70.9250000  19.7590000  51.6350000  71.2260000  19.0490000
  51.5040000  70.2680000  18.6730000  51.1380000  71.5620000  19.9670000
  50.7950000  71.9720000  18.0340000  50.7050000  73.3750000  18.4270000
  51.6480000  73.8800000  18.2300000  50.1120000  73.8470000  17.6480000
  50.3440000  73.5090000  19.4410000  51.2230000  71.8220000  16.6520000
  50.5260000  72.2310000  15.9710000  52.0580000  72.4740000  16.4000000
  51.4340000  70.7570000  16.5130000  49.4300000  71.4020000  18.0880000
  48.7350000  71.8990000  17.4130000  49.1000000  71.5680000  19.0260000
  49.5000000  70.4060000  17.9330000  51.8590000  72.9980000  21.4140000
  53.0590000  75.1020000  20.6040000  54.9730000  72.9750000  24.4710000
  54.0930000  72.6450000  25.4020000  53.6920000  71.5170000  25.4540000
  53.6610000  73.7650000  26.2880000  52.6190000  73.7760000  26.4130000
  53.8230000  74.7340000  25.8160000  54.2760000  73.5080000  27.6840000
  55.3630000  73.3360000  27.5780000  54.0680000  72.6410000  28.2680000
  53.9890000  74.8630000  28.4450000  52.8860000  74.9860000  28.5480000
  54.3290000  75.8020000  27.9140000  54.6720000  74.7890000  29.8730000
  55.7550000  74.7270000  29.8430000  54.2970000  73.9050000  30.3180000
  54.2260000  75.9450000  30.6860000  53.1350000  75.8540000  30.8100000
  54.5770000  76.8300000  30.0240000  54.9000000  76.0640000  32.1150000
  54.6150000  75.2150000  32.7590000  54.4920000  76.9080000  32.6320000
  56.4190000  76.3160000  32.1060000  56.6160000  77.1290000  31.3720000
  56.8780000  75.4440000  31.6600000  56.8600000  76.7050000  33.5080000
  56.6600000  77.7460000  33.7440000  57.4320000  75.8920000  34.3810000
  57.7430000  76.3560000  35.2980000  57.7720000  74.4240000  34.0950000
  57.8390000  74.2480000  32.9740000  56.9410000  73.7900000  34.4410000
  59.0560000  74.1540000  34.8810000  58.9200000  74.4010000  35.9830000
  59.7360000  74.9630000  34.5670000  59.5960000  72.7830000  34.5210000
  59.8490000  72.7570000  33.4240000  58.8540000  71.8990000  34.7470000
  60.9240000  72.4110000  35.2090000  61.7680000  73.0260000  34.9010000
  61.2300000  71.4290000  34.8170000  60.8510000  72.1180000  36.7270000
  60.1400000  71.3650000  36.9590000  60.5600000  73.0480000  37.1930000
  62.2470000  71.8640000  37.3220000  62.6490000  70.9780000  36.7580000
  62.1710000  71.5220000  38.3490000  63.4010000  72.9170000  37.1650000
  63.2130000  73.7770000  37.7340000  63.6530000  73.2900000  36.1730000
  64.6290000  72.2950000  37.7410000  64.3570000  71.8130000  38.6660000
  65.3300000  73.0260000  37.9850000  65.1060000  71.5220000  37.1130000
 135.2710000  72.1210000  28.0630000 135.3840000  71.2380000  27.4360000
 135.4320000  71.8920000  29.1570000 136.1130000  72.7690000  27.7630000
 133.8730000  72.6350000  27.9010000 133.1460000  71.9060000  28.1360000
 133.7490000  73.4930000  28.6260000 133.6230000  73.1680000  26.4850000
 133.9750000  74.1930000  26.3400000 134.1690000  72.5300000  25.8240000
 132.0610000  73.1890000  26.2480000 131.7890000  72.1980000  26.0170000
 131.6640000  73.5250000  27.2510000 131.5540000  74.1520000  25.1340000
 130.5150000  74.0840000  25.2340000 131.8820000  75.1690000  25.3730000
 131.9940000  73.7180000  23.6750000 133.0700000  73.7240000  23.6340000
 131.8000000  72.6530000  23.6290000 131.4200000  74.4810000  22.4050000
 131.7470000  75.5050000  22.4810000 131.8140000  74.1550000  21.4810000
 129.8860000  74.4150000  22.5130000 129.5560000  74.7960000  23.4900000
 129.5720000  75.1630000  21.7960000 129.3080000  73.0040000  22.2010000
 128.3360000  73.1520000  21.7550000 129.9790000  72.4710000  21.4700000
 128.9050000  72.1780000  23.4920000 129.7230000  72.1580000  24.2370000
 128.1500000  72.8580000  23.9550000 128.3600000  70.8040000  23.3080000
 127.6100000  70.7680000  22.5430000 129.1190000  70.1150000  23.0820000
 127.7080000  70.3930000  24.6230000 128.5160000  70.3830000  25.3560000
 126.9440000  71.1290000  24.9070000 127.1500000  68.9370000  24.4920000
 126.6790000  68.7500000  23.5540000 128.0300000  68.2820000  24.5010000
 126.1460000  68.3180000  25.4370000 126.3380000  68.4970000  26.5050000
 125.1830000  68.8290000  25.3880000 125.8640000  66.8420000  25.1850000
 126.7590000  66.2230000  25.2720000 125.2350000  66.4230000  26.0270000
 125.2120000  66.7420000  23.8040000 124.0850000  67.1570000  23.6080000
 126.1050000  66.2480000  22.9350000 125.6610000  66.4260000  21.5620000
 125.9310000  65.4830000  21.1900000 124.5670000  66.4560000  21.4560000
 126.3830000  67.5460000  20.8070000 126.1580000  67.5370000  19.7350000
 127.9300000  67.2710000  21.0420000 128.1930000  67.7060000  22.0000000
 128.2040000  66.2460000  21.0920000 128.8280000  67.7680000  19.9700000
 129.3960000  66.8640000  18.8320000 130.0170000  65.5720000  19.4700000
 129.2760000  64.3510000  19.4990000 129.4110000  63.9040000  20.5490000
 128.1990000  64.4880000  19.2860000 129.8800000  63.3190000  18.5310000
 130.9860000  63.3570000  18.7910000 129.4190000  62.3420000  18.8020000
 129.7430000  63.4180000  17.0460000 130.3240000  62.1660000  16.5330000
 131.2850000  61.9830000  17.0260000 129.6910000  61.3590000  16.8010000
 130.3630000  62.2000000  15.4310000 128.3940000  63.5790000  16.5950000
 128.4470000  63.6910000  15.4790000 127.8410000  62.7330000  17.0060000
 128.0580000  64.5520000  17.0470000 130.6270000  64.5100000  16.4300000
 131.6430000  64.2650000  16.5780000 130.4140000  65.4250000  16.9680000
 130.3930000  64.5920000  15.3810000 128.3220000  66.3620000  17.9610000
 130.4210000  67.6840000  18.1770000 125.9050000  68.8490000  21.3470000
 124.6620000  69.2160000  21.0180000 123.9580000  68.5720000  20.2690000
 124.2220000  70.5530000  21.5780000 123.7430000  71.1130000  20.8340000
 125.1260000  71.0850000  21.8970000 123.5280000  70.2140000  22.8740000
 124.2760000  69.9940000  23.6280000 122.8910000  69.2810000  22.7330000
 122.5900000  71.3050000  23.3890000 121.8140000  71.4730000  22.6590000
 123.2330000  72.2420000  23.4140000 121.8920000  71.2320000  24.7890000
 121.3360000  70.3250000  24.8470000 121.1860000  72.0900000  24.9940000
 122.8320000  71.2280000  26.0200000 123.5970000  71.9560000  25.8090000
 123.3170000  70.2610000  26.0110000 122.1340000  71.4250000  27.4280000
 121.4520000  70.5890000  27.6030000 121.5140000  72.3240000  27.4460000
 123.1330000  71.4010000  28.5950000 122.4900000  71.6400000  29.4410000
 123.8620000  72.2460000  28.4900000 123.7890000  70.0510000  28.8140000
 123.1940000  69.2310000  28.5680000 125.0560000  69.8360000  29.2270000
 125.5250000  68.7940000  29.3180000 126.0520000  70.9370000  29.5600000
 126.6230000  70.5810000  30.3970000 125.4520000  71.7530000  30.0010000
 126.8560000  71.4310000  28.3730000 126.2740000  71.7200000  27.5400000
 127.4530000  70.5770000  28.0290000 127.7460000  72.6130000  28.7010000
 127.0720000  73.3970000  29.0050000 128.2750000  72.8790000  27.8020000
 128.7580000  72.3010000  29.8570000 129.3410000  71.4090000  29.5500000
 128.1200000  72.1620000  30.7020000 129.7950000  73.4640000  30.1910000
 129.3520000  74.3380000  29.7640000 130.7250000  73.1700000  29.6800000
 130.0730000  73.7180000  31.6750000 130.3680000  72.7760000  32.1680000
 129.1320000  73.9940000  32.2040000 131.0500000  74.7250000  31.9340000
 130.7330000  75.5950000  31.4330000 132.0760000  74.4690000  31.5050000
 131.2830000  75.1160000  33.4290000 132.2610000  75.5650000  33.5860000
 131.2970000  74.2460000  34.1310000 130.5200000  75.8130000  33.8470000
 155.4890000  54.8630000  29.2900000 154.8690000  54.6290000  30.1510000
 156.3030000  54.1710000  29.2320000 154.7880000  54.7770000  28.4850000
 155.9500000  56.3180000  29.4700000 156.4110000  56.3360000  30.4340000
 156.7400000  56.5050000  28.7710000 154.7760000  57.3700000  29.4040000
 154.3160000  57.2370000  28.3620000 153.9670000  57.1730000  30.1640000
 155.3030000  58.8180000  29.4800000 156.0190000  58.9480000  30.2420000
 155.7610000  58.9850000  28.5750000 154.0730000  59.7070000  29.6730000
 153.3630000  59.4220000  30.4850000 154.5260000  60.6820000  29.9910000
 153.1780000  59.7960000  28.4020000 153.7390000  59.9760000  27.4470000
 152.7040000  58.8410000  28.2660000 152.0960000  60.9040000  28.5850000
 151.6100000  60.8330000  29.5250000 152.5250000  61.9070000  28.6210000
 151.1870000  60.8780000  27.3130000 150.8140000  59.9450000  27.0690000
 150.2980000  61.5140000  27.5520000 151.8850000  61.4110000  26.0580000
 151.8640000  62.4760000  26.1940000 152.9420000  61.1130000  25.8450000
 151.1700000  61.1000000  24.6750000 150.1730000  61.5580000  24.8990000
 151.6090000  61.6350000  23.8010000 151.1260000  59.6610000  24.2030000
 152.1660000  59.3110000  24.1850000 150.7330000  58.9260000  24.9110000
 150.6600000  59.6460000  22.6970000 150.9770000  60.4880000  22.1540000
 151.1840000  58.8240000  22.1840000 149.1620000  59.5210000  22.6760000
 148.8530000  58.7300000  23.3520000 148.8320000  60.4290000  23.1520000
 148.5730000  59.3470000  21.2580000 149.0220000  58.4430000  20.8460000
 147.5290000  59.1550000  21.4570000 148.6650000  60.5260000  20.2520000
 149.7050000  60.9200000  20.2940000 148.4990000  60.2090000  19.2070000
 147.6050000  61.4980000  20.5990000 146.4320000  61.1760000  20.8340000
 147.9770000  62.8110000  20.6550000 147.0140000  63.8360000  20.9110000
 146.1360000  63.6540000  20.4150000 146.7940000  63.8490000  21.9840000
 147.5000000  65.2510000  20.4850000 146.6880000  66.0200000  20.7020000
 147.9960000  65.1890000  18.9750000 148.2040000  66.2130000  18.6950000
 148.8750000  64.4980000  18.8250000 146.9320000  64.6500000  18.1120000
 145.6410000  65.5350000  17.7600000 144.4660000  64.9050000  18.5950000
 143.9940000  63.5490000  18.2990000 144.5200000  63.1800000  17.5200000
 144.1810000  62.9130000  19.2250000 142.5340000  63.5580000  17.9170000
 142.2140000  62.4990000  18.0610000 141.9990000  64.1860000  18.6330000
 142.0860000  63.9340000  16.4650000 142.0970000  65.4390000  16.2830000
 141.6440000  65.9400000  17.1560000 143.1290000  65.7130000  16.2960000
 141.5580000  65.6800000  15.3460000 142.9920000  63.2430000  15.5240000
 142.5470000  63.3790000  14.5880000 143.9830000  63.6490000  15.6650000
 143.0230000  62.1340000  15.6380000 140.7010000  63.5630000  16.1620000
 140.4440000  63.8460000  15.1140000 140.1230000  64.2290000  16.8940000
 140.4550000  62.5790000  16.4020000 145.8950000  66.8040000  18.4200000
 145.2140000  65.4530000  16.4120000 148.6420000  65.6210000  21.2670000
 148.4320000  66.1060000  22.5240000 147.3160000  66.3850000  22.9550000
 149.6900000  66.3210000  23.3600000 149.7050000  67.3890000  23.6340000
 150.5670000  66.0250000  22.7870000 149.6840000  65.5540000  24.7630000
 149.4890000  64.5160000  24.5650000 148.8110000  65.7530000  25.4900000
 150.9860000  65.6610000  25.5150000 151.2070000  66.7120000  25.7640000
 151.7510000  65.3890000  24.8250000 150.8710000  64.7920000  26.7310000
 151.8960000  64.5170000  27.0050000 150.3670000  63.8310000  26.5480000
 150.2250000  65.4370000  27.9930000 149.4670000  66.0300000  27.5990000
 150.9540000  66.0730000  28.4640000 149.5690000  64.3830000  28.9390000
 150.2970000  63.6000000  29.1100000 148.7660000  63.8490000  28.5750000
 149.0370000  64.8470000  30.3080000 148.8120000  63.8740000  30.8190000
 148.1160000  65.3250000  30.1970000 150.1030000  65.5610000  31.0300000
 150.9650000  65.0110000  31.3300000 149.9890000  66.8660000  31.3300000
 150.7450000  67.3880000  31.8140000 148.7620000  67.7040000  31.0860000
 147.9290000  67.1260000  31.5560000 148.4640000  67.7240000  29.9990000
 148.9220000  69.1770000  31.4530000 149.6350000  69.7140000  30.8930000
 149.3910000  69.2730000  32.4350000 147.6780000  69.9860000  31.3200000
 146.9710000  69.5890000  32.0820000 147.1910000  69.9380000  30.3540000
 147.8910000  71.4310000  31.6550000 146.9020000  71.9300000  31.5870000
 148.5510000  71.8750000  30.9270000 148.4660000  71.7790000  33.0420000
 148.6250000  72.9230000  33.0090000 149.4130000  71.3070000  33.2340000
 147.5260000  71.3950000  34.1670000 147.4020000  70.3030000  34.1240000
 146.5920000  71.9780000  33.9960000 148.2050000  71.7010000  35.5130000
 148.4620000  72.7300000  35.6940000 149.1740000  71.1570000  35.6010000
 147.5080000  71.2020000  36.7230000 146.5110000  71.6820000  36.8940000
 148.0810000  71.3180000  37.5970000 147.3320000  70.1570000  36.6800000
  13.4670000  -1.7090000  29.9000000  12.3890000  -1.7300000  29.6590000
  13.8840000  -2.7280000  29.8540000  13.9550000  -1.1380000  29.1160000
  13.7510000  -1.0390000  31.3020000  13.6530000  -1.8040000  32.0860000
  14.7450000  -0.6780000  31.2930000  12.6930000  -0.0010000  31.6510000
  13.1630000   0.5760000  32.4920000  12.5430000   0.6180000  30.8630000
  11.4270000  -0.7710000  32.0470000  11.1200000  -1.3980000  31.2050000
  11.5670000  -1.4700000  32.8660000  10.2340000   0.0840000  32.5610000
  10.1040000   0.9120000  31.8380000   9.3010000  -0.4650000  32.6730000
  10.4860000   0.6490000  33.9640000  10.3910000  -0.1110000  34.7100000
  11.5330000   1.0140000  34.0070000   9.5210000   1.7430000  34.3320000
   8.5520000   1.3210000  34.2130000   9.7470000   1.9580000  35.3610000
   9.5860000   3.0420000  33.4970000   9.2890000   2.7880000  32.4960000
   8.8840000   3.7390000  33.8690000  10.9100000   3.8220000  33.4350000
  11.1530000   4.0040000  34.5330000  11.7090000   3.2640000  32.9750000
  10.7960000   5.1520000  32.6270000  10.0590000   5.7220000  33.2050000
  11.7640000   5.6380000  32.7480000  10.4290000   4.9290000  31.1160000
  11.0850000   4.1340000  30.6440000   9.3920000   4.5190000  30.9620000
  10.7550000   6.2680000  30.3570000  10.1690000   7.0780000  30.8100000
  11.7650000   6.6560000  30.3970000  10.2900000   6.1730000  28.9310000
   9.3240000   5.7050000  28.8030000  10.2310000   7.1640000  28.5170000
  11.3870000   5.4910000  28.0830000  12.2000000   6.2040000  27.9540000
  11.8730000   4.7130000  28.6830000  10.7930000   4.9980000  26.6880000
   9.9600000   4.3090000  26.8900000  10.4940000   5.9370000  26.1330000
  11.8220000   4.2880000  25.8150000  12.9430000   4.6380000  25.5700000
  11.2750000   3.1260000  25.3630000  12.1490000   2.1140000  24.8720000
  11.5040000   1.5200000  24.2580000  12.8090000   2.6850000  24.1910000
  12.8110000   1.2190000  26.0170000  13.3620000   2.0470000  26.6140000
  13.8820000   0.2600000  25.4700000  14.4880000  -0.0320000  26.2020000
  13.3740000  -0.5660000  24.9380000  14.7230000   0.9540000  24.5540000
  14.6660000   0.8520000  22.9640000  14.7900000   2.4350000  22.6230000
  16.0730000   3.0600000  22.6300000  16.2420000   3.2920000  23.7210000
  16.7860000   2.3220000  22.1900000  16.0550000   4.4090000  21.8150000
  17.0860000   4.8200000  21.8230000  15.7970000   4.1410000  20.7960000
  15.0790000   5.4900000  22.3040000  13.6100000   5.1460000  22.0650000
  12.8920000   5.9640000  22.1810000  13.5080000   4.6810000  21.0820000
  13.3690000   4.3530000  22.7800000  15.2040000   5.6080000  23.7880000
  16.1540000   6.0430000  23.9710000  14.4280000   6.2890000  24.1790000
  15.1550000   4.6100000  24.1230000  15.2250000   6.8010000  21.5800000
  15.3270000   6.5770000  20.5400000  16.0990000   7.2130000  21.9300000
  14.3650000   7.4210000  21.8340000  15.9320000   0.1390000  22.5300000
  13.3510000   0.2700000  22.6750000  11.8160000   0.4750000  26.8550000
  11.2390000   1.1310000  27.9560000  11.4450000   2.2690000  28.3620000
  10.0440000   0.4210000  28.4700000  10.3450000   0.1620000  29.4810000
   9.8580000  -0.5510000  27.9220000   8.7800000   1.2930000  28.4960000
   8.5200000   1.6490000  27.4680000   8.9770000   2.2370000  28.9620000
   7.5740000   0.4510000  29.0660000   7.8640000  -0.2570000  29.7340000
   7.1270000  -0.0770000  28.2880000   6.4750000   1.2750000  29.5990000
   5.5630000   0.7210000  29.5680000   6.2490000   2.0820000  28.8550000
   6.6480000   1.9410000  31.0120000   7.5660000   2.4130000  30.9350000
   6.8190000   1.1410000  31.7290000   5.4970000   2.8740000  31.4900000
   5.2160000   3.4960000  30.7000000   5.9680000   3.4900000  32.2650000
   4.2550000   2.2070000  32.1920000   4.6300000   1.5800000  33.0160000
   3.6760000   1.5830000  31.5160000   3.1890000   3.1700000  32.7210000
   2.8260000   3.7890000  31.9430000   2.7090000   3.2440000  33.9730000
   1.8310000   3.8770000  34.1320000   3.0640000   2.3500000  35.1320000
   3.0460000   2.9940000  36.0160000   4.0680000   1.8860000  35.0460000
   2.0570000   1.2370000  35.2730000   2.0330000   0.5740000  34.3920000
   1.0660000   1.7150000  35.3580000   2.3140000   0.2500000  36.4160000
   1.3640000  -0.2140000  36.6420000   2.4840000   0.8440000  37.2940000
   3.4530000  -0.7780000  36.0120000   3.8670000  -0.5680000  35.0520000
   3.0660000  -1.7870000  36.0170000   4.5880000  -0.7900000  37.0470000
   4.2210000  -1.1830000  38.0700000   4.9680000   0.2390000  37.1320000
   5.8070000  -1.6200000  36.6540000   5.4730000  -2.5420000  36.2360000
   6.2870000  -1.9790000  37.4940000   6.8500000  -0.8710000  35.6840000
   7.1840000  -0.0070000  36.2320000   6.5210000  -0.5170000  34.7230000
   8.1290000  -1.8310000  35.5580000   8.7960000  -1.8880000  36.4410000
   8.6720000  -1.6100000  34.6850000   7.7180000  -2.9240000  35.4350000
 116.4700000 142.0120000  37.8940000 116.8530000 142.5650000  37.0250000
 117.1950000 141.8940000  38.6590000 115.6030000 142.4970000  38.3310000
 116.1130000 140.5850000  37.3900000 115.6790000 139.9810000  38.2340000
 115.3150000 140.6270000  36.6210000 117.4190000 139.9300000  36.8270000
 117.7600000 140.5900000  35.9770000 118.2620000 139.9570000  37.4840000
 117.2610000 138.4270000  36.5000000 117.3050000 137.8460000  37.3900000
 116.3320000 138.1510000  35.9620000 118.4940000 137.9480000  35.7410000
 118.4510000 138.3220000  34.7510000 119.4490000 138.3190000  36.2530000
 118.5670000 136.4500000  35.6650000 118.8410000 135.9920000  36.5850000
 117.5910000 136.0100000  35.3660000 119.5710000 135.8810000  34.6350000
 120.5530000 136.3040000  34.6860000 119.6710000 134.8030000  34.8020000
 119.0180000 136.0730000  33.2040000 118.0810000 135.5450000  33.0920000
 118.8320000 137.0820000  32.9540000 119.9820000 135.6130000  32.0660000
 120.9890000 136.0780000  32.2460000 120.0590000 134.5350000  32.1130000
 119.7400000 136.0740000  30.5700000 119.7230000 137.1220000  30.6570000
 120.5970000 135.8520000  29.9020000 118.4440000 135.4820000  30.0220000
 117.6140000 135.7040000  30.6900000 118.1700000 136.1280000  29.0970000
 118.3500000 133.9750000  29.5660000 119.2030000 133.8380000  28.8560000
 118.4360000 133.2930000  30.4650000 116.9690000 133.6020000  28.9100000
 116.2380000 133.9830000  29.6630000 116.8320000 134.0300000  27.9500000
 116.6610000 132.0820000  28.9220000 116.9510000 131.7440000  29.8880000
 115.6310000 131.8420000  28.8240000 117.5470000 131.2510000  27.9700000
 118.5140000 131.5280000  28.0990000 117.5180000 130.1740000  28.1660000
 117.1220000 131.2120000  26.5790000 115.9560000 131.3740000  26.2790000
 118.2130000 131.1090000  25.7850000 118.1150000 131.4220000  24.3160000
 119.0000000 130.9830000  23.8930000 117.2590000 130.7960000  24.0360000
 117.7130000 132.9180000  24.0070000 116.7560000 133.1520000  24.4600000
 117.6280000 133.1940000  22.5160000 117.1130000 132.4350000  21.9300000
 117.0430000 134.1290000  22.3960000 119.0090000 133.3680000  21.9740000
 119.5440000 134.7500000  21.3370000 121.0100000 134.3260000  20.9520000
 122.1760000 134.4620000  21.8270000 123.0020000 134.9730000  21.2790000
 121.9190000 135.1190000  22.7300000 122.5640000 133.1680000  22.4110000
 123.3560000 133.3160000  23.0890000 121.6460000 132.9690000  22.9260000
 122.9110000 131.9370000  21.5880000 123.6620000 130.9070000  22.3220000
 123.0500000 130.6050000  23.2380000 123.8300000 129.9110000  21.7660000
 124.6430000 131.4110000  22.6680000 121.7240000 131.1470000  21.0540000
 121.0940000 130.9290000  21.9260000 121.0420000 131.7620000  20.4160000
 122.0810000 130.1360000  20.6180000 123.9030000 132.3340000  20.5600000
 124.7860000 132.8380000  20.9200000 123.3680000 133.0830000  19.9330000
 124.1620000 131.4280000  20.0130000 118.8020000 135.0450000  20.1220000
 119.4790000 135.6540000  22.5470000 118.5970000 133.8250000  24.6710000
 118.1890000 135.0480000  25.0890000 117.0530000 135.4250000  24.9340000
 119.2820000 135.9210000  25.6690000 119.9620000 136.2680000  24.9790000
 119.8500000 135.4070000  26.4410000 118.6560000 137.2670000  26.2400000
 117.9060000 137.0830000  26.9450000 118.2490000 137.8330000  25.3490000
 119.7070000 138.2280000  26.8340000 120.1730000 138.6990000  25.9840000
 120.3890000 137.6660000  27.3840000 119.0850000 139.4210000  27.6550000
 118.7240000 138.8480000  28.5300000 118.1400000 139.8090000  27.2080000
 120.1020000 140.4230000  28.2820000 120.7750000 140.8560000  27.4680000
 120.8780000 139.8960000  28.8600000 119.5700000 141.5470000  29.2600000
 118.7330000 142.0330000  28.7740000 120.1870000 142.3620000  29.3460000
 119.2540000 141.0620000  30.7460000 120.1770000 140.8690000  31.3590000
 118.7520000 140.0530000  30.5510000 118.2450000 141.9730000  31.4160000
 117.2390000 141.8350000  31.0440000 118.4130000 142.7030000  32.5090000
 117.5870000 143.2550000  32.9750000 119.7660000 142.9370000  33.1340000
 119.8430000 143.9160000  33.7220000 120.5530000 142.8790000  32.3310000
 120.1160000 141.9230000  34.2140000 120.1660000 140.9140000  33.8160000
 119.2520000 141.9310000  34.8400000 121.4390000 142.2040000  34.9380000
 121.5900000 143.2960000  35.0950000 122.3100000 141.8970000  34.3770000
 121.5180000 141.6280000  36.3950000 121.2570000 140.5800000  36.2760000
 120.7160000 142.0700000  37.0460000 122.9310000 141.7330000  37.0200000
 123.6250000 141.0320000  36.4920000 122.8680000 141.4270000  38.0950000
 123.4500000 143.1730000  36.9950000 122.6420000 143.8620000  37.3170000
 123.6610000 143.4700000  35.9800000 124.7590000 143.3060000  37.8740000
 125.6150000 142.7370000  37.5680000 124.6020000 142.9010000  38.8890000
 125.3060000 144.7070000  38.0200000 124.7340000 145.3330000  38.8080000
 125.2780000 145.2360000  37.0760000 126.3630000 144.6830000  38.4240000
  18.8160000   8.6670000  25.5460000  18.3230000   7.7720000  25.2250000
  19.0830000   8.5630000  26.5740000  19.7040000   8.7560000  24.8220000
  17.9750000   9.8880000  25.2390000  18.4710000  10.8740000  25.3390000
  17.7520000   9.9350000  24.1520000  16.6780000   9.9720000  26.0590000
  16.8650000  10.4830000  27.0410000  16.1130000  10.7400000  25.4680000
  15.7960000   8.7540000  26.2160000  15.3130000   8.6170000  25.2790000
  16.4570000   7.8850000  26.4170000  14.7310000   8.8760000  27.2650000
  14.0610000   9.6670000  27.0000000  14.1420000   7.9310000  27.2950000
  15.3410000   9.0490000  28.7150000  15.7030000   8.0930000  28.8630000
  16.2000000   9.7840000  28.7150000  14.3170000   9.5210000  29.7360000
  13.4690000   8.8360000  29.7050000  14.6720000   9.4050000  30.7110000
  13.8370000  10.9310000  29.4690000  14.6600000  11.6030000  29.6210000
  13.5320000  10.9690000  28.4050000  12.8570000  11.4420000  30.5400000
  13.2920000  11.5910000  31.4680000  12.6130000  12.4910000  30.2020000
  11.5200000  10.6560000  30.6560000  11.6680000   9.6960000  31.1560000
  10.9040000  11.2350000  31.3610000  10.7930000  10.4240000  29.3360000
  11.4420000   9.7040000  28.7970000   9.9040000   9.8960000  29.5590000
  10.6100000  11.6580000  28.3970000  10.0510000  12.4440000  28.9870000
  11.5360000  12.0420000  28.0940000   9.6900000  11.5290000  27.1410000
   8.6940000  11.1140000  27.4270000   9.5560000  12.5630000  26.7850000
  10.2540000  10.6040000  26.0940000  10.5080000   9.6540000  26.5780000
   9.5180000  10.3450000  25.3140000  11.4640000  11.1770000  25.3320000
  11.1480000  11.7710000  24.4790000  12.1430000  11.6170000  25.9780000
  12.2430000  10.0200000  24.7310000  11.7960000   8.8580000  24.5920000
  13.4330000  10.4590000  24.2670000  14.2000000   9.6880000  23.2030000
  15.2510000   9.7070000  23.3970000  13.9450000   8.6210000  23.2900000
  13.9080000  10.1820000  21.7510000  14.2360000   9.4360000  21.0130000
  14.7430000  11.4290000  21.3380000  14.6610000  11.6110000  20.2460000
  14.3170000  12.3160000  21.7690000  16.0710000  11.2430000  21.6250000
  17.1660000  10.4960000  20.7440000  18.4260000  10.7120000  21.6710000
  19.0640000  12.1000000  21.7330000  18.2820000  12.8200000  21.4370000
  19.5080000  12.2270000  22.7330000  20.1790000  12.1680000  20.6780000
  21.0680000  11.6250000  21.0320000  19.7990000  11.7210000  19.7800000
  20.6510000  13.4860000  20.1780000  19.4620000  14.1510000  19.5210000
  19.9290000  14.8410000  18.7550000  18.7930000  13.4400000  19.0560000
  18.8900000  14.6830000  20.2580000  21.2020000  14.4280000  21.1920000
  20.7890000  14.0780000  22.1610000  22.2740000  14.1390000  21.1860000
  21.0390000  15.4260000  20.9630000  21.7160000  13.2360000  19.1450000
  21.8930000  14.1520000  18.5500000  21.3440000  12.3770000  18.4950000
  22.6170000  12.9680000  19.7160000  16.7800000   9.0560000  20.8590000
  17.4310000  11.1020000  19.4430000  12.5020000  10.3420000  21.5770000
  11.7980000   9.3020000  21.0520000  12.3420000   8.3330000  20.6340000
  10.2870000   9.5120000  21.0490000  10.0670000   9.6210000  19.9770000
  10.0270000  10.4830000  21.5030000   9.5020000   8.3670000  21.6660000
  10.1220000   7.6130000  22.1110000   9.0170000   7.8600000  20.8680000
   8.5850000   8.7120000  22.8240000   9.1030000   9.1740000  23.6780000
   8.2780000   7.6940000  23.2460000   7.3990000   9.5700000  22.4620000
   6.6690000   9.0690000  21.7740000   7.7190000  10.4200000  21.8940000
   6.8230000  10.0800000  23.8120000   7.5940000  10.7260000  24.2470000
   6.6520000   9.2900000  24.5570000   5.5710000  11.0210000  23.5120000
   4.8360000  10.6850000  22.8410000   5.7530000  12.0050000  23.1970000
   4.7650000  11.2750000  24.8670000   5.5100000  11.7160000  25.5260000
   4.4160000  10.3660000  25.2940000   3.6030000  12.2970000  24.5110000
   3.2880000  12.2370000  23.4720000   2.9990000  13.0660000  25.4220000
   2.2890000  13.7850000  25.1070000   3.4020000  13.1330000  26.8710000
   3.6660000  12.1710000  27.2540000   2.5950000  13.4120000  27.4580000
   4.6030000  14.0190000  27.0620000   5.4970000  13.6230000  26.6110000
   4.9090000  13.9160000  28.1170000   4.2920000  15.4600000  26.5780000
   3.4910000  15.7710000  27.1880000   4.0080000  15.5110000  25.5380000
   5.4580000  16.4870000  26.7490000   6.4260000  16.1980000  26.4000000
   5.6420000  16.6470000  27.8250000   5.1080000  17.8910000  26.1860000
   4.8060000  17.7540000  25.1670000   6.0390000  18.4280000  26.0900000
   4.0710000  18.6980000  26.9780000   4.4590000  18.9220000  27.9880000
   3.2520000  17.9850000  27.1580000   3.5490000  19.9880000  26.4090000
   4.3880000  20.6260000  26.3510000   2.8380000  20.3410000  27.2070000
   2.9230000  19.8760000  24.9560000   1.9450000  19.4580000  25.1510000
   3.4690000  19.2420000  24.2770000   2.8710000  20.7810000  24.4370000
  79.2610000  21.9160000  36.7620000  79.5190000  21.3270000  37.5820000
  78.1680000  21.9500000  36.8950000  79.7400000  22.9100000  36.8620000
  79.5420000  21.3240000  35.3560000  79.1190000  20.3520000  35.2970000
  79.1220000  21.9550000  34.5370000  81.0700000  21.2020000  35.2420000
  81.5920000  22.1090000  35.4700000  81.5730000  20.4640000  35.9400000
  81.5030000  20.7820000  33.8060000  81.1540000  19.6880000  33.6790000
  80.9400000  21.3400000  33.1020000  82.9870000  20.8350000  33.5170000
  83.4100000  21.7670000  33.8250000  83.4320000  20.0830000  34.0630000
  83.2010000  20.6750000  32.0570000  82.8760000  21.5060000  31.3940000
  84.2850000  20.7900000  31.9300000  82.8900000  19.2960000  31.4590000
  82.7920000  18.4900000  32.2440000  81.8260000  19.2090000  31.2370000
  83.7740000  18.8390000  30.3500000  83.7400000  19.5360000  29.4950000
  84.7490000  18.7140000  30.7550000  83.2020000  17.4840000  29.9060000
  83.8530000  17.0680000  29.1030000  83.1700000  16.7860000  30.7400000
  81.8800000  17.5710000  29.1740000  81.1810000  17.8300000  29.9640000
  81.8220000  18.4270000  28.5770000  81.6180000  16.3360000  28.3390000
  82.6110000  16.0960000  27.9150000  81.5680000  15.5010000  29.0440000
  80.5460000  16.4250000  27.3040000  80.9400000  16.9100000  26.4420000
  80.3200000  15.4130000  26.9670000  79.3150000  17.2840000  27.7250000
  78.6470000  16.7150000  28.4340000  79.6350000  18.2540000  28.1290000
  78.3590000  17.5960000  26.5580000  78.8900000  18.0080000  25.7530000
  77.9890000  16.6760000  26.1330000  77.1530000  18.4810000  26.9670000
  76.3460000  18.0210000  27.5860000  77.5240000  19.4600000  27.4700000
  76.4110000  18.8470000  25.7080000  75.3730000  18.3970000  25.3870000
  77.1420000  19.7880000  25.0790000  76.6810000  20.3500000  23.8260000
  76.3210000  19.5020000  23.2880000  75.7140000  20.9800000  24.0430000
  77.8400000  21.1380000  23.1520000  78.2100000  21.8600000  24.0280000
  77.2710000  21.7200000  21.7970000  76.4540000  22.3790000  22.0890000
  78.1280000  22.3440000  21.3640000  76.8250000  20.7270000  20.8050000
  75.2970000  20.4510000  20.4980000  74.9940000  19.0160000  21.0340000
  75.1420000  17.8850000  20.1640000  75.0170000  18.2350000  19.1070000
  76.1370000  17.4200000  20.3910000  74.0060000  16.9110000  20.5330000
  73.0070000  17.1890000  20.1240000  74.1870000  15.9430000  20.0320000
  73.7270000  16.5550000  21.9560000  74.9720000  16.1180000  22.6710000
  75.3250000  15.1430000  22.3060000  75.6780000  16.9540000  22.5170000
  74.6300000  16.1170000  23.7080000  73.1410000  17.6840000  22.6880000
  72.9370000  17.4660000  23.6620000  73.9300000  18.5350000  22.8040000
  72.2590000  18.1300000  22.1210000  72.7040000  15.5110000  21.9810000
  72.5740000  14.9550000  21.0230000  71.7390000  15.9910000  22.0910000
  72.9550000  14.8310000  22.7550000  74.4970000  21.3240000  21.3630000
  75.2160000  20.6870000  19.0170000  78.8130000  20.0580000  22.8570000
  80.0520000  20.4090000  22.5900000  80.5270000  21.5040000  22.7520000
  80.8480000  19.2630000  21.9810000  81.1500000  19.4910000  20.9820000
  80.2670000  18.3690000  21.8870000  82.1100000  19.0350000  22.8450000
  82.4910000  20.0760000  23.0550000  82.8580000  18.4840000  22.3000000
  81.8640000  18.3670000  24.2850000  81.7090000  17.2970000  24.1560000
  80.9170000  18.6760000  24.8640000  83.0930000  18.5160000  25.1690000
  83.9760000  18.1320000  24.6310000  82.8260000  17.8730000  26.0240000
  83.3990000  20.0100000  25.4290000  83.8990000  20.3680000  24.6130000
  84.1350000  19.9750000  26.3240000  82.3360000  21.0540000  25.7250000
  81.7020000  21.0590000  24.8410000  82.7810000  22.0860000  25.6220000
  81.5320000  20.8400000  27.0430000  82.2280000  21.0490000  27.8280000
  81.0760000  19.8560000  27.0350000  80.3820000  21.8820000  27.1060000
  79.7080000  22.0260000  26.3200000  80.1830000  22.7570000  28.1010000
  79.3800000  23.5550000  28.0320000  80.8780000  22.7530000  29.4860000
  81.9440000  22.7280000  29.2610000  80.6710000  21.8040000  30.0880000
  80.4640000  24.0330000  30.2500000  79.3710000  24.0190000  30.3200000
  80.7450000  24.9520000  29.6740000  81.1810000  24.0320000  31.6640000
  82.2200000  24.1220000  31.3720000  81.0150000  23.0330000  32.0520000
  80.8280000  25.1580000  32.6950000  79.7760000  25.0060000  33.0090000
  81.0560000  26.1000000  32.2900000  81.6640000  25.0180000  34.0170000
  81.4670000  24.0230000  34.3950000  81.3810000  25.7340000  34.7740000
  83.1940000  25.1860000  33.8440000  83.5110000  26.0580000  33.2270000
  83.5110000  24.3080000  33.3300000  83.9470000  25.2000000  35.2010000
  83.6030000  24.4010000  35.8700000  83.7650000  26.1340000  35.6560000
  85.4420000  25.1040000  35.0380000  85.7150000  24.0810000  34.9190000
  85.9390000  25.4960000  35.8670000  85.8290000  25.7490000  34.2840000
 124.6740000  42.6410000  34.5000000 124.9460000  43.3720000  35.1730000
 125.4790000  42.3930000  33.8260000 124.3650000  41.6620000  34.9410000
 123.5090000  43.2560000  33.7390000 122.7530000  43.7220000  34.3470000
 123.9870000  44.0480000  33.1360000 122.7530000  42.4010000  32.7440000
 123.4720000  41.8770000  32.1310000 122.2540000  41.6840000  33.3560000
 121.7150000  43.1880000  31.9490000 120.9160000  43.4050000  32.5880000
 122.0630000  44.1740000  31.5730000 121.3330000  42.5090000  30.6330000
 122.2760000  42.1620000  30.2370000 120.6500000  41.7110000  30.8670000
 120.6960000  43.3770000  29.5140000 120.0840000  42.6850000  28.9550000
 119.9410000  44.0160000  29.9730000 121.5830000  44.1300000  28.5420000
 121.8900000  45.0590000  29.0770000 122.4800000  43.5410000  28.4370000
 120.9150000  44.5680000  27.2090000 120.3780000  43.6610000  26.7560000
 120.1850000  45.3660000  27.3920000 121.9710000  45.0530000  26.2870000
 122.5400000  45.9220000  26.7670000 122.6470000  44.1900000  26.0560000
 121.3430000  45.6470000  24.9700000 120.4880000  45.0810000  24.6340000
 121.0210000  46.6840000  25.2580000 122.3990000  45.9820000  23.8400000
 122.6000000  45.0240000  23.3790000 122.0040000  46.7390000  23.1810000
 123.7530000  46.5350000  24.2340000 123.6850000  47.3830000  24.9940000
 124.2550000  45.7900000  24.9080000 124.6110000  47.0300000  23.1100000
 125.5650000  47.3530000  23.5150000 124.7990000  46.1400000  22.4990000
 124.0130000  48.2530000  22.3520000 123.0760000  47.9540000  21.9890000
 123.8190000  49.0420000  23.1160000 124.8840000  48.8210000  21.2880000
 124.4740000  49.7610000  21.0220000 125.8820000  48.9900000  21.6800000
 124.8830000  48.0310000  20.0450000 126.0020000  47.6310000  19.6540000
 123.6640000  47.9400000  19.4900000 123.5540000  47.3230000  18.1760000
 122.4830000  47.2330000  17.9820000 123.9600000  47.9820000  17.4840000
 124.0140000  45.8620000  18.2080000 125.0410000  45.6820000  18.5440000
 123.8970000  45.2700000  16.7380000 122.8090000  45.2970000  16.5310000
 124.3960000  46.0570000  16.1560000 124.5910000  43.9880000  16.6920000
 124.0190000  42.6870000  16.0410000 123.3970000  41.8160000  17.2590000
 122.6980000  40.6040000  17.0250000 122.4720000  40.4940000  15.9580000
 123.2660000  39.7450000  17.3310000 121.3950000  40.5460000  17.7870000
 121.0290000  39.5540000  17.7760000 121.5790000  40.9450000  18.7580000
 120.2710000  41.4410000  17.2320000 118.9860000  40.8470000  17.6520000
 118.1530000  41.1880000  16.9790000 118.9470000  39.8030000  17.5270000
 118.7680000  41.2020000  18.6170000 120.3550000  42.7620000  17.8070000
 119.4770000  43.2530000  17.4050000 120.4210000  42.6010000  18.8840000
 121.3190000  43.2170000  17.3710000 120.1940000  41.4440000  15.8070000
 120.0350000  40.4190000  15.5590000 121.1660000  41.8820000  15.4330000
 119.3950000  42.0600000  15.3210000 122.8720000  42.9180000  15.1500000
 125.2070000  41.9840000  15.5420000 123.1350000  45.1290000  19.1530000
 123.7050000  44.2320000  19.9730000 124.9250000  43.9270000  20.1200000
 122.6380000  43.4130000  20.7090000 121.7440000  43.4290000  20.0690000
 122.4430000  43.8800000  21.6420000 123.0060000  41.9110000  20.9100000
 123.3300000  41.4260000  19.9140000 122.1300000  41.3720000  21.3090000
 124.0700000  41.6400000  21.9160000 125.1070000  41.7910000  21.5370000
 123.9930000  40.5630000  22.3000000 124.0660000  42.3970000  23.2790000
 123.0640000  42.2930000  23.6840000 124.2370000  43.4560000  23.2090000
 125.1360000  41.7540000  24.1350000 126.0630000  41.5140000  23.5520000
 124.6800000  40.9150000  24.5120000 125.3710000  42.6360000  25.3670000
 125.7150000  42.1130000  26.2230000 124.4530000  43.1200000  25.6360000
 126.4440000  43.6300000  24.9600000 126.1970000  44.1070000  23.9240000
 127.3620000  43.0290000  24.8190000 126.7120000  44.8520000  25.9070000
 126.3020000  45.7430000  25.4280000 127.2790000  45.0070000  27.1120000
 127.3380000  46.0720000  27.5710000 127.8080000  43.8680000  27.9300000
 128.8740000  43.8700000  27.8110000 127.3750000  42.9090000  27.6120000
 127.5190000  44.1580000  29.4240000 127.9920000  45.1060000  29.5520000
 128.0080000  43.5730000  30.2010000 126.0360000  44.1960000  29.6840000
 125.6770000  44.8610000  28.8940000 125.8050000  44.7990000  30.6120000
 125.2950000  42.8590000  29.5990000 125.3310000  42.4960000  28.6120000
 124.2410000  43.0200000  29.8400000 125.7490000  41.7430000  30.5580000
 125.6410000  41.9630000  31.5710000 126.8280000  41.5650000  30.4350000
 125.0450000  40.4010000  30.3380000 125.3400000  39.9960000  29.3910000
 124.0500000  40.5130000  30.3910000 125.4230000  39.3520000  31.4170000
 124.7310000  38.4530000  31.2170000 125.2560000  39.7620000  32.4570000
 126.8670000  38.8660000  31.3490000 127.1090000  38.2590000  32.2110000
 127.4660000  39.7140000  31.3990000 127.1010000  38.2460000  30.4460000
  72.2540000 120.7160000  35.0070000  71.7910000 121.6840000  35.1460000
  73.3350000 120.8750000  34.7660000  72.2140000 120.3360000  36.0410000
  71.5750000 119.7670000  33.9560000  72.0280000 118.7160000  34.0250000
  70.5450000 119.6540000  34.2800000  71.6560000 120.3660000  32.5350000
  70.7960000 119.9140000  32.1020000  71.4420000 121.4080000  32.4670000
  72.9880000 120.0660000  31.7840000  72.9400000 120.6550000  30.8670000
  73.8010000 120.5170000  32.2990000  73.1610000 118.5360000  31.4490000
  72.9650000 117.8850000  32.3070000  72.4720000 118.1220000  30.7120000
  74.5970000 118.1630000  31.0630000  74.8500000 118.6380000  30.1440000
  75.1940000 118.4770000  31.8820000  74.7520000 116.6560000  31.0210000
  74.9760000 116.2630000  32.0150000  73.7860000 116.3060000  30.6650000
  75.9490000 116.2160000  30.1760000  76.6160000 117.0460000  30.2780000
  76.3030000 115.2850000  30.6420000  75.6770000 116.0080000  28.6990000
  75.0240000 115.1960000  28.6110000  75.1730000 116.9170000  28.2720000
  77.0250000 115.6800000  27.9310000  77.5300000 116.5840000  28.0680000
  77.6650000 114.9180000  28.4640000  76.9330000 115.3650000  26.4160000
  76.3590000 116.1020000  25.8930000  77.9190000 115.4240000  25.9890000
  76.2690000 113.9970000  26.1950000  76.6920000 113.1660000  26.7730000
  75.2170000 114.1230000  26.4290000  76.2750000 113.5470000  24.6510000
  75.3960000 112.8870000  24.6140000  76.3480000 114.4440000  23.9750000
  77.4210000 112.5020000  24.3000000  77.1220000 111.5950000  24.7350000
  77.3510000 112.2020000  23.2410000  78.8460000 113.0040000  24.6760000
  78.8540000 113.3180000  25.7670000  79.5410000 112.2080000  24.5790000
  79.3340000 114.0420000  23.6700000  80.2800000 113.8550000  22.9310000
  78.5130000 115.1570000  23.5970000  78.9840000 116.3750000  22.8640000
  78.4480000 117.2760000  23.1270000  80.0250000 116.5470000  23.0090000
  78.8050000 116.2670000  21.3170000  79.5280000 115.6360000  20.8720000
  78.9350000 117.6570000  20.6060000  78.8380000 117.4250000  19.5140000
  78.1370000 118.3160000  20.9720000  80.1040000 118.3920000  20.8740000
  81.5850000 117.8010000  20.4630000  82.5640000 119.0740000  20.4570000
  82.5180000 120.0320000  19.3760000  83.5490000 120.2040000  19.0510000
  81.9260000 119.5920000  18.5260000  81.9550000 121.3830000  19.8390000
  81.5440000 121.7830000  18.9640000  81.1580000 121.1880000  20.5690000
  82.8580000 122.3710000  20.5410000  82.0380000 123.5240000  21.0600000
  81.3700000 123.2150000  21.9300000  82.7670000 124.3310000  21.2790000
  81.3740000 123.9540000  20.2930000  83.6430000 121.7860000  21.6080000
  82.9240000 121.3670000  22.2830000  84.2490000 121.0440000  21.1660000
  84.2250000 122.5400000  22.1200000  83.7680000 123.0300000  19.5480000
  83.1860000 123.4810000  18.7450000  84.4090000 122.3190000  19.1690000
  84.3500000 123.6970000  20.1450000  82.0400000 116.8840000  21.4710000
  81.4760000 117.2590000  19.0970000  77.4820000 115.7220000  21.0090000
  77.1050000 114.4480000  21.0250000  77.8140000 113.4750000  21.1650000
  75.6410000 114.3310000  20.6650000  75.4940000 115.1620000  19.8690000
  75.0070000 114.6860000  21.5500000  75.2000000 112.9360000  20.1110000
  75.0680000 112.3490000  20.9680000  75.9950000 112.4650000  19.5540000
  73.7830000 112.9690000  19.4740000  73.4140000 111.8920000  19.4470000
  73.8650000 113.3170000  18.4880000  72.6400000 113.7790000  20.0940000
  71.7220000 113.6270000  19.5240000  72.8550000 114.7980000  20.0850000
  72.3650000 113.4350000  21.5370000  73.0540000 114.0120000  22.1170000
  72.6740000 112.4180000  21.6880000  70.7760000 113.5800000  21.8620000
  70.6030000 113.0490000  22.8410000  70.2430000 113.1380000  21.0750000
  70.2940000 114.9860000  22.0000000  69.1760000 114.9520000  22.0880000
  70.5410000 115.6370000  21.1050000  70.9260000 115.5790000  23.2330000
  71.0330000 114.8390000  24.0350000  71.5570000 116.7670000  23.2790000
  72.0200000 117.1550000  24.1920000  71.6230000 117.7750000  22.1680000
  71.0180000 118.6420000  22.4830000  71.1650000 117.4010000  21.2950000
  73.0740000 118.1730000  21.9500000  73.2010000 119.0100000  21.2720000
  73.4440000 117.2680000  21.4770000  73.9740000 118.5080000  23.1430000
  74.8400000 119.0060000  22.7660000  74.1680000 117.6010000  23.6350000
  73.3040000 119.5700000  23.9680000  72.3240000 119.2140000  24.3460000
  73.1130000 120.4750000  23.3310000  74.1500000 119.8370000  25.2460000
  75.0470000 120.3550000  24.9110000  74.3320000 118.8840000  25.6960000
  73.4390000 120.8350000  26.2570000  73.0650000 121.6970000  25.7080000
  74.1940000 121.1710000  26.9670000  72.3450000 120.3050000  27.1320000
  71.5740000 119.9400000  26.4600000  71.8200000 121.1160000  27.6960000
  72.7650000 119.2490000  28.1380000  73.0610000 118.3650000  27.6360000
  71.9830000 119.0640000  28.8570000  73.5750000 119.6820000  28.7290000
  90.4150000 118.1260000  35.8670000  90.8270000 119.1500000  35.7030000
  90.9490000 117.5090000  35.1440000  90.7340000 117.6780000  36.7910000
  88.9000000 118.1290000  35.7230000  88.4810000 118.5940000  36.6380000
  88.5800000 118.8540000  34.9500000  88.2700000 116.7350000  35.4780000
  89.0970000 116.1110000  35.1310000  88.0500000 116.4760000  36.4980000
  87.1250000 116.8000000  34.4120000  86.3700000 117.4340000  34.8560000
  87.4320000 117.2440000  33.4400000  86.6040000 115.4290000  34.0500000
  86.3980000 114.7740000  34.9850000  85.6750000 115.3880000  33.4480000
  87.5840000 114.7450000  33.0910000  87.5930000 115.2480000  32.0980000
  88.5960000 114.9280000  33.4870000  87.2930000 113.2950000  32.9040000
  87.2720000 112.6790000  33.8760000  86.3530000 113.0940000  32.4650000
  88.2190000 112.5440000  31.9450000  89.2010000 112.8030000  32.0760000
  88.1700000 111.5070000  32.2860000  87.7370000 112.7920000  30.4430000
  86.7250000 112.3930000  30.4800000  87.5190000 113.8510000  30.1710000
  88.6200000 112.0960000  29.3960000  88.5640000 111.0110000  29.6000000
  88.2570000 112.2490000  28.3490000  90.0990000 112.4970000  29.4400000
  90.3080000 112.2210000  30.4620000  90.6400000 111.7740000  28.7250000
  90.3770000 113.9600000  29.1190000  89.7470000 114.2410000  28.3060000
  90.0150000 114.5460000  29.9810000  91.8610000 114.3280000  28.7370000
  91.8910000 115.3240000  28.3420000  92.4930000 114.2530000  29.6320000
  92.4710000 113.4080000  27.6520000  92.8190000 112.5000000  28.0480000
  91.5930000 113.2410000  26.9490000  93.5890000 114.1500000  26.9040000
  93.1290000 115.1080000  26.6000000  94.3940000 114.3620000  27.5910000
  94.0860000 113.3430000  25.6700000  94.1400000 113.8190000  24.5270000
  94.4030000 112.0940000  26.0000000  94.9520000 111.1910000  25.0090000
  94.8650000 110.1350000  25.2810000  94.5010000 111.3470000  24.0570000
  96.4400000 111.3600000  24.7200000  96.6190000 112.3540000  24.3560000
  97.0440000 110.3850000  23.5570000  98.1040000 110.5600000  23.3990000
  96.9280000 109.3110000  23.8350000  96.3170000 110.5410000  22.2930000
  96.7720000 111.6220000  21.2440000  95.3680000 112.2900000  20.7990000
  95.2040000 112.7760000  19.4650000  95.0640000 113.8560000  19.3830000
  96.1700000 112.6510000  18.8540000  94.0510000 111.8940000  18.8550000
  94.1270000 112.0370000  17.8190000  94.1810000 110.9170000  19.1210000
  92.6190000 112.2600000  19.2140000  92.3980000 111.8860000  20.6290000
  91.3030000 111.8020000  20.7850000  92.7810000 110.8540000  20.5080000
  93.0400000 112.3870000  21.3540000  92.3800000 113.6910000  18.9130000
  93.1800000 114.2660000  19.4320000  92.4400000 113.9510000  17.8870000
  91.3580000 113.8770000  19.2220000  91.7860000 111.5080000  18.2260000
  91.6190000 112.1920000  17.3800000  90.8440000 111.4700000  18.7600000
  92.1540000 110.4960000  18.0890000  97.5880000 112.5940000  21.9990000
  97.3080000 110.9630000  20.0450000  97.1650000 111.2450000  25.9410000
  97.5500000 112.3120000  26.6620000  97.2900000 113.4720000  26.4110000
  98.3410000 111.9000000  27.8820000  99.2200000 112.4530000  27.9570000
  98.5880000 110.8190000  27.7980000  97.4670000 112.2260000  29.0950000
  97.2940000 113.3080000  29.2070000  98.0280000 111.9780000  29.9000000
  96.1630000 111.5080000  29.1110000  96.3660000 110.4250000  29.1710000
  95.5780000 111.6810000  28.1900000  95.3670000 111.8260000  30.3650000
  95.0690000 112.8670000  30.2980000  96.0720000 111.7360000  31.1870000
  94.0810000 110.9430000  30.4780000  94.4370000 109.9610000  30.4340000
  93.4940000 111.0970000  29.6210000  93.2540000 111.1860000  31.7850000
  92.6510000 112.1420000  31.7060000  93.9050000 111.1760000  32.6240000
  92.1920000 110.1470000  31.9670000  92.6350000 109.1700000  32.1210000
  91.6470000 109.9730000  31.0780000  91.1880000 110.5340000  33.1250000
  90.3040000 111.1010000  32.8450000  91.1770000 110.0940000  34.3390000
  90.2910000 110.2300000  34.9610000  92.0380000 108.9650000  34.8510000
  92.8120000 108.5940000  34.0540000  91.3880000 108.1820000  35.1560000
  92.9210000 109.3070000  36.0410000  92.1200000 109.8050000  36.7030000
  93.7190000 109.9170000  35.7300000  93.3840000 108.0620000  36.8110000
  92.5820000 107.4190000  36.9890000  93.6150000 108.2570000  37.8270000
  94.5840000 107.3550000  36.1480000  94.2460000 107.2140000  35.1300000
  94.7540000 106.3460000  36.4310000  95.9030000 108.1630000  36.1410000
  96.3000000 108.0010000  37.2300000  95.7840000 109.2460000  35.9540000
  96.9440000 107.7820000  35.1000000  97.4270000 106.7740000  35.1390000
  97.7860000 108.4970000  35.1880000  96.4180000 107.8480000  33.6810000
  95.8270000 107.0100000  33.3960000  97.2310000 107.8830000  32.9510000
  95.5220000 109.0220000  33.1740000  94.8150000 109.3160000  33.8590000
  95.0310000 108.7890000  32.2290000  96.2610000 109.8120000  33.0450000
  17.3770000  -2.1500000  31.2020000  17.2650000  -3.1150000  31.6910000
  16.9120000  -1.3870000  31.8040000  18.4030000  -1.8850000  31.3000000
  17.0220000  -2.1360000  29.7130000  17.6860000  -2.7750000  29.1560000
  16.0520000  -2.5460000  29.6010000  17.0430000  -0.7200000  29.0900000
  16.4470000  -0.0450000  29.7550000  18.0390000  -0.3530000  29.2910000
  16.6170000  -0.8220000  27.6190000  15.6320000  -1.3350000  27.6120000
  16.3480000   0.1740000  27.2320000  17.5690000  -1.4660000  26.6100000
  18.2060000  -2.3240000  26.9870000  16.7840000  -1.6480000  25.8530000
  18.5520000  -0.4730000  26.0020000  17.9870000   0.3570000  25.5250000
  19.0770000   0.0170000  26.8090000  19.4900000  -1.2070000  25.0060000
  20.1030000  -1.9370000  25.5060000  18.9420000  -1.7440000  24.1910000
  20.5530000  -0.2950000  24.2670000  19.9300000   0.6120000  24.0130000
  21.3880000   0.0450000  24.9030000  21.0480000  -0.8490000  22.9260000
  21.6190000  -1.8030000  23.0710000  20.1730000  -1.1060000  22.3120000
  21.9320000   0.1270000  22.0640000  22.8200000   0.5020000  22.7460000
  22.3570000  -0.3370000  21.1880000  21.1830000   1.4270000  21.5390000
  20.6520000   1.9380000  22.4060000  21.9940000   2.0620000  21.1240000
  20.2410000   1.0540000  20.4070000  20.7300000   0.4050000  19.6200000
  19.4110000   0.4500000  20.7800000  19.6850000   2.3760000  19.9320000
  19.0530000   2.8440000  20.7580000  20.6060000   2.9680000  19.7210000
  18.8050000   2.3530000  18.7440000  19.2280000   1.5920000  18.1140000
  17.8380000   2.0390000  19.0870000  18.6190000   3.6260000  18.0260000
  19.5590000   3.9920000  17.6420000  17.9580000   3.5360000  17.1640000
  17.9990000   4.7340000  18.8250000  16.7980000   4.7690000  18.9960000
  18.9290000   5.5930000  19.2810000  18.4680000   6.8830000  19.8830000
  18.1120000   7.6060000  19.2040000  17.6040000   6.6310000  20.4210000
  19.5630000   7.4920000  20.7820000  19.2480000   8.0570000  21.6210000
  20.5730000   8.3050000  19.9750000  20.6320000   7.9930000  18.8790000
  20.2170000   9.3390000  19.9790000  21.9790000   8.2180000  20.4870000
  23.1510000   9.0690000  19.7720000  23.6860000   7.9290000  18.7260000
  24.9540000   7.2570000  19.0650000  25.5460000   7.0890000  18.1940000
  25.6050000   8.0470000  19.4840000  24.8380000   6.0890000  20.0310000
  25.8860000   5.8200000  20.3180000  24.4900000   6.4710000  20.9870000
  23.9150000   4.9100000  19.6080000  24.3040000   3.7790000  20.5280000
  23.6370000   2.9400000  20.5190000  25.2400000   3.4520000  20.1660000
  24.3410000   4.1930000  21.5290000  22.5550000   5.3730000  19.7930000
  22.4260000   5.6850000  20.8480000  22.4460000   6.1970000  19.1140000
  21.8030000   4.6370000  19.5540000  24.0250000   4.5890000  18.1480000
  23.2240000   3.9420000  17.8460000  25.0360000   4.0340000  17.9340000
  24.1300000   5.4880000  17.4790000  22.6420000  10.3140000  19.1320000
  24.1520000   9.2690000  20.7580000  20.2670000   6.3630000  21.4350000
  19.6700000   5.8320000  22.4790000  18.5150000   6.0340000  22.8250000
  20.5010000   4.8140000  23.1500000  20.8820000   4.1020000  22.3760000
  19.9620000   4.2300000  23.8870000  21.7370000   5.4530000  23.7280000
  21.4230000   6.2390000  24.3920000  22.1280000   6.1060000  22.9820000
  22.7860000   4.3890000  24.2190000  23.5620000   4.9250000  24.6490000
  23.2440000   4.0390000  23.2610000  22.4110000   3.2320000  25.2450000
  23.2230000   2.5160000  25.3710000  21.6030000   2.5870000  24.8200000
  21.9830000   3.8150000  26.6220000  21.3830000   4.6950000  26.5310000
  22.8700000   4.0650000  27.1090000  21.1760000   2.8380000  27.3810000
  21.4410000   2.7960000  28.4490000  21.5190000   1.8870000  27.0060000
  19.6770000   2.8750000  27.1980000  19.3300000   2.0390000  27.7380000
  19.4890000   2.6860000  26.1020000  19.1730000   4.2550000  27.6110000
  19.8850000   4.9050000  28.0870000  17.9210000   4.6330000  27.6920000
  17.6780000   5.6980000  28.1020000  16.7040000   3.8380000  27.0850000
  17.0470000   3.0200000  26.3950000  15.9920000   4.5240000  26.5370000
  16.1150000   3.0820000  28.2970000  16.9730000   2.5370000  28.8300000
  15.4010000   2.3990000  27.9290000  15.4670000   4.0460000  29.2880000
  14.5160000   4.4140000  29.0310000  16.1140000   4.9460000  29.2850000
  15.4020000   3.2780000  30.6380000  16.3900000   2.9550000  30.9570000
  14.7980000   2.4430000  30.4740000  14.7570000   3.9720000  31.8260000
  14.7620000   3.2330000  32.6190000  13.7520000   4.1830000  31.5710000
  15.3870000   5.3430000  32.0970000  14.8640000   5.8380000  32.9610000
  15.3010000   5.9300000  31.1780000  16.9640000   5.2480000  32.3580000
  17.5310000   4.6620000  31.6610000  17.0850000   4.7270000  33.3150000
  17.5500000   6.6580000  32.4920000  17.1550000   7.2210000  33.2840000
  17.3950000   7.2050000  31.5970000  18.6470000   6.6210000  32.6200000
   6.6370000 150.0180000  32.7110000   5.6850000 150.3680000  33.0220000
   7.3840000 150.8280000  32.6190000   6.9700000 149.2760000  33.4540000
   6.4850000 149.2960000  31.3320000   5.8520000 148.4030000  31.5660000
   6.0260000 149.9870000  30.6530000   7.8230000 148.9010000  30.7300000
   8.4240000 149.8230000  30.7720000   8.2070000 148.1130000  31.4150000
   7.8980000 148.3290000  29.3040000   7.3420000 147.4470000  29.2280000
   7.5230000 148.9840000  28.5200000   9.3880000 147.8930000  29.0940000
   9.9800000 148.8010000  29.1200000   9.6970000 147.1800000  29.8770000
   9.6390000 147.1060000  27.8100000   8.9730000 146.2440000  27.8270000
   9.2700000 147.6270000  26.9010000  11.0590000 146.4860000  27.5310000
  10.8540000 145.7380000  26.8380000  11.7920000 147.2130000  27.1000000
  11.7370000 145.7840000  28.7610000  11.8150000 146.4650000  29.6970000
  11.0610000 144.9930000  29.0490000  13.0710000 145.1770000  28.5070000
  13.8330000 145.8770000  28.2930000  13.2910000 144.6880000  29.5050000
  13.2440000 144.0540000  27.5190000  13.2920000 144.5360000  26.5430000
  14.3260000 143.6260000  27.6890000  12.1500000 142.9250000  27.5270000
  11.1560000 143.3640000  27.4960000  12.2760000 142.2950000  26.6360000
  12.2560000 142.0730000  28.8240000  13.3360000 141.7630000  28.9830000
  11.9710000 142.6350000  29.7030000  11.4240000 140.7860000  28.6410000
  10.4040000 141.0430000  28.4940000  11.6170000 140.2690000  27.7610000
  11.4580000 139.7740000  29.7740000  11.2660000 140.2900000  30.6990000
  10.6720000 138.9750000  29.7360000  12.7120000 138.9850000  30.0690000
  13.6050000 139.5860000  30.2220000  12.5110000 138.3140000  30.9040000
  13.0000000 138.0940000  28.9850000  12.9530000 136.9280000  29.1820000
  13.5060000 138.7200000  27.8870000  13.9430000 137.9010000  26.8000000
  14.6060000 138.4750000  26.1880000  14.4150000 137.0170000  27.1560000
  12.7050000 137.4920000  25.9270000  11.9970000 136.9990000  26.5680000
  12.9730000 136.4350000  24.8100000  12.4630000 135.4830000  25.0510000
  12.5250000 136.9010000  23.9090000  14.4460000 136.1520000  24.6450000
  15.4520000 137.0260000  23.7900000  15.1110000 136.6970000  22.3370000
  15.6850000 135.5030000  21.7760000  16.3860000 134.9590000  22.4080000
  14.8390000 134.8420000  21.5940000  16.3330000 135.8330000  20.4160000
  16.5790000 134.8920000  19.9140000  15.5940000 136.2890000  19.6700000
  17.5170000 136.7500000  20.4440000  18.5240000 136.2930000  21.4360000
  19.4150000 136.8580000  21.1450000  18.2690000 136.2650000  22.5180000
  18.5320000 135.2260000  21.2140000  18.2380000 136.7580000  19.1510000
  19.1760000 137.1460000  19.3340000  18.3240000 135.7360000  18.8180000
  17.7210000 137.3850000  18.4580000  17.1260000 138.1350000  20.8200000
  17.9770000 138.7770000  20.9590000  16.6410000 138.2630000  21.7300000
  16.4830000 138.4830000  20.0180000  15.1160000 138.4440000  23.9160000
  16.7840000 136.5350000  24.0730000  12.0350000 138.7120000  25.3750000
  10.7660000 138.6290000  24.8720000  10.1110000 137.6090000  24.8220000
  10.2240000 139.9140000  24.4520000  10.1800000 140.0380000  23.3510000
  10.9680000 140.7090000  24.6890000   8.8150000 140.2250000  24.8910000
   8.2160000 139.3260000  24.7940000   8.4700000 140.9920000  24.1720000
   8.6160000 140.6920000  26.2890000   9.3420000 141.5410000  26.2900000
   9.0870000 140.0120000  27.0220000   7.1640000 140.9380000  26.6720000
   6.5740000 140.0810000  26.6210000   6.7500000 141.6380000  25.9570000
   7.2420000 141.5280000  28.0630000   6.2780000 142.0850000  28.2310000
   8.1720000 142.1520000  28.1980000   7.2990000 140.3990000  29.1740000
   8.1930000 139.7430000  29.0080000   6.4170000 139.7170000  29.0460000
   7.2970000 140.7970000  30.6930000   7.4560000 139.8590000  31.2510000
   6.3940000 141.1870000  31.0920000   8.4710000 141.7820000  31.0980000
   9.3490000 141.3500000  31.5080000   8.4560000 143.1020000  31.0020000
   9.3770000 143.6350000  31.2670000   7.3460000 143.9580000  30.5190000
   6.3630000 143.4550000  30.4160000   7.6120000 144.1880000  29.4640000
   7.1410000 145.2070000  31.3780000   6.3840000 145.8250000  30.8150000
   8.0370000 145.8610000  31.4460000   6.5550000 144.9160000  32.7450000
   6.9190000 143.9650000  33.0410000   5.4900000 145.0790000  32.6160000
   7.1080000 146.0630000  33.7360000   6.9200000 147.0280000  33.2940000
   8.2230000 145.9820000  33.8600000   6.6210000 145.9650000  35.1780000
   5.4910000 146.0610000  35.1380000   7.0560000 146.7730000  35.8080000
   7.0280000 144.6550000  35.8400000   8.1210000 144.6760000  35.8710000
   6.7070000 143.7090000  35.2830000   6.5030000 144.5440000  37.2710000
   5.4030000 144.5840000  37.2370000   6.8270000 145.4130000  37.8480000
   6.7710000 143.2670000  38.1440000   6.9330000 142.3480000  37.6070000
   5.9390000 143.1240000  38.8190000   7.5340000 143.4940000  38.8680000
  30.1430000  32.9800000  35.9600000  29.2050000  32.9790000  36.3880000
  30.5060000  34.0280000  35.9140000  30.7330000  32.5920000  36.8270000
  30.3350000  32.2490000  34.6190000  29.7100000  31.3030000  34.7480000
  29.9360000  32.8090000  33.7550000  31.8170000  31.9410000  34.3640000
  32.3120000  32.7970000  34.1010000  32.1650000  31.3940000  35.2030000
  32.0920000  30.9670000  33.1680000  31.9850000  29.9360000  33.4040000
  31.5850000  31.2650000  32.2250000  33.5690000  31.2190000  32.7770000
  33.8520000  32.2300000  32.4150000  34.1270000  30.9750000  33.6750000
  34.0050000  30.2620000  31.6510000  33.6660000  29.3240000  31.9450000
  33.4770000  30.5420000  30.7440000  35.5310000  30.2470000  31.4690000
  35.9590000  31.2370000  31.4380000  35.8630000  29.8950000  32.3980000
  36.0270000  29.3260000  30.3610000  35.4560000  29.6690000  29.4270000
  37.0440000  29.6520000  30.0560000  36.0920000  27.7980000  30.5910000
  36.8380000  27.5670000  31.2710000  35.0800000  27.5720000  31.0080000
  36.2220000  26.9430000  29.3080000  37.2480000  27.0240000  28.9340000
  36.1020000  25.9150000  29.5960000  35.1470000  27.1790000  28.1670000
  34.3330000  27.7850000  28.5550000  35.5470000  27.7800000  27.3710000
  34.6480000  25.8460000  27.6520000  34.2240000  25.3620000  28.5840000
  33.8260000  26.0800000  26.9400000  35.5800000  24.9420000  26.9240000
  36.4040000  24.7420000  27.6150000  35.1010000  23.9100000  26.7530000
  36.2160000  25.5370000  25.6720000  36.8410000  26.3880000  25.9770000
  36.8770000  24.7580000  25.3190000  35.0950000  26.0820000  24.6600000
  34.3150000  25.2490000  24.4290000  34.6260000  26.9910000  25.0290000
  35.7250000  26.2730000  23.2990000  36.4770000  27.2390000  23.0800000
  35.4130000  25.3380000  22.4170000  36.2250000  25.1730000  21.2180000
  35.6780000  24.6220000  20.4580000  36.5020000  26.0880000  20.6780000
  37.5330000  24.3170000  21.4200000  38.1100000  24.2600000  20.5500000
  37.1520000  22.8750000  21.7560000  37.7330000  22.6630000  22.6710000
  36.1040000  22.6560000  22.1050000  37.7040000  22.0300000  20.7140000
  36.9940000  21.8650000  19.3380000  35.5310000  21.1160000  19.5580000
  35.5040000  19.6570000  19.4620000  36.5040000  19.2280000  19.1590000
  35.2740000  19.3920000  20.4880000  34.3110000  19.3550000  18.5270000
  34.0250000  18.3290000  18.5070000  33.4070000  19.9060000  18.9490000
  34.3690000  19.8290000  17.0550000  33.3450000  19.3150000  16.1590000
  32.4410000  19.7470000  16.4740000  33.4270000  19.5540000  15.1340000
  33.3690000  18.2080000  16.1730000  34.2430000  21.3030000  16.9080000
  34.3160000  21.5460000  15.8370000  33.1990000  21.5500000  17.2360000
  34.9570000  21.7360000  17.5340000  35.6840000  19.5620000  16.4920000
  36.5350000  20.0850000  17.0090000  35.5680000  19.8700000  15.5130000
  35.8220000  18.4760000  16.6200000  36.6580000  23.2040000  18.8630000
  37.8690000  21.0530000  18.5280000  38.3920000  24.8400000  22.4810000
  39.4200000  25.6270000  22.1290000  39.7920000  26.0830000  21.0470000
  40.1740000  25.9570000  23.3010000  41.2320000  25.7750000  23.0800000
  39.8470000  25.3350000  24.1480000  39.9590000  27.4280000  23.6670000
  38.9260000  27.6940000  23.7570000  40.4550000  27.9900000  22.8480000
  40.6640000  27.9200000  24.9670000  40.6360000  29.0160000  25.2040000
  41.6800000  27.7120000  24.8720000  40.1450000  27.1540000  26.2300000
  40.1400000  26.1190000  26.0310000  39.1270000  27.4710000  26.4450000
  40.8580000  27.2950000  27.5470000  41.9110000  27.0680000  27.3770000
  40.4550000  26.4840000  28.1050000  40.6290000  28.5750000  28.2910000
  39.5510000  28.6450000  28.5790000  40.7660000  29.3700000  27.6020000
  41.6000000  28.5110000  29.4440000  42.4740000  28.1620000  29.0510000
  41.1990000  27.7620000  30.1190000  42.0810000  29.8420000  30.0820000
  43.0000000  30.2460000  29.6380000  41.6410000  30.3040000  31.2320000
  42.1010000  31.2130000  31.6420000  40.4120000  29.7310000  31.9100000
  39.7270000  29.2800000  31.2400000  39.8450000  30.5390000  32.2950000
  40.7550000  28.5510000  32.8950000  41.3960000  28.8880000  33.7500000
  41.3230000  27.7990000  32.3280000  39.5280000  27.8230000  33.4380000
  38.8930000  27.6630000  32.6220000  38.9680000  28.4520000  34.1290000
  39.9740000  26.4530000  34.0380000  40.4890000  26.6230000  35.0110000
  40.5820000  25.9580000  33.2960000  38.7580000  25.5370000  34.3210000
  38.0600000  25.9250000  35.0590000  39.1820000  24.6140000  34.7610000
  37.8700000  25.1140000  33.1230000  38.3310000  24.4180000  32.4600000
  37.5930000  26.0360000  32.5790000  36.5110000  24.4020000  33.5070000
  36.1210000  24.9160000  34.4050000  36.7170000  23.3650000  33.6510000
  35.4220000  24.4840000  32.3680000  35.0420000  25.5440000  32.2770000
  34.5720000  23.8620000  32.5900000  35.8430000  24.2510000  31.3100000
   2.3040000  57.8950000  25.4920000   1.6630000  57.7210000  24.5870000
   2.6360000  58.9330000  25.6370000   1.7660000  57.7500000  26.4360000
   3.5130000  57.0080000  25.5080000   4.1490000  57.1660000  26.3930000
   3.0970000  56.0140000  25.4990000   4.3890000  57.1040000  24.2790000
   3.8740000  56.8750000  23.3610000   4.7530000  58.1470000  24.1940000
   5.5740000  56.1000000  24.3490000   6.1150000  56.1210000  25.3270000
   5.2320000  55.1270000  24.1460000   6.6430000  56.3780000  23.3080000
   6.2800000  56.4410000  22.2770000   7.2130000  57.3630000  23.4560000
   7.7410000  55.2100000  23.4180000   8.2380000  55.2410000  24.3750000
   7.2720000  54.2640000  23.2210000   8.9480000  55.3710000  22.4410000
   8.6800000  55.5120000  21.3900000   9.5210000  56.1490000  22.6990000
   9.8710000  54.1440000  22.4710000  10.1930000  54.0020000  23.4460000
   9.3760000  53.2350000  22.1990000  11.0990000  54.4440000  21.5040000
  10.8090000  54.5720000  20.4730000  11.5160000  55.4370000  21.9090000
  11.9860000  53.1640000  21.5580000  12.2080000  52.7220000  22.4980000
  11.4950000  52.4110000  20.9120000  13.2930000  53.2630000  20.7370000
  13.8730000  54.0130000  21.1380000  13.8460000  52.3320000  20.7160000
  13.1640000  53.5860000  19.2060000  12.4170000  52.9000000  18.7550000
  12.8530000  54.6150000  19.0610000  14.5140000  53.3700000  18.4320000
  15.2670000  53.9450000  18.9980000  14.8310000  52.3410000  18.5600000
  14.3210000  53.7670000  16.9510000  13.2800000  53.4810000  16.7430000
  14.3240000  54.8700000  16.9150000  15.3770000  53.2370000  16.0260000
  15.4910000  52.1110000  16.1340000  15.0710000  53.4150000  14.9650000
  16.7180000  53.8860000  16.2960000  16.8120000  55.1010000  16.3530000
  17.7710000  53.0700000  16.4260000  19.0160000  53.6400000  16.8450000
  19.7930000  52.9080000  16.5710000  19.1240000  54.4460000  16.1690000
  19.0360000  54.2200000  18.3380000  18.3100000  55.0680000  18.3810000
  20.5060000  54.4800000  18.7080000  20.8060000  55.3620000  18.1330000
  20.6040000  54.6810000  19.8030000  21.4600000  53.3400000  18.5090000
  21.7160000  52.0760000  19.4650000  20.6220000  51.0720000  18.8530000
  21.0170000  50.2400000  17.6440000  20.9570000  50.8800000  16.7680000
  22.0550000  50.0560000  17.7550000  20.1800000  48.9250000  17.6660000
  20.5150000  48.3250000  16.8430000  20.2030000  48.4280000  18.6390000
  18.7080000  49.2380000  17.4410000  18.0020000  50.0790000  18.4420000
  18.4020000  51.1220000  18.4550000  16.9780000  50.1150000  18.1430000
  18.1330000  49.7660000  19.4230000  18.4850000  50.0000000  16.0970000
  17.3860000  50.2480000  16.0930000  18.9830000  50.9390000  16.1030000
  18.7830000  49.4430000  15.2210000  18.0760000  47.9300000  17.3180000
  17.2480000  48.0280000  16.6720000  17.7790000  47.6610000  18.3260000
  18.8390000  47.1790000  17.0130000  23.0350000  51.4740000  19.2810000
  21.2850000  52.3440000  20.8510000  18.5560000  53.3060000  19.3190000
  18.2260000  53.7520000  20.4960000  18.1140000  54.9290000  20.6920000
  17.9720000  52.6370000  21.4830000  18.4320000  51.8230000  20.9780000
  16.9020000  52.3250000  21.6470000  18.6230000  52.7830000  22.8210000
  18.3810000  53.7420000  23.2490000  19.6730000  52.7740000  22.6550000
  18.0870000  51.6950000  23.8390000  18.3170000  50.7080000  23.4510000
  16.9930000  51.8300000  23.8750000  18.6570000  51.8370000  25.2750000
  19.6950000  52.0920000  25.3500000  18.5850000  50.8190000  25.7460000
  17.7900000  52.7440000  26.1780000  16.8460000  52.2440000  26.2590000
  17.6530000  53.7920000  25.8040000  18.3850000  52.9430000  27.5740000
  19.2380000  53.5750000  27.5310000  18.7420000  51.9660000  28.0230000
  17.3840000  53.7050000  28.4890000  16.6860000  52.9810000  28.8240000
  16.8780000  54.4540000  27.9170000  18.0250000  54.2310000  29.8220000
  18.8260000  53.6370000  30.2830000  17.7260000  55.3540000  30.4620000
  18.2520000  55.6330000  31.3740000  16.5070000  56.2290000  30.1010000
  15.7350000  55.8020000  29.4540000  16.9300000  57.0570000  29.5610000
  15.7910000  56.6180000  31.4590000  16.5170000  57.0570000  32.0980000
  15.4360000  55.6480000  31.8210000  14.5690000  57.5230000  31.2510000
  13.9190000  57.1550000  30.4540000  14.8430000  58.5580000  30.9650000
  13.7400000  57.5530000  32.5490000  13.5610000  56.5590000  32.8530000
  12.8190000  58.1110000  32.2650000  14.4470000  58.2300000  33.6580000
  14.9580000  59.1390000  33.3350000  15.2780000  57.5910000  33.9040000
  13.6020000  58.4220000  34.8950000  14.2480000  58.8450000  35.7490000
  13.3410000  57.4170000  35.1420000  12.2660000  59.2360000  34.7080000
  11.7600000  59.1750000  35.6320000  11.8440000  58.8040000  33.8370000
  12.4170000  60.7870000  34.4460000  11.4100000  61.1830000  34.5590000
  12.6290000  60.9620000  33.4340000  13.0690000  61.2240000  35.1570000
  60.1000000  37.2550000  35.3860000  60.0090000  37.0830000  36.4490000
  60.2970000  38.3070000  35.2890000  60.9430000  36.7380000  34.8990000
  58.7550000  36.8960000  34.7460000  58.4880000  35.8320000  35.0310000
  57.9570000  37.5480000  35.0600000  58.8000000  36.9780000  33.2020000
  59.3150000  37.8580000  32.9140000  59.3230000  36.1060000  32.7200000
  57.3530000  37.0670000  32.6840000  56.8040000  37.7690000  33.2830000
  57.3430000  37.5740000  31.7190000  56.5330000  35.7190000  32.7150000
  56.4250000  35.4590000  33.7390000  55.5440000  35.9740000  32.3230000
  56.9820000  34.5290000  31.8670000  57.7180000  33.9310000  32.3920000
  56.0450000  33.9380000  31.7110000  57.4600000  34.8580000  30.3680000
  56.8840000  35.6760000  29.9490000  58.5210000  35.1230000  30.3600000
  57.3870000  33.7050000  29.4490000  58.0450000  32.8770000  29.8070000
  56.4160000  33.3000000  29.3090000  57.9200000  34.2710000  28.0760000
  57.2960000  35.2160000  27.8720000  58.9610000  34.5510000  28.1380000
  57.7710000  33.3940000  26.8380000  56.7370000  33.3900000  26.6140000
  58.1680000  33.9150000  25.9680000  58.4870000  32.0690000  27.1350000
  59.4550000  32.2980000  27.5480000  57.9260000  31.4960000  27.9060000
  58.6930000  31.0480000  26.0130000  57.8080000  31.0730000  25.4200000
  59.5460000  31.4510000  25.3700000  59.1770000  29.6420000  26.4470000
  60.1110000  29.7290000  27.0310000  58.4760000  29.2050000  27.1470000
  59.3910000  28.6040000  25.3760000  60.1050000  28.9610000  24.6310000
  59.7760000  27.7840000  25.9430000  58.1320000  28.1790000  24.5450000
  58.3040000  27.2500000  24.0520000  57.3270000  27.9680000  25.2090000
  57.7440000  29.1540000  23.4750000  58.4820000  29.5170000  22.5710000
  56.4430000  29.3910000  23.5410000  55.7050000  29.8700000  22.3920000
  54.6610000  30.1370000  22.6860000  56.2340000  30.7330000  21.9600000
  55.6190000  28.7880000  21.2420000  56.6020000  28.4870000  20.9160000
  54.8160000  29.1850000  20.0240000  55.2210000  30.0970000  19.5440000
  54.9210000  28.4030000  19.2410000  53.3500000  29.3230000  20.3000000
  52.6280000  30.6300000  20.6230000  51.6740000  30.8510000  19.3300000
  50.5630000  29.9070000  19.0310000  50.2100000  29.9530000  17.9790000
  50.9340000  28.9200000  19.3610000  49.3490000  30.3410000  19.8200000
  48.4840000  29.9070000  19.2450000  49.3240000  29.8470000  20.8190000
  48.9570000  31.8100000  19.9690000  49.7190000  32.4470000  21.1190000
  49.7330000  31.8580000  21.9710000  50.7520000  32.5950000  20.7790000
  49.2740000  33.3500000  21.3130000  49.1880000  32.6070000  18.7940000
  48.8430000  33.6200000  19.0410000  50.2730000  32.5700000  18.6500000
  48.6400000  32.2330000  17.9140000  47.5730000  31.8930000  20.4030000
  47.0210000  31.3350000  19.6730000  47.2350000  32.9580000  20.5350000
  47.5030000  31.4290000  21.3660000  51.7570000  30.4120000  21.7700000
  53.5650000  31.7220000  20.7110000  54.9470000  27.5190000  21.6660000
  55.7430000  26.4830000  21.9360000  56.9440000  26.4450000  21.8960000
  54.9650000  25.2040000  22.2710000  55.1920000  24.4560000  21.5540000
  53.8920000  25.4610000  22.0920000  55.0360000  24.7240000  23.7070000
  56.0530000  24.4080000  23.9050000  54.4600000  23.8710000  23.7950000
  54.5690000  25.6590000  24.7990000  53.5540000  25.9700000  24.6180000
  55.2460000  26.4840000  24.7530000  54.5780000  25.0870000  26.2310000
  55.6110000  25.1330000  26.6810000  54.1750000  24.0730000  26.3080000
  53.7440000  25.9280000  27.2130000  52.7550000  26.1560000  26.9120000
  54.1080000  26.9350000  27.3280000  53.6740000  25.3150000  28.6530000
  53.1510000  24.3570000  28.5760000  52.9830000  25.9580000  29.2950000
  54.9210000  25.1190000  29.4810000  55.4380000  26.0240000  29.8040000
  55.6350000  24.5640000  28.9230000  54.5660000  24.2490000  30.6860000
  54.4910000  23.2310000  30.4450000  54.4530000  24.6350000  31.9200000
  54.2060000  23.9010000  32.6490000  54.6960000  26.0450000  32.4640000
  53.6810000  26.4890000  32.7500000  55.0450000  26.7880000  31.6830000
  55.7490000  26.0620000  33.6090000  56.7710000  25.7580000  33.1930000
  55.5890000  25.2920000  34.3780000  56.0580000  27.4760000  34.2100000
  55.0580000  27.8760000  34.5320000  56.4620000  28.1450000  33.4650000
  57.0310000  27.3740000  35.3870000  58.0660000  27.0660000  35.0670000
  56.6520000  26.6710000  36.1700000  57.0880000  28.7410000  36.0570000
  56.1140000  28.8450000  36.6290000  57.0090000  29.4950000  35.2430000
  58.3790000  28.9930000  36.8620000  59.2360000  28.9290000  36.1050000
  58.6250000  28.1580000  37.5890000  58.3920000  30.4060000  37.4830000
  58.0570000  31.0400000  36.6870000  59.4110000  30.6920000  37.7810000
  57.5110000  30.4970000  38.7470000  56.6660000  29.7410000  38.7230000
  57.0980000  31.4090000  38.8270000  58.0880000  30.2600000  39.6020000
   8.5490000 100.6230000  31.0740000   9.3050000 101.0900000  31.6600000
   8.5200000 101.1410000  30.0890000   8.9490000  99.6500000  30.8750000
   7.1280000 100.6080000  31.7280000   7.2370000 100.3100000  32.7860000
   6.6450000 101.6100000  31.8430000   6.2000000  99.4840000  31.1390000
   6.8080000  98.5930000  31.3470000   5.2600000  99.4280000  31.7310000
   6.1040000  99.5800000  29.6070000   5.7920000 100.5630000  29.3200000
   7.0940000  99.3730000  29.1900000   5.0880000  98.5650000  29.0070000
   5.4260000  97.5420000  29.3030000   4.1170000  98.7410000  29.3740000
   4.9870000  98.6040000  27.4790000   4.8490000  99.6260000  27.2500000
   5.9210000  98.3840000  26.9530000   3.8630000  97.7630000  26.8850000
   3.1080000  97.5940000  27.7340000   3.3820000  98.3660000  26.1220000
   4.2850000  96.4240000  26.2590000   4.5030000  95.7490000  27.1050000
   3.3460000  96.0260000  25.7830000   5.4510000  96.5030000  25.2260000
   5.3640000  97.5100000  24.7680000   6.4510000  96.4600000  25.6890000
   5.3130000  95.3930000  24.1080000   4.2430000  95.2680000  23.8510000
   5.6970000  95.7220000  23.1590000   5.8870000  93.9950000  24.4590000
   5.1800000  93.5490000  25.1050000   6.0410000  93.3450000  23.5430000
   7.2770000  94.1480000  25.1370000   7.8020000  94.8440000  24.4930000
   7.1040000  94.4710000  26.0890000   8.1270000  92.8490000  25.2650000
   7.5340000  92.0640000  25.6970000   8.4110000  92.6540000  24.2280000
   9.3320000  93.1260000  26.1460000   9.0330000  93.5240000  27.0870000
   9.9020000  92.1510000  26.4100000  10.3730000  94.0660000  25.5600000
   9.9680000  95.0070000  25.2030000  11.0840000  94.3070000  26.3450000
  11.0670000  93.3350000  24.4420000  11.8600000  92.4160000  24.6950000
  10.7930000  93.8420000  23.2270000  11.6040000  93.2210000  22.1190000
  11.4470000  93.7120000  21.1440000  12.6920000  93.1890000  22.3530000
  11.1950000  91.7700000  21.8860000  11.4240000  91.1610000  22.7570000
  12.0900000  91.2450000  20.7560000  13.2470000  91.0750000  21.1180000
  11.7170000  90.3010000  20.3010000  12.0400000  92.1590000  19.6120000
  10.9070000  92.2620000  18.5390000   9.8980000  93.4130000  18.9550000
   8.5740000  93.6410000  18.2830000   8.8990000  94.0880000  17.3810000
   8.1350000  92.6010000  18.1510000   7.6700000  94.5480000  19.0280000
   6.7100000  94.5680000  18.6630000   7.5840000  94.2100000  20.0400000
   8.1440000  95.9490000  19.1630000   8.4180000  96.6190000  17.8460000
   9.1810000  96.0130000  17.3740000   7.6120000  96.7030000  17.1370000
   8.7770000  97.6490000  18.1260000   7.2620000  96.7300000  19.9490000
   7.5090000  96.5100000  20.9820000   7.4230000  97.7840000  19.7300000
   6.1490000  96.4450000  19.7830000   9.4470000  95.9880000  19.9040000
   9.2610000  95.5970000  20.8740000   9.8710000  96.9590000  19.8510000
  10.2670000  95.3950000  19.3930000  11.4950000  92.5670000  17.2060000
  10.2180000  91.0160000  18.6980000   9.8310000  91.6520000  21.4610000
   9.2690000  90.4300000  21.5950000   9.7430000  89.4300000  22.0610000
   7.9060000  90.4000000  20.9230000   7.6830000  89.5230000  20.2600000
   7.8620000  91.3590000  20.3270000   6.7290000  90.4680000  21.8790000
   5.8580000  90.2820000  21.2710000   6.6710000  91.5040000  22.1520000
   6.6890000  89.6650000  23.1620000   7.5320000  90.0170000  23.7880000
   6.9280000  88.6130000  22.8740000   5.5000000  89.9120000  24.1510000
   4.5190000  89.5930000  23.7530000   5.3210000  91.0220000  24.2870000
   5.4380000  89.2970000  25.5500000   4.5770000  89.5780000  26.1880000
   6.3450000  89.5280000  26.1110000   5.4350000  87.7960000  25.5770000
   6.4020000  87.5250000  25.1410000   4.7460000  87.4960000  24.7690000
   5.1670000  87.0800000  26.9370000   5.0300000  86.0300000  26.7690000
   4.2490000  87.5120000  27.3590000   6.3360000  87.3490000  27.8310000
   7.1930000  87.0880000  27.3000000   6.2910000  87.7230000  29.0760000
   7.2010000  87.7070000  29.5630000   5.0500000  87.8380000  29.9980000
   4.1760000  87.2860000  29.6830000   4.6920000  88.8450000  29.8870000
   5.3480000  87.7330000  31.4720000   5.7590000  86.7310000  31.6030000
   4.3980000  87.5730000  32.0820000   6.3290000  88.7690000  32.0530000
   5.9620000  89.7870000  31.8490000   7.3330000  88.7550000  31.5750000
   6.5780000  88.5730000  33.5990000   6.9360000  87.5400000  33.8210000
   5.5990000  88.6820000  34.1270000   7.6020000  89.5490000  34.1600000
   7.3050000  90.6000000  33.9170000   8.6090000  89.3150000  33.7170000
   7.9780000  89.2290000  35.6260000   8.4390000  88.2180000  35.7160000
   7.1270000  89.3760000  36.2980000   8.9580000  90.2980000  36.2370000
   9.7250000  90.5070000  35.4680000   9.4780000  89.8850000  37.1270000
   8.2700000  91.5770000  36.7110000   7.9160000  91.5410000  37.7190000
   7.3920000  91.8560000  36.1370000   8.9400000  92.4280000  36.6390000
  77.6320000  15.4170000  32.2310000  78.4390000  15.8670000  31.6570000
  77.7830000  14.3900000  32.2680000  77.7180000  15.6870000  33.2800000
  76.2980000  15.9290000  31.6640000  76.1820000  15.4070000  30.7030000
  75.4030000  15.6140000  32.2210000  76.3460000  17.4900000  31.2650000
  77.0540000  17.6760000  30.4930000  75.4230000  17.7910000  30.7900000
  76.5650000  18.3920000  32.4690000  75.7850000  18.2140000  33.1660000
  77.5670000  18.1790000  32.8670000  76.4080000  19.8610000  32.1580000
  75.5320000  20.0110000  31.6250000  76.2540000  20.4600000  33.0460000
  77.5700000  20.4410000  31.3570000  78.4510000  20.4720000  31.9790000
  77.8240000  19.8020000  30.5420000  77.2390000  21.8560000  30.9200000
  76.3140000  22.2390000  31.3910000  78.0060000  22.5090000  31.3490000
  76.9550000  22.0520000  29.4140000  76.6050000  23.0590000  29.2000000
  77.9850000  21.8200000  28.9450000  75.8450000  21.1170000  28.8590000
  75.9100000  21.1410000  27.7400000  76.1130000  20.0710000  29.2180000
  74.4550000  21.5760000  29.3190000  74.5520000  21.5980000  30.4020000
  74.2130000  22.5100000  28.8430000  73.3180000  20.5160000  29.0120000
  73.7600000  19.5500000  29.3040000  72.5130000  20.7710000  29.7420000
  72.8280000  20.5000000  27.5300000  72.5330000  21.5170000  27.2230000
  73.6030000  20.0850000  26.8850000  71.5490000  19.6410000  27.5220000
  71.8420000  18.9260000  28.2900000  70.6200000  20.1330000  27.8550000
  71.3020000  18.9290000  26.1690000  70.8630000  19.4990000  25.3400000
  72.2320000  18.7240000  25.7010000  70.3870000  17.6970000  26.3490000
  70.8240000  16.9620000  27.1390000  69.3880000  18.0010000  26.7440000
  70.2140000  16.8450000  25.0870000  71.0830000  16.3790000  24.3450000
  68.8690000  16.6740000  24.8800000  68.4770000  16.2000000  23.5640000
  69.0790000  15.3830000  23.1480000  67.4800000  15.7770000  23.5880000
  68.3660000  17.3720000  22.5710000  67.5250000  17.1740000  21.9350000
  69.6670000  17.4310000  21.7740000  70.4910000  17.6610000  22.3710000
  69.9420000  16.4940000  21.3280000  69.6120000  18.4970000  20.8240000
  68.2890000  18.8280000  19.8660000  67.3130000  19.7000000  20.8450000
  67.4510000  21.0780000  20.8440000  67.5190000  21.5000000  21.8590000
  68.3510000  21.3990000  20.3740000  66.2900000  21.5060000  19.9760000
  66.4420000  21.1370000  19.0110000  65.3880000  21.0100000  20.4130000
  65.9130000  22.9780000  19.8660000  64.5230000  23.1260000  19.3850000
  63.8270000  22.7600000  20.1300000  64.3480000  24.1930000  19.2070000
  64.2470000  22.5830000  18.4910000  65.9080000  23.6050000  21.2470000
  66.9960000  23.5270000  21.5400000  65.6000000  24.7000000  21.1340000
  65.2200000  23.1070000  21.9250000  66.7450000  23.7170000  18.8250000
  66.2470000  24.7050000  18.6740000  66.7640000  23.1200000  17.9480000
  67.7190000  23.7130000  19.1640000  68.7440000  19.7060000  18.7520000
  67.6020000  17.5440000  19.5040000  68.1530000  18.6040000  23.3490000
  66.8450000  18.9510000  23.6050000  65.8970000  18.2690000  23.2490000
  66.8360000  20.3470000  24.2680000  66.2870000  21.0110000  23.6100000
  67.8530000  20.7820000  24.2630000  66.2150000  20.2930000  25.6560000
  66.5890000  19.4280000  26.1550000  65.1380000  20.1620000  25.5390000
  66.4280000  21.5540000  26.4350000  65.8230000  22.3600000  25.9480000
  67.4810000  21.8760000  26.3620000  66.0270000  21.4470000  27.9240000
  65.0420000  20.9390000  27.9860000  65.8150000  22.4500000  28.3910000
  67.0870000  20.7380000  28.8010000  66.8140000  20.9950000  29.8210000
  68.0610000  21.1400000  28.5360000  67.2220000  19.1980000  28.8110000
  67.5700000  18.9180000  27.8250000  66.2410000  18.7440000  28.9730000
  68.2630000  18.7670000  29.8110000  68.1080000  19.1350000  30.8660000
  69.2220000  19.1670000  29.4600000  68.3710000  17.2550000  29.8280000
  67.4340000  16.9500000  29.3980000  69.2710000  16.4320000  30.3930000
  69.0950000  15.3610000  30.6310000  70.5380000  17.0550000  30.9950000
  70.6480000  18.1290000  30.9260000  71.4310000  16.6310000  30.4920000
  70.5860000  16.7650000  32.5150000  70.4150000  15.7350000  32.6700000
  69.6870000  17.3210000  32.9370000  71.8710000  17.2200000  33.2820000
  72.1620000  18.1840000  32.7940000  72.8030000  16.6200000  33.1110000
  71.8800000  17.1690000  34.8600000  72.1840000  16.1560000  35.0500000
  70.8860000  17.3900000  35.1740000  72.9120000  18.1450000  35.3220000
  73.8710000  17.9340000  34.7650000  73.2320000  17.8210000  36.3580000
  72.6190000  19.6380000  35.3700000  71.6270000  19.8750000  35.7050000
  72.5510000  19.9890000  34.3010000  73.7180000  20.3530000  36.2470000
  73.5740000  21.4860000  36.0450000  74.7220000  19.9840000  35.9530000
  73.5140000  20.1670000  37.7690000  73.7290000  19.1920000  38.0680000
  72.4840000  20.3710000  38.1180000  74.0750000  20.8980000  38.3540000
 124.1120000 106.5570000  37.7530000 123.2020000 106.9950000  37.8530000
 124.8640000 106.8420000  38.4050000 123.9550000 105.5090000  37.8800000
 124.5850000 106.8740000  36.3520000 124.9540000 107.8720000  36.1630000
 125.4970000 106.2840000  36.2420000 123.5120000 106.5320000  35.3240000
 123.9290000 106.7660000  34.3480000 123.2590000 105.4360000  35.3090000
 122.0880000 107.1260000  35.3930000 121.4310000 106.5080000  36.0450000
 122.2730000 108.0970000  35.8450000 121.4540000 107.3030000  33.9690000
 122.1410000 107.1810000  33.1450000 120.8300000 106.4700000  33.9820000
 120.5860000 108.5790000  33.8550000 119.8790000 108.6330000  34.7280000
 121.2180000 109.4370000  33.8390000 119.7490000 108.7540000  32.5580000
 119.0580000 107.9470000  32.3790000 119.1760000 109.7190000  32.6520000
 120.6500000 108.8040000  31.2400000 121.2420000 107.9090000  31.2760000
 119.9840000 109.0040000  30.3670000 121.5670000 110.0620000  31.1490000
 121.0040000 110.9850000  31.4040000 122.3970000 110.1320000  31.8860000
 122.3010000 110.2480000  29.7840000 121.6730000 110.1600000  28.9320000
 122.7580000 111.2720000  29.7560000 123.5610000 109.4210000  29.5590000
 124.0870000 109.2310000  30.5660000 123.3590000 108.5010000  29.1130000
 124.5160000 109.9430000  28.4970000 125.0770000 110.8990000  28.7010000
 125.2600000 109.1920000  28.5380000 123.9820000 109.9670000  27.0560000
 123.5330000 109.0350000  26.7360000 123.2600000 110.7350000  27.0160000
 124.9710000 110.2830000  25.9490000 126.0140000 109.9250000  26.2030000
 124.7300000 109.9770000  24.9330000 125.2110000 111.7830000  25.8770000
 125.4750000 112.2000000  26.8090000 126.0060000 111.9190000  25.0750000
 123.9970000 112.4880000  25.2510000 123.7070000 112.2660000  24.0970000
 123.1500000 113.1410000  26.1000000 121.9340000 113.7110000  25.5840000
 121.5030000 114.2240000  26.4430000 122.2260000 114.5980000  24.9650000
 120.8400000 112.7870000  24.9050000 121.2320000 112.3930000  23.9100000
 119.6240000 113.6790000  24.6310000 118.7030000 113.4220000  25.2280000
 119.9150000 114.7250000  24.6490000 119.1830000 113.4170000  23.3090000
 119.6100000 114.3600000  22.1500000 118.9230000 115.8400000  22.5680000
 117.5350000 116.1760000  22.4290000 117.0700000 115.3780000  21.8920000
 117.1260000 116.1980000  23.4350000 117.3380000 117.4770000  21.6970000
 116.2180000 117.5310000  21.7130000 117.6640000 118.4010000  22.1510000
 117.5980000 117.5980000  20.2540000 116.9910000 118.8190000  19.6710000
 117.5360000 119.6610000  20.0930000 117.2120000 118.8190000  18.5890000
 115.8780000 118.6680000  19.9700000 119.0450000 117.4900000  20.0770000
 119.3360000 116.4510000  20.3180000 119.2880000 117.7710000  19.0420000
 119.4580000 118.3200000  20.7230000 116.9890000 116.4330000  19.5410000
 117.3380000 116.2650000  18.4710000 115.9390000 116.5350000  19.6130000
 117.2860000 115.6020000  20.2190000 121.0660000 114.4820000  22.1830000
 118.9620000 113.8990000  20.9090000 120.4140000 111.8110000  25.8040000
 120.2230000 110.5560000  25.3270000 120.5270000 110.1990000  24.1770000
 119.8180000 109.6600000  26.4630000 118.9940000 110.1400000  26.9080000
 120.6340000 109.6740000  27.1720000 119.5170000 108.1290000  26.0630000
 120.4400000 107.6670000  25.7100000 118.8120000 108.1690000  25.2480000
 118.8470000 107.2270000  27.1300000 117.9160000 107.7310000  27.3680000
 119.3930000 107.2450000  28.0570000 118.4020000 105.8360000  26.6730000
 119.3880000 105.1980000  26.4020000 117.8520000 105.9310000  25.7630000
 117.5520000 105.0760000  27.6960000 117.4720000 104.0770000  27.3400000
 116.5610000 105.5250000  27.6960000 118.1080000 105.0940000  29.1100000
 118.1560000 106.1570000  29.4420000 119.0810000 104.7100000  29.0080000
 117.3860000 104.2290000  30.1300000 117.8950000 104.1830000  31.1210000
 117.3350000 103.1790000  29.7490000 116.0260000 104.8440000  30.4280000
 115.5040000 105.3010000  29.5960000 115.4080000 104.7720000  31.5860000
 114.5300000 105.3060000  31.7820000 116.0510000 104.0460000  32.7380000
 116.6700000 103.2160000  32.4040000 115.2150000 103.6590000  33.3310000
 116.9710000 104.8550000  33.6810000 116.4420000 105.6740000  34.0450000
 117.7900000 105.4030000  33.1440000 117.7900000 104.1620000  34.7850000
 118.7400000 103.8260000  34.4150000 117.2640000 103.2000000  35.0300000
 117.8630000 105.0450000  35.9660000 116.9570000 105.1190000  36.5200000
 118.2130000 106.0320000  35.7440000 118.8760000 104.3860000  36.8260000
 119.7550000 104.1990000  36.1720000 118.5130000 103.4170000  37.3810000
 119.4590000 105.3360000  37.9590000 118.6750000 105.6590000  38.6530000
 119.8280000 106.2020000  37.4080000 120.6760000 104.6450000  38.5800000
 121.4200000 104.4310000  37.8550000 120.3010000 103.6690000  38.9120000
 121.2590000 105.4920000  39.7410000 121.6770000 104.9150000  40.5380000
 120.4630000 106.1920000  40.0520000 122.1100000 106.0730000  39.3730000
  52.0980000  94.5200000  31.6630000  52.3550000  94.6740000  32.6780000
  52.9400000  94.0560000  31.3030000  51.1700000  93.9280000  31.6190000
  52.0160000  95.8450000  30.8940000  51.0850000  96.3250000  31.1220000
  52.7710000  96.5230000  31.1760000  52.3320000  95.6960000  29.4130000
  53.3120000  95.2120000  29.2750000  51.5700000  95.0970000  28.9100000
  52.4540000  97.1350000  28.7950000  51.5620000  97.7930000  29.0220000
  53.2240000  97.6210000  29.4770000  52.8750000  97.1150000  27.2980000
  53.2190000  98.0360000  26.9280000  53.7600000  96.4400000  27.1050000
  51.6810000  96.8640000  26.4500000  51.4180000  95.8220000  26.5920000
  50.7790000  97.4300000  26.7430000  51.9410000  97.1670000  24.9150000
  52.9960000  97.0760000  24.6940000  51.4080000  96.3820000  24.4040000
  51.5130000  98.6060000  24.5870000  51.7490000  99.1780000  25.4730000
  51.9870000  98.9900000  23.7800000  49.9440000  98.7550000  24.3390000
  49.7150000  98.4040000  23.3800000  49.3740000  98.0490000  24.9690000
  49.3020000 100.2580000  24.4890000  49.6240000 100.8490000  23.6040000
  48.1970000 100.0990000  24.4450000  49.7480000 100.9270000  25.8040000
  50.8410000 100.8990000  25.8830000  49.5120000 101.9960000  25.7570000
  49.1080000 100.3510000  27.0100000  49.2030000  99.3360000  27.2160000
  49.3900000 100.8930000  27.8740000  47.6010000 100.6020000  27.0570000
  47.4340000 101.7040000  27.0590000  47.1210000 100.1170000  26.2810000
  46.7660000 100.1290000  28.2300000  46.8700000 100.7760000  29.1280000
  45.7550000 100.4570000  27.9580000  46.7050000  98.6150000  28.5620000
  47.7240000  98.1800000  28.4840000  46.2980000  98.3190000  29.5480000
  45.9320000  97.8890000  27.5690000  44.9450000  97.2360000  27.8380000
  46.6230000  97.6980000  26.4730000  45.9460000  96.9450000  25.4460000
  46.6750000  96.7810000  24.6620000  45.6280000  95.9780000  25.8330000
  44.7000000  97.7070000  24.8620000  43.8560000  97.7180000  25.5780000
  44.0290000  97.1220000  23.6380000  43.3800000  96.3580000  23.9420000
  43.4320000  98.0020000  23.1380000  45.0130000  96.5560000  22.6990000
  44.6100000  96.1180000  21.2020000  44.7360000  97.5680000  20.4140000
  45.9270000  97.8670000  19.7190000  46.7830000  97.8520000  20.4220000
  46.1540000  97.1320000  18.9420000  45.8540000  99.2720000  19.1810000
  46.2420000  99.2560000  18.1550000  44.7870000  99.4710000  19.1240000
  46.4320000 100.3910000  20.0710000  46.2170000 101.6010000  19.2190000
  45.1820000 101.7180000  18.9790000  46.4080000 102.6200000  19.6830000
  46.8430000 101.4990000  18.3560000  45.6800000 100.4960000  21.3480000
  44.6510000 100.0490000  21.3080000  46.1950000  99.9820000  22.1740000
  45.7330000 101.5560000  21.6060000  47.8390000 100.2630000  20.3820000
  48.1900000 101.1120000  20.9610000  48.4850000 100.2920000  19.4910000
  48.1050000  99.3510000  20.9620000  45.5920000  95.1380000  20.6660000
  43.1840000  95.7180000  21.3010000  44.9560000  99.0480000  24.5050000
  44.6130000 100.1180000  25.2730000  44.0040000 100.0280000  26.2750000
  44.9680000 101.4350000  24.6130000  44.6190000 101.3880000  23.5970000
  46.0640000 101.4470000  24.5200000  44.4300000 102.7540000  25.3100000
  43.4540000 102.5160000  25.5000000  44.5310000 103.5620000  24.6140000
  45.0920000 103.1010000  26.5960000  46.1810000 103.2360000  26.4600000
  44.9380000 102.3310000  27.3490000  44.6540000 104.4410000  27.2430000
  43.6130000 104.4330000  27.4510000  44.8470000 105.2500000  26.5420000
  45.3240000 104.8630000  28.5270000  45.1540000 105.9440000  28.7400000
  46.4060000 104.9390000  28.3490000  45.0260000 103.9820000  29.7180000
  45.3940000 102.9750000  29.7460000  43.9350000 103.8240000  29.8550000
  45.7590000 104.6510000  30.8770000  45.3400000 105.6550000  31.0680000
  46.7750000 104.8250000  30.5210000  45.8120000 103.8560000  32.1420000
  44.9070000 103.8240000  32.7840000  46.8470000 103.1460000  32.5690000
  46.8520000 102.6100000  33.5350000  48.1120000 102.7910000  31.8040000
  48.6710000 103.6530000  31.9530000  47.8310000 102.5820000  30.7220000
  48.8420000 101.6240000  32.4160000  48.3400000 100.7220000  32.0380000
  48.6910000 101.6830000  33.5080000  50.3350000 101.5610000  32.2240000
  50.8150000 102.5450000  32.6120000  50.5740000 101.4590000  31.1630000
  50.8900000 100.3120000  33.0130000  50.2120000  99.5280000  32.7910000
  50.7160000 100.4630000  34.1440000  52.3470000  99.8410000  32.8030000
  52.9510000 100.6270000  33.1400000  52.4600000  99.6260000  31.7700000
  52.6520000  98.5980000  33.6280000  51.9990000  97.7290000  33.4460000
  52.4090000  98.8200000  34.6390000  54.1340000  98.3150000  33.4420000
  54.7050000  99.1240000  33.9620000  54.3560000  98.3530000  32.3910000
  54.5940000  96.9870000  34.1180000  54.3130000  96.9740000  35.1710000
  55.6440000  96.7990000  33.9930000  54.0820000  96.1610000  33.6620000
  13.7050000 130.9360000  36.1940000  14.5750000 131.1240000  35.5340000
  13.2720000 131.8590000  36.5450000  12.9550000 130.5240000  35.5820000
  14.2030000 129.9240000  37.2510000  14.7920000 130.5210000  37.9610000
  13.3150000 129.4370000  37.7270000  15.2710000 128.9640000  36.6740000
  16.1330000 129.5970000  36.3610000  15.6040000 128.4090000  37.5180000
  14.8480000 127.9630000  35.5070000  13.9710000 127.5080000  35.8480000
  14.6210000 128.4370000  34.5230000  15.8960000 126.8390000  35.2900000
  16.9000000 127.2100000  35.0900000  15.8590000 126.1720000  36.1360000
  15.4170000 126.0500000  34.1320000  14.5260000 125.5200000  34.3820000
  15.1240000 126.7100000  33.2110000  16.4630000 124.9900000  33.6940000
  17.0700000 124.6660000  34.5700000  15.9420000 124.0810000  33.3950000
  17.4270000 125.4590000  32.5410000  18.1490000 126.1130000  33.0380000
  17.9840000 124.5810000  32.1660000  16.8610000 126.1490000  31.3020000
  15.8310000 125.8340000  31.2370000  16.8980000 127.1850000  31.5600000
  17.6920000 126.0820000  29.9380000  17.6380000 125.0510000  29.4400000
  17.1950000 126.7490000  29.1890000  19.2310000 126.5570000  30.1640000
  19.2710000 127.5500000  30.6210000  19.7930000 125.8070000  30.7930000
  19.8750000 126.4880000  28.7980000  19.7850000 125.4530000  28.4960000
  19.2430000 127.0700000  28.1210000  21.2890000 127.0370000  28.7230000
  21.4600000 128.0580000  29.0110000  21.9860000 126.4310000  29.2840000
  21.7390000 126.9460000  27.2370000  21.5650000 125.8660000  26.8820000
  21.1310000 127.6090000  26.6150000  23.2130000 127.3590000  26.9870000
  23.2630000 128.3590000  27.2770000  23.9220000 126.7280000  27.5250000
  23.4960000 127.4080000  25.4870000  22.7610000 126.9320000  24.6400000
  24.6710000 128.0280000  25.1330000  24.9770000 128.1680000  23.7020000
  26.0330000 128.2150000  23.4350000  24.6000000 127.3160000  23.2570000
  24.3800000 129.4770000  23.1890000  23.3680000 129.6890000  23.6400000
  24.0970000 129.4780000  21.6790000  23.2360000 128.9260000  21.4440000
  23.9620000 130.6080000  21.4490000  25.2040000 129.0100000  20.8790000
  25.1400000 127.8660000  19.7740000  25.0480000 126.5710000  20.6820000
  23.8880000 125.6020000  20.6910000  23.9820000 125.0310000  21.5740000
  22.9640000 126.1300000  20.8100000  24.0750000 124.7040000  19.4700000
  23.2020000 124.0130000  19.4580000  23.9220000 125.2970000  18.6470000
  25.2640000 123.8250000  19.3370000  26.4370000 124.7190000  18.8570000
  27.3280000 124.0270000  18.5350000  26.1540000 125.5120000  18.1930000
  26.7870000 125.2800000  19.7610000  25.6510000 123.0980000  20.5100000
  26.5800000 122.5470000  20.3170000  25.9790000 123.8500000  21.2090000
  24.8360000 122.5570000  20.9780000  25.0450000 122.7970000  18.3230000
  24.9440000 123.2780000  17.3650000  24.1220000 122.3060000  18.5980000
  25.8610000 122.1190000  18.3240000  23.8860000 127.9980000  18.9760000
  26.4070000 127.8390000  19.0720000  25.3410000 130.5150000  23.6170000
  24.9420000 131.7460000  24.0540000  23.8700000 132.2410000  23.7970000
  26.0720000 132.4640000  24.8200000  26.5940000 133.1320000  24.1030000
  26.6480000 131.6890000  25.2720000  25.4800000 133.3950000  25.9340000
  24.6950000 133.9790000  25.6130000  26.2710000 134.1730000  26.0680000
  25.1130000 132.6570000  27.2150000  24.9470000 133.3070000  28.0590000
  25.9350000 132.0380000  27.5960000  23.8430000 131.9120000  27.0280000
  24.0390000 131.0230000  26.3470000  23.1280000 132.5870000  26.4670000
  23.2690000 131.3720000  28.3560000  23.5080000 132.0820000  29.1910000
  23.6610000 130.3860000  28.6360000  21.8030000 131.1450000  28.1930000
  21.5140000 130.1940000  27.7090000  21.2360000 131.9810000  27.7400000
  21.0470000 131.0280000  29.5260000  21.1410000 131.9460000  30.0500000
  21.4120000 130.2120000  30.0710000  19.5800000 130.7270000  29.2390000
  19.3780000 130.6160000  28.1910000  18.5700000 130.5910000  30.0970000
  17.6130000 130.3770000  29.6760000  18.6210000 130.9340000  31.5200000
  18.2470000 131.9670000  31.6790000  19.6440000 131.0110000  31.8800000
  17.7860000 129.9340000  32.3550000  18.2000000 128.8660000  32.1900000
  16.7630000 129.8380000  32.0650000  17.6970000 130.1060000  33.8480000
  16.9800000 129.3590000  34.1940000  17.2540000 131.1080000  34.0670000
  19.0580000 129.9700000  34.6040000  19.7050000 130.8710000  34.4060000
  19.6220000 129.1320000  34.1620000  18.9700000 129.7150000  36.0960000
  18.3460000 128.8660000  36.2000000  18.5170000 130.5480000  36.5140000
  20.3430000 129.5160000  36.8260000  20.8400000 130.4920000  36.8190000
  20.8910000 128.6680000  36.3120000  20.2580000 129.0170000  38.3300000
  19.5550000 128.2040000  38.3390000  20.0210000 129.8610000  38.9850000
  21.5910000 128.4540000  38.8180000  21.5480000 128.3910000  39.9720000
  22.3470000 129.1530000  38.5280000  21.8110000 127.5580000  38.2500000
  50.6670000  15.1800000  35.3770000  51.6530000  15.0150000  34.8640000
  50.3750000  14.3400000  35.8780000  50.7600000  16.0640000  36.0430000
  49.5740000  15.5560000  34.3120000  49.5210000  14.7390000  33.6290000
  48.6670000  15.5910000  34.8250000  49.7950000  16.9190000  33.5890000
  49.9240000  17.6360000  34.3420000  50.7820000  17.0570000  33.0630000
  48.5940000  17.4120000  32.6920000  48.1790000  16.6450000  31.9930000
  47.7140000  17.7400000  33.3440000  48.9370000  18.5660000  31.8270000
  49.3410000  19.2920000  32.4270000  49.7170000  18.3600000  31.1450000
  47.7960000  19.1770000  30.9550000  47.3900000  18.4350000  30.1960000
  46.9390000  19.4300000  31.6280000  48.3430000  20.3450000  30.1720000
  48.7220000  20.9310000  30.9870000  49.2760000  20.0680000  29.6210000
  47.3480000  21.0890000  29.3120000  46.4590000  21.3040000  29.7760000
  47.7940000  22.0840000  29.0480000  46.7550000  20.3640000  28.0250000
  47.5150000  20.3780000  27.2460000  46.4150000  19.3730000  28.2960000
  45.6080000  21.0830000  27.2710000  46.0450000  21.9500000  26.7780000
  45.4070000  20.4310000  26.4460000  44.3540000  21.5180000  28.1570000
  44.6300000  22.4050000  28.6400000  43.6090000  21.8060000  27.5030000
  43.9490000  20.4390000  29.1540000  44.8310000  20.0960000  29.7380000
  43.3360000  20.9380000  29.8800000  42.9450000  19.3550000  28.5160000
  42.1240000  19.9540000  28.1020000  43.4360000  18.8890000  27.6420000
  42.4000000  18.2650000  29.4590000  43.1190000  18.0020000  30.2250000
  41.5330000  18.6360000  29.8960000  42.0540000  16.9830000  28.6150000
  42.9370000  16.5990000  28.1340000  41.5580000  16.2360000  29.2990000
  41.0010000  17.3770000  27.5320000  40.1480000  18.2220000  27.5690000
  41.1350000  16.4710000  26.5290000  40.3080000  16.6960000  25.3360000
  39.9360000  15.7480000  25.0030000  39.3770000  17.1990000  25.6170000
  41.0220000  17.4120000  24.1060000  40.3080000  17.8800000  23.4970000
  41.7630000  16.4440000  23.2340000  42.5280000  16.9190000  22.5400000
  42.3830000  15.8140000  23.9180000  40.7300000  15.6740000  22.5800000
  40.9300000  15.3760000  21.0010000  40.7190000  16.7570000  20.2390000
  39.5210000  17.4570000  20.4570000  38.9340000  17.3970000  19.4890000
  38.8760000  17.0340000  21.2590000  39.9000000  18.9050000  20.7140000
  38.9350000  19.4130000  20.6550000  40.2120000  18.8950000  21.7500000
  40.8580000  19.6000000  19.7090000  40.6850000  21.0150000  19.9340000
  39.6810000  21.3880000  19.7480000  40.9510000  21.3400000  20.9780000
  41.4610000  21.5560000  19.4230000  42.2600000  19.2210000  19.9260000
  42.8790000  19.6080000  19.0790000  42.5900000  19.7730000  20.7580000
  42.2560000  18.1790000  20.1360000  40.4660000  19.2550000  18.2870000
  40.9480000  18.3590000  17.9550000  40.7070000  20.1080000  17.6170000
  39.3460000  19.1760000  18.1600000  42.3500000  14.9850000  20.8530000
  39.8780000  14.4730000  20.4970000  41.9800000  18.4360000  24.5580000
  42.2570000  19.5960000  23.9210000  41.7510000  19.8610000  22.8330000
  43.0620000  20.5890000  24.7040000  44.0840000  20.3230000  24.5960000
  42.7690000  20.5420000  25.7950000  42.7680000  22.0640000  24.3380000
  42.6210000  22.1790000  23.2720000  43.6110000  22.6680000  24.5940000
  41.5410000  22.7820000  24.9880000  41.4630000  23.7210000  24.5330000
  41.7030000  22.8700000  26.1140000  40.2070000  22.0960000  24.8230000
  40.3070000  21.0970000  24.8930000  39.7660000  22.3160000  23.8000000
  39.2450000  22.5380000  25.9270000  39.0940000  23.5700000  25.8890000
  39.6560000  22.3450000  26.9020000  37.9180000  21.7610000  25.7430000
  37.6990000  21.9700000  24.7060000  37.0320000  22.2180000  26.3010000
  38.0020000  20.2190000  25.9060000  38.5590000  19.9630000  26.8090000
  38.5470000  19.6830000  25.1440000  36.5450000  19.7440000  25.8990000
  35.9020000  20.2790000  25.1790000  36.0090000  18.6450000  26.5120000
  34.9410000  18.5420000  26.4360000  36.6420000  17.6450000  27.4930000
  37.6340000  17.9590000  27.7370000  36.6460000  16.5590000  27.1450000
  35.8170000  17.5360000  28.7970000  36.2260000  16.7320000  29.4110000
  34.8050000  17.1980000  28.4730000  35.6600000  18.7930000  29.6120000
  35.0160000  18.5660000  30.4670000  35.1510000  19.5190000  28.9780000
  37.0010000  19.3400000  30.2640000  37.7020000  19.4770000  29.4920000
  37.4290000  18.6480000  30.9560000  36.8580000  20.6660000  30.9520000
  36.1170000  20.5860000  31.8130000  36.3380000  21.3040000  30.3570000
  38.2500000  21.3600000  31.3040000  38.8240000  20.7770000  31.9900000
  37.9740000  22.3530000  31.8250000  39.0400000  21.7640000  30.0090000
  38.5040000  21.4540000  29.1290000  40.0220000  21.3700000  29.9330000
  39.1840000  23.2870000  29.8440000  38.2040000  23.7770000  29.8930000
  39.7930000  23.5420000  28.9450000  39.7590000  23.6520000  30.6990000
  39.9550000 135.8810000  29.5110000  40.3040000 136.8150000  28.9950000
  39.3290000 135.4710000  28.7750000  40.8720000 135.2350000  29.6410000
  39.3520000 136.3120000  30.9000000  40.1320000 136.8390000  31.4760000
  38.5870000 137.0310000  30.6570000  38.5760000 135.1270000  31.6400000
  37.6760000 134.7900000  31.2090000  39.2550000 134.2580000  31.6050000
  38.2240000 135.4080000  33.0880000  37.6640000 134.6270000  33.5130000
  39.1320000 135.4300000  33.6980000  37.4760000 136.7560000  33.2490000
  37.4800000 136.9200000  34.3820000  37.9770000 137.5550000  32.8540000
  36.0070000 136.7600000  32.7670000  35.9310000 136.2590000  31.8160000
  35.3440000 136.2850000  33.5140000  35.4870000 138.1950000  32.5340000
  35.2730000 138.6240000  33.5150000  36.3530000 138.7070000  32.1030000
  34.2260000 138.3800000  31.6330000  34.0310000 139.4310000  31.5060000
  33.3930000 137.8540000  32.1930000  34.4260000 137.6530000  30.2970000
  35.4380000 137.8200000  29.9750000  34.3010000 136.5750000  30.3960000
  33.4600000 138.1560000  29.1460000  33.5830000 139.2730000  28.9820000
  33.6840000 137.6800000  28.2150000  31.9580000 137.8720000  29.4390000
  31.8840000 137.9600000  30.5270000  31.2560000 138.6290000  28.9820000
  31.4790000 136.4630000  29.0860000  31.7500000 136.2460000  28.0290000
  31.9020000 135.6830000  29.6680000  29.9520000 136.4350000  29.3160000
  29.5760000 136.9100000  30.1830000  29.5670000 137.1470000  28.5950000
  29.3510000 135.0220000  29.2220000  29.4240000 134.5560000  30.1360000
  28.2900000 135.1490000  29.0230000  29.9010000 134.0090000  28.1930000
  30.9340000 133.7870000  28.5470000  29.3060000 133.1020000  28.1530000
  30.0030000 134.4840000  26.7660000  29.9020000 135.6520000  26.3200000
  30.1420000 133.3430000  26.0270000  30.0670000 133.5300000  24.5490000
  29.6420000 132.6510000  24.0560000  29.3990000 134.4140000  24.3400000
  31.5190000 133.7160000  24.0290000  31.5030000 133.9580000  22.9130000
  32.3560000 132.3320000  24.2470000  33.3710000 132.7000000  23.9150000
  32.3250000 132.1400000  25.3570000  31.8510000 131.1340000  23.6140000
  32.2960000 130.7220000  22.1420000  30.9380000 130.9590000  21.3720000
  30.4640000 132.3080000  21.1160000  29.9220000 132.6430000  22.0140000
  31.2720000 133.0000000  20.8890000  29.4950000 132.1800000  19.9070000
  29.0290000 133.2020000  19.8070000  30.0650000 131.8880000  19.0460000
  28.3440000 131.2760000  20.1250000  27.2250000 131.7660000  19.2610000
  27.5760000 131.9030000  18.1930000  26.4420000 131.0890000  19.1550000
  26.8840000 132.7440000  19.5960000  28.6920000 129.9140000  19.5800000
  29.2690000 129.9770000  18.6330000  29.4270000 129.4060000  20.3470000
  27.8910000 129.1720000  19.4310000  27.7660000 131.1710000  21.4890000
  27.1190000 130.2930000  21.5630000  27.2550000 132.1620000  21.5960000
  28.6240000 130.9860000  22.1580000  33.3100000 131.7230000  21.6220000
  32.6030000 129.2850000  22.0150000  32.2590000 134.8040000  24.6090000
  32.7800000 135.7530000  23.7910000  32.8070000 135.6520000  22.6060000
  33.3310000 136.9210000  24.5020000  34.3540000 137.0680000  24.2240000
  33.2410000 136.8070000  25.5430000  32.5380000 138.1660000  24.1490000
  32.3460000 138.1370000  23.1040000  33.0970000 139.1260000  24.1760000
  31.1890000 138.4390000  24.8720000  31.3150000 138.0450000  25.8890000
  30.3140000 137.8110000  24.5400000  30.9010000 139.8780000  25.0760000
  31.5040000 140.5150000  24.3880000  31.4120000 140.1350000  25.9700000
  29.4290000 140.2330000  25.3680000  29.0910000 139.4980000  26.1040000
  28.9290000 140.1070000  24.4600000  29.1900000 141.7030000  25.8030000
  28.1550000 141.9210000  25.8080000  29.6230000 142.4440000  25.1310000
  29.4610000 142.0510000  27.2840000  29.2770000 143.0730000  27.5820000
  30.4570000 141.7080000  27.4960000  28.4900000 141.2820000  28.1970000
  27.5720000 140.9100000  27.7020000  28.8290000 140.7530000  29.3720000
  28.1070000 139.9660000  29.7790000  29.9000000 141.3190000  30.3070000
  30.0910000 142.4340000  30.1360000  30.8090000 140.8250000  30.1810000
  29.4010000 140.9290000  31.7400000  29.2420000 139.8630000  31.7960000
  28.4760000 141.4890000  31.7880000  30.4410000 141.3090000  32.8540000
  30.1710000 142.3790000  32.9250000  31.4910000 141.1760000  32.5040000
  30.3960000 140.3760000  34.0550000  30.5000000 139.3350000  33.7930000
  29.4370000 140.5510000  34.6060000  31.5290000 140.6980000  35.0230000
  32.4710000 140.3670000  34.6000000  31.3360000 140.1920000  35.9940000
  31.5650000 142.2100000  35.3750000  30.5710000 142.5160000  35.7290000
  31.8640000 142.7900000  34.5220000  32.5360000 142.6130000  36.5330000
  33.5580000 142.3190000  36.2100000  32.2090000 142.0740000  37.3910000
  32.4300000 144.0260000  37.0280000  32.6960000 144.8050000  36.2950000
  33.1320000 144.0570000  37.8970000  31.4000000 144.2750000  37.3140000
  63.6380000 122.8810000  26.7880000  62.6380000 122.8920000  27.0290000
  63.8920000 121.8400000  26.8400000  63.5400000 123.1910000  25.7000000
  64.6510000 123.7170000  27.5040000  65.6660000 123.3750000  27.2190000
  64.5580000 124.7580000  27.1430000  64.6360000 123.7260000  29.0870000
  65.5790000 124.0670000  29.5040000  63.9250000 124.3360000  29.4560000
  64.4780000 122.2580000  29.6520000  65.0230000 121.5940000  28.9390000
  65.0300000 122.1560000  30.5950000  63.1020000 121.7610000  30.0090000
  62.7710000 122.3710000  30.8620000  62.4070000 121.9060000  29.2160000
  63.1110000 120.2780000  30.3440000  63.8680000 120.0350000  31.1280000
  62.1430000 120.0990000  30.7880000  63.3490000 119.2140000  29.3040000
  64.3440000 119.1090000  28.9590000  63.2330000 118.2170000  29.7490000
  62.4590000 119.3580000  28.0280000  62.5060000 120.3100000  27.5020000
  62.8570000 118.6440000  27.2710000  60.8940000 119.0640000  28.1930000
  60.7570000 118.0420000  28.6490000  60.4430000 119.9030000  28.8310000
  60.1880000 119.1780000  26.8430000  59.9870000 120.1300000  26.4930000
  60.8970000 118.6910000  26.1890000  58.9250000 118.3750000  27.0270000
  59.0070000 117.3030000  27.2970000  58.3000000 118.8610000  27.7960000
  58.0390000 118.3740000  25.7530000  57.7640000 119.4170000  25.5230000
  58.6740000 117.9900000  24.9220000  56.7710000 117.5460000  25.9110000
  57.0520000 116.5630000  26.4230000  56.0250000 118.0080000  26.5700000
  56.1050000 117.2650000  24.5200000  55.0170000 116.8250000  24.6150000
  56.0400000 118.2390000  24.0680000  56.7990000 116.2900000  23.6200000
  57.7420000 116.7920000  23.2850000  57.1000000 115.3350000  24.1020000
  55.9460000 115.8550000  22.4030000  55.2230000 114.8660000  22.3690000
  55.9990000 116.7790000  21.3570000  54.9450000 116.7220000  20.3870000
  55.0180000 115.7170000  19.8510000  54.0480000 116.7810000  20.9190000
  55.0810000 117.8040000  19.2760000  55.0840000 118.7500000  19.8530000
  53.9220000 117.7180000  18.3600000  54.2920000 117.5560000  17.3400000
  53.2430000 116.8190000  18.5750000  53.0360000 118.8840000  18.3770000
  51.7440000 118.8580000  17.4550000  52.3350000 119.5630000  16.1770000
  52.0090000 120.9320000  15.8360000  52.4340000 121.1560000  14.8260000
  50.9410000 121.1940000  15.9240000  52.7660000 121.9660000  16.7290000
  52.3210000 122.9110000  16.5620000  52.5700000 121.6450000  17.7580000
  54.2540000 122.0560000  16.7900000  54.8080000 123.4600000  16.4110000
  55.8780000 123.3740000  16.2550000  54.3730000 123.8030000  15.4820000
  54.5100000 124.2040000  17.2500000  54.8550000 121.6390000  18.1310000
  54.5820000 120.5900000  18.2930000  55.9460000 121.7440000  18.1070000
  54.3620000 122.2550000  18.9330000  54.8830000 121.1630000  15.8550000
  54.7440000 120.1920000  16.3940000  55.9230000 121.4670000  15.7410000
  54.3300000 121.1530000  14.8720000  51.4790000 117.4520000  17.0850000
  50.7060000 119.8000000  17.9360000  56.2370000 117.5180000  18.4740000
  57.0340000 118.4370000  18.0430000  56.7410000 119.6500000  17.9710000
  58.3450000 118.0180000  17.4500000  58.7220000 118.8410000  16.8280000
  58.0590000 117.1380000  16.8570000  59.3360000 117.5750000  18.5300000
  59.7660000 116.5800000  18.1760000  58.8240000 117.3210000  19.4960000
  60.4320000 118.5790000  18.8580000  61.1350000 118.6570000  18.0170000
  61.0840000 118.2220000  19.6350000  59.9520000 119.9750000  19.2150000
  59.8690000 119.9600000  20.2600000  58.9450000 120.1730000  18.7610000
  61.0010000 121.0640000  18.8140000  61.9960000 120.7050000  19.0860000
  60.6730000 121.9120000  19.4290000  60.9750000 121.5210000  17.2800000
  60.5930000 120.7590000  16.6530000  62.0560000 121.8020000  17.0340000
  60.0700000 122.7720000  16.9150000  59.9290000 122.8070000  15.7780000
  60.6640000 123.5970000  17.3420000  58.6860000 122.7280000  17.4650000
  58.2280000 121.7340000  17.2780000  58.0380000 123.7060000  18.1330000
  56.9840000 123.5100000  18.4250000  58.6890000 125.0450000  18.4090000
  59.7460000 124.9520000  18.3900000  58.5140000 125.2630000  19.4960000
  58.2660000 126.2590000  17.5410000  57.1670000 126.5330000  17.6510000
  58.4840000 126.0140000  16.5070000  59.2330000 127.4460000  17.8380000
  60.1580000 127.2270000  17.3520000  59.3880000 127.5350000  18.9850000
  58.6020000 128.7230000  17.2990000  57.5580000 128.6680000  17.3470000
  58.8670000 128.7360000  16.2320000  59.0500000 130.0180000  17.9860000
  58.5550000 130.1640000  18.9440000  58.6130000 130.9020000  17.3380000
  60.5840000 130.0460000  18.2150000  61.1260000 129.9520000  17.2760000
  60.9230000 129.1060000  18.7110000  61.0660000 131.1770000  19.0370000
  62.0970000 131.1110000  18.9370000  60.8270000 131.1000000  20.1130000
  60.7430000 132.5970000  18.5610000  61.6910000 133.0300000  18.5500000
  60.0750000 133.0720000  19.3240000  60.2770000 132.6380000  17.5820000
   2.1390000 117.3000000  34.1310000   2.4970000 118.2750000  34.5340000
   2.9450000 116.6120000  34.5100000   1.1990000 116.9990000  34.5770000
   1.9800000 117.4800000  32.6640000   1.3170000 116.8020000  32.2350000
   1.4850000 118.4420000  32.5060000   3.3110000 117.3930000  31.8500000
   3.9920000 118.1200000  32.2460000   3.8860000 116.4580000  31.9340000
   3.1340000 117.7790000  30.3090000   2.9420000 118.7730000  30.2550000
   4.1380000 117.7440000  29.8680000   2.3500000 116.8220000  29.3820000
   2.6730000 115.7710000  29.6050000   1.3090000 116.9120000  29.7600000
   2.5260000 117.2550000  27.8700000   1.4820000 117.3430000  27.4410000
   2.9350000 118.2720000  27.8290000   3.3610000 116.2850000  26.9170000
   4.2800000 115.9730000  27.4780000   2.7780000 115.4290000  26.6970000
   3.6900000 116.7350000  25.4380000   4.0110000 117.8510000  25.3860000
   4.4750000 116.1550000  24.9630000   2.5010000 116.5440000  24.5150000
   1.5360000 116.9730000  24.8850000   2.7080000 117.0730000  23.5720000
   2.3040000 115.0700000  24.0490000   3.2670000 114.6300000  24.0170000
   1.8590000 114.4990000  24.8650000   1.4250000 114.8560000  22.8110000
   0.3710000 114.8320000  23.0670000   1.6290000 115.7370000  22.1960000
   1.7340000 113.6070000  21.9820000   1.9080000 112.7090000  22.5440000
   0.9550000 113.4020000  21.2440000   3.0440000 113.8220000  21.2790000
   2.9900000 114.6870000  20.5450000   3.8320000 114.0820000  22.0260000
   3.6750000 112.5990000  20.5550000   2.8920000 112.0270000  20.0260000
   4.3020000 112.9990000  19.7410000   4.4780000 111.6380000  21.4170000
   5.3820000 112.1790000  21.7720000   3.8840000 111.2160000  22.2000000
   5.0050000 110.5170000  20.5030000   4.2990000 109.7840000  19.8700000
   6.3470000 110.4880000  20.4120000   6.8460000 109.5870000  19.3610000
   6.5910000 108.5150000  19.6250000   6.3690000 109.9470000  18.4370000
   8.4190000 109.6490000  19.2850000   8.8310000 110.6860000  19.0120000
   9.1400000 108.5430000  18.4540000   8.9850000 108.7860000  17.4160000
  10.2320000 108.5560000  18.7040000   8.5910000 107.1860000  18.6810000
   7.7570000 106.3480000  17.5530000   6.5410000 107.2620000  17.3000000
   5.3840000 106.8780000  16.5280000   4.7590000 107.7600000  16.4750000
   5.6160000 106.5780000  15.5450000   4.5680000 105.7760000  17.1910000
   3.8770000 105.3480000  16.4430000   5.2260000 104.9220000  17.4100000
   3.8270000 106.0980000  18.4770000   3.0800000 107.3940000  18.5000000
   2.6290000 107.6070000  19.4580000   3.7350000 108.2470000  18.2580000
   2.2940000 107.2400000  17.7620000   2.8400000 105.0130000  18.7900000
   2.3680000 104.6640000  17.8670000   3.4240000 104.2110000  19.2560000
   2.1420000 105.3650000  19.5190000   4.7690000 106.2020000  19.6270000
   5.1360000 105.1760000  19.7330000   4.2580000 106.6060000  20.5160000
   5.5910000 106.8050000  19.2280000   8.5850000 106.2330000  16.3250000
   7.2150000 105.1140000  18.2090000   8.7810000 109.3020000  20.6300000
   9.9830000 109.6980000  21.0270000  10.7620000 110.3940000  20.4080000
  10.1640000 109.3160000  22.4500000  10.9510000 108.5330000  22.4650000
   9.2400000 108.9060000  22.8360000  10.6890000 110.5380000  23.3500000
  11.5690000 110.9550000  22.8430000  11.1330000 110.0050000  24.2700000
   9.7930000 111.6890000  23.8660000  10.4220000 112.4280000  24.4210000
   9.1530000 111.3320000  24.7280000   8.9050000 112.5230000  22.8680000
   7.9930000 112.9060000  23.3650000   8.6160000 111.8250000  22.0770000
   9.6920000 113.6930000  22.3150000   9.8550000 114.4050000  23.1470000
   9.0170000 114.2210000  21.6040000  11.0440000 113.6110000  21.6050000
  10.7430000 113.0270000  20.7160000  11.6840000 112.9530000  22.2050000
  11.8590000 114.8900000  21.3880000  12.1670000 115.3080000  22.2920000
  11.2450000 115.6800000  20.9430000  13.0490000 114.5470000  20.5130000
  13.9410000 114.2010000  21.0530000  13.1570000 114.7580000  19.1840000
  14.1130000 114.6080000  18.6590000  11.8950000 115.0200000  18.3490000
  12.0240000 116.0630000  17.8360000  10.9910000 115.0930000  19.0010000
  11.7660000 113.9400000  17.2920000  11.6630000 112.9700000  17.7960000
  12.7030000 113.7950000  16.6670000  10.6250000 114.1460000  16.3980000
  10.9360000 114.4990000  15.4220000   9.9510000 114.9090000  16.8010000
   9.7780000 112.8170000  16.2400000   9.2300000 112.6280000  17.1970000
  10.4960000 112.0650000  16.0520000   8.7750000 112.8260000  15.0580000
   9.3040000 112.9640000  14.0770000   8.1360000 113.6700000  15.1820000
   7.9760000 111.4640000  15.0740000   7.4730000 111.5030000  16.0890000
   8.5000000 110.5040000  15.0910000   6.8870000 111.4870000  14.0400000
   6.2420000 112.3690000  14.2700000   6.4210000 110.5580000  14.2190000
   7.4030000 111.5820000  12.5570000   8.0890000 110.8340000  12.3400000
   7.8920000 112.5530000  12.3310000   6.4880000 111.4690000  11.9820000
  50.3660000  30.3310000  32.2640000  51.0310000  31.1710000  32.4500000
  50.3280000  30.1250000  31.2460000  50.8090000  29.5240000  32.8570000
  48.9960000  30.7430000  32.7330000  49.0560000  31.2740000  33.7720000
  48.7000000  31.6750000  32.2240000  47.8530000  29.6250000  32.6610000
  47.9020000  29.1390000  31.6910000  48.0250000  28.8970000  33.4990000
  46.5180000  30.4290000  32.7670000  46.3980000  30.9940000  33.6870000
  46.5490000  31.1900000  32.0290000  45.2830000  29.5390000  32.4640000
  44.4910000  30.2580000  32.4630000  45.3620000  29.0760000  31.4510000
  44.8550000  28.5020000  33.5160000  44.9940000  28.9520000  34.4990000
  43.7090000  28.3820000  33.3510000  45.4890000  27.0720000  33.3700000
  46.5240000  27.1310000  33.8380000  44.9420000  26.4620000  34.0990000
  45.5360000  26.2880000  32.0440000  46.1010000  26.8500000  31.2890000
  46.0570000  25.3560000  32.2400000  44.1590000  26.0250000  31.4050000
  43.6000000  25.4500000  32.2260000  43.8010000  27.0880000  31.2200000
  44.1870000  25.1930000  30.1100000  44.4960000  24.1870000  30.2990000
  43.1850000  25.0830000  29.7700000  44.9560000  25.9710000  29.0390000
  44.5460000  26.9940000  28.8220000  45.9850000  26.0330000  29.3520000
  45.0800000  25.2420000  27.7090000  45.5160000  24.3180000  27.9240000
  44.0850000  25.1460000  27.3060000  45.9010000  25.9770000  26.6280000
  45.6050000  27.0330000  26.8060000  46.9600000  25.7210000  26.9430000
  45.5560000  25.6110000  25.1730000  46.3120000  26.0990000  24.5610000
  45.6160000  24.5150000  25.1100000  44.1870000  26.1220000  24.6970000
  43.4030000  25.5760000  25.1230000  44.0400000  27.1650000  25.1450000
  44.0140000  26.1010000  23.2010000  44.3340000  27.0160000  22.5230000
  43.6220000  24.8880000  22.8000000  43.4810000  24.6590000  21.3790000
  42.7920000  23.7880000  21.2180000  42.9510000  25.4780000  20.8010000
  44.8380000  24.3450000  20.7400000  45.4850000  25.1440000  20.8760000
  44.6800000  24.1490000  19.1810000  44.2350000  25.0420000  18.7300000
  45.6270000  23.9320000  18.6890000  43.8330000  23.0240000  18.8320000
  43.5520000  22.5560000  17.3450000  44.8790000  21.9320000  16.7020000
  45.4620000  20.7320000  17.1800000  46.4240000  20.6250000  16.6560000
  45.6340000  20.7580000  18.2340000  44.6380000  19.3580000  16.9570000
  45.2080000  18.5510000  17.4450000  43.6220000  19.4380000  17.4000000
  44.4140000  18.8400000  15.5820000  43.8650000  17.4470000  15.5980000
  42.9930000  17.5530000  16.1960000  43.6080000  17.0830000  14.5990000
  44.4790000  16.7970000  16.2150000  43.3250000  19.6340000  15.0200000
  42.8850000  19.0190000  14.1810000  42.5280000  19.7210000  15.7940000
  43.6910000  20.6580000  14.8090000  45.6530000  18.9810000  14.6820000
  46.3970000  18.3720000  15.1770000  46.0380000  19.9990000  14.6500000
  45.5100000  18.5180000  13.6930000  42.5170000  21.5320000  17.4320000
  43.2860000  23.7880000  16.6420000  45.3740000  23.1050000  21.2640000
  46.1760000  23.1200000  22.2970000  46.6500000  24.1160000  22.8550000
  46.4640000  21.7050000  22.7420000  46.1940000  21.0410000  21.8690000
  45.8280000  21.4410000  23.6450000  47.9550000  21.4300000  23.0890000
  48.5680000  21.9180000  22.3560000  48.0360000  20.3480000  23.1550000
  48.3080000  21.9290000  24.4360000  47.4610000  22.0140000  25.1270000
  48.6860000  22.8900000  24.2720000  49.3810000  21.1080000  25.0900000
  50.2020000  20.9130000  24.4230000  49.0010000  20.1160000  25.3560000
  49.9540000  21.7240000  26.3740000  50.8300000  21.1220000  26.6720000
  49.1970000  21.5840000  27.2080000  50.5130000  23.2260000  26.4510000
  51.0560000  23.3460000  25.5320000  51.1920000  23.3120000  27.2940000
  49.4300000  24.1980000  26.6700000  48.7910000  24.0030000  27.5550000
  48.6670000  24.3130000  25.8860000  50.0310000  25.5710000  26.7730000
  50.0210000  26.1070000  25.7870000  50.2510000  26.2460000  27.9070000
  50.5270000  27.2700000  27.8200000  50.4280000  25.7200000  29.3010000
  51.1550000  26.2900000  29.8580000  50.6860000  24.7280000  29.3250000
  49.0430000  25.8760000  29.9280000  48.2770000  25.2720000  29.4440000
  48.6560000  26.8450000  29.7720000  49.1930000  25.4440000  31.4230000
  49.7880000  24.5270000  31.5400000  48.2440000  25.3340000  31.9050000
  49.8090000  26.5960000  32.2440000  49.4930000  27.5640000  31.8920000
  50.8950000  26.4880000  32.1030000  49.6540000  26.6160000  33.7310000
  48.6070000  26.5350000  34.1510000  50.0180000  27.5340000  34.1640000
  50.5730000  25.5840000  34.3750000  51.6080000  25.8720000  34.0930000
  50.4250000  24.6080000  33.9060000  50.5980000  25.5400000  35.9050000
  51.3500000  24.8130000  36.1920000  49.6500000  25.2030000  36.2910000
  50.8390000  26.8340000  36.6260000  51.1430000  26.5780000  37.5950000
  49.9890000  27.4920000  36.6470000  51.7620000  27.2090000  36.1030000
 136.7170000 103.7390000  33.1260000 135.7290000 104.0950000  33.1970000
 137.0680000 103.7420000  32.1010000 137.4050000 104.2380000  33.8490000
 136.6230000 102.2460000  33.4050000 137.4640000 101.7090000  32.8830000
 136.8400000 102.0480000  34.4680000 135.3420000 101.4870000  32.9040000
 135.1900000 100.5790000  33.4400000 134.5620000 102.1580000  33.1510000
 135.2760000 101.3230000  31.3710000 134.2540000 101.0470000  31.0920000
 135.5190000 102.2070000  30.8290000 136.2510000 100.2670000  30.8290000
 137.2830000 100.4530000  31.0840000 136.0540000  99.3060000  31.2660000
 136.0480000 100.1450000  29.2430000 134.9490000  99.9910000  29.1690000
 136.4780000 101.0010000  28.6520000 136.6050000  98.8660000  28.6870000
 136.0220000  98.0080000  29.2130000 136.4130000  98.7860000  27.6360000
 138.1050000  98.7760000  28.9370000 138.2480000  98.7020000  29.9860000
 138.4820000  97.9340000  28.3720000 138.9290000 100.0380000  28.4210000
 138.6850000 100.9310000  28.9370000 139.9390000  99.8780000  28.6530000
 138.8460000 100.2420000  26.9000000 137.8350000 100.4160000  26.5550000
 139.4060000 101.1050000  26.6970000 139.2990000  99.0990000  25.9530000
 138.6260000  98.1900000  26.1180000 139.1540000  99.4340000  24.8820000
 140.7600000  98.7290000  26.0080000 141.0580000  98.5250000  27.0220000
 140.9740000  97.8300000  25.4250000 141.6450000  99.9170000  25.4410000
 141.3320000 100.3380000  24.5140000 141.6390000 100.7930000  26.0870000
 143.1780000  99.5300000  25.2940000 143.5420000  99.6510000  26.3410000
 143.3130000  98.4700000  25.0640000 143.8540000 100.4400000  24.2500000
 143.5080000 101.5250000  24.2830000 144.9340000 100.5730000  24.4600000
 143.7650000  99.9450000  22.8400000 144.3930000  99.0230000  22.4070000
 142.8670000 100.7050000  22.1350000 142.5540000 100.1510000  20.7490000
 142.2830000 100.9610000  20.0900000 143.4470000  99.6800000  20.3230000
 141.2400000  99.2770000  20.8370000 141.1930000  98.7770000  19.8180000
 140.0520000 100.1630000  21.0540000 139.1850000  99.7310000  21.5640000
 140.4420000 101.0490000  21.5930000 139.8300000 100.8570000  19.8270000
 139.0950000 100.1880000  18.5930000 140.2790000  99.6200000  17.7230000
 140.2250000  98.6660000  16.7150000 139.3220000  98.8110000  16.1310000
 141.1280000  98.8970000  16.1730000 140.2480000  97.3520000  17.4920000
 141.1160000  97.1950000  18.1110000 139.4750000  97.2980000  18.1790000
 140.2510000  96.0820000  16.7020000 139.6040000  95.0350000  17.3990000
 140.1770000  94.7170000  18.2750000 138.5770000  95.3950000  17.6550000
 139.5450000  94.0870000  16.8500000 139.5020000  96.2090000  15.4220000
 139.6960000  97.1500000  14.7990000 139.6570000  95.2610000  14.7530000
 138.4630000  96.3570000  15.7550000 141.6310000  95.6010000  16.4140000
 142.1540000  95.4940000  17.4020000 142.2320000  96.2810000  15.6940000
 141.5580000  94.5800000  16.0520000 138.1750000  99.0900000  19.0380000
 138.4710000 101.2830000  17.7820000 141.2800000  98.3000000  21.8760000
 141.9500000  97.1750000  21.6300000 142.4730000  97.0090000  20.5440000
 141.8710000  96.2150000  22.7630000 141.1750000  95.3600000  22.6050000
 141.4350000  96.7720000  23.6450000 143.2930000  95.8140000  23.1110000
 143.9050000  96.6720000  23.4540000 143.8080000  95.1930000  22.3500000
 143.0610000  94.9580000  24.4100000 142.2440000  94.3090000  24.2860000
 142.6780000  95.6520000  25.1790000 144.1360000  94.0440000  24.8640000
 144.4660000  93.5080000  23.9330000 143.8970000  93.2560000  25.5050000
 145.2780000  94.9950000  25.3210000 144.8430000  95.6560000  26.0880000
 145.6000000  95.6250000  24.4540000 146.4630000  94.1980000  25.9650000
 146.0970000  93.5530000  26.8220000 147.1780000  94.8920000  26.4170000
 147.1090000  93.2150000  24.9130000 147.3580000  93.8220000  24.0890000
 146.3620000  92.5160000  24.6610000 148.3470000  92.4980000  25.4080000
 148.2330000  91.4020000  25.5940000 149.5750000  92.9690000  25.4810000
 150.3470000  92.3500000  26.0060000 149.9510000  94.4380000  25.2450000
 148.9590000  94.9740000  25.0620000 150.5830000  94.5560000  24.3320000
 150.6450000  95.0140000  26.5260000 151.7230000  94.6980000  26.4800000
 150.3020000  94.4780000  27.3750000 150.2330000  96.5130000  26.7000000
 149.1470000  96.6390000  26.5780000 150.6920000  97.0250000  25.8450000
 150.7010000  96.9350000  28.1480000 151.7220000  96.7420000  28.4070000
 150.1000000  96.4350000  28.8260000 150.6000000  98.4240000  28.4490000
 151.5000000  98.8950000  27.9470000 150.6030000  98.5410000  29.5500000
 149.3520000  99.2030000  27.9840000 148.4330000  98.7640000  28.2430000
 149.3450000  99.3520000  26.9480000 149.2290000 100.6840000  28.5550000
 150.0950000 101.3500000  28.2490000 149.3050000 100.6520000  29.6400000
 147.8280000 101.2640000  28.1210000 147.0780000 100.5980000  28.5360000
 147.6930000 101.4070000  27.0650000 147.6910000 102.2240000  28.5900000
 130.8850000  61.7120000  32.5770000 130.9800000  62.5230000  33.3080000
 131.0710000  62.1720000  31.5940000 131.6670000  60.9420000  32.8180000
 129.4440000  61.1020000  32.7820000 128.8460000  61.9520000  32.5700000
 129.2070000  60.2160000  32.1900000 129.1300000  60.7870000  34.2760000
 129.7350000  59.9550000  34.6650000 129.4190000  61.6230000  34.9700000
 127.6220000  60.4530000  34.5870000 127.0050000  61.2720000  34.2450000
 127.2260000  59.6160000  33.9480000 127.3630000  60.2020000  36.0480000
 127.5040000  59.1610000  36.2390000 128.1210000  60.7090000  36.6780000
 125.8550000  60.5760000  36.3950000 125.8040000  61.0360000  37.3810000
 125.5140000  61.3400000  35.7420000 124.9520000  59.3020000  36.3470000
 125.4460000  58.4630000  36.8270000 124.1350000  59.3810000  36.9830000
 124.6670000  58.8590000  34.9250000 125.6550000  58.6370000  34.4240000
 124.1480000  57.8950000  34.8800000 123.8260000  60.0230000  34.1690000
 123.0490000  60.2190000  34.9270000 124.2990000  60.9580000  34.0890000
 123.2440000  59.6740000  32.8000000 122.8620000  58.6400000  32.8060000
 122.4170000  60.2740000  32.5320000 124.2430000  59.7500000  31.6270000
 124.8290000  60.7620000  31.7410000 124.9630000  58.9300000  31.6630000
 123.5480000  59.7530000  30.2310000 123.0620000  58.7490000  30.0440000
 122.6820000  60.4230000  30.3100000 124.3090000  60.2240000  28.9000000
 124.6820000  61.1900000  29.0700000 125.0630000  59.4410000  28.7210000
 123.3590000  60.2670000  27.6800000 123.0240000  59.2400000  27.5260000
 122.5980000  61.0370000  27.8860000 124.2390000  60.7250000  26.4570000
 124.9300000  61.4030000  26.8290000 124.6780000  59.8910000  25.9690000
 123.3810000  61.2560000  25.3070000 122.4170000  61.9470000  25.4750000
 123.8330000  60.9900000  24.0530000 123.2500000  61.5770000  22.8570000
 123.5490000  60.9530000  21.9740000 122.2100000  61.5470000  22.9500000
 123.5870000  63.0410000  22.6350000 123.2410000  63.5380000  23.4910000
 122.7760000  63.6180000  21.4210000 121.6920000  63.4260000  21.6010000
 122.8960000  64.7760000  21.4710000 123.1080000  62.9620000  20.1450000
 123.5210000  63.8530000  18.8410000 124.2050000  62.8650000  17.7890000
 125.5250000  62.2500000  18.0370000 125.8360000  61.8110000  17.0690000
 126.2560000  63.0160000  18.3350000 125.4240000  61.1690000  19.0770000
 126.4310000  60.7160000  19.2200000 125.0620000  61.5260000  20.0510000
 124.6490000  59.9170000  18.8620000 123.1910000  60.0930000  18.5050000
 123.1430000  60.5880000  17.5430000 122.7490000  59.0510000  18.3500000
 122.7800000  60.6490000  19.2560000 125.2660000  59.0550000  17.8180000
 124.8000000  58.0640000  17.8290000 124.9970000  59.4420000  16.8030000
 126.3580000  58.9060000  17.8860000 124.7610000  59.1630000  20.1360000
 124.3250000  59.7350000  20.8950000 125.8240000  59.0260000  20.2940000
 124.2870000  58.2100000  19.8810000 122.2770000  64.3280000  18.2500000
 124.5040000  64.8060000  19.3170000 124.9920000  63.1470000  22.3170000
 125.8920000  63.5430000  23.2240000 125.6520000  63.8020000  24.3900000
 127.3420000  63.4850000  22.8280000 127.8710000  64.3120000  23.2790000
 127.4480000  63.7010000  21.7350000 127.8780000  62.0570000  23.0740000
 128.7110000  61.8980000  22.4480000 127.1340000  61.3590000  22.7610000
 128.3660000  61.7300000  24.4490000 128.8420000  60.7370000  24.3570000
 127.5680000  61.5700000  25.1290000 129.4040000  62.6370000  25.0860000
 128.8360000  63.5930000  25.2670000 130.2290000  62.8720000  24.5270000
 129.8010000  62.1830000  26.4370000 130.3570000  62.9500000  26.9060000
 130.6210000  61.4450000  26.3480000 128.6710000  61.8260000  27.4110000
 127.9190000  61.2370000  26.9590000 127.9840000  62.6890000  27.6050000
 129.2170000  61.3390000  28.7160000 129.7250000  62.1580000  29.3070000
 129.8800000  60.4160000  28.6030000 128.0160000  60.9750000  29.5250000
 127.5230000  61.7430000  30.0490000 127.5560000  59.7110000  29.7030000
 126.7750000  59.4530000  30.3740000 128.1340000  58.4620000  29.2050000
 128.9870000  58.5800000  28.5400000 127.4030000  57.9530000  28.4730000
 128.4720000  57.4580000  30.2990000 129.4070000  57.6900000  30.7890000
 128.6240000  56.4540000  29.8830000 127.3490000  57.2850000  31.2690000
 126.3790000  57.0150000  30.8290000 127.2190000  58.1810000  31.9260000
 127.6350000  56.1330000  32.2520000 128.5400000  56.4410000  32.7770000
 127.8410000  55.1710000  31.7120000 126.5560000  55.7740000  33.3440000
 125.6260000  55.5380000  32.8500000 126.3090000  56.7150000  33.8720000
 126.9330000  54.5810000  34.2080000 127.2640000  53.8080000  33.5370000
 126.1290000  54.1110000  34.8520000 128.1360000  54.8720000  35.2130000
 129.0010000  55.0930000  34.5320000 128.3520000  53.9750000  35.8380000
 127.8870000  56.0380000  36.1750000 128.6290000  55.8810000  37.0070000
 126.9160000  55.9710000  36.6570000 128.0670000  56.9770000  35.6730000
  25.3790000  59.7850000  30.8850000  26.4210000  59.3460000  31.1120000
  25.0860000  59.6480000  29.8710000  24.6850000  59.3180000  31.5510000
  25.3400000  61.2490000  31.2580000  25.8850000  61.7580000  30.5320000
  24.3660000  61.6300000  31.1920000  25.9870000  61.4300000  32.6000000
  25.7160000  60.5580000  33.1930000  27.0770000  61.3620000  32.3860000
  25.7840000  62.6960000  33.4070000  24.9170000  62.6150000  34.0710000
  26.6360000  62.7840000  34.0650000  25.7480000  63.9680000  32.6000000
  24.9800000  63.9470000  31.8200000  25.5340000  64.8110000  33.3050000
  27.1690000  64.1580000  31.9620000  27.8350000  64.2930000  32.8190000
  27.4360000  63.2870000  31.4330000  27.2520000  65.4750000  31.0920000
  26.9830000  66.3570000  31.7500000  28.2910000  65.5930000  30.8320000
  26.4530000  65.4410000  29.7280000  25.3740000  65.4980000  29.9570000
  26.4900000  66.2970000  29.1590000  26.8120000  64.2510000  28.7780000
  27.9060000  64.2260000  28.6450000  26.5840000  63.3120000  29.2940000
  25.8910000  64.3760000  27.5200000  25.9820000  65.3930000  27.1230000
  24.8610000  64.2240000  27.7930000  26.1410000  63.4000000  26.3050000
  26.4800000  62.4450000  26.7600000  25.2370000  63.3170000  25.7060000
  27.2160000  63.8930000  25.3480000  27.0000000  64.8290000  24.8770000
  28.1820000  64.0920000  25.8480000  27.5850000  62.9070000  24.1300000
  28.3970000  63.2770000  23.4890000  27.9900000  61.9790000  24.5420000
  26.3740000  62.4940000  23.2010000  25.5760000  62.1100000  23.8270000
  25.9120000  63.3800000  22.8330000  26.6390000  61.4080000  22.1450000
  27.4870000  61.7020000  21.4930000  26.8800000  60.4650000  22.5480000
  25.4380000  61.1960000  21.2110000  25.0300000  61.9810000  20.3820000
  24.9740000  59.9170000  21.3700000  23.7780000  59.5220000  20.6130000
  22.8800000  60.1630000  20.8280000  24.1150000  59.5380000  19.5910000
  23.4130000  58.0150000  20.9040000  24.4060000  57.5310000  20.9510000
  22.7380000  57.2330000  19.7210000  23.3770000  57.5000000  18.8170000
  22.7130000  56.1640000  19.9270000  21.3720000  57.6990000  19.2670000
  21.2120000  58.9570000  18.2010000  19.6080000  59.0440000  17.8640000
  18.7700000  59.4290000  18.9730000  17.7650000  58.9480000  18.7680000
  19.1590000  58.8490000  19.8590000  18.8380000  60.9990000  18.9970000
  18.1580000  61.3810000  19.8000000  19.8490000  61.2200000  19.2880000
  18.6300000  61.7160000  17.7520000  18.6800000  63.1220000  18.2100000
  17.8680000  63.2170000  19.0050000  19.6620000  63.2390000  18.6890000
  18.6190000  63.8590000  17.3920000  19.6660000  61.5160000  16.7670000
  19.5260000  60.5770000  16.2480000  19.5990000  62.3280000  16.0400000
  20.5770000  61.5770000  17.2870000  17.2980000  61.3120000  17.2130000
  17.0900000  62.0450000  16.3880000  16.5000000  61.1820000  17.9730000
  17.3930000  60.2750000  16.8750000  21.6680000  60.2180000  18.8450000
  21.8700000  58.5630000  16.9340000  22.5990000  57.9200000  22.0750000
  22.7220000  56.8560000  22.8470000  23.5020000  55.9610000  22.6450000
  21.8040000  56.7830000  23.9450000  21.5760000  57.7090000  24.4570000
  22.3220000  56.1280000  24.6720000  20.3920000  56.0930000  23.6360000
  20.4860000  55.1250000  23.2390000  19.9320000  56.7390000  22.8720000
  19.4010000  56.1110000  24.7960000  18.5610000  55.4790000  24.5480000
  19.0340000  57.1090000  24.8660000  19.8970000  55.6780000  26.2370000
  20.4020000  54.7040000  26.2370000  18.9730000  55.5130000  26.7910000
  20.7000000  56.7100000  27.0850000  20.2700000  57.6870000  27.0450000
  21.7090000  56.8350000  26.6890000  20.9810000  56.3480000  28.5220000
  21.2650000  55.3490000  28.6200000  20.0340000  56.3390000  29.0680000
  22.0720000  57.1840000  29.2240000  22.0010000  57.0830000  30.2750000
  21.9060000  58.2770000  28.9140000  23.3980000  56.7120000  28.7140000
  23.5650000  56.8120000  27.6300000  24.4310000  56.2590000  29.4070000
  25.3110000  56.0000000  28.8240000  24.6340000  56.2110000  30.8860000
  23.8810000  56.9040000  31.3460000  25.5000000  56.6390000  31.1680000
  24.5110000  54.7810000  31.4590000  25.4170000  54.2110000  31.2440000
  23.5430000  54.3650000  31.0680000  24.3350000  54.6460000  32.9780000
  25.2390000  55.0310000  33.4840000  24.0930000  53.6090000  33.1740000
  23.0680000  55.2710000  33.6070000  22.2900000  55.0340000  32.9510000
  23.1480000  56.3040000  33.6870000  22.8270000  54.6940000  35.0510000
  23.7060000  54.7150000  35.7350000  22.4400000  53.6870000  35.0290000
  21.7400000  55.5480000  35.6840000  20.9940000  55.5730000  34.8930000
  22.0420000  56.6420000  35.7510000  21.2140000  55.0930000  37.0700000
  22.0280000  55.2650000  37.7810000  21.0200000  54.0650000  36.9980000
  19.9640000  55.8350000  37.5010000  19.7290000  55.4090000  38.4630000
  19.1360000  55.5500000  36.8870000  20.1150000  56.9190000  37.4360000
 153.6090000  44.7180000  29.7100000 154.3800000  45.2080000  28.9780000
 153.7270000  43.6410000  29.8920000 153.6220000  45.1830000  30.6950000
 152.2560000  44.9010000  28.9910000 152.3340000  44.4560000  27.9800000
 151.4410000  44.3620000  29.4960000 151.8660000  46.3680000  28.8760000
 151.6420000  46.6620000  29.8780000 152.7610000  46.9580000  28.5150000
 150.6380000  46.5290000  27.9050000 151.1090000  46.3580000  26.9430000
 149.8320000  45.7780000  28.0510000 150.1130000  48.0200000  27.9510000
 149.9840000  48.2710000  29.0160000 150.9390000  48.7100000  27.5140000
 148.8550000  48.1200000  27.2140000 149.1130000  47.9640000  26.1340000
 148.1980000  47.3580000  27.6030000 148.1690000  49.4910000  27.4460000
 147.7610000  49.5300000  28.4790000 148.8070000  50.3370000  27.3130000
 146.9330000  49.8410000  26.5840000 146.1960000  49.0670000  26.7740000
 146.5930000  50.7510000  27.0330000 147.1560000  50.2380000  25.1080000
 147.6120000  51.2320000  25.1560000 147.9260000  49.5990000  24.6730000
 145.8270000  50.2020000  24.3270000 145.0130000  50.6930000  24.9030000
 145.8500000  50.6440000  23.3500000 145.3610000  48.8140000  23.9350000
 146.2650000  48.3000000  23.4990000 145.1850000  48.2570000  24.8660000
 144.1150000  48.7010000  22.9730000 143.4000000  49.3870000  23.3490000
 144.3560000  49.1300000  22.0130000 143.5280000  47.3430000  22.7320000
 144.3140000  46.6670000  22.3730000 143.1520000  46.9760000  23.6450000
 142.3280000  47.4390000  21.7500000 141.7050000  48.2930000  21.9600000
 142.7080000  47.6260000  20.7790000 141.3740000  46.1660000  21.7300000
 142.0500000  45.3070000  21.7920000 140.6660000  46.1170000  22.5170000
 140.7800000  46.0630000  20.4600000 140.2290000  46.9290000  19.8530000
 140.7920000  44.7870000  20.0730000 140.2150000  44.4380000  18.7490000
 139.7790000  43.4090000  18.9030000 139.3390000  45.1270000  18.5520000
 141.2550000  44.5140000  17.5900000 141.7310000  45.4510000  17.5840000
 140.7480000  44.2970000  16.1270000 140.2180000  45.2170000  15.8380000
 141.5530000  44.1960000  15.4630000 139.8590000  43.1700000  16.1630000
 138.2750000  43.3360000  16.0730000 137.7520000  43.0730000  17.5340000
 136.7820000  41.9940000  17.7920000 137.1750000  41.0660000  17.4150000
 136.5590000  42.0320000  18.8890000 135.4560000  42.3860000  17.1150000
 135.0420000  43.3770000  17.3840000 135.7060000  42.4610000  16.0820000
 134.3770000  41.3330000  17.2970000 134.1730000  41.0230000  18.6970000
 135.1750000  40.6270000  19.0120000 133.7510000  41.8600000  19.2740000
 133.4140000  40.2630000  18.8120000 133.1390000  41.9710000  16.8200000
 132.2850000  41.2490000  16.8910000 132.9760000  42.9100000  17.4130000
 133.2940000  42.1800000  15.7480000 134.5400000  40.0700000  16.4070000
 133.7090000  39.3820000  16.6930000 135.5370000  39.6900000  16.7150000
 134.4230000  40.4880000  15.3470000 137.9420000  44.7350000  15.7550000
 137.7350000  42.1970000  15.2200000 142.3550000  43.5470000  17.7550000
 143.2920000  43.7990000  18.6310000 143.4900000  44.8440000  19.1670000
 143.9980000  42.4980000  18.9920000 144.5410000  42.1840000  18.0990000
 143.2960000  41.8120000  19.3250000 145.1460000  42.6780000  20.0470000
 144.8580000  43.4010000  20.8270000 145.9930000  43.1980000  19.6400000
 145.6460000  41.4150000  20.5730000 146.0590000  40.8960000  19.7490000
 144.7970000  40.7420000  20.8490000 146.7690000  41.4820000  21.6070000
 146.3700000  42.0170000  22.5070000 147.5270000  42.1070000  21.2530000
 147.2410000  40.1210000  21.9990000 147.4950000  39.4950000  21.1590000
 146.4440000  39.6100000  22.6050000 148.4940000  40.3300000  22.9020000
 149.1970000  41.0050000  22.4440000 148.9150000  39.3100000  22.9550000
 148.2510000  40.7240000  24.3690000 147.4840000  41.5330000  24.3990000
 149.1000000  41.2300000  24.8850000 147.6500000  39.6150000  25.1290000
 146.5720000  39.4330000  24.8170000 148.0460000  39.1180000  26.2670000
 147.2840000  38.5610000  26.7140000 149.2640000  39.4180000  27.0700000
 149.7680000  40.3190000  26.5650000 149.8710000  38.6300000  27.0780000
 148.9090000  39.7560000  28.5660000 148.2930000  38.9420000  28.9600000
 148.3170000  40.6120000  28.4930000 150.1360000  39.9580000  29.4920000
 150.7690000  40.7520000  29.1690000 150.7710000  39.0570000  29.5980000
 149.6300000  40.1540000  31.0030000 150.5710000  40.1750000  31.5960000
 149.0630000  39.2770000  31.2600000 148.8160000  41.4430000  31.2690000
 148.5150000  41.4820000  32.3230000 147.9620000  41.3560000  30.5830000
 149.6380000  42.7220000  30.8650000 149.6420000  42.7040000  29.8870000
 150.6670000  42.6520000  31.1570000 149.1060000  44.0830000  31.3390000
 148.2140000  44.3640000  30.7720000 149.8020000  44.9240000  31.1360000
 148.8310000  44.2250000  32.8320000 148.3940000  43.3590000  33.3570000
 148.1740000  45.0780000  33.0710000 149.7940000  44.2870000  33.4000000
 153.6050000  69.7560000  32.7210000 153.4930000  70.6100000  33.4130000
 154.5640000  69.7360000  32.1900000 153.5800000  68.7900000  33.3310000
 152.5640000  69.5520000  31.6030000 152.6290000  68.6610000  31.0180000
 151.5540000  69.3560000  31.9890000 152.5650000  70.6450000  30.4830000
 153.6360000  70.6720000  30.2670000 152.0580000  70.2800000  29.6290000
 152.1900000  72.0720000  30.9830000 151.1350000  71.8350000  31.2600000
 152.7010000  72.3010000  31.9000000 152.2420000  73.1710000  29.9000000
 151.6780000  74.0770000  30.2550000 153.2260000  73.5670000  29.5770000
 151.7130000  72.8010000  28.4540000 152.2880000  72.0420000  27.9450000
 150.7260000  72.4080000  28.6340000 151.5280000  74.0080000  27.4900000
 150.8400000  74.7610000  27.8540000 152.4640000  74.6190000  27.4460000
 151.0950000  73.7140000  26.0170000 150.0590000  73.2840000  25.9370000
 150.9770000  74.6830000  25.5190000 152.0990000  72.8710000  25.2390000
 152.8840000  73.5540000  25.0080000 152.5180000  72.0620000  25.8780000
 151.6750000  72.2230000  23.9440000 151.3580000  72.9880000  23.2720000
 152.4960000  71.6800000  23.4940000 150.5450000  71.2050000  24.1080000
 150.7700000  70.3450000  24.7640000 149.6600000  71.7080000  24.5520000
 150.1940000  70.6010000  22.6980000 150.3890000  71.1820000  21.7750000
 150.8020000  69.6960000  22.7340000 148.7120000  70.1170000  22.6350000
 148.4670000  69.3910000  23.4590000 148.0880000  70.9330000  22.8910000
 148.1890000  69.5970000  21.3240000 148.6610000  68.6120000  21.1510000
 147.1840000  69.3740000  21.4750000 148.5110000  70.2690000  19.9500000
 149.5630000  70.4650000  19.9660000 148.2220000  69.6350000  19.1240000
 147.7520000  71.4980000  19.7130000 146.5190000  71.5530000  19.6640000
 148.5180000  72.5230000  19.3770000 147.8610000  73.8360000  18.9290000
 148.6270000  74.3800000  18.4960000 147.1150000  73.6120000  18.1510000
 147.1440000  74.5740000  20.0950000 146.6720000  73.8500000  20.7550000
 146.2040000  75.5840000  19.4480000 146.9170000  76.1310000  18.8490000
 145.6100000  75.2060000  18.6800000 145.5120000  76.4900000  20.3860000
 145.4420000  78.0560000  19.9680000 146.7190000  78.5950000  20.6470000
 147.9940000  78.7390000  20.0170000 148.7390000  78.9200000  20.8590000
 148.2600000  77.7950000  19.5760000 147.9610000  79.8560000  18.9390000
 148.9400000  80.0450000  18.5580000 147.3110000  79.5970000  18.1310000
 147.4890000  81.2570000  19.5000000 147.9460000  82.3070000  18.6040000
 148.9850000  82.4660000  18.5010000 147.6500000  82.0190000  17.6060000
 147.5590000  83.2180000  18.8810000 146.0020000  81.2610000  19.5090000
 145.5730000  82.1500000  19.9290000 145.6020000  81.2280000  18.5000000
 145.5100000  80.3860000  20.0000000 147.9880000  81.4930000  20.7940000
 147.6740000  82.5000000  21.0990000 148.9990000  81.3620000  20.7010000
 147.5360000  80.7510000  21.4220000 145.6440000  78.2200000  18.5370000
 144.2930000  78.6740000  20.5570000 148.1380000  75.3360000  20.8050000
 148.5390000  74.8890000  22.0110000 148.2590000  73.7850000  22.4520000
 149.5100000  75.7900000  22.6730000 149.8870000  76.5140000  21.9990000
 150.4310000  75.2460000  22.9940000 148.9050000  76.6190000  23.8320000
 148.5860000  75.9370000  24.5860000 148.0700000  77.2470000  23.4970000
 150.0050000  77.4630000  24.4730000 150.3560000  78.1620000  23.7460000
 150.8970000  76.8380000  24.6470000 149.6460000  78.1130000  25.7900000
 148.5920000  78.4210000  25.8800000 150.2320000  78.9830000  25.9070000
 150.0410000  77.2860000  27.0220000 151.1370000  77.1720000  26.9800000
 149.5520000  76.3300000  26.9060000 149.6260000  77.8680000  28.3970000
 148.5510000  78.1090000  28.5090000 150.0000000  78.9400000  28.4830000
 150.1170000  77.0800000  29.5680000 150.1350000  77.6780000  30.4920000
 151.1050000  76.7860000  29.3880000 149.1800000  75.8690000  29.6670000
 149.1050000  75.3130000  28.6890000 148.6390000  75.3050000  30.7250000
 148.0710000  74.4160000  30.6030000 148.5710000  75.7900000  32.1110000
 149.1400000  76.7580000  32.1690000 148.9380000  75.0780000  32.7930000
 147.1070000  76.0310000  32.5830000 146.5380000  75.0970000  32.5530000
 146.5340000  76.6600000  31.9070000 147.0780000  76.5160000  34.0240000
 147.5520000  75.8650000  34.7820000 146.0050000  76.5040000  34.2940000
 147.3750000  77.9980000  34.0570000 147.0430000  78.4920000  33.1500000
 148.4270000  78.0060000  33.9390000 147.0220000  78.5870000  35.4080000
 145.9720000  78.4780000  35.5770000 147.1330000  79.6790000  35.3970000
 147.8920000  78.0250000  36.5540000 148.0540000  76.9700000  36.4180000
 147.2450000  78.1500000  37.4250000 149.1890000  78.7980000  36.7480000
 149.0100000  79.8830000  37.0720000 149.6880000  78.8510000  35.7300000
 149.9850000  78.0300000  37.7600000 150.7620000  78.5840000  38.1450000
 150.3110000  77.0850000  37.3170000 149.5330000  77.7350000  38.6670000
  39.1160000  94.0620000  34.1060000  40.1320000  93.6960000  33.9620000
  39.0530000  95.0330000  34.5080000  38.6380000  94.1310000  33.0830000
  38.3900000  92.9570000  34.9800000  39.0450000  92.5480000  35.8280000
  37.4380000  93.3540000  35.4070000  38.0240000  91.7190000  34.0550000
  37.6040000  91.9290000  33.1350000  38.9860000  91.3720000  33.7590000
  37.2380000  90.5700000  34.7620000  37.5220000  89.6860000  34.1110000
  37.3980000  90.3380000  35.8050000  35.6930000  90.6590000  34.6280000
  35.3100000  89.7060000  34.8580000  35.3330000  91.3560000  35.3800000
  35.1530000  90.9980000  33.2190000  34.0400000  90.9200000  33.3160000
  35.4090000  92.0270000  32.9040000  35.5300000  89.9110000  32.1460000
  36.6080000  89.9190000  32.1960000  35.1980000  88.9410000  32.4850000
  35.2500000  90.1830000  30.6380000  36.0160000  90.8480000  30.2750000
  35.2630000  89.2100000  30.0860000  33.8720000  90.8230000  30.3070000
  33.0420000  90.2030000  30.5880000  33.7040000  91.8240000  30.7710000
  33.7520000  90.9070000  28.7450000  33.9930000  89.8800000  28.3550000
  32.7180000  91.0710000  28.3940000  34.5660000  92.0120000  28.0620000
  35.6370000  91.8510000  28.1350000  34.2470000  92.0700000  26.9510000
  34.3240000  93.3880000  28.6520000  33.3580000  93.7370000  28.6850000
  34.5360000  93.3180000  29.6970000  35.3200000  94.4180000  28.0600000
  36.2750000  93.9560000  28.4780000  35.4160000  94.4880000  26.9490000
  35.1750000  95.8240000  28.6690000  35.2870000  95.5460000  29.7580000
  36.1260000  96.4280000  28.4770000  33.9070000  96.7190000  28.4670000
  33.0220000  96.2200000  28.8330000  34.0020000  97.6780000  28.9550000
  33.5760000  97.1700000  27.0630000  32.4220000  97.0190000  26.5940000
  34.6200000  97.7320000  26.4140000  34.4760000  97.9900000  24.9950000
  34.0830000  97.0440000  24.5670000  33.6560000  98.7060000  24.8870000
  35.8360000  98.3280000  24.4240000  36.2490000  99.2250000  24.7880000
  35.8030000  98.5380000  22.8890000  35.2490000  99.4170000  22.6150000
  36.7870000  98.8130000  22.5490000  35.2750000  97.4680000  22.0730000
  36.1570000  96.0610000  21.7850000  35.8910000  95.3050000  23.0880000
  34.7730000  94.3970000  23.3340000  34.8720000  94.2080000  24.4030000
  33.8390000  94.9990000  23.1410000  34.8720000  93.0660000  22.5500000
  34.0040000  92.5080000  22.9050000  34.6800000  93.1890000  21.4770000
  36.1060000  92.2470000  22.4620000  35.7610000  90.8480000  22.0910000
  35.3290000  90.3080000  22.9230000  35.0720000  90.8640000  21.2620000
  36.7010000  90.3320000  21.6880000  37.0000000  92.8400000  21.4850000
  37.8540000  92.1730000  21.3120000  36.4710000  92.9720000  20.5120000
  37.3430000  93.8170000  21.8220000  36.7370000  92.1820000  23.7870000
  36.9050000  93.2340000  24.1540000  37.7530000  91.7240000  23.7450000
  36.1030000  91.6520000  24.5160000  35.5200000  95.2530000  20.7050000
  37.5700000  96.4390000  21.7010000  36.7820000  97.2440000  24.7620000
  38.0530000  97.5710000  24.7770000  38.3930000  98.7610000  24.6130000
  38.8810000  96.3920000  25.0390000  39.1420000  95.8260000  24.1300000
  38.2940000  95.7480000  25.7410000  40.2310000  96.7670000  25.7810000
  40.8800000  97.4440000  25.1340000  40.8590000  95.8900000  25.9340000
  39.9980000  97.3800000  27.1180000  39.3140000  96.7000000  27.6510000
  39.5280000  98.2920000  27.0170000  41.2980000  97.6700000  27.9020000
  41.9590000  98.2430000  27.2760000  41.8270000  96.7850000  28.1980000
  41.0590000  98.4400000  29.1820000  40.5880000  99.3570000  29.0170000
  40.4270000  97.8700000  29.8630000  42.2830000  98.9290000  29.9200000
  42.9890000  99.4070000  29.2200000  42.7450000  98.0380000  30.4000000
  42.0260000 100.0300000  30.9520000  41.4410000  99.6660000  31.7560000
  41.4430000 100.8510000  30.5160000  43.2950000 100.5150000  31.4900000
  44.0220000 100.8750000  30.7990000  43.7650000 100.3730000  32.7600000
  44.8000000 100.6410000  32.9200000  42.9200000 100.1650000  34.0120000
  41.8600000 100.1970000  33.8050000  43.1490000 100.8450000  34.7880000
  43.3600000  98.8740000  34.6170000  42.6630000  98.8010000  35.4870000
  44.3690000  98.9010000  35.0230000  43.2790000  97.6020000  33.7520000
  43.8550000  97.6260000  32.8790000  42.2350000  97.5260000  33.3710000
  43.5480000  96.2980000  34.5560000  44.5890000  96.4080000  34.8940000
  43.5190000  95.5430000  33.7880000  42.5890000  96.0340000  35.7610000
  41.5920000  96.3010000  35.4300000  42.8330000  96.7580000  36.5590000
  42.7150000  94.5970000  36.3220000  43.7970000  94.3340000  36.5270000
  42.3530000  93.8520000  35.6610000  42.0260000  94.4430000  37.7140000
  42.2940000  93.4450000  38.0750000  40.9530000  94.5010000  37.7160000
  42.4820000  95.3930000  38.8660000  41.9460000  96.3840000  38.7230000
  43.5860000  95.6230000  39.0100000  42.2220000  94.9650000  39.9070000
  98.1410000  92.3090000  38.6650000  97.4870000  92.6790000  39.5000000
  99.1810000  92.6050000  38.8530000  98.2630000  91.1920000  38.6870000
  97.8190000  92.9900000  37.3480000  98.0630000  93.9870000  37.4310000
  98.3350000  92.5390000  36.4990000  96.3040000  93.0070000  36.9150000
  95.9470000  92.0400000  36.7880000  95.7380000  93.5560000  37.6390000
  96.0600000  93.7450000  35.6410000  96.2150000  94.7630000  35.8550000
  96.8500000  93.4410000  34.8950000  94.6350000  93.5530000  34.9790000
  94.6500000  92.7550000  34.1700000  93.9640000  93.0260000  35.7290000
  93.9230000  94.7580000  34.3500000  93.7260000  95.6010000  35.0430000
  94.6320000  95.1160000  33.6730000  92.7170000  94.2740000  33.5550000
  93.0010000  93.3170000  32.9860000  91.8430000  94.0350000  34.2070000
  92.2030000  95.4260000  32.5860000  93.0210000  95.8790000  32.0370000
  91.4800000  94.9240000  31.8550000  91.4450000  96.5570000  33.2910000
  90.5510000  96.2170000  33.8050000  92.0830000  97.0140000  34.0680000
  91.1640000  97.6760000  32.2440000  91.9510000  97.8850000  31.5180000
  90.3560000  97.2640000  31.6570000  90.7580000  98.9540000  33.0220000
  89.9220000  98.7260000  33.6820000  91.4950000  99.0990000  33.8080000
  90.4980000 100.1310000  32.0970000  89.9330000  99.7720000  31.2640000
  89.8480000 100.8520000  32.6260000  91.8150000 100.9620000  31.7610000
  92.2420000 101.2900000  32.7150000  92.5870000 100.3360000  31.3720000
  91.4860000 102.0890000  30.7450000  90.7360000 102.7370000  31.2160000
  92.4200000 102.7360000  30.5380000  90.9110000 101.6240000  29.3860000
  91.4650000 100.8530000  28.7720000  89.8540000 101.2440000  29.5730000
  90.7320000 102.7190000  28.2780000  91.5200000 103.6150000  28.0380000
  89.5920000 102.5760000  27.6360000  89.3570000 103.3480000  26.3480000
  88.4920000 102.9730000  25.8230000  89.0880000 104.3220000  26.6540000
  90.5170000 103.2860000  25.3430000  91.5260000 103.6360000  25.7540000
  90.1240000 104.2400000  24.0830000  89.7870000 105.1860000  24.5740000
  91.0010000 104.5820000  23.4410000  89.0140000 103.7580000  23.2830000
  89.1040000 103.9090000  21.7390000  87.8710000 103.1420000  21.1300000
  87.7800000 101.7260000  21.0150000  86.8510000 101.4780000  20.3410000
  88.7720000 101.4090000  20.6660000  87.6140000 101.2240000  22.4700000
  87.8280000 100.1430000  22.4340000  88.2730000 101.8120000  23.1220000
  86.2610000 101.2970000  23.1660000  86.4040000 100.4980000  24.4150000
  87.2510000 100.9920000  24.9110000  85.5280000 100.3250000  24.9600000
  86.9210000  99.5520000  24.1510000  85.9600000 102.7680000  23.5740000
  86.7870000 103.0260000  24.2770000  85.9780000 103.4450000  22.7200000
  84.9310000 102.6910000  24.0210000  85.1880000 100.6750000  22.2820000
  84.9550000 101.3970000  21.4310000  84.2970000 100.5240000  22.9140000
  85.6430000  99.7090000  21.8760000  88.8620000 105.3570000  21.4670000
  90.3330000 103.2730000  21.2050000  90.5840000 101.9700000  24.8410000
  91.6690000 101.6520000  24.1190000  92.7100000 102.2320000  24.0230000
  91.4470000 100.3850000  23.2810000  91.7880000 100.5260000  22.2420000
  90.4130000 100.0420000  23.2600000  92.1870000  99.1840000  23.8880000
  92.6980000  99.4530000  24.8240000  92.9770000  98.8120000  23.1880000
  91.4650000  97.9150000  24.4340000  92.2080000  97.0510000  24.6130000
  90.8300000  97.5020000  23.6160000  90.6480000  98.2970000  25.6960000
  89.7920000  97.6620000  25.6110000  90.2590000  99.3090000  25.6370000
  91.3110000  98.0800000  27.1180000  91.3690000  97.0280000  27.4880000
  90.6880000  98.5240000  27.8570000  92.6680000  98.7720000  27.1580000
  92.6890000  99.9140000  26.9450000  93.2810000  98.2430000  26.4520000
  93.2900000  98.5760000  28.5690000  93.4720000  97.5370000  28.9600000
  92.5470000  98.9970000  29.2130000  94.5230000  99.3940000  28.6270000
  94.3190000 100.4590000  28.6650000  95.7670000  98.9620000  28.7540000
  96.5820000  99.6950000  28.7130000  96.1140000  97.5200000  28.7900000
  96.6220000  97.3040000  27.8560000  95.2000000  96.9570000  28.7620000
  97.0150000  97.1620000  29.9170000  97.7980000  97.9350000  29.9520000
  97.3520000  96.1250000  29.7070000  96.2140000  97.0980000  31.2500000
  96.5990000  96.2600000  31.8190000  95.1410000  96.9960000  31.0280000
  96.3790000  98.3790000  32.0370000  96.1800000  99.2380000  31.3420000
  97.4210000  98.4750000  32.3720000  95.4050000  98.3300000  33.2570000
  95.6930000  97.4990000  33.8570000  94.3820000  98.0950000  32.9640000
  95.2460000  99.5570000  34.0950000  94.7740000 100.3740000  33.5880000
  96.2520000  99.9260000  34.2660000  94.4200000  99.1670000  35.3700000
  95.0010000  98.4130000  35.9860000  93.4800000  98.5930000  35.1260000
  93.9780000 100.3430000  36.2400000  93.6490000 101.1710000  35.6840000
  94.8030000 100.7880000  36.7380000  93.2460000 100.0210000  36.9640000
  73.5100000 151.3430000  40.2620000  72.8240000 152.0440000  40.7290000
  74.2760000 151.9480000  39.7030000  74.1400000 150.8380000  40.9960000
  72.8780000 150.2180000  39.4430000  73.6860000 149.7190000  38.8300000
  72.4640000 149.5240000  40.1570000  71.8200000 150.7800000  38.4680000
  70.8680000 151.0570000  38.9670000  72.1790000 151.7200000  38.0530000
  71.2870000 149.7180000  37.4500000  72.1990000 149.4000000  36.9180000
  70.8680000 148.8140000  37.9310000  70.3170000 150.3060000  36.4580000
  69.4340000 150.7670000  36.9760000  70.8240000 151.1450000  35.9340000
  69.9280000 149.2010000  35.4270000  70.8300000 149.0700000  34.8410000
  69.7260000 148.2680000  35.9730000  68.8250000 149.5730000  34.3960000
  67.8480000 149.9090000  34.8460000  69.1560000 150.4300000  33.8520000
  68.5160000 148.4290000  33.4190000  69.5340000 148.2670000  32.9110000
  68.2700000 147.5520000  33.9490000  67.4170000 148.8160000  32.3330000
  66.5990000 149.3760000  32.8310000  67.9670000 149.4320000  31.6230000
  66.6830000 147.5760000  31.5870000  65.9730000 147.1230000  32.2920000
  66.1740000 148.0100000  30.6990000  67.5820000 146.4590000  31.0600000
  67.9840000 145.8930000  31.8500000  66.9500000 145.7480000  30.5110000
  68.7910000 146.9550000  30.1950000  68.4290000 147.7040000  29.4820000
  69.5890000 147.3590000  30.7920000  69.4880000 145.8530000  29.4160000
  69.7820000 145.0840000  30.0700000  68.8630000 145.4030000  28.6410000
  70.7610000 146.2500000  28.6790000  71.5080000 146.5910000  29.4280000
  71.0330000 145.4130000  28.0940000  70.4970000 147.3930000  27.6360000
  70.2150000 148.2460000  28.2330000  71.3990000 147.6450000  27.1740000
  69.5410000 146.9710000  26.5670000  69.7270000 146.0780000  25.8150000
  68.5530000 147.8530000  26.5540000  67.4220000 147.7650000  25.6080000
  66.7250000 148.4510000  26.0150000  67.6540000 147.9470000  24.5950000
  66.7220000 146.3820000  25.4560000  67.2740000 145.6630000  24.8170000
  65.3120000 146.5160000  24.8590000  64.8470000 145.5520000  24.8460000
  64.7110000 147.1420000  25.4960000  65.4000000 147.1950000  23.6020000
  65.9200000 146.5580000  22.2750000  65.2010000 147.4750000  21.2070000
  65.7710000 148.7270000  20.9020000  65.8240000 149.2590000  21.8450000
  66.6100000 148.4760000  20.3300000  64.7850000 149.5210000  19.9780000
  64.6320000 148.9410000  19.0750000  63.7800000 149.5490000  20.4710000
  65.1730000 150.9080000  19.5460000  64.1050000 151.4930000  18.7030000
  64.4720000 152.4100000  18.3060000  63.9330000 150.8230000  17.8680000
  63.1980000 151.6200000  19.3080000  65.3330000 151.7920000  20.7910000
  65.2880000 152.8280000  20.4950000  64.5620000 151.5790000  21.5310000
  66.3860000 151.5230000  21.1960000  66.4510000 150.7930000  18.7400000
  66.6240000 151.7990000  18.4560000  66.1670000 150.1680000  17.8680000
  67.2260000 150.3040000  19.3940000  67.3930000 146.7470000  22.3200000
  65.3960000 145.1800000  22.2790000  66.6400000 145.6900000  26.7320000
  66.4170000 144.4120000  26.7610000  66.5340000 143.6880000  25.7810000
  66.2310000 143.8350000  28.1120000  65.1640000 143.4940000  28.3050000
  66.3130000 144.5430000  28.8760000  67.2210000 142.6000000  28.2760000
  68.2660000 142.8990000  28.1850000  66.9950000 141.9430000  27.4200000
  67.1220000 141.7500000  29.5260000  67.9550000 141.1020000  29.6860000
  66.2610000 141.0770000  29.4000000  66.9350000 142.6280000  30.7640000
  66.1130000 143.3730000  30.7030000  67.7840000 143.3510000  30.8730000
  66.8240000 141.7450000  32.0020000  67.6130000 141.0480000  32.0730000
  65.9280000 141.0920000  31.9340000  66.7800000 142.4690000  33.3160000
  65.8040000 142.9350000  33.4750000  67.5110000 143.2530000  33.4150000
  67.0110000 141.4870000  34.5320000  67.0480000 142.0550000  35.5030000
  67.8840000 140.8500000  34.4590000  65.8530000 140.5090000  34.7820000
  65.8870000 139.6530000  34.1810000  64.9050000 140.6780000  35.6260000
  64.1580000 139.8550000  35.7200000  64.5410000 141.9710000  36.3570000
  65.0880000 142.8070000  35.9300000  64.7700000 141.8660000  37.3680000
  62.9820000 142.2550000  36.2850000  62.7990000 142.6480000  35.3000000
  62.8350000 143.1300000  36.9570000  62.0430000 141.1170000  36.6940000
  62.4170000 140.7250000  37.5920000  62.0930000 140.3510000  35.9360000
  60.6680000 141.7580000  36.9680000  60.8260000 142.7580000  37.3290000
  60.2510000 141.1380000  37.7580000  59.7760000 141.7180000  35.7030000
  59.2800000 140.7690000  35.6350000  60.4350000 141.7870000  34.8650000
  58.8220000 142.8840000  35.6490000  59.3770000 143.7890000  35.3670000
  58.4470000 143.0340000  36.6650000  57.6490000 142.5650000  34.7170000
  57.1480000 141.6750000  35.1510000  57.9540000 142.2710000  33.7080000
  56.4850000 143.5660000  34.7190000  56.1730000 143.8830000  35.7520000
  55.5220000 143.1270000  34.2040000  56.8010000 144.4510000  34.2480000
  31.3940000  85.6260000  36.4660000  32.0040000  85.4220000  37.3400000
  30.3280000  85.8810000  36.7210000  31.8670000  86.6090000  36.1890000
  31.4930000  84.5100000  35.3690000  30.9960000  83.6720000  35.8070000
  31.0430000  84.8360000  34.4100000  32.9130000  84.1180000  35.0220000
  33.3000000  85.0280000  34.5080000  33.4390000  83.8580000  35.9130000
  32.9770000  83.0420000  33.9880000  32.5200000  82.0950000  34.4200000
  32.3080000  83.3020000  33.1120000  34.4270000  82.8460000  33.4940000
  34.7650000  83.8450000  33.1390000  35.0010000  82.6630000  34.3390000
  34.5490000  81.7360000  32.4540000  34.2870000  80.8030000  32.7870000
  33.9050000  81.8220000  31.5210000  35.9910000  81.7570000  31.8860000
  36.0950000  82.7470000  31.4910000  36.6820000  81.7270000  32.6970000
  36.4790000  80.5830000  31.0510000  37.5190000  80.8070000  30.8480000
  36.4910000  79.6360000  31.6770000  35.7450000  80.4680000  29.6510000
  36.3060000  79.6940000  29.1690000  34.7680000  80.1500000  29.8870000
  35.7380000  81.6290000  28.6520000  35.2590000  82.5200000  29.1320000
  36.7640000  81.9400000  28.3960000  35.1040000  81.2960000  27.2540000
  35.0110000  82.1940000  26.6980000  35.7430000  80.5520000  26.7280000
  33.7000000  80.6750000  27.4810000  33.7940000  79.6490000  27.9390000
  33.1380000  81.2680000  28.2100000  32.8760000  80.4150000  26.2600000
  32.8210000  81.3300000  25.6280000  33.3310000  79.5440000  25.6390000
  31.4280000  80.1210000  26.7030000  31.3730000  79.4130000  27.5940000
  30.8760000  81.0370000  26.9760000  30.6720000  79.3320000  25.6360000
  31.2590000  78.4610000  25.4140000  29.7290000  78.9860000  26.0840000
  30.3540000  80.1070000  24.4220000  31.2270000  80.4120000  23.6060000
  29.0410000  80.3180000  24.2930000  28.7520000  81.3660000  23.3260000
  27.9170000  81.8900000  23.7370000  29.5330000  82.0610000  23.2230000
  28.3430000  80.7910000  21.9300000  27.6980000  79.9410000  22.0630000
  29.5020000  80.3870000  21.0720000  30.1530000  79.5790000  21.5590000
  29.1220000  79.9880000  20.1660000  30.3760000  81.6010000  20.8030000
  31.0550000  81.8460000  19.3730000  32.1050000  82.9540000  19.7660000
  31.6890000  84.3390000  19.8520000  31.0060000  84.5190000  19.0080000
  31.1150000  84.4800000  20.7920000  33.0150000  85.1250000  19.8380000
  33.3900000  85.0200000  20.8050000  33.6770000  84.7330000  18.9680000
  32.8950000  86.6080000  19.5470000  34.2320000  87.2070000  19.3520000
  34.7300000  86.6610000  18.4590000  34.0820000  88.2510000  19.1830000
  34.7780000  87.0800000  20.2480000  32.0940000  86.7300000  18.3560000
  31.1000000  86.4950000  18.8240000  32.1140000  87.7770000  18.0880000
  32.4590000  86.0290000  17.5280000  32.2800000  87.2510000  20.7000000
  31.2530000  86.8010000  20.8460000  32.1940000  88.3520000  20.5850000
  32.9050000  87.0530000  21.5490000  31.7430000  80.5740000  18.9600000
  30.0280000  82.3710000  18.4530000  27.5330000  81.8950000  21.3100000
  26.7990000  81.6720000  20.1910000  26.4140000  80.5710000  19.9070000
  26.4970000  82.8900000  19.3440000  27.0370000  82.7410000  18.4250000
  26.9650000  83.7010000  19.8010000  25.0020000  83.1400000  19.1430000
  24.5700000  82.2130000  18.7200000  24.7560000  83.9000000  18.4340000
  24.3240000  83.4040000  20.4920000  24.4530000  82.5470000  21.1900000
  23.2520000  83.4970000  20.2190000  24.7870000  84.6740000  21.2640000
  24.3060000  85.5550000  20.8580000  25.8970000  84.8520000  21.1630000
  24.3770000  84.6370000  22.7370000  23.2930000  84.3490000  22.6890000
  24.5620000  85.6630000  23.1100000  25.2440000  83.6720000  23.5880000
  26.2670000  84.0270000  23.5450000  25.2940000  82.6570000  23.2250000
  24.8100000  83.6870000  25.0660000  23.7370000  83.5820000  25.1130000
  25.1960000  84.6290000  25.5780000  25.6370000  82.5000000  25.6050000
  25.2570000  81.5210000  25.2800000  26.6460000  82.6140000  26.4850000
  27.3200000  81.7560000  26.7460000  27.3510000  83.8350000  26.9600000
  27.1830000  84.6150000  26.2240000  28.4490000  83.5630000  27.0810000
  26.7430000  84.1390000  28.3580000  27.2000000  83.4510000  29.0660000
  25.6600000  83.9830000  28.2830000  27.1590000  85.5550000  28.8380000
  26.6450000  86.3130000  28.2670000  28.2350000  85.7160000  28.7580000
  26.7720000  85.8270000  30.2920000  27.1150000  85.0960000  31.0350000
  25.6620000  85.7990000  30.3500000  27.2590000  87.2270000  30.7840000
  26.7060000  87.9390000  30.1690000  28.3640000  87.2700000  30.5660000
  27.2140000  87.5380000  32.2910000  27.7040000  88.4850000  32.4780000
  27.8900000  86.7710000  32.6320000  25.7860000  87.2970000  32.9080000
  25.4680000  86.2670000  32.8390000  25.0950000  87.8250000  32.2410000
  25.6400000  87.7730000  34.3710000  24.6030000  87.6500000  34.7300000
  25.9470000  88.8080000  34.5130000  26.2460000  87.1160000  35.0040000
   4.9570000  70.7660000  39.1730000   5.2420000  71.8480000  39.4040000
   5.9030000  70.2780000  39.0710000   4.3720000  70.2920000  39.8870000
   4.1290000  70.8680000  37.9040000   3.0820000  70.7650000  38.1960000
   4.2670000  71.8100000  37.5860000   4.4100000  69.9750000  36.6400000
   4.1090000  68.9570000  36.8830000   3.8430000  70.3600000  35.7700000
   5.8690000  69.9430000  36.1840000   6.1600000  70.8960000  35.8860000
   6.6010000  69.5490000  36.9150000   6.1440000  69.0850000  34.9090000
   6.1700000  68.0270000  35.2490000   5.4210000  69.2270000  34.0910000
   7.6290000  69.3560000  34.4890000   7.7630000  70.4320000  34.4810000
   8.3610000  69.0170000  35.1840000   7.9520000  68.7410000  33.1400000
   8.1920000  67.7090000  33.2580000   6.9860000  68.7660000  32.5420000
   9.0420000  69.3830000  32.2110000   8.7710000  70.4010000  31.9940000
   9.8680000  69.4410000  32.8950000   9.4450000  68.5790000  31.0020000
  10.1860000  69.0670000  30.2630000   9.9710000  67.6350000  31.3820000
   8.3090000  68.1530000  30.0770000   7.5350000  67.6410000  30.6460000
   7.7970000  69.0120000  29.5830000   8.7800000  67.2120000  28.9630000
   9.6230000  67.6230000  28.3960000   9.0080000  66.3070000  29.4900000
   7.5570000  67.0200000  28.0200000   6.7430000  66.5040000  28.5590000
   7.1640000  68.0020000  27.8250000   7.8960000  66.2820000  26.7500000
   8.8500000  66.5100000  26.4320000   7.8000000  65.2410000  27.0080000
   6.9070000  66.7040000  25.6120000   5.8600000  66.3810000  25.7600000
   6.9220000  67.8190000  25.5210000   7.3850000  66.0490000  24.3030000
   8.4700000  66.2930000  24.1740000   7.2320000  64.9940000  24.3400000
   6.5790000  66.5380000  23.1120000   5.8340000  67.5180000  23.0340000
   6.7400000  65.7150000  22.0760000   5.9750000  65.9950000  20.8690000
   4.9370000  65.8240000  20.9970000   6.0860000  67.0490000  20.5800000
   6.4260000  65.2190000  19.5940000   7.4920000  65.4520000  19.4650000
   5.6520000  65.6370000  18.2940000   5.2980000  64.6810000  17.8560000
   4.7660000  66.3030000  18.4550000   6.5470000  66.1810000  17.2700000
   6.7520000  67.6620000  17.0270000   5.4610000  68.0120000  16.2420000
   4.2750000  68.6540000  16.7560000   3.3770000  68.4550000  16.2090000
   4.1270000  68.3440000  17.7770000   4.6780000  70.2030000  16.7900000
   3.8270000  70.8230000  17.2340000   5.5670000  70.3190000  17.3670000
   4.9660000  70.8570000  15.4630000   6.4260000  71.0440000  15.3700000
   6.8420000  71.6560000  16.2100000   6.8610000  70.0830000  15.5340000
   6.7230000  71.4040000  14.3950000   4.5070000  70.1310000  14.2400000
   4.5010000  70.8340000  13.3750000   5.1260000  69.2070000  14.1350000
   3.4560000  69.8630000  14.4810000   4.2380000  72.1240000  15.3000000
   4.4920000  72.6950000  14.3950000   4.4550000  72.6810000  16.2220000
   3.1880000  71.7730000  15.2840000   6.7110000  68.3030000  18.3700000
   7.8890000  67.8740000  16.1240000   6.1910000  63.8110000  19.8560000
   7.1520000  62.9030000  19.6140000   8.2940000  63.1830000  19.2130000
   6.6310000  61.5030000  19.9500000   5.6950000  61.2460000  19.4370000
   6.2690000  61.5610000  21.0110000   7.6400000  60.3520000  19.7680000
   7.8700000  60.1880000  18.7660000   7.2250000  59.4100000  20.1350000
   9.0690000  60.4230000  20.4370000   8.9820000  60.6600000  21.5390000
   9.5360000  61.3680000  20.0760000   9.9860000  59.1960000  20.3590000
  10.8550000  59.4120000  19.7320000   9.4620000  58.3970000  19.9050000
  10.4660000  58.6840000  21.7320000  11.0670000  57.7750000  21.6060000
   9.5890000  58.3970000  22.2510000  11.2950000  59.6420000  22.6470000
  10.7950000  60.5520000  22.7920000  12.1430000  60.0040000  22.1460000
  11.7040000  59.0020000  24.0270000  11.8400000  57.9370000  23.8740000
  10.7420000  59.0960000  24.5760000  12.9090000  59.4760000  24.7610000
  13.8640000  59.2870000  24.3210000  13.0160000  60.2630000  25.8530000
  13.9760000  60.5300000  26.2410000  11.8480000  60.8510000  26.6050000
  11.8480000  60.3660000  27.5310000  10.9840000  60.3180000  26.2590000
  11.7740000  62.3750000  26.6530000  11.3210000  62.7620000  25.6670000
  12.7780000  62.8880000  26.7530000  10.8980000  62.8460000  27.8070000
  11.1700000  62.3810000  28.6910000   9.8640000  62.4880000  27.6750000
  10.8130000  64.4100000  27.9500000  10.0360000  64.7040000  28.7370000
  10.5520000  64.7700000  26.9640000  12.2140000  65.0260000  28.3020000
  12.0330000  66.0700000  28.4620000  12.8430000  64.9400000  27.3610000
  12.8670000  64.3490000  29.5400000  13.4450000  63.4910000  29.1520000
  12.1300000  64.0520000  30.2520000  13.7760000  65.4000000  30.1980000
  13.9060000  65.1440000  31.2510000  13.2450000  66.3490000  30.1540000
  15.1190000  65.5710000  29.5100000  15.6200000  66.5190000  29.7650000
  15.0350000  65.5590000  28.4450000  15.7000000  64.6970000  29.8190000
  22.8330000  -1.9710000  29.5140000  22.2880000  -2.3400000  30.3250000
  23.7900000  -2.4490000  29.6050000  22.4470000  -2.4680000  28.5900000
  22.9010000  -0.4910000  29.5210000  23.6500000  -0.2110000  28.8120000
  21.8840000  -0.1010000  29.1950000  23.3510000   0.1800000  30.8110000
  22.4800000   0.1030000  31.5240000  24.1340000  -0.3980000  31.3950000
  23.7340000   1.6810000  30.7390000  22.8510000   2.1710000  30.3920000
  23.9790000   2.0780000  31.7620000  24.8480000   2.0460000  29.6980000
  25.8290000   1.7340000  29.9680000  24.7500000   1.5900000  28.7370000
  24.8880000   3.5890000  29.4370000  23.8090000   3.9750000  29.4900000
  25.3860000   3.9550000  30.3470000  25.6060000   3.9230000  28.1650000
  26.6310000   3.5870000  28.1940000  25.0520000   3.5510000  27.3220000
  25.7940000   5.4070000  28.0970000  26.4330000   5.8480000  28.7920000
  26.3490000   5.5980000  27.2050000  24.4670000   6.1730000  27.9670000
  23.9150000   5.8860000  27.1130000  23.9260000   6.1600000  28.9820000
  24.8750000   7.6260000  27.6470000  25.2730000   8.1730000  28.5970000
  25.6520000   7.5360000  26.8640000  23.6000000   8.2970000  27.0850000
  23.3150000   7.7460000  26.2030000  22.6640000   8.3640000  27.7420000
  23.9860000   9.6890000  26.6230000  24.4380000  10.0840000  27.5710000
  24.8920000   9.6590000  26.0130000  22.7910000  10.6460000  26.1050000
  22.0090000  10.5890000  26.8700000  23.2180000  11.6750000  26.0110000
  22.2730000  10.1100000  24.7450000  21.8700000   9.1300000  24.8680000
  21.4660000  10.6770000  24.3200000  23.3540000  10.0160000  23.6430000
  24.1860000   9.5520000  24.0650000  22.9240000   9.4050000  22.8440000
  23.6780000  11.3570000  23.0470000  22.8410000  12.0320000  22.4260000
  25.0130000  11.7150000  23.1870000  25.5900000  12.8570000  22.4570000
  26.6360000  12.9420000  22.7760000  25.4090000  12.7460000  21.3440000
  24.9750000  14.2080000  22.8110000  23.9830000  14.2010000  22.3860000
  25.8700000  15.3590000  22.3040000  25.2230000  16.2620000  22.1950000
  26.6020000  15.5660000  23.1100000  26.6730000  15.1520000  21.1050000
  26.0360000  15.2230000  19.6420000  25.5480000  16.8030000  19.4920000
  24.1820000  17.1370000  19.6380000  23.6900000  17.0070000  18.6650000
  23.6210000  16.3970000  20.2660000  24.1260000  18.5190000  20.1680000
  23.1320000  18.7100000  20.6270000  24.7830000  18.6700000  21.0700000
  24.2730000  19.5900000  19.1690000  23.8970000  20.8440000  19.8740000
  24.2010000  21.6740000  19.2310000  22.8830000  20.8090000  20.1800000
  24.5660000  20.8650000  20.7540000  25.6230000  19.7390000  18.5770000
  26.2220000  19.9670000  19.4670000  25.9080000  18.7980000  18.1660000
  25.6380000  20.5630000  17.9210000  23.2640000  19.4350000  18.0810000
  23.7710000  18.9200000  17.3120000  23.0370000  20.4000000  17.8000000
  22.3510000  18.9850000  18.4570000  27.0710000  14.9420000  18.6550000
  24.8470000  14.3820000  19.5840000  24.7930000  14.3200000  24.2610000
  23.9710000  15.1590000  24.8090000  23.2210000  15.8990000  24.1950000
  23.8950000  15.0480000  26.3060000  24.4250000  15.8970000  26.8110000
  24.4540000  14.1140000  26.7080000  22.4100000  14.8500000  26.7260000
  21.9920000  13.9940000  26.1830000  21.8560000  15.7310000  26.3980000
  22.1630000  14.7050000  28.2960000  22.8880000  15.3560000  28.8190000
  22.3450000  13.7310000  28.6140000  20.7610000  15.1080000  28.7560000
  20.5010000  16.1980000  28.5990000  20.7490000  14.8270000  29.8750000
  19.6550000  14.2200000  28.0980000  19.7750000  14.1070000  26.9850000
  18.7950000  14.7490000  28.3320000  19.5730000  12.7890000  28.7220000
  20.5000000  12.5830000  29.2390000  19.5710000  12.0340000  27.8670000
  18.3370000  12.4890000  29.6080000  18.4680000  11.5980000  30.1660000
  17.4730000  12.3800000  29.0030000  17.9600000  13.6040000  30.5970000
  17.4900000  14.4270000  30.1060000  18.1380000  13.6920000  31.9280000
  17.6790000  14.6110000  32.2980000  18.8390000  12.7370000  32.8040000
  19.4160000  13.3400000  33.4640000  19.4340000  12.0230000  32.1710000
  17.9250000  11.9290000  33.6830000  17.1630000  11.3330000  33.1210000
  17.3270000  12.6120000  34.2530000  18.6680000  11.0910000  34.7580000
  19.3880000  10.4250000  34.2900000  17.9190000  10.5170000  35.3420000
  19.6050000  11.9340000  35.6750000  20.5550000  12.2060000  35.1400000
  19.8890000  11.1620000  36.4420000  18.9640000  13.0510000  36.4530000
  18.0880000  12.7270000  37.0390000  18.6110000  13.7830000  35.7000000
  19.9330000  13.8460000  37.3520000  19.5120000  14.8130000  37.6250000
  20.8780000  13.8520000  36.7560000  20.3110000  13.0640000  38.6970000
  20.8050000  12.0950000  38.4640000  19.4420000  12.8200000  39.3190000
  21.1950000  14.0900000  39.3510000  21.7290000  13.6800000  40.2250000
  20.6310000  15.0400000  39.5090000  21.9950000  14.2800000  38.6210000
 146.9420000  53.6950000  27.3300000 147.5450000  54.3670000  26.8050000
 147.3590000  52.7330000  27.3490000 146.8010000  53.9910000  28.3610000
 145.5590000  53.6400000  26.5940000 145.8040000  53.4020000  25.4760000
 145.1530000  52.7430000  27.0470000 144.5790000  54.7790000  26.8380000
 143.7500000  54.4890000  26.3140000 144.1420000  54.8670000  27.8460000
 144.8770000  56.0560000  26.1120000 144.9060000  55.8590000  24.9520000
 144.0020000  56.6600000  26.3740000 146.1330000  56.7510000  26.5870000
 146.0370000  56.7650000  27.6910000 146.9440000  56.1090000  26.3380000
 146.2950000  58.1250000  25.8920000 146.4320000  57.9330000  24.8070000
 145.3920000  58.7760000  26.0220000 147.5790000  58.7690000  26.3560000
 148.2910000  57.9880000  26.5860000 148.0410000  59.2800000  25.5130000
 147.4410000  59.8180000  27.5250000 147.0380000  59.3160000  28.4760000
 148.4200000  60.1380000  27.9720000 146.6530000  61.0560000  27.1700000
 145.7730000  60.8180000  26.6950000 146.3200000  61.4840000  28.1150000
 147.4140000  62.0110000  26.1900000 148.3000000  62.3970000  26.7590000
 147.7500000  61.4340000  25.3200000 146.5790000  63.1970000  25.6680000
 146.2370000  63.6020000  26.6020000 147.1250000  64.0080000  25.2490000
 145.4710000  62.8420000  24.6680000 145.9420000  62.2760000  23.8810000
 144.7550000  62.3420000  25.2410000 144.7770000  64.0500000  24.0250000
 144.9830000  64.9590000  24.5710000 145.1720000  64.3580000  23.0480000
 143.2210000  64.0060000  24.1540000 143.0170000  64.2880000  25.1920000
 142.8050000  64.8290000  23.5490000 142.5090000  62.7790000  23.7590000
 142.9510000  62.0030000  24.2830000 141.4630000  62.7640000  24.0060000
 142.7860000  62.4740000  22.2320000 143.1860000  63.2610000  21.3690000
 142.4820000  61.2040000  21.9820000 143.0890000  60.6620000  20.7700000
 142.8660000  61.3110000  19.9770000 144.2600000  60.7120000  20.9670000
 142.6150000  59.2920000  20.4030000 142.7990000  58.9240000  19.3840000
 141.0870000  59.0990000  20.7190000 140.7830000  58.0620000  20.4580000
 141.0330000  59.0880000  21.7800000 140.2940000  60.2250000  20.2770000
 139.9070000  60.4890000  18.7360000 138.4370000  59.9120000  18.6330000
 137.2690000  60.8020000  18.8360000 136.9250000  60.5220000  19.8870000
 137.5740000  61.8530000  18.8360000 136.2400000  60.3850000  17.7960000
 136.2910000  59.3000000  17.7250000 135.2290000  60.7780000  17.9550000
 136.5140000  60.7700000  16.3420000 135.4040000  60.2030000  15.5310000
 135.4230000  60.3040000  14.4100000 135.6030000  59.2010000  15.7520000
 134.4470000  60.4900000  15.8510000 136.3860000  62.2380000  16.2490000
 136.5130000  62.6010000  15.3030000 135.3980000  62.5790000  16.6000000
 137.2120000  62.7440000  16.8000000 137.8670000  60.3860000  15.7050000
 138.6770000  60.8760000  16.2220000 137.8640000  60.7090000  14.6560000
 137.9090000  59.2590000  15.6720000 139.8560000  62.0020000  18.5690000
 140.8200000  59.7160000  17.8730000 143.3060000  58.3410000  21.3320000
 143.5110000  57.0470000  20.8830000 143.0990000  56.7690000  19.7960000
 144.3830000  56.1330000  21.7450000 144.5520000  55.1690000  21.1250000
 143.9160000  55.9080000  22.6640000 145.6360000  56.8590000  22.1820000
 145.3610000  57.7180000  22.8800000 146.0880000  57.4630000  21.3780000
 146.7160000  55.9800000  22.8570000 146.3160000  55.3600000  23.5630000
 147.5290000  56.5560000  23.3800000 147.2980000  55.0980000  21.7390000
 147.7240000  55.7660000  20.9400000 146.6530000  54.3820000  21.2710000
 148.5270000  54.3350000  22.2800000 148.2990000  53.8970000  23.2360000
 149.3480000  55.0240000  22.3480000 149.0050000  53.2160000  21.2810000
 149.0040000  53.7070000  20.2720000 148.3650000  52.3850000  21.4290000
 150.4980000  52.9200000  21.6110000 150.6290000  52.6820000  22.7100000
 151.0260000  53.8850000  21.5230000 151.2300000  51.9430000  20.7020000
 151.8100000  52.3440000  19.9160000 151.1720000  50.5810000  20.8420000
 151.7040000  49.9980000  20.0960000 150.3630000  49.8370000  21.8310000
 149.8780000  48.9770000  21.3590000 149.5560000  50.4720000  22.1160000
 151.3390000  49.3230000  22.9290000 152.1030000  48.6400000  22.6480000
 150.7020000  48.6760000  23.4930000 151.8630000  50.3340000  23.9300000
 152.3820000  51.0870000  23.3820000 152.4900000  49.8250000  24.6450000
 150.8310000  51.0440000  24.8130000 150.4490000  50.3350000  25.6210000
 149.9240000  51.4130000  24.1640000 151.5130000  52.3750000  25.4450000
 151.9750000  52.9700000  24.6880000 152.3110000  52.0670000  26.1760000
 150.4560000  53.2820000  26.1640000 149.9190000  52.7290000  27.0050000
 149.6070000  53.5100000  25.5120000 151.1440000  54.4940000  26.7760000
 152.2310000  54.4160000  26.7970000 150.7430000  54.6120000  27.8250000
 150.7860000  55.7570000  25.9950000 150.9630000  55.6320000  24.9550000
 151.3070000  56.6140000  26.4600000 149.6940000  55.9680000  26.0930000
  54.9810000  31.2290000  32.3500000  55.2950000  30.9640000  33.3270000
  54.1850000  31.9920000  32.4970000  55.8540000  31.6110000  31.7580000
  54.4020000  29.8960000  31.7230000  55.2190000  29.1250000  31.7550000
  53.5160000  29.6210000  32.2640000  54.0890000  29.9900000  30.2560000
  53.8490000  30.9720000  29.9300000  55.0210000  29.7130000  29.7820000
  53.0540000  29.0510000  29.6590000  53.5460000  28.1840000  29.2900000
  52.5420000  28.5640000  30.4740000  52.0150000  29.6100000  28.5830000
  51.2410000  28.8790000  28.4380000  51.6250000  30.4770000  28.9530000
  52.6530000  29.8420000  27.1950000  53.5840000  30.4330000  27.3330000
  52.8150000  28.8380000  26.6940000  51.7790000  30.6080000  26.2260000
  51.6800000  31.5230000  26.6340000  52.3670000  30.6090000  25.3830000
  50.4320000  29.9030000  25.9650000  50.6820000  28.8960000  25.6290000
  49.7460000  29.8010000  26.8170000  49.6240000  30.4770000  24.7840000
  49.5190000  31.5530000  24.9480000  50.2300000  30.4030000  23.8040000
  48.2180000  29.9000000  24.4950000  47.5240000  30.1940000  25.2530000
  47.8360000  30.3120000  23.5840000  48.1500000  28.3400000  24.3370000
  48.3750000  27.8340000  25.3600000  47.1490000  28.1180000  23.9340000
  49.1530000  27.7120000  23.3670000  49.2050000  28.2060000  22.4430000
  50.2350000  27.7870000  23.7430000  48.7780000  26.2430000  23.0940000
  48.5650000  25.8070000  24.0500000  47.9330000  26.3270000  22.3970000
  49.8390000  25.3800000  22.3370000  50.7070000  25.3740000  23.0220000
  49.3820000  24.3580000  22.3440000  50.2720000  25.9630000  20.9640000
  50.6900000  26.9780000  21.0190000  51.1040000  25.2980000  20.6370000
  49.1310000  25.9670000  19.9960000  48.5010000  25.0190000  19.5820000
  48.9690000  27.2580000  19.4530000  48.2400000  27.5270000  18.1880000
  48.4360000  28.5480000  17.8150000  48.5450000  26.7440000  17.5440000
  46.6910000  27.4810000  18.2820000  46.3710000  26.5360000  18.7390000
  46.0100000  27.6010000  16.8840000  46.2700000  26.7220000  16.3970000
  44.8590000  27.7370000  16.9020000  46.6880000  28.7040000  16.0880000
  46.4380000  30.2700000  16.4410000  46.5190000  31.1400000  15.1290000
  45.2760000  31.6410000  14.5610000  45.4680000  31.9830000  13.5040000
  44.4940000  30.8400000  14.5970000  44.7190000  32.8360000  15.4090000
  43.9830000  33.3400000  14.8750000  44.4210000  32.3620000  16.3100000
  45.7420000  33.9220000  15.8860000  45.0590000  35.1840000  16.3210000
  44.5400000  34.8610000  17.1420000  45.9030000  35.8740000  16.5630000
  44.3300000  35.6020000  15.5850000  46.5110000  33.3610000  16.9600000
  46.9440000  34.3040000  17.5500000  45.9170000  32.7390000  17.6930000
  47.3700000  32.8200000  16.4800000  46.7620000  34.3450000  14.8110000
  46.2110000  34.5460000  13.9090000  47.3670000  33.4630000  14.6980000
  47.3610000  35.2330000  15.1810000  45.1280000  30.4480000  17.0830000
  47.6950000  30.6720000  17.1810000  46.2490000  28.5780000  19.1490000
  44.9900000  28.5630000  19.5140000  44.1940000  27.6060000  19.2680000
  44.7750000  29.7420000  20.4100000  45.3280000  30.6740000  20.1290000
  45.1140000  29.4050000  21.3810000  43.2740000  29.9900000  20.5380000
  42.7460000  29.0300000  20.7310000  42.9170000  30.4250000  19.6500000
  42.9400000  30.8700000  21.7510000  41.9790000  31.1710000  21.6620000
  43.5600000  31.7840000  21.8200000  43.0740000  30.2690000  23.1870000
  43.5340000  29.3110000  23.0650000  42.0830000  30.1790000  23.6060000
  43.9500000  31.2330000  24.0030000  43.5700000  32.2160000  23.8780000
  44.9130000  31.2710000  23.5560000  44.0700000  30.7440000  25.4370000
  44.6910000  29.8640000  25.5250000  43.0960000  30.4990000  25.7760000
  44.6650000  31.7520000  26.4010000  44.0320000  32.5750000  26.5170000
  45.6930000  32.0400000  26.1360000  44.4980000  31.1690000  27.7700000
  43.4650000  30.8580000  28.0400000  45.4360000  30.6270000  28.5490000
  45.2070000  30.1470000  29.4970000  46.8910000  30.5590000  28.2290000
  47.0120000  30.7390000  27.1240000  47.1740000  29.5280000  28.4330000
  47.8600000  31.5440000  28.9700000  48.9130000  31.1550000  28.9130000
  47.6830000  31.4380000  30.0600000  47.7500000  32.9510000  28.4010000
  46.6600000  33.2040000  28.4910000  47.9970000  33.0900000  27.3310000
  48.5230000  33.8860000  29.3050000  48.3450000  33.6470000  30.3230000
  48.1170000  34.9000000  29.1020000  50.0570000  33.8280000  29.0000000
  50.3130000  33.9000000  27.9560000  50.4530000  32.8110000  29.2670000
  50.8970000  34.8830000  29.7820000  50.7460000  34.7700000  30.8940000
  50.5310000  35.8720000  29.5860000  52.3970000  34.6910000  29.4420000
  52.5170000  34.8710000  28.3020000  52.6130000  33.6730000  29.5280000
  53.4000000  35.5150000  30.3220000  53.4220000  35.3010000  31.4040000
  53.0350000  36.5160000  30.2040000  54.3560000  35.4020000  29.8610000
  69.6080000 103.3970000  30.5410000  69.4640000 102.3320000  30.2050000
  70.3450000 103.4450000  31.3450000  69.8970000 103.9310000  29.6770000
  68.2560000 103.9340000  31.0730000  67.5690000 104.1330000  30.2530000
  67.9260000 103.2300000  31.8250000  68.3470000 105.3560000  31.7140000
  69.1110000 105.3290000  32.4210000  68.6220000 106.0860000  30.9550000
  67.0600000 105.8100000  32.3700000  66.2540000 105.0720000  32.5130000
  67.2740000 106.1910000  33.3730000  66.3620000 106.9440000  31.6760000
  66.0820000 106.5270000  30.7140000  65.4620000 107.2150000  32.1640000
  67.1080000 108.2930000  31.4030000  67.1150000 108.7280000  32.4110000
  68.1530000 108.2270000  31.1300000  66.5120000 109.2570000  30.3960000
  65.4500000 109.4180000  30.5520000  67.0820000 110.1460000  30.4930000
  66.6820000 108.6930000  28.9260000  65.9080000 107.9710000  28.7010000
  66.2550000 109.5020000  28.3680000  68.0700000 108.2980000  28.3410000
  68.7910000 109.1480000  28.4460000  68.3990000 107.4640000  28.9980000
  67.9860000 107.8550000  26.8520000  67.7090000 108.6850000  26.2310000
  69.0490000 107.6510000  26.5510000  67.1180000 106.5910000  26.6580000
  67.1020000 105.9110000  27.4970000  66.1680000 106.8450000  26.2790000
  67.7990000 105.8060000  25.5210000  68.8830000 105.7810000  25.8160000
  67.4980000 104.7180000  25.5720000  67.5280000 106.3780000  24.1260000
  66.5460000 106.0180000  23.9520000  67.6950000 107.4480000  23.9560000
  68.4350000 105.6120000  23.1700000  69.4790000 105.5550000  23.6050000
  68.1360000 104.5270000  23.1740000  68.2930000 106.2180000  21.7850000
  68.6830000 107.2360000  21.8000000  68.9450000 105.7300000  21.0690000
  66.8620000 106.1500000  21.2370000  66.4070000 105.1070000  20.7800000
  66.2250000 107.3190000  21.3460000  64.9720000 107.5140000  20.5020000
  64.7270000 108.5400000  20.5630000  65.1940000 107.2540000  19.4360000
  63.7430000 106.6530000  21.0900000  64.0430000 105.6150000  21.0080000
  62.4390000 106.8880000  20.3080000  62.6980000 106.3790000  19.2810000
  61.6160000 106.3350000  20.7020000  62.1230000 108.2540000  20.0920000
  61.0030000 109.0330000  20.9630000  61.7530000 109.6070000  22.2910000
  62.3560000 110.9910000  22.2940000  61.5570000 111.6820000  22.0690000
  62.6830000 111.1060000  23.3030000  63.6270000 111.0980000  21.4140000
  64.3810000 110.3560000  21.6790000  63.4160000 110.9500000  20.3270000
  64.3700000 112.4270000  21.4770000  65.4940000 112.3330000  20.4440000
  66.1960000 111.4710000  20.7030000  65.0380000 112.3140000  19.4690000
  66.0690000 113.2430000  20.6480000  63.5020000 113.6360000  21.2160000
  62.7090000 113.6570000  21.9150000  64.0500000 114.5940000  21.3620000
  63.2410000 113.6260000  20.1590000  65.0780000 112.5420000  22.7660000
  64.2680000 112.7880000  23.5180000  65.7640000 113.3920000  22.7460000
  65.5810000 111.6020000  22.9470000  60.5340000 110.2230000  20.2210000
  59.9480000 108.0720000  21.3650000  63.5900000 106.9380000  22.5180000
  62.9380000 105.9630000  23.1840000  62.7050000 104.8240000  22.7820000
  62.7370000 106.3040000  24.6490000  61.6590000 106.3790000  24.9580000
  63.0370000 107.2900000  24.8480000  63.5100000 105.3380000  25.6340000
  64.5630000 105.4090000  25.4370000  63.2050000 104.3230000  25.5190000
  63.4200000 105.6470000  27.0720000  62.3530000 105.5080000  27.3560000
  63.6220000 106.6930000  27.1790000  64.4540000 104.8190000  27.9450000
  64.7680000 105.5050000  28.7570000  65.3690000 104.6200000  27.3290000
  63.8300000 103.6440000  28.6220000  63.4710000 102.9900000  27.8250000
  63.0520000 103.9130000  29.3700000  64.9350000 102.8570000  29.3860000
  65.2490000 103.5350000  30.2220000  65.7800000 102.7160000  28.7430000
  64.6280000 101.5250000  30.1130000  65.5750000 101.1980000  30.6430000
  64.4400000 100.7030000  29.3740000  63.4710000 101.7840000  31.0850000
  62.5310000 101.6780000  30.6260000  63.5810000 102.3570000  32.3000000
  62.6710000 102.6620000  32.8230000  64.8300000 102.3480000  33.0880000
  65.4790000 103.1660000  32.6770000  65.3610000 101.3140000  33.0870000
  64.4360000 102.7240000  34.5790000  63.7830000 101.9440000  34.8800000
  63.9790000 103.7350000  34.6240000  65.5790000 102.7720000  35.6350000
  66.4130000 103.2850000  35.2460000  65.8270000 101.7520000  35.8900000
  65.1630000 103.4600000  37.0000000  66.1250000 103.2950000  37.5240000
  64.3640000 102.9100000  37.5620000  64.6150000 104.8960000  36.9810000
  64.3520000 105.2180000  38.0400000  63.6250000 104.7830000  36.4840000
  65.5420000 105.8990000  36.2400000  65.6270000 105.5780000  35.2420000
  66.5850000 105.9770000  36.6080000  64.8760000 107.2500000  36.2010000
  64.7470000 107.5490000  37.2820000  63.8830000 107.0970000  35.7760000
  65.6320000 108.2910000  35.4660000  65.9940000 108.0260000  34.4410000
  66.5880000 108.3860000  36.0720000  65.0320000 109.2350000  35.4610000
  28.1670000 137.0330000  34.9710000  29.1190000 137.0380000  35.4470000
  27.3470000 137.3230000  35.5920000  28.2290000 137.8070000  34.2280000
  27.9590000 135.7120000  34.2360000  26.9900000 135.7090000  33.6900000
  28.6840000 135.6510000  33.4390000  28.0550000 134.4460000  35.1190000
  29.0650000 134.4930000  35.5620000  27.3380000 134.4520000  35.9340000
  27.8720000 133.1290000  34.3270000  28.0160000 132.2170000  35.0410000
  26.8820000 133.0060000  33.9340000  28.9160000 132.8570000  33.1800000
  28.7860000 133.6720000  32.4390000  29.9060000 132.7330000  33.5430000
  28.6710000 131.4990000  32.5220000  28.9170000 130.6630000  33.1780000
  27.6470000 131.4780000  32.2820000  29.3750000 131.4070000  31.1250000
  28.9980000 130.4370000  30.6420000  29.1180000 132.2840000  30.5550000
  30.9200000 131.4150000  31.0690000  31.2760000 132.3680000  31.5080000
  31.1920000 130.5500000  31.7270000  31.4540000 131.2220000  29.6840000
  31.6210000 130.0850000  29.4420000  30.8590000 131.7490000  28.9660000
  33.0030000 131.6500000  29.6670000  33.0450000 132.5560000  30.1770000
  33.6350000 130.8980000  30.0880000  33.4880000 131.8870000  28.1960000
  33.2510000 130.9670000  27.6070000  32.9920000 132.7110000  27.7280000
  35.0230000 132.0040000  28.0830000  35.4100000 131.0740000  28.5030000
  35.2680000 131.8880000  27.0190000  35.8050000 133.1490000  28.7840000
  35.8020000 133.0630000  29.8580000  36.8390000 133.0280000  28.4360000
  35.2560000 134.5450000  28.6370000  34.3850000 134.6940000  29.2690000
  35.9570000 135.2940000  28.9290000  34.9140000 134.9720000  27.2140000
  33.9550000 134.5870000  26.9100000  34.7580000 136.0520000  27.2290000
  35.9230000 134.4840000  26.2340000  37.1260000 134.4890000  26.5400000
  35.4450000 133.9390000  25.0830000  36.4090000 133.3770000  24.1300000
  35.8570000 133.0900000  23.1880000  37.1490000 134.1270000  23.8380000
  37.0810000 132.0920000  24.5880000  37.4400000 132.1260000  25.6570000
  38.4500000 131.7790000  23.9150000  38.9900000 132.6790000  23.8840000
  39.0560000 131.0590000  24.5070000  38.2890000 131.2830000  22.5270000
  38.7090000 132.3690000  21.3310000  37.6700000 131.9940000  20.2340000
  37.9200000 131.0430000  19.2260000  37.4750000 131.4130000  18.2900000
  38.9620000 130.8870000  19.0380000  37.1880000 129.7320000  19.5480000
  37.1830000 129.2500000  18.6270000  37.8380000 129.0660000  20.1290000
  35.7570000 129.6430000  20.0590000  35.3870000 128.1910000  20.0360000
  34.3510000 128.1290000  20.5480000  35.3790000 127.7490000  19.0030000
  36.1730000 127.5800000  20.5850000  35.7220000 130.0730000  21.5160000
  36.4920000 129.5280000  22.0540000  35.8100000 131.1170000  21.5510000
  34.7770000 129.8980000  21.9600000  34.7260000 130.4010000  19.2070000
  34.6220000 129.8780000  18.2720000  34.9960000 131.4050000  19.2350000
  33.7030000 130.3860000  19.7120000  38.2640000 133.6760000  21.8090000
  40.0600000 132.1650000  20.9070000  36.0410000 131.0840000  24.5000000
  36.2060000 129.8620000  25.0960000  37.3390000 129.4600000  25.4390000
  34.8890000 129.1660000  25.2990000  34.8210000 128.2420000  24.6510000
  33.9850000 129.6730000  25.1890000  34.9020000 128.5750000  26.7620000
  35.2280000 129.2990000  27.5080000  35.6850000 127.8160000  26.8260000
  33.5620000 127.9600000  27.2370000  33.2200000 127.2510000  26.4590000
  32.7360000 128.6830000  27.2800000  33.7300000 127.1490000  28.5040000
  34.4980000 126.4210000  28.2560000  32.8780000 126.5370000  28.7230000
  34.1510000 127.9440000  29.7480000  33.4400000 128.7590000  29.8120000
  35.1190000 128.4120000  29.4480000  34.2570000 127.2690000  31.1590000
  34.8960000 126.3240000  31.1150000  33.2360000 126.9200000  31.4510000
  34.6830000 128.2910000  32.2100000  34.0220000 129.1190000  32.1530000
  35.7070000 128.5880000  31.9700000  34.7760000 127.6350000  33.6220000
  35.0950000 126.5860000  33.6180000  34.5840000 128.2810000  34.7950000
  34.7020000 127.7290000  35.7150000  34.1130000 129.7710000  34.9680000
  34.2330000 130.3210000  34.0540000  34.6590000 130.2430000  35.7970000
  32.6480000 129.7630000  35.4810000  32.4970000 129.1890000  36.3740000
  31.9510000 129.2750000  34.8020000  31.9810000 131.1180000  35.7510000
  30.9130000 130.9500000  36.1870000  31.9480000 131.6480000  34.7970000
  32.7590000 131.9780000  36.7080000  32.0740000 132.8490000  36.8810000
  33.7350000 132.2930000  36.2810000  33.1870000 131.3060000  38.0910000
  33.5450000 132.0670000  38.8140000  33.9120000 130.5000000  37.6820000
  32.2040000 130.5120000  38.8540000  31.7580000 129.8390000  38.1450000
  31.3340000 131.0820000  39.1990000  32.6580000 129.5860000  39.9610000
  33.2060000 130.2280000  40.6890000  33.2860000 128.8620000  39.6290000
  31.4330000 128.8280000  40.5470000  30.7680000 128.3700000  39.7290000
  30.8210000 129.7030000  40.9210000  31.6680000 127.9430000  41.2630000
  85.2200000  45.9100000  35.3980000  85.0530000  45.1390000  34.5630000
  84.1880000  46.1760000  35.7520000  85.7620000  45.5010000  36.2410000
  85.9240000  47.1710000  34.8340000  85.9430000  47.9290000  35.6760000
  87.0060000  46.8670000  34.6280000  85.1630000  47.6480000  33.6280000
  84.1480000  47.2100000  33.6000000  85.0540000  48.7350000  33.6040000
  85.8290000  47.1840000  32.3990000  86.9240000  47.5050000  32.4470000
  85.7790000  46.0700000  32.2570000  85.2410000  47.8030000  31.0930000
  84.2130000  47.5140000  31.0480000  85.3000000  48.9400000  31.1840000
  86.0240000  47.3630000  29.8870000  87.0740000  47.5440000  29.9990000
  85.8550000  46.2830000  29.9250000  85.5490000  47.9780000  28.5600000
  84.5040000  47.7000000  28.4370000  85.5360000  49.0430000  28.5280000
  86.3100000  47.4840000  27.3190000  86.3550000  46.4310000  27.3760000
  85.6480000  47.6630000  26.5220000  87.7140000  48.0770000  27.0360000
  87.5490000  49.1730000  26.9860000  88.4610000  47.9010000  27.8460000
  88.2680000  47.7080000  25.6140000  87.6680000  48.1790000  24.8390000
  89.2420000  48.2530000  25.5670000  88.4040000  46.2500000  25.1940000
  88.9000000  45.7690000  25.9450000  87.4220000  45.8100000  25.1300000
  89.1020000  46.0950000  23.8590000  88.5110000  46.6360000  23.1420000
  90.0220000  46.5370000  23.8840000  89.2910000  44.5960000  23.4960000
  89.6270000  44.0290000  24.2970000  88.2690000  44.3550000  23.2910000
  90.0430000  44.3370000  22.1920000  89.5810000  43.3770000  21.8630000
  89.6290000  45.0560000  21.4570000  91.6040000  44.2960000  22.1050000
  92.0480000  45.2470000  22.4070000  91.9030000  43.4340000  22.6930000
  91.9630000  44.0860000  20.6720000  91.5450000  44.7960000  19.7350000
  92.6820000  42.9840000  20.4810000  93.0140000  42.6480000  19.0910000
  93.4550000  41.6720000  18.9890000  92.0770000  42.6820000  18.5030000
  94.0910000  43.6480000  18.5940000  93.8800000  44.7090000  18.7000000
  94.5370000  43.3980000  17.0840000  93.7460000  43.8400000  16.4830000
  95.5260000  43.9440000  16.8770000  94.6280000  41.9550000  16.8380000
  96.0530000  41.1660000  16.8020000  96.0300000  40.4810000  18.2370000
  97.2150000  40.1490000  18.9950000  97.8080000  41.1460000  19.1150000
  96.8380000  39.7910000  19.9740000  98.0980000  39.1600000  18.1790000
  97.5670000  38.2200000  18.2560000  98.1140000  39.3830000  17.0840000
  99.5380000  38.9580000  18.6790000 100.2800000  40.2090000  18.4050000
 100.1100000  40.4970000  17.3430000  99.7140000  40.9780000  18.9630000
 101.3210000  40.3040000  18.7010000  99.4610000  38.7490000  20.1760000
  98.9850000  39.5610000  20.7330000  98.9570000  37.7960000  20.3360000
 100.4980000  38.7010000  20.5630000 100.2280000  37.8420000  18.0960000
  99.6550000  36.9490000  18.3100000 101.1730000  37.7110000  18.5630000
 100.4410000  38.0560000  17.1020000  96.0240000  40.0940000  15.7430000
  97.1390000  42.1890000  16.8510000  95.2280000  43.3370000  19.5040000
  96.2700000  44.1760000  19.5340000  96.3830000  45.1040000  18.7640000
  97.2990000  43.7690000  20.6150000  97.9630000  43.1000000  20.1360000
  96.8030000  43.2080000  21.4300000  98.1540000  44.8840000  21.2400000
  97.4670000  45.7520000  21.4400000  98.8050000  45.3220000  20.4450000
  99.0430000  44.5100000  22.4650000  99.7270000  45.3540000  22.5820000
  99.7380000  43.6750000  22.1840000  98.3130000  44.0670000  23.7720000
  99.0750000  43.8800000  24.5640000  97.7480000  43.2010000  23.5650000
  97.2740000  45.1160000  24.3140000  96.5900000  45.4650000  23.5230000
  97.8990000  46.0500000  24.4740000  96.5540000  44.8010000  25.6820000
  97.2750000  44.8430000  26.4700000  96.2030000  43.7280000  25.5470000
  95.3610000  45.6510000  26.0170000  94.8670000  45.1050000  26.8500000
  94.7390000  45.6740000  25.0940000  95.7470000  47.0920000  26.2730000
  96.7790000  47.2940000  26.2030000  94.8330000  48.0110000  26.5810000
  95.2750000  48.9870000  26.7890000  93.3390000  47.8780000  26.7350000
  92.9620000  48.4300000  27.5400000  93.1400000  46.8230000  26.9380000
  92.6350000  48.1550000  25.4060000  91.6220000  47.7950000  25.6300000
  93.0260000  47.4660000  24.6290000  92.4300000  49.6070000  24.9210000
  91.9240000  49.6290000  23.9460000  93.4040000  50.1730000  24.6930000
  91.7340000  50.5680000  25.9670000  92.3610000  50.8430000  26.7680000
  90.7870000  50.1190000  26.2780000  91.3090000  51.9340000  25.3100000
  90.5140000  51.7880000  24.6150000  92.1960000  52.3230000  24.8090000
  90.7940000  52.9360000  26.4100000  90.5200000  53.8360000  25.8410000
  91.6260000  53.2510000  27.0290000  89.6190000  52.3880000  27.2710000
  90.0090000  51.7650000  28.0690000  88.9590000  51.7400000  26.6280000
  89.0100000  53.5690000  27.9500000  88.2640000  53.3200000  28.6930000
  88.5300000  54.2780000  27.3340000  89.8370000  54.0530000  28.4520000
  59.5080000 124.8930000  35.9350000  58.8350000 124.2830000  36.5840000
  59.0090000 125.8970000  35.8510000  60.5250000 124.9690000  36.3670000
  59.4840000 124.2480000  34.5320000  58.4360000 123.9450000  34.3260000
  59.8150000 124.8330000  33.7070000  60.3680000 122.9840000  34.4090000
  61.0390000 123.1430000  33.5320000  61.0190000 122.9070000  35.2340000
  59.4670000 121.7110000  34.1830000  58.8950000 121.4880000  35.1200000
  58.6560000 121.8760000  33.4510000  60.3600000 120.5760000  33.6070000
  60.9190000 120.9480000  32.7320000  61.2040000 120.2180000  34.3150000
  59.7210000 119.2200000  33.2810000  59.1590000 118.8580000  34.2040000
  58.9540000 119.3770000  32.5510000  60.6960000 118.1260000  32.8700000
  61.2840000 118.4850000  32.0170000  61.4610000 117.8800000  33.6930000
  59.9370000 116.8230000  32.6670000  59.3450000 116.7580000  33.5710000
  59.2690000 116.9710000  31.8550000  60.6970000 115.4920000  32.6040000
  61.3440000 115.3090000  33.4740000  59.8930000 114.7400000  32.6230000
  61.5210000 115.3170000  31.2810000  62.2010000 116.1420000  30.9160000
  62.2080000 114.5230000  31.4200000  60.6450000 114.8050000  30.1670000
  60.0820000 113.8930000  30.4640000  59.9360000 115.5480000  29.7860000
  61.4220000 114.3060000  28.9560000  62.2940000 114.9670000  28.7190000
  61.8090000 113.3060000  29.2820000  60.5570000 114.3230000  27.7020000
  60.0820000 113.3620000  27.7450000  59.7170000 115.0540000  27.6600000
  61.3320000 114.2740000  26.4100000  62.1680000 113.5560000  26.4880000
  60.6220000 114.0260000  25.6630000  61.9480000 115.6510000  26.0280000
  61.2310000 116.4730000  26.1400000  62.7400000 115.8320000  26.7600000
  62.6670000 115.6970000  24.7030000  62.3590000 115.0040000  23.7580000
  63.7860000 116.4660000  24.6480000  64.6070000 116.4600000  23.4160000
  65.6020000 116.8240000  23.6680000  64.6950000 115.4060000  23.0280000
  63.9560000 117.4800000  22.3990000  62.9980000 117.0830000  22.0140000
  64.8090000 117.7750000  21.2130000  64.3150000 117.3900000  20.2720000
  64.8950000 118.8480000  21.1680000  66.1190000 117.2710000  21.3930000
  66.5140000 115.8810000  20.6750000  67.9170000 116.1460000  19.9340000
  67.9260000 116.6620000  18.5670000  68.8750000 116.7200000  18.0750000
  67.2320000 116.0370000  18.0390000  67.4740000 118.1320000  18.6970000
  67.3040000 118.5650000  17.6900000  66.5390000 118.0620000  19.1430000
  68.4300000 119.1580000  19.4070000  67.7740000 120.4190000  19.4270000
  68.4610000 121.0940000  19.9580000  67.4910000 120.7630000  18.4230000
  66.7580000 120.2910000  19.9010000  68.6200000 118.8270000  20.8010000
  67.6110000 118.8660000  21.2690000  68.9760000 117.8320000  20.7630000
  69.3960000 119.5110000  21.2460000  69.6780000 119.3570000  18.6200000
  70.2820000 120.2130000  19.0050000  69.3590000 119.5270000  17.5510000
  70.2860000 118.4600000  18.6080000  66.7790000 114.9100000  21.7690000
  65.5080000 115.4530000  19.6700000  63.8910000 118.7700000  23.1210000
  62.7140000 119.1110000  23.6800000  61.7180000 118.4340000  23.7330000
  62.7610000 120.4840000  24.3270000  63.7990000 120.8160000  24.4590000
  62.2600000 120.4490000  25.2590000  62.0990000 121.4330000  23.2950000
  62.2470000 121.0800000  22.2510000  62.5610000 122.3840000  23.4300000
  60.6040000 121.5760000  23.6440000  60.5670000 121.9810000  24.6240000
  60.1010000 120.6310000  23.8150000  59.7230000 122.3820000  22.6200000
  60.1420000 122.3280000  21.5800000  59.9660000 123.4090000  22.7320000
  58.2160000 122.1170000  22.7840000  57.8300000 122.3680000  23.6900000
  58.2410000 121.0400000  22.7460000  57.4320000 122.7900000  21.5430000
  57.7050000 122.2670000  20.6240000  57.6260000 123.8880000  21.5010000
  55.9600000 122.6240000  21.7880000  55.4200000 122.9480000  20.8790000
  55.7010000 123.2660000  22.5990000  55.4410000 121.1900000  22.0070000
  55.6650000 120.5430000  21.1520000  54.6630000 120.8010000  23.0220000
  54.1820000 119.8000000  23.0410000  54.3450000 121.6920000  24.2480000
  53.2410000 121.6960000  24.4680000  54.5510000 122.7400000  24.0690000
  55.0830000 121.2390000  25.5240000  56.1190000 121.5440000  25.5050000
  54.9840000 120.1460000  25.5600000  54.3370000 121.7640000  26.7840000
  53.2600000 121.4760000  26.5740000  54.3990000 122.8640000  26.8980000
  54.9440000 121.1200000  28.0930000  55.0300000 120.0440000  27.8830000
  54.3410000 121.1770000  29.0120000  56.3560000 121.7010000  28.3340000
  56.3430000 122.7620000  28.2090000  57.0290000 121.2560000  27.6920000
  56.7760000 121.4320000  29.8450000  56.5820000 120.4490000  30.1420000
  56.1020000 121.9990000  30.4090000  58.2630000 121.7370000  30.1940000
  58.7280000 120.9480000  29.6510000  58.4640000 121.4980000  31.2220000
  58.7710000 123.1320000  29.7780000  58.3000000 123.8860000  30.3910000
  58.5120000 123.4650000  28.7550000  59.8060000 123.3870000  29.9680000
  22.9670000 144.7840000  31.0840000  22.7950000 145.7370000  30.6250000
  22.9530000 144.0800000  30.2450000  23.9320000 144.7450000  31.4820000
  21.9820000 144.2930000  32.1350000  22.0800000 144.9860000  32.9820000
  21.0470000 144.4650000  31.5610000  22.1240000 142.8370000  32.6900000
  23.0850000 142.8850000  33.2250000  21.3770000 142.6340000  33.4380000
  22.1910000 141.7130000  31.6340000  23.0120000 141.9550000  31.0220000
  22.2300000 140.6610000  32.0300000  21.0320000 141.8300000  30.5800000
  20.0450000 141.6810000  31.0780000  21.0150000 142.7220000  29.9660000
  21.2390000 140.6510000  29.6030000  21.2620000 139.6670000  30.1600000
  20.3310000 140.7590000  29.0100000  22.4610000 140.6750000  28.6540000
  23.2900000 140.4780000  29.2800000  22.4640000 139.8250000  27.8970000
  22.5100000 141.9650000  27.7870000  22.5640000 142.8070000  28.5000000
  23.4110000 141.7800000  27.1980000  21.2640000 142.1480000  26.8980000
  21.3330000 141.2690000  26.1850000  20.3130000 142.1780000  27.4020000
  21.4840000 143.4430000  26.0210000  22.4990000 143.3150000  25.4750000
  20.6980000 143.4550000  25.2160000  21.3580000 144.7940000  26.7760000
  22.1320000 144.8720000  27.5640000  21.4180000 145.6570000  26.0520000
  19.9840000 144.8660000  27.4750000  19.2060000 144.5280000  26.7440000
  20.0560000 144.1120000  28.2390000  19.5990000 146.1760000  28.1220000
  20.4010000 146.6090000  28.6970000  19.4260000 146.8460000  27.2280000
  18.3910000 146.0550000  29.0600000  18.5120000 145.5090000  29.9300000
  18.0890000 147.0610000  29.3850000  17.0800000 145.4240000  28.4880000
  17.2020000 144.3530000  28.2880000  16.2350000 145.5550000  29.3110000
  16.6990000 146.1090000  27.2140000  16.4470000 147.2830000  27.2390000
  16.7260000 145.3790000  26.0950000  16.3860000 146.0650000  24.8240000
  15.9470000 145.3020000  24.1420000  15.5610000 146.7850000  24.9830000
  17.6450000 146.6670000  24.1480000  18.0700000 147.3500000  24.9120000
  17.3450000 147.4440000  22.7670000  16.9010000 148.3890000  23.0190000
  18.2020000 147.5450000  22.0740000  16.2910000 146.7800000  21.9740000
  16.5780000 145.5450000  20.8890000  16.5350000 144.2730000  21.8800000
  15.3590000 143.4130000  22.0040000  14.5190000 144.0370000  21.8430000
  15.3080000 142.7260000  21.1640000  15.4070000 142.6590000  23.3890000
  16.3660000 142.1920000  23.5920000  15.2860000 143.5360000  24.1440000
  14.2740000 141.7250000  23.5660000  14.5380000 141.1290000  24.8420000
  13.8260000 140.3630000  24.8460000  15.4600000 140.5960000  24.7760000
  14.4230000 141.7320000  25.7130000  13.0070000 142.4590000  23.5660000
  12.7330000 142.7740000  22.5610000  12.3010000 141.8000000  23.9610000
  13.1710000 143.3780000  24.1670000  14.2270000 140.6240000  22.5590000
  15.1060000 139.9760000  22.6730000  14.2320000 140.9790000  21.4770000
  13.2990000 140.0920000  22.6600000  15.5090000 145.4030000  19.9130000
  17.9430000 145.7270000  20.3530000  18.6310000 145.6070000  23.8240000
  19.9560000 145.9890000  23.8230000  20.3440000 147.1370000  24.0220000
  20.8260000 144.9090000  23.1830000  20.2210000 143.9880000  23.2370000
  21.6510000 144.6990000  23.8930000  21.3570000 145.3310000  21.8170000
  21.8790000 146.2430000  22.0480000  20.5920000 145.6140000  21.1510000
  22.4060000 144.3630000  21.1770000  21.8080000 143.5590000  20.7130000
  23.0020000 143.8590000  21.9350000  23.3190000 144.9860000  20.1750000
  22.8270000 145.3450000  19.2240000  23.9130000 144.1070000  19.8470000
  24.2680000 146.0590000  20.6660000  24.9650000 145.5220000  21.3560000
  23.8000000 146.8780000  21.1700000  25.1480000 146.7200000  19.5570000
  24.6540000 147.4430000  18.9340000  25.5080000 145.8750000  18.9780000
  26.3850000 147.3540000  20.1030000  27.0950000 147.6750000  19.3000000
  26.9670000 146.6940000  20.7090000  25.9440000 148.5690000  20.8830000
  25.9230000 149.5160000  20.2920000  25.7930000 148.7990000  22.1730000
  25.5140000 149.7220000  22.5980000  25.8410000 147.6960000  23.1350000
  26.6710000 147.8520000  23.7880000  25.9070000 146.7270000  22.6310000
  24.6360000 147.8000000  24.0270000  23.7400000 148.0300000  23.4110000
  24.6990000 148.6620000  24.6360000  24.4880000 146.5130000  24.9940000
  24.0190000 145.8060000  24.3380000  23.7490000 146.6860000  25.7690000
  25.7180000 146.0060000  25.6980000  26.0600000 146.8880000  26.2050000
  26.4290000 145.6670000  24.9330000  25.3850000 144.9700000  26.7630000
  25.3810000 143.9950000  26.2190000  24.4040000 145.2550000  27.2260000
  26.5620000 145.0030000  27.7990000  26.7790000 146.0750000  27.9960000
  27.4280000 144.6160000  27.2360000  26.3460000 144.2790000  29.1280000
  26.1430000 143.2040000  28.8640000  25.4110000 144.7210000  29.5310000
  27.3790000 144.4050000  30.2390000  27.2810000 145.4310000  30.6090000
  28.4090000 144.2400000  29.8640000  27.2850000 143.7310000  31.1010000
   6.3600000 122.8790000  34.5090000   5.8850000 122.8630000  35.4460000
   7.3810000 122.5450000  34.5910000   5.8200000 122.1670000  33.9000000
   6.2960000 124.2690000  33.9510000   5.2800000 124.4950000  33.7420000
   6.6390000 125.0310000  34.6610000   7.1080000 124.6020000  32.6800000
   8.1590000 124.3240000  32.8460000   6.8040000 123.9560000  31.8720000
   7.0000000 126.0720000  32.3000000   5.9840000 126.3870000  32.3290000
   7.4790000 126.6630000  33.0400000   7.6360000 126.3300000  30.9520000
   7.9400000 127.3170000  30.7990000   8.5900000 125.7630000  30.8630000
   6.7440000 125.9100000  29.7720000   6.4620000 124.8520000  29.7940000
   5.8380000 126.5180000  29.9240000   7.3340000 126.2580000  28.4310000
   7.3510000 127.3360000  28.3480000   8.3560000 125.8810000  28.3740000
   6.5280000 125.6670000  27.2320000   5.5330000 126.0830000  27.1550000
   6.8540000 126.0480000  26.3240000   6.5440000 124.1540000  27.2420000
   7.6320000 123.8920000  27.3230000   6.0550000 123.8400000  28.1130000
   5.9570000 123.4670000  25.9860000   4.9600000 123.8680000  25.8240000
   6.6230000 123.7980000  25.1710000   5.8790000 121.9090000  26.2310000
   5.3710000 121.8850000  27.1440000   5.2140000 121.3510000  25.5700000
   7.2370000 121.1790000  26.3660000   7.8170000 121.6620000  27.1070000
   7.0240000 120.1450000  26.6360000   8.2210000 121.1900000  25.1230000
   8.0500000 120.3820000  24.4070000   8.1230000 122.1550000  24.5250000
   9.6400000 120.9340000  25.6060000   9.6080000 120.0190000  26.2270000
  10.4330000 120.6700000  24.8940000  10.4650000 121.8680000  26.3680000
   9.9500000 122.2050000  27.2310000  11.2690000 121.2820000  26.7420000
  11.0290000 123.0750000  25.6540000  12.1330000 123.2290000  25.2100000
   9.9990000 123.9930000  25.6590000  10.3780000 125.2490000  25.1510000
   9.6300000 125.9010000  25.5020000  11.2650000 125.5600000  25.6260000
  10.4100000 125.3410000  23.5840000  11.2450000 124.8020000  23.2060000
  10.3630000 126.8240000  23.0980000  10.5620000 126.8840000  22.0570000
   9.3550000 127.0850000  23.3560000  11.2390000 127.6920000  23.8740000
  12.8840000 127.5330000  23.6690000  13.4450000 128.9270000  24.2580000
  13.6250000 130.0800000  23.3860000  12.9740000 129.9090000  22.4610000
  13.4930000 131.0030000  23.9850000  15.1080000 130.0090000  23.0500000
  15.6110000 130.4860000  23.8840000  15.4130000 128.9710000  22.9740000
  15.5400000 130.6460000  21.7600000  17.0270000 130.6170000  21.7560000
  17.2160000 129.5810000  21.7960000  17.5180000 131.1400000  20.9650000
  17.3500000 131.1770000  22.6110000  14.9840000 129.7770000  20.6300000
  15.2530000 130.2430000  19.6980000  15.3170000 128.7420000  20.8170000
  13.8700000 129.7880000  20.6900000  15.1870000 132.1010000  21.7190000
  14.0800000 132.2120000  21.5850000  15.6990000 132.5800000  20.9000000
  15.5470000 132.5530000  22.6530000  13.3400000 126.3990000  24.5840000
  13.2020000 127.3890000  22.2580000   9.1590000 124.8010000  22.9880000
   9.1420000 123.5210000  22.4950000  10.1120000 122.7480000  22.5120000
   7.8290000 123.1920000  21.9190000   7.5090000 124.0470000  21.2590000
   7.1350000 123.0610000  22.7510000   7.7960000 121.8890000  21.1040000
   8.1230000 121.0460000  21.7630000   8.5200000 121.8830000  20.2910000
   6.4110000 121.5940000  20.5830000   6.4250000 120.6770000  19.9410000
   6.1070000 122.3640000  19.8250000   5.3550000 121.4070000  21.7360000
   5.3840000 122.2610000  22.4220000   5.7870000 120.5610000  22.2900000
   4.0640000 121.0160000  21.0300000   4.0070000 119.9220000  20.8480000
   4.1140000 121.4050000  19.9690000   2.7480000 121.4290000  21.7480000
   1.8990000 121.4530000  21.1100000   2.8780000 122.4910000  22.0600000
   2.4990000 120.5830000  22.9960000   3.1620000 120.8690000  23.7730000
   2.7370000 119.5480000  22.7410000   1.0770000 120.7440000  23.4770000
   0.3480000 120.5380000  22.6780000   0.7750000 121.1950000  24.6860000
  -0.2370000 121.2270000  25.0680000   1.7890000 121.5910000  25.7360000
   2.0210000 122.6420000  25.5610000   2.7030000 121.1900000  25.5750000
   1.3750000 121.3830000  27.2350000   1.0720000 120.3570000  27.5510000
   0.5830000 122.0150000  27.5290000   2.5100000 121.8520000  28.1720000
   2.9490000 122.7250000  27.6730000   3.1290000 120.9740000  28.2080000
   2.0190000 122.0300000  29.6350000   1.6620000 121.0850000  29.9990000
   1.1130000 122.7140000  29.6420000   3.1680000 122.6050000  30.4830000
   3.6210000 123.5330000  29.9890000   3.9570000 121.8110000  30.4930000
   2.8360000 122.6950000  31.9980000   2.1400000 123.4940000  32.1880000
   3.7540000 123.0110000  32.4880000   2.2780000 121.3910000  32.6570000
   3.0890000 120.6500000  32.5230000   1.4130000 120.9550000  32.0630000
   1.9710000 121.4380000  34.1780000   1.8630000 120.4300000  34.5030000
   1.0010000 121.9410000  34.3420000   2.7650000 121.9420000  34.7780000
 131.1040000  87.0550000  32.3670000 131.3940000  88.0650000  32.7170000
 130.8410000  86.3260000  33.2280000 130.3610000  87.2780000  31.5700000
 132.3260000  86.4530000  31.5830000 133.1850000  86.4020000  32.2180000
 132.0050000  85.4450000  31.2510000 132.7290000  87.2760000  30.3440000
 132.0020000  87.1700000  29.5990000 132.8650000  88.2960000  30.6400000
 133.9860000  86.7390000  29.7400000 134.7910000  86.7860000  30.5060000
 133.8640000  85.6720000  29.4160000 134.4950000  87.6600000  28.6040000
 133.6940000  87.7490000  27.8530000 134.5000000  88.6850000  29.1010000
 135.8870000  87.2870000  28.0190000 136.4690000  87.3200000  28.9470000
 135.8660000  86.2360000  27.7990000 136.2910000  88.1610000  26.8050000
 135.3930000  88.4070000  26.1880000 136.6970000  89.1210000  27.0910000
 137.2040000  87.3970000  25.8330000 138.0320000  86.9450000  26.4190000
 136.7620000  86.5810000  25.2970000 137.7080000  88.3530000  24.7240000
 136.9270000  88.6890000  24.0660000 138.1480000  89.2610000  25.0780000
 138.7960000  87.7290000  23.8050000 139.5680000  87.3800000  24.5180000
 138.4020000  86.9360000  23.2730000 139.3800000  88.6000000  22.7650000
 139.6830000  89.5190000  23.2090000 140.2440000  88.0990000  22.2730000
 138.4130000  88.8560000  21.5270000 137.8860000  87.8480000  21.3950000
 137.6690000  89.5300000  21.8030000 139.1870000  89.2480000  20.2360000
 139.8710000  90.0590000  20.5780000 139.8040000  88.4260000  19.8620000
 138.4570000  89.6790000  18.9910000 137.7550000  90.5130000  19.2250000
 139.1650000  90.0710000  18.2250000 137.6430000  88.5700000  18.3490000
 137.1020000  88.0800000  19.1500000 136.8080000  88.9440000  17.7560000
 138.3680000  87.4170000  17.7620000 139.4740000  87.4540000  17.3190000
 137.5260000  86.3620000  17.8510000 137.9130000  84.9720000  17.4310000
 136.8750000  84.4920000  17.1210000 138.4820000  85.0600000  16.5040000
 138.6500000  84.1140000  18.4490000 139.6270000  84.5820000  18.5300000
 138.9090000  82.7340000  17.9110000 139.6740000  82.8690000  17.1340000
 139.2730000  82.1220000  18.7270000 137.7080000  82.2200000  17.3770000
 136.8670000  81.0590000  18.1800000 136.1150000  81.7870000  19.2870000
 135.1430000  82.8480000  18.9800000 135.5170000  83.8450000  19.2480000
 135.0000000  82.8610000  17.9230000 133.8710000  82.7110000  19.8870000
 133.1880000  83.4960000  19.7030000 133.3570000  81.7310000  19.6530000
 133.9970000  82.8130000  21.3740000 135.0310000  81.8370000  21.9040000
 135.0300000  81.8880000  22.9870000 134.8250000  80.8950000  21.4410000
 136.0470000  82.1420000  21.5580000 134.3760000  84.2790000  21.7200000
 134.5310000  84.3890000  22.7960000 135.2730000  84.6570000  21.0960000
 133.4430000  84.7590000  21.4260000 132.7640000  82.5200000  22.0000000
 132.1190000  83.3630000  22.0830000 133.0290000  82.1980000  23.0310000
 132.2980000  81.6070000  21.6100000 135.8630000  80.5160000  17.2710000
 137.8430000  80.1680000  18.7630000 138.0990000  84.0130000  19.7910000
 138.5570000  84.7310000  20.8020000 139.3540000  85.6550000  20.6350000
 138.1050000  84.2190000  22.0980000 136.9930000  84.3740000  22.0540000
 138.6000000  84.8110000  22.8720000 138.5570000  82.7830000  22.2800000
 139.5780000  82.7890000  21.9580000 137.9990000  82.1890000  21.6810000
 138.5050000  82.3440000  23.7570000 137.5200000  82.6240000  24.1620000
 139.2240000  82.9340000  24.3900000 138.9250000  80.8590000  23.9220000
 139.8760000  80.7420000  23.3980000 138.2280000  80.2540000  23.3910000
 139.1320000  80.3870000  25.3840000 139.2150000  79.3290000  25.4370000
 138.1770000  80.7190000  25.8970000 140.3600000  80.9910000  26.0910000
 140.2200000  82.0880000  26.1550000 141.2500000  80.8580000  25.4930000
 140.4240000  80.6120000  27.6370000 140.7260000  79.5550000  27.5730000
 139.4670000  80.6850000  28.2000000 141.3760000  81.4780000  28.4380000
 142.3530000  81.1040000  28.5610000 141.0950000  82.5570000  29.1200000
 141.9440000  83.0290000  29.5540000 139.8180000  83.3370000  29.2020000
 138.9940000  82.5750000  28.9670000 139.7850000  84.2230000  28.5160000
 139.7320000  83.7990000  30.6590000 140.6530000  84.3110000  30.9450000
 139.6650000  82.9190000  31.2300000 138.4420000  84.6280000  30.7770000
 137.5710000  83.9350000  30.6050000 138.4450000  85.3730000  29.9990000
 138.3650000  85.3980000  32.1530000 138.1000000  84.6000000  32.8780000
 137.5490000  86.1790000  31.9990000 139.7300000  86.1640000  32.5410000
 139.7080000  87.0070000  31.8580000 140.6440000  85.5580000  32.3570000
 139.7650000  86.5840000  34.0210000 139.6590000  85.7050000  34.6480000
 138.8570000  87.1970000  34.0460000 141.0790000  87.3430000  34.2830000
 141.3360000  87.9070000  33.3790000 141.8430000  86.5970000  34.4810000
 140.8260000  88.3470000  35.4210000 141.6950000  88.9120000  35.6060000
 140.5200000  87.7820000  36.3090000 140.0120000  88.9460000  35.1190000
   9.5780000  96.4540000  29.3170000   8.9830000  97.3460000  29.3720000
  10.1630000  96.4070000  30.2320000   8.9410000  95.5790000  29.3240000
  10.5270000  96.4680000  28.1420000  11.1940000  95.6500000  28.2540000
   9.9720000  96.2440000  27.2370000  11.2300000  97.7850000  27.9310000
  10.5250000  98.5370000  27.7180000  11.6540000  98.1280000  28.8990000
  12.3760000  97.8970000  26.8630000  12.7450000  98.8830000  26.8600000
  13.2310000  97.2310000  27.0680000  12.0010000  97.4900000  25.4010000
  12.8250000  97.6100000  24.7340000  11.7200000  96.4550000  25.4170000
  10.7520000  98.1090000  24.8020000   9.8170000  97.9070000  25.3560000
  10.9360000  99.1820000  25.0270000  10.6360000  97.7410000  23.3560000
  10.7820000  96.6260000  23.3670000   9.5740000  97.9260000  23.1160000
  11.6980000  98.3110000  22.3670000  12.6520000  97.8550000  22.6660000
  11.4680000  97.8170000  21.3680000  11.7630000  99.8430000  22.2310000
  10.9820000 100.0570000  21.5500000  11.5790000 100.2830000  23.2000000
  12.9510000 100.4790000  21.4220000  12.7300000 100.2420000  20.3270000
  12.9210000 101.5850000  21.5920000  14.2970000  99.8160000  21.6110000
  14.2170000  98.8190000  21.3420000  15.0770000 100.2610000  21.0330000
  14.7030000  99.7560000  23.0950000  15.0950000 100.7690000  23.3020000
  13.7970000  99.5350000  23.6390000  15.7550000  98.6780000  23.4610000
  15.3130000  97.7070000  23.1590000  16.5540000  98.8810000  22.7520000
  16.2800000  98.8920000  24.8610000  15.3500000  98.8070000  25.5340000
  16.8640000  98.0430000  25.0120000  17.0550000 100.1830000  25.1930000
  16.3550000 100.9710000  25.4770000  17.6530000 100.0560000  26.0780000
  17.9330000 100.5990000  23.9820000  17.6990000 101.5480000  23.3010000
  18.9630000  99.7150000  23.8210000  19.7590000  99.8940000  22.6010000
  19.1170000  99.6690000  21.7140000  20.0420000 100.8870000  22.5190000
  20.9650000  98.9500000  22.4430000  21.5550000  99.1090000  23.3780000
  21.8310000  99.3090000  21.2450000  22.8220000  99.6770000  21.4920000
  21.9350000  98.3420000  20.7550000  21.0470000 100.2710000  20.4150000
  21.5970000 100.7060000  18.9490000  22.8690000 101.6000000  19.2790000
  22.6100000 102.9600000  19.7210000  21.7190000 103.4300000  19.2890000
  22.6340000 102.8770000  20.8060000  23.7890000 103.8560000  19.3030000
  24.6860000 103.5050000  19.7340000  23.9380000 103.7740000  18.2200000
  23.7210000 105.3140000  19.5760000  22.5810000 106.0060000  19.0090000
  21.7120000 105.6450000  19.5120000  22.7150000 107.0790000  19.0600000
  22.4140000 105.7260000  17.9590000  23.7860000 105.5790000  21.0460000
  23.0190000 105.1390000  21.6110000  24.7850000 105.2200000  21.2730000
  23.8630000 106.6790000  21.1990000  24.9420000 106.0020000  19.0310000
  24.9500000 105.8560000  17.9830000  25.8360000 105.5330000  19.5030000
  24.8100000 107.0460000  19.3220000  22.0420000  99.4690000  18.2620000
  20.5550000 101.5510000  18.2930000  20.5020000  97.5820000  22.2930000
  21.1560000  96.6770000  23.0180000  22.1320000  96.8920000  23.6740000
  20.4710000  95.3520000  23.0830000  21.1790000  94.6440000  23.4370000
  20.0580000  95.0060000  22.1010000  19.2610000  95.4360000  24.1050000
  18.7230000  96.3900000  24.0340000  19.6390000  95.4640000  25.1720000
  18.3590000  94.2540000  23.8000000  18.8480000  93.3090000  24.0000000
  18.1520000  94.3180000  22.7540000  16.9970000  94.3140000  24.5160000
  16.2880000  93.6370000  24.1520000  16.5350000  95.2930000  24.3120000
  17.0940000  94.1210000  26.0660000  17.9150000  93.4160000  26.2400000
  16.1470000  93.6760000  26.5220000  17.2800000  95.3360000  26.9780000
  16.3600000  95.9360000  26.8360000  18.1530000  95.9140000  26.6320000
  17.5210000  95.1040000  28.5290000  18.4650000  94.5500000  28.6860000
  16.7110000  94.4340000  28.8690000  17.4560000  96.4540000  29.2450000
  18.3250000  97.0250000  29.1720000  16.5250000  96.9150000  30.0900000
  16.5850000  97.8010000  30.5850000  15.2010000  96.2220000  30.2480000
  14.9180000  95.7860000  29.2210000  14.4260000  96.9310000  30.6590000
  15.3530000  95.0460000  31.2590000  15.8260000  95.5110000  32.1620000
  16.1070000  94.3130000  30.8720000  14.1050000  94.3100000  31.7420000
  13.4020000  95.0080000  32.3040000  14.4160000  93.5050000  32.4330000
  13.1660000  93.5400000  30.7590000  13.8440000  92.8490000  30.2140000
  12.7570000  94.2240000  30.0770000  12.0060000  92.8640000  31.5250000
  11.8030000  93.4930000  32.3480000  12.3240000  91.8950000  31.8530000
  10.7820000  92.7580000  30.6770000  11.0580000  92.5180000  29.6750000
  10.2630000  93.7100000  30.5960000   9.8770000  91.7310000  31.4310000
   9.2690000  92.2620000  32.1930000  10.4030000  90.9970000  31.9160000
   8.9860000  90.9360000  30.4450000   8.6330000  91.5760000  29.6130000
   8.1510000  90.4370000  30.8760000   9.6620000  90.1940000  30.0410000
  91.5760000  42.5070000  39.4140000  90.9580000  43.3240000  39.1390000
  91.7010000  42.3300000  40.4600000  91.2670000  41.5390000  39.0020000
  93.0360000  42.9220000  38.9250000  93.3320000  43.7760000  39.5130000
  93.6210000  42.1120000  39.3150000  93.3620000  43.2730000  37.4870000
  92.7940000  44.1660000  37.2360000  94.4200000  43.5220000  37.4200000
  92.9680000  42.1210000  36.4850000  93.1370000  41.1060000  36.9520000
  91.9000000  42.1290000  36.5400000  93.3700000  42.4370000  34.9890000
  93.0160000  43.4300000  34.7130000  94.4610000  42.3050000  34.8800000
  92.6180000  41.4590000  34.0530000  92.9150000  40.3870000  34.3200000
  91.5290000  41.4740000  34.2840000  92.9310000  41.7820000  32.5720000
  92.5610000  42.7720000  32.3320000  93.9900000  41.9680000  32.3770000
  92.4110000  40.6470000  31.6590000  93.0270000  39.8470000  31.9810000
  91.4010000  40.3180000  31.9160000  92.6470000  40.7410000  30.1540000
  92.0100000  41.4770000  29.7830000  93.6760000  41.0910000  29.9590000
  92.3620000  39.3490000  29.5350000  93.0490000  38.6720000  29.8410000
  91.3710000  39.0410000  29.9810000  92.2400000  39.2220000  27.9620000
  91.3270000  39.7320000  27.5660000  93.0640000  39.7750000  27.5130000
  92.2190000  37.7820000  27.4730000  93.1830000  37.2330000  27.6590000
  91.4960000  37.2630000  28.1250000  91.8500000  37.7510000  25.9710000
  91.0410000  38.5030000  25.8070000  92.7100000  38.1510000  25.3930000
  91.4460000  36.3210000  25.4560000  92.2410000  35.6060000  25.6210000
  90.5970000  35.9560000  26.0450000  91.1080000  36.3040000  23.9290000
  90.1810000  36.8580000  23.7940000  91.8600000  36.9780000  23.5950000
  91.2010000  34.9480000  23.2150000  91.2820000  33.8980000  23.7600000
  91.1070000  35.0980000  21.8880000  91.0210000  33.9160000  20.9870000
  91.0190000  32.9390000  21.5930000  90.0810000  33.9030000  20.4250000
  92.2820000  34.0300000  20.1040000  92.0920000  34.8290000  19.4040000
  92.5490000  32.7280000  19.3870000  93.2670000  32.1730000  20.0830000
  91.5930000  32.2280000  19.3090000  93.2880000  32.9750000  18.1000000
  92.6590000  32.7090000  16.6600000  92.7840000  34.2030000  15.9000000
  92.2210000  35.3670000  16.5240000  91.7730000  36.0440000  15.8190000
  91.4280000  34.9660000  17.1640000  93.3290000  36.0350000  17.3230000
  92.8650000  36.7630000  18.0170000  93.8270000  35.3600000  17.9500000
  94.4150000  36.7360000  16.6070000  95.2660000  37.4610000  17.6100000
  95.9440000  38.1240000  16.9750000  94.7440000  38.0760000  18.2780000
  95.8340000  36.7130000  18.1430000  95.2760000  35.7810000  15.8460000
  94.5800000  35.4480000  15.0790000  96.0910000  36.2630000  15.3460000
  95.5060000  34.9890000  16.5380000  93.9310000  37.8070000  15.6850000
  94.7260000  37.9670000  14.9760000  93.6740000  38.7240000  16.2390000
  93.0860000  37.4920000  15.1040000  93.5360000  31.7700000  15.9320000
  91.2060000  32.4270000  16.8980000  93.4660000  34.3540000  20.9630000
  93.9340000  35.6290000  20.9450000  93.3770000  36.5110000  20.2390000
  95.1980000  35.8720000  21.7070000  95.9450000  35.3520000  21.1320000
  95.0830000  35.4210000  22.7380000  95.5260000  37.3650000  21.9200000
  95.7520000  37.9340000  21.0070000  96.5110000  37.4190000  22.4520000
  94.4920000  38.0460000  22.8500000  94.3770000  37.6120000  23.7150000
  93.4720000  37.9180000  22.3290000  94.8590000  39.5560000  23.0080000
  94.8430000  40.0580000  22.0490000  95.9520000  39.6420000  23.3690000
  93.9900000  40.2720000  24.0750000  94.1950000  39.9260000  25.0400000
  92.9150000  40.0800000  23.9240000  94.1440000  41.7810000  24.0980000
  93.6380000  42.1480000  23.1910000  95.2050000  42.0100000  23.9490000
  93.6310000  42.5470000  25.3380000  93.7530000  43.5590000  25.2570000
  94.2360000  42.2090000  26.1850000  92.2220000  42.1650000  25.6490000
  91.9340000  41.1210000  25.4540000  91.2920000  42.8840000  26.2320000
  90.3910000  42.3670000  26.5240000  91.6010000  44.2690000  26.7810000
  91.3680000  45.0340000  26.0430000  92.6430000  44.3590000  27.1300000
  90.6550000  44.6290000  27.9840000  90.6520000  43.9130000  28.8360000
  89.6790000  44.7560000  27.5700000  91.0370000  46.0810000  28.4950000
  90.6590000  46.7780000  27.7560000  92.1350000  46.2100000  28.4390000
  90.3970000  46.5770000  29.7860000  90.6840000  45.9370000  30.6080000
  89.3000000  46.6850000  29.5900000  90.8530000  48.0060000  30.1020000
  90.6060000  48.6290000  29.2130000  91.9120000  48.0330000  30.2930000
  90.1720000  48.7060000  31.2390000  89.0970000  48.6610000  31.2530000
  90.4670000  49.8160000  31.1550000  90.5830000  48.1600000  32.5810000
  91.6730000  48.1800000  32.5500000  90.3820000  47.1000000  32.7080000
  90.2550000  49.0350000  33.8080000  90.4990000  50.1120000  33.6450000
  90.7990000  48.8350000  34.6550000  89.2480000  49.0070000  34.2740000
  48.7580000   3.6050000  31.7850000  48.2630000   3.3340000  32.7310000
  48.6900000   4.7530000  31.6430000  49.8570000   3.3740000  31.8600000
  47.9770000   3.0960000  30.6060000  47.7850000   2.0280000  30.7420000
  47.0010000   3.6020000  30.6200000  48.5880000   3.3590000  29.2430000
  49.5190000   2.7510000  29.1520000  47.9430000   3.0030000  28.4040000
  48.9370000   4.8730000  29.0490000  48.0590000   5.4490000  29.2270000
  49.7280000   5.2430000  29.7570000  49.3690000   5.2780000  27.6380000
  50.3360000   4.7380000  27.4840000  48.6240000   4.9620000  26.8520000
  49.4780000   6.8260000  27.5430000  48.5280000   7.3260000  27.9090000
  50.1750000   7.3180000  28.2550000  49.7350000   7.2570000  26.1000000
  49.3020000   6.6610000  25.3130000  49.2580000   8.1710000  26.0300000
  51.1780000   7.4460000  25.7160000  51.6290000   7.8270000  26.7070000
  51.6190000   6.5170000  25.4550000  51.3990000   8.4290000  24.5730000
  51.2420000   9.4740000  24.8960000  52.4600000   8.5790000  24.3440000
  50.6750000   8.0390000  23.3330000  49.6580000   7.5860000  23.5990000
  50.5980000   8.8600000  22.5780000  51.4730000   6.9220000  22.6840000
  52.4820000   7.1780000  22.7440000  51.3310000   6.0480000  23.2500000
  50.9040000   6.6190000  21.2970000  49.8430000   6.3430000  21.2750000
  50.9360000   7.5890000  20.7280000  51.7830000   5.6590000  20.4710000
  51.6670000   4.6490000  20.9720000  51.3740000   5.5280000  19.4330000
  53.2610000   6.1140000  20.2960000  53.8420000   5.9410000  21.1620000
  53.7380000   5.3910000  19.5880000  53.6490000   7.5070000  19.7110000
  53.3870000   8.2400000  20.4440000  54.7290000   7.5040000  19.7490000
  53.0400000   7.8580000  18.3870000  53.6300000   7.6070000  17.3420000
  51.7820000   8.3720000  18.4740000  51.2310000   8.8920000  17.2450000
  51.3020000   9.9400000  17.3120000  51.7290000   8.5790000  16.4160000
  49.7850000   8.4080000  17.0710000  49.7390000   7.3940000  17.1690000
  49.0730000   8.8830000  15.7560000  49.6350000   8.4000000  14.9540000
  48.0390000   8.6230000  15.6800000  49.3460000  10.3100000  15.5700000
  48.1800000  11.3310000  15.7830000  47.5290000  11.3800000  14.3470000
  46.1250000  11.7580000  14.2560000  45.8320000  11.4980000  13.1900000
  45.5370000  11.0710000  14.8690000  45.9300000  13.2660000  14.6150000
  44.9200000  13.5090000  14.7650000  46.3620000  13.4760000  15.5790000
  46.4000000  14.3010000  13.7100000  47.8670000  14.1870000  13.4690000
  48.0680000  13.3370000  12.7450000  48.0550000  15.0370000  12.9350000
  48.5240000  14.1150000  14.3660000  45.4810000  14.3550000  12.4940000
  45.9510000  15.0790000  11.7920000  45.2980000  13.3910000  12.0780000
  44.5590000  14.8930000  12.8230000  46.1430000  15.5080000  14.5120000
  45.0850000  15.4540000  14.8780000  46.3710000  16.3350000  13.9000000
  46.8290000  15.6510000  15.2730000  47.1880000  10.8660000  16.8470000
  48.7800000  12.6890000  16.0230000  49.0270000   8.9710000  18.2330000
  47.8580000   8.3650000  18.5280000  47.4030000   7.3690000  17.9480000
  47.2570000   9.0160000  19.7480000  46.1990000   9.1960000  19.5510000
  47.7350000  10.0050000  19.8060000  47.4100000   8.1930000  21.0460000
  48.4250000   8.1840000  21.2330000  47.1120000   7.1600000  20.7790000
  46.6400000   8.7140000  22.2530000  45.5620000   8.8170000  22.0040000
  47.1060000   9.6410000  22.5570000  46.6270000   7.7680000  23.3970000
  47.6530000   7.6560000  23.7380000  46.2070000   6.8420000  23.0460000
  45.7370000   8.2800000  24.5290000  44.6980000   8.4600000  24.1400000
  46.1560000   9.1850000  24.9530000  45.6920000   7.2680000  25.7580000
  46.6870000   6.8930000  25.9750000  45.1090000   6.3960000  25.4460000
  45.0930000   7.7650000  27.1160000  44.0630000   8.0340000  27.1100000
  45.5630000   8.7110000  27.4310000  45.4970000   6.7000000  28.1220000
  45.3420000   5.6510000  27.8180000  45.8650000   6.8620000  29.4070000
  46.0960000   5.9670000  30.0680000  46.1680000   8.1540000  30.0550000
  46.7270000   8.8030000  29.3520000  46.8180000   7.9170000  30.8540000
  44.8270000   8.7840000  30.5360000  44.2230000   7.9840000  30.7950000
  44.4040000   9.3480000  29.7740000  45.0940000   9.6180000  31.8380000
  45.7990000  10.3660000  31.5610000  45.6020000   8.9470000  32.4960000
  43.7470000  10.0840000  32.5150000  42.9670000   9.2770000  32.5070000
  43.3460000  10.8420000  31.7800000  44.0400000  10.6780000  33.8820000
  43.3720000  11.4880000  33.9450000  45.1410000  11.0560000  33.9870000
  43.7340000   9.8080000  35.1440000  44.1290000  10.3850000  35.9140000
  44.3570000   8.8230000  34.9770000  42.2240000   9.3620000  35.2750000
  41.9530000   8.5430000  34.6240000  41.5670000  10.2320000  35.0720000
  42.0120000   9.0080000  36.7380000  42.2410000   7.9530000  36.8290000
  40.9810000   9.0860000  36.9800000  42.6320000   9.6870000  37.3310000
  56.3370000  97.5080000  38.5940000  55.2680000  97.5320000  38.8690000
  56.6800000  98.5470000  38.2120000  56.8660000  97.1200000  39.4540000
  56.4850000  96.5030000  37.3950000  56.1120000  95.5830000  37.8360000
  55.9570000  96.8320000  36.5470000  57.9430000  96.2840000  37.0440000
  58.4370000  97.1970000  36.8440000  58.5140000  95.7910000  37.8690000
  58.0880000  95.3250000  35.7970000  57.9820000  94.2520000  36.0890000
  57.2780000  95.6090000  35.1180000  59.3980000  95.5270000  34.9480000
  59.4830000  96.5700000  34.7530000  60.2840000  95.3180000  35.5250000
  59.4170000  94.8180000  33.6840000  59.1290000  93.7790000  33.8300000
  58.5880000  95.1700000  33.0950000  60.7440000  94.9690000  32.8060000
  61.6310000  94.6570000  33.4240000  60.5480000  94.2880000  31.9750000
  61.0280000  96.3370000  32.2280000  61.1730000  97.0840000  33.0090000
  62.0310000  96.3270000  31.8360000  59.9630000  96.7900000  31.2300000
  59.5800000  95.9930000  30.5840000  59.0460000  96.9920000  31.7290000
  60.4180000  98.0210000  30.3580000  60.9320000  98.6910000  30.9750000
  61.0750000  97.7810000  29.5440000  59.2590000  98.8630000  29.7540000
  58.7200000  99.3490000  30.6010000  59.7190000  99.7200000  29.2810000
  58.3610000  98.1720000  28.6980000  58.9530000  98.0070000  27.8400000
  58.0180000  97.1810000  29.1530000  57.1330000  98.9230000  28.2510000
  56.3140000  98.9150000  28.9410000  57.5340000  99.9900000  28.1820000
  56.6230000  98.4200000  26.8360000  57.1770000  97.5690000  26.6440000
  55.5810000  98.1780000  26.7630000  57.0400000  99.4940000  25.8190000
  56.6390000 100.4400000  26.1320000  58.1050000  99.5410000  25.8420000
  56.6580000  99.3390000  24.3300000  55.7820000  98.6170000  23.8160000
  57.3840000 100.2270000  23.5940000  57.0600000 100.4670000  22.2230000
  57.6760000 101.3000000  21.8140000  57.1790000  99.5680000  21.6230000
  55.6190000 100.9770000  21.9710000  55.0050000 100.1680000  22.2830000
  55.5400000 101.4000000  20.4830000  55.8270000 100.6010000  19.8110000
  54.4880000 101.5610000  20.2040000  56.4190000 102.4310000  20.1130000
  55.9620000 103.9730000  20.0770000  56.9610000 104.7130000  21.0220000
  58.1680000 105.3580000  20.5790000  58.6990000 105.6420000  21.5250000
  58.7470000 104.7000000  19.9410000  57.8110000 106.6750000  19.8390000
  58.7290000 107.1790000  19.5690000  57.3190000 106.2890000  18.9080000
  56.8230000 107.6600000  20.3870000  56.9100000 107.6840000  21.9050000
  57.9230000 107.5260000  22.2630000  56.3920000 108.5040000  22.2910000
  56.4200000 106.8520000  22.3300000  57.2260000 109.0320000  20.1140000
  58.2800000 109.1060000  20.3380000  56.9800000 109.2770000  19.0740000
  56.5780000 109.6470000  20.7720000  55.4910000 107.2990000  19.8300000
  55.6380000 107.1090000  18.7360000  54.7470000 108.1280000  19.9660000
  55.2050000 106.3880000  20.2820000  56.0850000 104.4600000  18.6760000
  54.6810000 104.1590000  20.7480000  55.2940000 102.1370000  22.7940000
  54.0150000 102.5740000  23.0460000  53.0290000 102.0580000  22.6180000
  53.8200000 103.8220000  23.9400000  53.0160000 104.4890000  23.6430000
  54.7060000 104.4520000  23.9780000  53.4740000 103.3780000  25.4220000
  52.7240000 102.6120000  25.4240000  53.0420000 104.2580000  25.9320000
  54.6630000 102.7960000  26.1320000  55.4480000 103.5400000  26.1810000
  55.0070000 101.8630000  25.6440000  54.1890000 102.3040000  27.4580000
  53.6770000 101.3660000  27.3190000  53.4620000 102.9870000  27.8890000
  55.3900000 102.2100000  28.3740000  55.7570000 103.1770000  28.4950000
  56.1550000 101.6250000  27.8260000  55.0460000 101.5990000  29.7500000
  54.7730000 100.5560000  29.7340000  54.0140000 102.0400000  29.9970000
  56.1020000 101.9370000  30.8410000  56.2550000 102.9760000  30.8020000
  57.0050000 101.4420000  30.5470000  55.7570000 101.4830000  32.2050000
  54.7380000 101.2690000  32.4380000  56.5790000 101.2620000  33.2180000
  56.1930000 100.8220000  34.1220000  58.1040000 101.4120000  33.2830000
  58.4410000 102.3880000  33.6830000  58.4050000 101.3300000  32.1910000
  58.7360000 100.2480000  33.9990000  58.3820000  99.2590000  33.6990000
  58.5680000 100.4040000  35.0220000  60.2460000 100.2390000  33.7750000
  60.5880000 101.2760000  34.0060000  60.5210000 100.0990000  32.7500000
  60.8240000  99.2540000  34.8240000  60.7480000  98.1780000  34.5980000
  60.2290000  99.3130000  35.7480000  62.2680000  99.5790000  35.2690000
  62.2830000 100.2280000  36.1350000  62.8010000 100.0250000  34.4610000
  62.9860000  98.3110000  35.7260000  63.1890000  97.6670000  34.8690000
  62.1590000  97.8480000  36.2520000  64.2110000  98.5800000  36.5700000
  64.3730000  97.7030000  37.2010000  64.1710000  99.4210000  37.2820000
  65.4440000  98.8060000  35.6320000  65.1260000  99.4960000  34.8580000
  65.8140000  97.8340000  35.1780000  66.1950000  99.3090000  36.2190000
  31.7620000  57.4410000  36.5960000  30.9950000  57.5770000  37.3790000
  31.2680000  57.4910000  35.5920000  32.3740000  58.3560000  36.6680000
  32.6480000  56.1900000  36.7000000  33.2590000  56.3730000  37.5270000
  32.0400000  55.3310000  36.9240000  33.5420000  55.9550000  35.5270000
  34.1440000  55.1360000  35.8600000  32.9460000  55.7040000  34.7050000
  34.4420000  57.1860000  35.3040000  33.7780000  57.9320000  34.8030000
  34.9290000  57.5100000  36.2160000  35.4570000  56.8460000  34.2960000
  35.9870000  57.7920000  34.1570000  36.1220000  56.1100000  34.7720000
  35.1910000  56.4520000  32.8690000  36.0800000  56.4140000  32.2690000
  34.8020000  55.4750000  32.9000000  34.1430000  57.3700000  32.1290000
  33.1400000  57.3520000  32.6350000  34.4230000  58.4020000  32.2930000
  33.9550000  56.9400000  30.6100000  33.5630000  55.9800000  30.4850000
  33.1800000  57.5920000  30.1430000  35.2290000  56.9800000  29.7720000
  35.5270000  57.9920000  29.8020000  36.0810000  56.3920000  30.2320000
  35.0880000  56.5190000  28.2870000  34.2930000  57.1950000  27.9810000
  36.0520000  56.5770000  27.7540000  34.5860000  55.0140000  28.0950000
  33.6460000  54.8960000  28.6380000  34.3640000  55.0500000  27.0190000
  35.6140000  53.9280000  28.3930000  36.6180000  54.2340000  28.2230000
  35.5330000  53.7470000  29.4730000  35.3330000  52.6580000  27.5960000
  34.3830000  52.2330000  27.9750000  35.2520000  52.9400000  26.5090000
  36.3110000  51.4810000  27.7630000  36.4020000  51.3930000  28.8250000
  35.8410000  50.5810000  27.3150000  37.6360000  51.6960000  27.1690000
  38.0370000  52.6250000  27.4760000  38.2620000  50.8460000  27.5360000
  37.5350000  51.6560000  25.6400000  37.5030000  50.5860000  25.0670000
  37.4290000  52.8660000  25.0240000  37.2280000  52.8430000  23.6070000
  37.6410000  53.7560000  23.2560000  37.8060000  51.9780000  23.3160000
  35.7420000  52.5390000  23.3040000  35.4050000  51.7660000  24.0330000
  35.2730000  52.0790000  21.9420000  35.9440000  51.3750000  21.3930000
  34.2910000  51.6540000  21.9990000  35.1920000  53.1620000  20.9640000
  36.4480000  53.7400000  20.1840000  36.3350000  55.2910000  20.3930000
  36.5400000  55.9240000  21.6330000  35.7920000  55.6080000  22.3980000
  37.5620000  55.6640000  22.0110000  36.4800000  57.3910000  21.4420000
  36.8010000  57.9440000  22.3530000  37.1610000  57.6910000  20.6640000
  35.1420000  58.0720000  21.1500000  34.5980000  57.6860000  19.8240000
  35.1870000  58.2460000  19.0140000  34.7820000  56.6190000  19.7090000
  33.5530000  57.9180000  19.8250000  34.1080000  57.6170000  22.1710000
  34.4930000  58.0040000  23.1470000  33.1220000  58.0810000  22.0380000
  34.0940000  56.5780000  22.2940000  35.3360000  59.5630000  21.2980000
  36.0380000  59.8750000  20.5590000  35.8240000  59.8300000  22.2610000
  34.4810000  60.1310000  21.1700000  37.7030000  53.3140000  20.7890000
  36.1490000  53.4950000  18.7260000  34.9170000  53.6690000  23.5970000
  33.6270000  53.4510000  23.9640000  33.1110000  52.3630000  23.8920000
  33.0180000  54.6870000  24.5320000  32.6290000  55.3010000  23.7820000
  33.8140000  55.2760000  25.0200000  32.0080000  54.2140000  25.5660000
  32.5390000  53.4010000  26.1430000  31.1260000  53.8330000  25.0300000
  31.5420000  55.3840000  26.4620000  31.1470000  56.1290000  25.7730000
  32.4090000  55.8560000  26.9490000  30.4790000  54.9270000  27.5010000
  30.9680000  54.3880000  28.3030000  29.7430000  54.3730000  26.9720000
  29.7650000  56.1100000  28.2020000  29.2910000  56.8340000  27.5460000
  30.6040000  56.6730000  28.6000000  28.7350000  55.6400000  29.2700000
  27.8340000  55.2320000  28.8920000  28.4950000  56.5420000  29.8480000
  29.2750000  54.5640000  30.2490000  30.2790000  54.7390000  30.6230000
  29.2610000  53.5950000  29.6730000  28.3230000  54.5140000  31.3580000
  27.4190000  53.9820000  31.1660000  28.4040000  55.2000000  32.5000000
  27.6850000  54.9370000  33.2060000  29.4580000  56.1800000  32.9340000
  30.3320000  56.2440000  32.2810000  29.7710000  55.9060000  33.9080000
  28.8730000  57.5700000  32.8440000  27.8510000  57.4610000  33.0960000
  28.8250000  58.0060000  31.8800000  29.5940000  58.5060000  33.8310000
  30.6150000  58.5030000  33.3730000  29.5270000  58.0970000  34.8320000
  28.8560000  59.8310000  33.8180000  27.8200000  59.6050000  33.8310000
  29.0000000  60.2910000  32.8540000  29.3440000  60.8880000  34.9260000
  29.4490000  60.4070000  35.8490000  28.5980000  61.7040000  35.0450000
  30.6980000  61.5140000  34.5360000  30.4660000  62.1920000  33.7150000
  31.4240000  60.8010000  34.1270000  31.2970000  62.1370000  35.8230000
  31.2730000  61.4780000  36.6640000  30.7480000  62.9550000  36.2190000
  32.7420000  62.7140000  35.5380000  33.2140000  61.9330000  34.9250000
  33.3180000  62.8080000  36.5700000  32.5960000  63.7030000  35.0670000
  28.1410000  66.1850000  36.1970000  27.4760000  66.1370000  35.3360000
  27.5890000  66.7380000  36.9580000  28.4060000  65.1730000  36.5330000
  29.4090000  66.9960000  35.8180000  29.1010000  67.8490000  35.1610000
  29.9760000  67.3830000  36.6640000  30.3620000  66.2550000  34.8420000
  30.7310000  65.3500000  35.2330000  29.7540000  65.9030000  34.0230000
  31.4860000  67.1000000  34.2560000  31.0350000  67.9470000  33.7650000
  32.0280000  67.4790000  35.1440000  32.4340000  66.1950000  33.4500000
  32.7300000  65.3200000  34.0320000  31.7570000  65.8670000  32.6650000
  33.6250000  66.9490000  32.9210000  33.4110000  67.5790000  32.0910000
  33.9060000  67.6120000  33.7050000  34.7180000  65.9350000  32.6030000
  34.9260000  65.3580000  33.5470000  34.4100000  65.3060000  31.7870000
  36.0350000  66.5880000  32.3930000  36.1320000  67.1050000  31.4330000
  36.3460000  67.3820000  33.0850000  37.1510000  65.5370000  32.3520000
  37.1490000  65.0400000  33.3200000  36.9600000  64.9660000  31.5240000
  38.5480000  66.0020000  32.1910000  38.6340000  66.7450000  32.9690000
  39.2610000  65.1950000  32.3050000  38.8060000  66.7310000  30.8010000
  38.0240000  67.4250000  30.6080000  39.7280000  67.2640000  30.8360000
  38.7900000  65.7470000  29.5170000  39.6890000  65.2200000  29.6120000
  37.9850000  65.0600000  29.5240000  38.7510000  66.6330000  28.2230000
  37.7800000  67.0550000  28.1180000  39.4620000  67.5250000  28.2440000
  39.1550000  65.7600000  26.9920000  38.8460000  66.3160000  26.0230000
  40.2440000  65.7550000  26.9940000  38.5620000  64.3600000  26.8640000
  39.0240000  63.6070000  27.5230000  37.5160000  64.3130000  27.1270000
  38.7860000  63.8540000  25.4700000  39.7610000  63.2370000  25.1270000
  37.8340000  64.2310000  24.5920000  37.9730000  63.7890000  23.2380000
  38.8980000  64.1070000  22.8030000  38.0440000  62.6720000  23.3180000
  36.7450000  64.2100000  22.3580000  35.9130000  63.6420000  22.6730000
  36.9940000  64.1950000  20.7740000  36.8760000  63.1270000  20.4880000
  36.1220000  64.7410000  20.3140000  38.2500000  64.7560000  20.2260000
  38.0940000  65.9800000  19.2220000  39.5920000  66.5390000  19.1070000
  40.1400000  67.5020000  19.9770000  41.2020000  67.5730000  19.8040000
  39.6650000  68.4540000  19.7830000  39.8040000  67.0790000  21.4030000
  38.9090000  66.3880000  21.4730000  40.7040000  66.5900000  21.8020000
  39.6170000  68.1860000  22.4670000  40.8590000  69.0770000  22.5360000
  41.0350000  69.5880000  21.5920000  40.7870000  69.8530000  23.3030000
  41.7230000  68.3820000  22.7310000  38.4720000  69.0360000  22.0630000
  38.1460000  69.6260000  22.8800000  38.8120000  69.6810000  21.2400000
  37.6820000  68.4080000  21.5990000  39.3060000  67.5290000  23.7830000
  38.4390000  66.9070000  23.6210000  39.2530000  68.4010000  24.5410000
  40.1220000  66.8920000  24.0330000  37.7920000  65.3880000  17.8860000
  37.3060000  67.0740000  19.7640000  36.5620000  65.6310000  22.6830000
  35.3250000  66.0770000  22.3990000  34.4320000  65.4270000  21.8930000
  35.0640000  67.4730000  22.9580000  34.4730000  68.0650000  22.3330000
  36.0090000  68.0370000  23.0350000  34.4740000  67.2570000  24.3570000
  35.2740000  66.8510000  25.0220000  33.6930000  66.5090000  24.3720000
  33.7370000  68.4350000  24.9920000  33.0070000  68.8660000  24.2750000
  34.4290000  69.1500000  25.1850000  33.0400000  67.9870000  26.3390000
  32.3650000  67.2280000  26.1980000  32.4190000  68.8730000  26.6320000
  34.0680000  67.5010000  27.3460000  34.8520000  68.2220000  27.3750000
  34.4970000  66.5930000  26.8610000  33.5940000  67.1620000  28.7220000
  33.3520000  68.0950000  29.2420000  34.4920000  66.7280000  29.2390000
  32.4860000  66.0740000  28.9520000  32.3660000  65.8320000  30.0120000
  32.8300000  65.1700000  28.5090000  31.1910000  66.4310000  28.3300000
  30.9450000  65.8390000  27.4790000  30.2930000  67.2650000  28.8510000
  29.3890000  67.4720000  28.3290000  30.4030000  67.9300000  30.3070000
  30.9730000  67.2190000  30.9500000  29.3520000  68.0800000  30.6020000
  30.9720000  69.3890000  30.3070000  30.4420000  69.9890000  29.5640000
  31.9800000  69.5090000  30.0370000  30.7020000  70.0630000  31.6490000
  31.4120000  69.6580000  32.3900000  29.6990000  69.7530000  31.9180000
  30.8450000  71.5680000  31.5530000  30.3360000  71.8880000  30.6030000
  31.9210000  71.8290000  31.4400000  30.2490000  72.3870000  32.7050000
  30.4320000  71.9380000  33.6820000  29.1900000  72.3750000  32.6120000
  30.7440000  73.8940000  32.5890000  30.5490000  74.3720000  31.6270000
  31.8100000  73.7810000  32.6380000  30.3080000  74.8920000  33.7220000
  29.2230000  75.0010000  33.7340000  30.9230000  75.8190000  33.7970000
  30.5830000  74.2660000  35.0490000  30.4420000  74.9100000  35.8920000
  31.6120000  73.8590000  35.0980000  29.9870000  73.3810000  35.2820000
  36.6680000  40.7620000  35.3450000  37.5260000  41.2100000  35.8790000
  36.7620000  39.6890000  35.2300000  35.7200000  40.9420000  35.8610000
  36.5760000  41.4090000  33.9290000  35.8710000  40.8570000  33.3070000
  36.0980000  42.3900000  34.0190000  38.0120000  41.5500000  33.2880000
  38.3760000  40.5310000  33.0340000  37.9720000  42.0860000  32.3620000
  39.1610000  42.2660000  34.0830000  39.2970000  41.7390000  35.0300000
  40.0970000  42.3910000  33.4650000  38.7270000  43.6820000  34.5090000
  37.7600000  43.6090000  35.0210000  39.5430000  44.0310000  35.1110000
  38.4420000  44.7160000  33.3850000  39.3630000  44.9230000  32.8980000
  37.6710000  44.2580000  32.6850000  37.7930000  46.1010000  33.7400000
  36.8090000  45.9380000  34.1800000  38.3800000  46.6160000  34.4930000
  37.6540000  47.0830000  32.6390000  37.0600000  46.6660000  31.8360000
  37.0610000  47.8780000  33.0440000  39.0020000  47.5810000  32.0260000
  39.5850000  48.2180000  32.6780000  39.7100000  46.7560000  31.7360000
  38.8260000  48.4500000  30.7400000  38.4650000  49.4060000  31.0820000
  39.7890000  48.6120000  30.3310000  37.8540000  47.7700000  29.6360000
  36.7520000  47.9330000  29.8530000  38.1220000  48.3520000  28.7050000
  38.2820000  46.3150000  29.3580000  39.2920000  46.1930000  29.1320000
  38.1460000  45.8060000  30.2930000  37.4590000  45.6320000  28.2490000
  36.4500000  45.9630000  28.3340000  37.7790000  46.0880000  27.2790000
  37.4280000  44.1260000  28.2670000  37.2080000  43.7620000  29.2800000
  36.5650000  43.7570000  27.6930000  38.6570000  43.4420000  27.6530000
  39.5040000  44.1110000  27.7330000  38.9740000  42.5090000  28.1890000
  38.5320000  43.1210000  26.2250000  38.0880000  42.0890000  25.7490000
  38.9580000  44.1250000  25.4850000  38.6920000  44.0610000  24.1100000
  39.2310000  44.8940000  23.7040000  39.0220000  43.0920000  23.6250000
  37.2240000  44.3950000  23.7290000  36.5800000  43.7050000  24.3440000
  37.1000000  44.0230000  22.2730000  37.4740000  43.0210000  22.0320000
  35.9950000  43.9740000  21.9870000  37.7090000  45.0140000  21.3970000
  37.0540000  45.2580000  19.9680000  35.6500000  45.9300000  20.2220000
  34.4440000  45.2630000  20.5260000  34.5760000  44.1520000  20.3090000
  34.1960000  45.3280000  21.6060000  33.3760000  45.9980000  19.6860000
  32.3700000  45.6750000  19.9850000  33.4460000  47.0510000  19.7690000
  33.5100000  45.8010000  18.1590000  34.6070000  46.7600000  17.5760000
  34.5880000  46.6280000  16.5060000  34.1670000  47.6890000  17.8240000
  35.5830000  46.5180000  17.9980000  33.8360000  44.3300000  17.8260000
  34.6830000  43.9730000  18.3560000  32.8830000  43.7530000  17.9570000
  34.0960000  44.3420000  16.7720000  32.1750000  46.1770000  17.5300000
  31.3970000  45.8430000  18.1410000  32.2630000  45.6800000  16.5050000
  32.0350000  47.3000000  17.5010000  37.9450000  46.1720000  19.2780000
  36.7810000  43.9410000  19.4190000  36.9230000  45.7990000  23.8840000
  35.7470000  46.1860000  24.2670000  34.8080000  45.4640000  24.4060000
  35.8210000  47.6590000  24.5340000  36.0230000  48.1930000  23.6450000
  36.6580000  47.6730000  25.1540000  34.6390000  48.2880000  25.2680000
  33.6110000  48.1140000  24.8150000  34.7750000  49.3200000  25.1400000
  34.5830000  48.1410000  26.8100000  33.9520000  48.9170000  27.1870000
  35.5640000  48.3460000  27.3000000  33.9220000  46.9470000  27.4110000
  34.6510000  46.1740000  27.2810000  32.9930000  46.7250000  26.8320000
  33.6280000  47.1090000  28.9110000  33.1730000  48.0580000  29.1560000
  34.4690000  47.0670000  29.5160000  32.6670000  45.9820000  29.4020000
  31.7770000  46.0240000  28.7600000  32.2960000  46.2680000  30.3830000
  33.3390000  44.6070000  29.5550000  34.1970000  44.6950000  30.1810000
  33.6340000  44.2460000  28.5850000  32.2710000  43.6030000  30.0560000
  31.3780000  43.4930000  29.4620000  32.3520000  42.9260000  31.1540000
  31.5530000  42.2640000  31.5050000  33.3900000  43.0710000  32.2410000
  34.0670000  43.8100000  32.0270000  33.8750000  42.0820000  32.4530000
  32.6600000  43.4720000  33.5510000  31.8380000  42.7690000  33.7190000
  32.2850000  44.4790000  33.4710000  33.6790000  43.4560000  34.6770000
  34.6050000  43.9290000  34.3980000  33.9200000  42.4430000  35.0030000
  33.1030000  44.2130000  35.9050000  32.1630000  43.6910000  36.2300000
  32.7040000  45.2240000  35.6430000  34.0380000  44.2120000  37.1560000
  34.3570000  43.1920000  37.3990000  33.5370000  44.5350000  38.0490000
  35.3210000  44.9830000  36.9240000  35.9520000  44.5980000  36.0530000
  35.9130000  44.8310000  37.7870000  35.0880000  46.5000000  36.5210000
  34.5610000  46.6060000  35.5990000  35.9920000  47.0860000  36.4380000
  34.3160000  47.1910000  37.6480000  34.7500000  47.0100000  38.6090000
  33.3910000  46.7420000  37.7160000  34.1720000  48.2780000  37.4820000
  30.7510000  30.9320000  28.2370000  30.6460000  30.1150000  28.9990000
  30.2490000  30.6020000  27.3570000  30.1260000  31.7550000  28.6080000
  32.2680000  31.1800000  27.9580000  32.3400000  31.9640000  27.1880000
  32.7120000  31.6200000  28.9150000  33.0270000  29.8920000  27.4920000
  34.0590000  29.9520000  27.7760000  32.5770000  29.1160000  28.1530000
  32.7590000  29.5720000  26.0360000  33.1500000  28.5590000  25.8850000
  31.6830000  29.3920000  25.9140000  33.2750000  30.5190000  24.8940000
  32.7860000  31.4430000  25.0670000  34.3380000  30.7400000  24.9150000
  32.8640000  30.0640000  23.4930000  33.0470000  28.9980000  23.3430000
  31.8050000  30.1880000  23.3840000  33.5670000  30.7780000  22.3220000
  34.6310000  30.8410000  22.5260000  33.5810000  30.2130000  21.3590000
  32.9900000  32.1620000  22.1490000  32.9620000  32.6950000  23.1130000
  33.5830000  32.7320000  21.4180000  31.5460000  32.0070000  21.5410000
  31.6210000  32.0650000  20.4580000  31.0570000  31.1240000  21.7940000
  30.6040000  33.2070000  21.9760000  31.1180000  34.1380000  21.6280000
  29.7110000  33.1180000  21.3270000  30.1400000  33.2650000  23.4730000
  31.0260000  33.4570000  24.0620000  29.5440000  34.1110000  23.7080000
  29.3040000  32.0760000  23.8430000  28.5000000  31.9430000  23.1420000
  29.9380000  31.1790000  23.7540000  28.7110000  32.1340000  25.2690000
  29.4750000  32.0670000  25.9700000  28.1990000  33.1150000  25.2570000
  27.6420000  31.1040000  25.6900000  27.9890000  30.0820000  25.7140000
  27.5830000  31.3550000  26.7540000  26.2990000  31.2610000  25.0040000
  25.5630000  30.7700000  25.6620000  25.9680000  32.3140000  24.9710000
  26.2120000  30.8190000  23.5440000  26.1940000  29.6360000  23.2960000
  26.0780000  31.8260000  22.6070000  25.6850000  31.4750000  21.2830000
  26.0130000  32.2790000  20.5800000  26.2260000  30.6080000  20.9470000
  24.1570000  31.2390000  21.2060000  23.8500000  30.3880000  21.7680000
  23.7080000  30.8430000  19.7510000  23.9930000  29.8380000  19.6030000
  22.6260000  30.8690000  19.5330000  24.4400000  31.5220000  18.7020000
  24.0890000  31.1250000  17.2500000  25.2360000  30.0440000  16.8710000
  26.5670000  30.5210000  16.5290000  27.0140000  29.6750000  16.0840000
  26.5220000  31.3980000  15.8230000  27.3130000  30.8450000  17.8480000
  26.7690000  31.5350000  18.4400000  27.5510000  29.9450000  18.4820000
  28.6430000  31.5960000  17.5950000  29.2370000  31.9380000  18.9210000
  30.2440000  32.3440000  18.7510000  28.5250000  32.7640000  19.2520000
  29.2870000  31.1290000  19.5870000  29.6090000  30.7580000  16.8390000
  29.8530000  29.8730000  17.4770000  29.1870000  30.3290000  15.9660000
  30.5330000  31.2670000  16.6800000  28.4130000  32.8920000  16.9010000
  27.5210000  33.3820000  17.3920000  28.3650000  32.7780000  15.8090000
  29.3170000  33.4780000  17.1220000  22.7640000  30.5320000  17.2170000
  24.3760000  32.3960000  16.5150000  23.3990000  32.3990000  21.6690000
  23.1300000  32.4550000  23.0460000  23.4690000  31.6030000  23.8480000
  22.2180000  33.5820000  23.3940000  21.2480000  33.1640000  23.4900000
  22.1640000  34.2780000  22.6120000  22.4770000  34.3800000  24.6750000
  21.7640000  35.1760000  24.7740000  23.4740000  34.8650000  24.6510000
  22.1520000  33.5460000  25.9690000  22.8370000  32.6970000  26.0200000
  21.1990000  33.0050000  25.8420000  22.1580000  34.1830000  27.3750000
  21.9550000  33.3730000  28.0560000  21.2620000  34.8490000  27.2560000
  23.4200000  34.9900000  27.6830000  23.0850000  35.5340000  28.6300000
  23.5820000  35.7170000  26.8510000  24.5610000  34.0170000  28.0100000
  25.4290000  34.5660000  28.3590000  24.8070000  33.5220000  27.1000000
  24.2840000  33.0710000  29.1550000  23.4490000  32.4060000  28.9760000
  24.1510000  33.5740000  30.1220000  25.5080000  32.2340000  29.1960000
  25.9600000  32.0090000  28.2160000  26.1040000  31.7290000  30.2170000
  27.0560000  31.2460000  30.0530000  25.6040000  31.7750000  31.6510000
  25.1620000  30.8340000  31.9260000  24.8630000  32.5500000  31.7530000
  26.8320000  31.9670000  32.5510000  27.3690000  32.7950000  32.1720000
  27.5330000  31.1160000  32.4710000  26.6040000  32.2690000  34.0060000
  27.5670000  32.5120000  34.3460000  26.1460000  31.4090000  34.4870000
  25.7450000  33.4460000  34.3160000  24.7440000  33.2720000  33.9120000
  26.0810000  34.3470000  33.8310000  25.7060000  33.7050000  35.7860000
  26.7430000  33.9600000  36.0540000  25.5650000  32.7220000  36.3010000
  24.5600000  34.6370000  36.1400000  23.6840000  34.4070000  35.6300000
  24.9330000  35.5920000  35.8980000  24.1580000  34.5450000  37.5860000
  23.8170000  33.5650000  37.9480000  23.4310000  35.3580000  37.7610000
  25.4530000  34.8950000  38.4520000  25.7360000  35.9060000  38.1440000
  26.0950000  34.0830000  38.2420000  25.1500000  34.9120000  39.4920000
  13.5300000 114.7950000  27.6900000  13.8950000 113.7260000  27.8460000
  14.4230000 115.4470000  27.5430000  12.9450000 114.6600000  26.8720000
  12.5630000 115.1910000  28.8050000  13.1070000 115.7020000  29.5940000
  11.8100000 115.8830000  28.4250000  11.7070000 114.0220000  29.4070000
  12.3340000 113.1100000  29.5120000  11.4800000 114.2450000  30.4560000
  10.3700000 113.7200000  28.6940000   9.5930000 114.5140000  28.9720000
  10.3850000 113.7290000  27.5960000   9.8220000 112.3260000  29.2690000
  10.6790000 111.7030000  28.9820000   9.5940000 112.3410000  30.2920000
   8.5910000 111.7320000  28.5010000   7.7030000 112.3060000  28.6050000
   8.8280000 111.5590000  27.4200000   8.3670000 110.2850000  29.1360000
   8.3610000 110.3600000  30.2600000   7.4310000 109.9350000  28.7630000
   9.4550000 109.2360000  28.7190000  10.3420000 109.3670000  29.3040000
   9.1250000 108.2620000  28.9940000   9.6430000 109.0290000  27.2050000
   8.6800000 108.7810000  26.7720000   9.9640000 109.9780000  26.8180000
  10.6250000 107.8660000  26.8660000  10.2610000 106.9600000  27.5060000
  10.5930000 107.6760000  25.8080000  12.1270000 108.1380000  27.1730000
  12.2130000 108.2860000  28.2460000  12.6220000 107.2510000  26.7660000
  12.6500000 109.4160000  26.4550000  12.6180000 109.2230000  25.3530000
  12.0850000 110.3330000  26.7160000  14.0890000 109.8440000  26.7590000
  14.0670000 109.9520000  27.7840000  14.8160000 109.0350000  26.5560000
  14.5240000 111.2040000  25.9580000  13.7710000 112.0030000  26.0560000
  15.4770000 111.5990000  26.4120000  14.8070000 110.9730000  24.4860000
  13.8710000 110.9440000  23.8970000  15.3110000 111.8330000  24.0530000
  15.8580000 109.8640000  24.1730000  16.9570000 109.8380000  24.6920000
  15.4390000 108.9100000  23.3850000  16.1520000 107.7060000  23.4960000
  17.1710000 107.8010000  23.1500000  16.0920000 107.3840000  24.5500000
  15.5250000 106.5570000  22.7080000  16.0780000 105.6900000  22.9430000
  15.6190000 106.9020000  21.3020000  15.4450000 107.9560000  21.2360000
  16.5500000 106.5700000  20.9870000  14.5700000 106.1750000  20.5870000
  14.7180000 105.6810000  19.0040000  13.7700000 106.6200000  18.1400000
  14.2060000 107.9660000  17.7930000  15.3290000 107.9330000  17.6590000
  13.7360000 108.1550000  16.8110000  13.7820000 108.8290000  18.9920000
  12.7330000 109.0120000  18.8800000  13.8520000 108.3020000  19.8980000
  14.4630000 110.1740000  19.1120000  15.9810000 109.8260000  19.3820000
  16.0650000 109.6940000  20.4120000  16.3850000 108.9610000  18.7900000
  16.5450000 110.7560000  19.3320000  14.1650000 110.9820000  17.9190000
  13.1720000 111.4200000  18.0000000  14.8690000 111.8440000  17.8880000
  14.3560000 110.3980000  17.0390000  14.0350000 111.0330000  20.3240000
  14.4840000 110.5840000  21.2000000  12.9630000 111.0670000  20.4060000
  14.3570000 112.0630000  20.0490000  16.0960000 105.8880000  18.6490000
  14.2050000 104.3230000  18.8710000  14.1610000 106.4990000  23.1420000
  13.5680000 105.2740000  23.0710000  14.2470000 104.2640000  23.1490000
  11.9970000 105.3290000  23.1330000  11.8110000 105.7410000  22.1250000
  11.6890000 105.9250000  23.9350000  11.4060000 103.8850000  23.2900000
  11.7860000 103.2860000  22.4400000  10.3430000 103.9420000  23.0740000
  11.7810000 103.1900000  24.5570000  12.8220000 103.0680000  24.6400000
  11.3320000 102.1690000  24.5400000  11.2820000 103.9110000  25.8630000
  10.2600000 104.3220000  25.7820000  11.8830000 104.8460000  26.0390000
  11.4450000 103.0510000  27.2110000  12.4620000 102.7100000  27.4400000
  10.8280000 102.1580000  26.9480000  10.8610000 103.8780000  28.4360000
  11.2210000 104.9020000  28.5980000   9.7550000 103.9790000  28.2540000
  11.1390000 103.1830000  29.8060000  12.0270000 103.6160000  30.2310000
  11.2850000 102.0970000  29.8040000   9.9750000 103.5010000  30.7530000
   9.0370000 103.1250000  30.3800000  10.0220000 104.0850000  31.8920000
   9.0930000 104.2200000  32.5140000  11.2740000 104.7180000  32.4420000
  11.0770000 105.6750000  32.9760000  11.9540000 104.9700000  31.6000000
  11.9650000 103.8110000  33.4920000  12.8060000 104.3080000  33.9730000
  12.2930000 102.8510000  33.0120000  11.0600000 103.5000000  34.6810000
  10.1420000 103.0110000  34.2940000  10.6970000 104.3550000  35.3030000
  11.9240000 102.5870000  35.5940000  12.8950000 103.0490000  35.7770000
  12.1990000 101.6350000  35.1430000  11.2270000 102.3010000  36.9610000
  11.2330000 103.3280000  37.4590000  11.9270000 101.6690000  37.4960000
   9.8360000 101.7240000  36.9850000   9.1450000 102.6330000  36.8030000
   9.6470000 101.4810000  38.0210000   9.5540000 100.5170000  36.0090000
  10.5250000  99.9690000  36.0330000   9.3860000 100.8660000  35.0000000
   8.4250000  99.6070000  36.4470000   8.5890000  99.4490000  37.5590000
   8.5150000  98.6170000  35.9130000   7.4680000 100.1180000  36.2920000
  13.2800000 100.1480000  30.5680000  13.2110000 100.1480000  29.4450000
  12.2590000 100.2200000  30.9440000  13.5830000  99.1250000  30.9360000
  14.1150000 101.3570000  31.1030000  13.6690000 102.3390000  30.9590000
  14.2070000 101.3100000  32.2040000  15.5060000 101.3560000  30.4210000
  15.3640000 100.8720000  29.4160000  15.8830000 102.2870000  30.1860000
  16.6690000 100.6340000  31.0840000  17.0740000 101.1880000  31.9180000
  16.3340000  99.6450000  31.4030000  17.8700000 100.3940000  30.0890000
  17.5650000  99.7550000  29.3080000  18.1950000 101.3340000  29.7550000
  19.0790000  99.8680000  30.8240000  19.2530000 100.4250000  31.7350000
  18.7350000  98.9050000  31.1680000  20.3370000  99.7170000  29.9810000
  20.4820000 100.6410000  29.3680000  21.2040000  99.6360000  30.7110000
  20.2750000  98.5310000  29.1230000  20.3760000  97.5980000  29.7430000
  19.3780000  98.6050000  28.4740000  21.3840000  98.5620000  28.0290000
  21.4910000  99.5440000  27.4830000  22.3850000  98.4280000  28.4280000
  21.1460000  97.4160000  27.0330000  20.2030000  97.3750000  26.6800000
  21.7180000  97.5610000  26.0440000  21.3650000  95.9850000  27.6270000
  20.6610000  95.8220000  28.4000000  21.1730000  95.2090000  26.9280000
  22.8340000  95.7670000  28.0970000  22.9960000  96.4640000  28.8910000
  22.9270000  94.8100000  28.5170000  23.8780000  95.9390000  27.0430000
  23.7400000  95.1080000  26.4040000  23.7080000  96.8400000  26.4970000
  25.3410000  95.8660000  27.4370000  25.5460000  96.6890000  28.1190000
  25.4630000  94.8860000  28.0120000  26.4370000  95.8160000  26.3100000
  26.4410000  96.6680000  25.6540000  27.3920000  95.6740000  26.8400000
  26.2310000  94.6490000  25.4790000  25.9320000  93.5930000  25.9830000
  26.3870000  94.8950000  24.1600000  26.0310000  93.8180000  23.2520000
  26.6250000  94.0570000  22.3520000  26.3360000  92.8210000  23.5320000
  24.5660000  93.7810000  22.8770000  24.2690000  93.0710000  22.1300000
  24.2990000  95.0890000  22.2090000  23.2850000  95.3660000  22.5160000
  25.0610000  95.7900000  22.5430000  24.3450000  95.0610000  20.7990000
  22.9890000  95.0170000  19.8960000  22.4520000  93.5550000  20.2130000
  23.1100000  92.4850000  19.6260000  22.7770000  92.3900000  18.6050000
  24.2000000  92.6890000  19.6220000  22.9240000  91.1500000  20.4210000
  23.4380000  90.3250000  19.9190000  23.2990000  91.3820000  21.3990000
  21.4860000  90.7620000  20.6160000  21.5200000  89.5510000  21.4670000
  20.4620000  89.2790000  21.7560000  21.8500000  88.7190000  20.8930000
  21.9720000  89.6530000  22.4230000  20.5920000  91.7440000  21.2680000
  19.6510000  91.2230000  21.6060000  21.1860000  92.1800000  22.1200000
  20.3710000  92.4740000  20.5040000  20.8760000  90.2950000  19.3700000
  20.9180000  91.0900000  18.6140000  19.8450000  90.0200000  19.4820000
  21.4290000  89.4010000  19.0150000  22.0090000  95.9810000  20.3490000
  23.3720000  95.1050000  18.4660000  23.6870000  93.6550000  24.0180000
  23.1020000  92.4790000  24.3010000  23.1130000  91.5010000  23.5620000
  22.2770000  92.5700000  25.5990000  21.5060000  93.2350000  25.3610000
  22.9050000  93.0140000  26.4170000  21.8500000  91.2270000  26.1620000
  22.7030000  90.6700000  26.6080000  21.3460000  90.7520000  25.3680000
  20.9260000  91.3110000  27.3680000  20.7270000  90.3050000  27.8100000
  20.0660000  91.7310000  26.9040000  21.2770000  92.2520000  28.5720000
  21.4310000  93.2930000  28.2800000  22.2310000  91.9400000  29.0300000
  20.2070000  92.2120000  29.7050000  20.0890000  91.1590000  29.9230000
  19.2550000  92.5290000  29.3010000  20.4780000  92.7660000  31.1100000
  21.3930000  92.2940000  31.5850000  19.6320000  92.5420000  31.6800000
  20.6850000  94.2670000  31.1480000  19.8060000  94.8240000  30.7680000
  21.5360000  94.6260000  30.4900000  21.1830000  94.6570000  32.4920000
  22.0810000  94.1620000  32.8930000  20.8090000  95.6900000  33.2120000
  21.4060000  95.8210000  34.0940000  19.7170000  96.6860000  32.9420000
  19.3480000  96.5040000  31.9270000  20.1540000  97.6450000  32.9930000
  18.6000000  96.6110000  33.9750000  19.0620000  96.8770000  34.9600000
  18.1720000  95.6110000  34.0650000  17.4680000  97.6230000  33.5370000
  17.0010000  97.0940000  32.7170000  17.9290000  98.5450000  33.2470000
  16.5210000  97.7200000  34.7110000  17.1670000  98.1230000  35.5460000
  16.1410000  96.7210000  35.0640000  15.2830000  98.5530000  34.4800000
  15.5020000  99.5240000  34.1190000  14.8730000  98.7780000  35.4350000
  14.2890000  97.9130000  33.4580000  14.2150000  96.8710000  33.6760000
  14.6350000  98.0740000  32.3980000  12.8180000  98.5820000  33.5970000
  12.9430000  99.6620000  33.2330000  12.5690000  98.6920000  34.7210000
  11.7590000  97.7370000  32.8360000  12.2730000  97.5120000  31.8960000
  10.8450000  98.2510000  32.5790000  11.4710000  96.8920000  33.4450000
 135.8790000  34.8360000  37.1570000 136.6580000  34.4910000  37.7430000
 135.2140000  35.4800000  37.6370000 136.3180000  35.3970000  36.3400000
 135.3330000  33.4820000  36.5460000 136.1990000  32.9320000  36.1470000
 134.9840000  32.9670000  37.4730000 134.2090000  33.8160000  35.5080000
 133.4420000  33.0150000  35.5850000 133.7130000  34.7290000  35.6900000
 134.7680000  33.8320000  34.0080000 135.1870000  34.7670000  33.8470000
 135.5800000  33.0760000  33.9980000 133.6220000  33.6200000  32.9290000
 133.0660000  32.7870000  33.3030000 132.9500000  34.4640000  32.8760000
 134.1970000  33.3430000  31.4920000 134.6550000  34.2110000  31.0450000
 135.0530000  32.6070000  31.4450000 132.9880000  32.9280000  30.6450000
 132.6660000  31.9700000  31.0600000 132.1530000  33.6420000  30.7500000
 133.2380000  32.7960000  29.1340000 133.8260000  31.8570000  29.0520000
 132.2470000  32.5930000  28.6460000 134.0680000  33.9220000  28.4510000
 133.6040000  34.8590000  28.8540000 135.1540000  34.0000000  28.8510000
 134.1210000  33.8960000  26.8910000 133.1720000  33.5520000  26.4850000
 134.2300000  34.9660000  26.5290000 135.3040000  32.9990000  26.3810000
 135.3850000  32.0250000  26.9000000 135.1050000  32.6080000  25.3170000
 136.7110000  33.7400000  26.4550000 136.6090000  34.6220000  25.8370000
 136.9350000  34.1320000  27.4920000 137.8290000  32.8790000  25.8290000
 138.0180000  32.0160000  26.4680000 137.4600000  32.5970000  24.8830000
 139.1440000  33.6260000  25.5050000 139.6500000  34.0000000  26.4080000
 139.8080000  32.7890000  25.0640000 138.8600000  34.8750000  24.5620000
 137.9380000  34.6180000  24.0780000 138.6870000  35.7810000  25.1800000
 139.9960000  35.0960000  23.6270000 141.1550000  34.9950000  23.9320000
 139.5680000  35.3240000  22.3960000 140.5670000  35.1420000  21.3340000
 140.1430000  35.4990000  20.3450000 141.4240000  35.8330000  21.5550000
 140.9390000  33.6850000  21.2410000 141.7390000  33.5500000  21.9250000
 141.3350000  33.3980000  19.8130000 142.1160000  34.0970000  19.6050000
 141.8730000  32.4350000  19.6440000 140.2970000  33.5150000  18.8020000
 139.5370000  32.3050000  18.0960000 140.3260000  31.9100000  16.7220000
 140.2950000  32.8070000  15.5700000 140.1240000  32.3990000  14.5920000
 139.5050000  33.5600000  15.8020000 141.5920000  33.6010000  15.6180000
 141.6600000  34.4160000  14.8440000 141.6950000  34.1940000  16.5930000
 142.8400000  32.7980000  15.5980000 143.1780000  32.3400000  16.9600000
 143.3610000  33.1630000  17.6490000 142.4090000  31.6570000  17.3260000
 144.0860000  31.7250000  16.7420000 142.8520000  31.6170000  14.6840000
 142.4500000  31.9440000  13.7410000 143.8790000  31.3310000  14.6000000
 142.2770000  30.8530000  15.1270000 143.9690000  33.6670000  15.2120000
 144.8790000  33.0730000  15.1100000 144.0560000  34.4900000  15.9940000
 143.5880000  34.1030000  14.2920000 139.7320000  31.2000000  18.9750000
 138.1900000  32.6870000  17.7180000 139.7440000  32.8110000  21.4370000
 139.9100000  31.5990000  21.9160000 140.9980000  31.1560000  21.9790000
 138.7200000  31.0110000  22.6840000 138.0650000  30.3420000  21.9780000
 138.1190000  31.8750000  23.0690000 139.1510000  30.1840000  23.9670000
 139.6570000  30.8440000  24.6990000 139.8960000  29.3820000  23.6900000
 137.9610000  29.6200000  24.7470000 137.1660000  30.3810000  24.9060000
 138.3560000  29.3200000  25.7510000 137.0650000  28.5200000  24.1580000
 137.7750000  27.9380000  23.4780000 136.2700000  28.9430000  23.6590000
 136.4340000  27.5480000  25.2100000 135.8340000  28.1230000  25.9290000
 137.2590000  27.0220000  25.6950000 135.5280000  26.5960000  24.5250000
 136.0590000  25.9290000  23.8410000 134.7640000  27.1450000  23.9400000
 134.7370000  25.6790000  25.5500000 133.9300000  25.1030000  25.0190000
 134.1980000  26.3870000  26.1300000 135.6560000  24.6430000  26.2760000
 135.9410000  23.8560000  25.5570000 136.1910000  24.8470000  27.4350000
 136.8960000  24.1240000  27.8280000 135.7730000  25.9080000  28.4310000
 135.4880000  25.4440000  29.3670000 134.9180000  26.5190000  28.1140000
 137.0890000  26.6500000  28.6200000 137.4790000  27.0480000  27.7380000
 137.9070000  25.9800000  29.0160000 136.9230000  27.7770000  29.6730000
 137.9750000  27.9070000  30.1810000 136.1210000  27.4620000  30.3790000
 136.5590000  29.1450000  29.0120000 135.5690000  29.1060000  28.4420000
 137.4010000  29.3560000  28.2540000 136.5290000  30.3460000  29.9650000
 135.7670000  30.0820000  30.7730000 136.1600000  31.2400000  29.3700000
 137.9120000  30.8010000  30.5340000 138.2110000  31.5760000  29.8590000
 138.6620000  30.0270000  30.5500000 137.7290000  31.2210000  32.0230000
 136.8430000  31.8480000  32.1110000 138.5620000  31.8840000  32.3200000
 137.5850000  30.0890000  33.0790000 137.1630000  30.5550000  33.9610000
 138.6050000  29.7040000  33.2140000 136.9460000  29.2460000  32.6890000
   1.8940000  77.3440000  38.5980000   1.7970000  77.6820000  39.6390000
   2.2420000  76.3470000  38.5460000   0.9630000  77.4000000  38.2540000
   2.8900000  78.2330000  37.7870000   2.6080000  79.2630000  37.8160000
   3.8320000  78.2410000  38.2660000   2.9490000  77.6700000  36.3260000
   3.6810000  76.9160000  36.3090000   1.9430000  77.3390000  36.0330000
   3.4680000  78.7640000  35.3000000   4.4480000  79.1070000  35.4820000
   3.4430000  78.3500000  34.2950000   2.5760000  80.0180000  35.2800000
   1.5350000  79.6700000  35.3550000   2.6870000  80.4170000  36.2910000
   2.7650000  81.1020000  34.1950000   2.5990000  80.6340000  33.2220000
   2.0040000  81.8470000  34.2140000   4.0290000  81.9070000  34.2890000
   3.9370000  82.7460000  34.9870000   4.7740000  81.1850000  34.6470000
   4.3710000  82.5550000  32.9000000   3.6050000  83.1990000  32.5190000
   5.1210000  83.2740000  33.1930000   4.8290000  81.5940000  31.8600000
   5.5770000  80.9180000  32.2580000   3.9830000  81.0330000  31.5020000
   5.5170000  82.3330000  30.7050000   6.1120000  83.2010000  31.0720000
   6.2070000  81.6140000  30.2140000   4.4410000  82.7790000  29.6090000
   3.7540000  81.9070000  29.4670000   3.7810000  83.5570000  29.9850000
   5.1300000  83.4490000  28.3690000   4.3190000  83.9240000  27.8930000
   5.8150000  84.2330000  28.6770000   5.7300000  82.4050000  27.4460000
   6.6550000  82.0390000  27.9010000   5.1360000  81.5830000  27.2140000
   6.0680000  82.9550000  26.1150000   6.5840000  83.9450000  26.1970000
   6.6300000  82.2180000  25.6070000   4.8400000  83.1890000  25.2180000
   4.3990000  82.1800000  25.0900000   4.1830000  83.9300000  25.7210000
   5.3080000  83.7990000  23.9020000   5.3390000  83.1410000  22.8870000
   5.7950000  85.0490000  24.0380000   6.3740000  85.6240000  22.8000000
   6.6200000  86.6410000  23.1320000   7.2790000  85.0160000  22.4550000
   5.3230000  85.9390000  21.6830000   4.9980000  85.0640000  21.1210000
   6.0520000  86.8750000  20.6910000   5.3920000  87.3880000  19.9610000
   6.5370000  87.7000000  21.3120000   6.8750000  86.0820000  19.9080000
   6.4790000  85.3120000  18.5300000   6.5990000  86.4630000  17.4770000
   7.8790000  86.6320000  16.9200000   8.3200000  85.7000000  16.5200000
   7.9450000  87.3130000  16.1050000   8.7460000  87.2100000  18.0680000
   8.3220000  88.1640000  18.3280000   8.7130000  86.5880000  18.9390000
  10.1820000  87.3170000  17.8540000  10.8610000  86.0260000  17.5270000
  11.9420000  86.1010000  17.6760000  10.4380000  85.2740000  18.1030000
  10.6540000  85.9110000  16.5050000  10.4520000  88.2610000  16.7200000
  11.5220000  88.4010000  16.6690000  10.1140000  87.8430000  15.7180000
   9.9430000  89.1740000  16.9410000  10.7890000  87.9050000  19.0180000
  10.1960000  88.7750000  19.2860000  11.8320000  88.2420000  18.7000000
  10.6960000  87.3000000  19.9490000   7.5800000  84.3770000  18.3170000
   5.1360000  84.8040000  18.5600000   4.1800000  86.6790000  22.3100000
   3.0340000  86.0870000  22.6790000   2.8570000  84.9080000  22.6230000
   2.0440000  87.0850000  23.1520000   1.2960000  87.3900000  22.3890000
   2.5240000  88.0510000  23.4290000   1.1090000  86.6250000  24.2430000
   0.7220000  85.6380000  23.9810000   0.2470000  87.3060000  24.3010000
   1.8310000  86.6040000  25.6690000   2.4340000  87.4730000  25.6670000
   2.6150000  85.9110000  25.9410000   0.7940000  86.6380000  26.8140000
   0.1770000  85.6700000  26.8430000   0.0720000  87.5060000  26.6170000
   1.5360000  86.7830000  28.1750000   1.9280000  87.8190000  28.2700000
   2.3460000  86.0250000  28.2240000   0.6390000  86.4820000  29.4010000
  -0.1640000  85.7740000  29.1280000   0.0670000  87.3930000  29.5300000
   1.3880000  86.1440000  30.6950000   2.1130000  87.0070000  30.6860000
   1.9950000  85.2380000  30.5440000   0.4760000  86.2470000  31.9130000
  -0.4920000  86.5880000  31.6890000   0.8230000  85.9580000  33.1520000
   0.0610000  85.9220000  33.9290000   2.1850000  85.6300000  33.6890000
   2.9090000  85.5960000  32.9250000   2.0650000  84.6250000  34.2000000
   2.5400000  86.6780000  34.6980000   1.7110000  86.9350000  35.3830000
   2.7620000  87.6310000  34.2230000   3.8560000  86.2610000  35.5000000
   4.7100000  86.1100000  34.8960000   3.6250000  85.3080000  35.9590000
   4.2140000  87.3210000  36.6700000   3.3610000  87.3330000  37.3470000
   4.3310000  88.3360000  36.2790000   5.4490000  86.7430000  37.3180000
   6.1470000  86.8330000  36.5330000   5.2200000  85.6870000  37.5150000
   5.9730000  87.5540000  38.5520000   5.2620000  87.4380000  39.4300000
   5.9880000  88.6160000  38.3360000   7.3680000  87.0560000  38.8720000
   7.9790000  87.3370000  37.9980000   7.3500000  85.9450000  38.9190000
   7.8300000  87.6290000  40.2190000   7.6380000  88.6700000  40.4370000
   8.9230000  87.4850000  40.3210000   7.4610000  86.9810000  41.0570000
 102.5570000  43.6340000  32.7530000 102.5940000  43.1930000  31.7830000
 101.5550000  43.9580000  32.9390000 102.8270000  42.8980000  33.5820000
 103.4410000  44.8930000  32.5880000 103.5730000  45.3950000  33.5610000
 104.4210000  44.6090000  32.3600000 102.9550000  45.9160000  31.5490000
 102.8610000  45.4390000  30.6190000 101.8830000  46.1170000  31.7820000
 103.7500000  47.1780000  31.3810000 103.4710000  47.7780000  32.2690000
 104.7640000  46.9600000  31.6760000 103.7350000  47.9740000  30.0690000
 102.6580000  48.1560000  29.8320000 104.2850000  48.9000000  30.3350000
 104.5590000  47.1450000  29.0360000 105.5990000  47.1320000  29.4420000
 104.0790000  46.2030000  29.0230000 104.5020000  47.7880000  27.6370000
 105.1090000  48.6330000  27.5100000 104.9360000  47.0550000  27.0230000
 103.0870000  48.2020000  27.0020000 102.4090000  47.3650000  27.0100000
 102.6980000  49.0740000  27.5360000 103.1110000  48.5610000  25.5480000
 102.0450000  48.8260000  25.2450000 103.7630000  49.4010000  25.3410000
 103.5050000  47.3210000  24.6930000 104.3560000  46.9130000  25.0830000
 102.6730000  46.6050000  24.8760000 103.6760000  47.7130000  23.2110000
 102.7790000  48.2160000  22.9400000 104.5280000  48.3680000  23.2100000
 104.0220000  46.5260000  22.2150000 104.7910000  45.8840000  22.6150000
 103.1570000  45.9000000  22.0710000 104.4380000  47.0050000  20.8210000
 105.3510000  47.6290000  20.8690000 104.6820000  46.1390000  20.2330000
 103.2550000  47.6400000  20.0510000 102.4060000  46.8820000  20.0050000
 102.7930000  48.4850000  20.5160000 103.6380000  47.9670000  18.6270000
 103.9800000  47.0940000  18.0800000 102.7220000  48.3670000  18.1790000
 104.7900000  49.0320000  18.4730000 104.5470000  50.2160000  18.6950000
 105.9340000  48.5620000  18.0350000 107.0940000  49.3020000  17.5340000
 107.5960000  49.8450000  18.3250000 107.8910000  48.5820000  17.3200000
 106.9060000  50.1280000  16.2030000 107.8010000  50.1650000  15.6760000
 106.4410000  51.5060000  16.6360000 105.5400000  51.5360000  17.1870000
 107.2160000  51.9140000  17.2810000 106.3630000  52.3220000  15.5010000
 106.1750000  53.8510000  15.6610000 104.5470000  54.1200000  15.6640000
 103.9210000  54.1930000  14.4010000 103.0360000  54.8020000  14.4670000
 104.6550000  54.6670000  13.7490000 103.6300000  52.7200000  14.0190000
 103.3850000  52.6060000  12.9830000 104.5150000  52.0980000  14.1920000
 102.5540000  51.9410000  14.7840000 102.0530000  50.8430000  13.9720000
 101.4150000  50.2080000  14.6600000 101.4980000  51.2020000  13.1300000
 103.0190000  50.4080000  13.6250000 103.1010000  51.3230000  16.0020000
 103.2840000  51.9970000  16.8220000 102.3140000  50.6860000  16.4310000
 103.9570000  50.6670000  15.7580000 101.4670000  52.8930000  15.1030000
 101.8140000  53.4610000  16.0010000 100.5960000  52.2220000  15.2540000
 101.3670000  53.6690000  14.3070000 106.5270000  54.3980000  16.9490000
 106.7580000  54.4000000  14.4530000 105.9310000  49.4990000  15.3410000
 106.3540000  48.6840000  14.3250000 107.5280000  48.6570000  13.9620000
 105.1830000  47.9460000  13.7080000 105.1950000  48.1340000  12.6630000
 104.1400000  48.2350000  14.0070000 105.3050000  46.3930000  13.9660000
 106.2320000  45.9260000  13.5090000 104.5220000  45.7910000  13.4740000
 105.3810000  46.0640000  15.5330000 104.5280000  46.4830000  16.0940000
 106.2030000  46.5820000  15.9740000 105.5740000  44.5900000  15.8750000
 106.2700000  44.1920000  15.2450000 104.6200000  44.0230000  15.5840000
 105.6660000  44.1840000  17.3530000 105.7950000  43.0740000  17.4830000
 104.7100000  44.5320000  17.6350000 106.9010000  44.7870000  18.1320000
 106.7330000  45.8290000  18.4820000 107.7360000  44.9220000  17.4600000
 107.3150000  43.9310000  19.3160000 108.1710000  44.3140000  19.7930000
 107.5640000  42.8990000  18.9840000 106.3190000  43.8380000  20.4220000
 105.2730000  43.9650000  20.0660000 106.5740000  43.8750000  21.7320000
 105.6900000  43.9100000  22.4110000 107.9570000  43.8760000  22.4220000
 108.5140000  44.6070000  21.8150000 108.3730000  42.9120000  22.3810000
 107.7820000  44.3010000  23.8930000 107.0860000  43.5890000  24.3920000
 107.2740000  45.2220000  23.9900000 109.1610000  44.3230000  24.6350000
 109.8470000  44.9380000  24.0180000 109.6180000  43.3370000  24.5520000
 109.1190000  44.9420000  26.0220000 108.5120000  45.8730000  25.8760000
 110.0720000  45.3230000  26.3190000 108.4250000  44.2040000  27.1290000
 109.0460000  43.2930000  27.3220000 107.4960000  43.9160000  26.7790000
 108.1150000  45.0410000  28.3210000 107.3740000  45.7720000  28.0780000
 108.9580000  45.6200000  28.6140000 107.6440000  44.1680000  29.4690000
 108.5440000  43.7430000  29.8100000 106.8180000  43.4250000  29.2350000
 107.1500000  45.0550000  30.6510000 106.1540000  45.4290000  30.4810000
 107.8760000  45.8360000  30.7360000 107.2490000  44.5010000  31.5240000
 142.3610000 125.6670000  36.4100000 141.5690000 125.9630000  35.6650000
 141.9690000 125.8670000  37.4270000 142.6970000 124.5810000  36.3110000
 143.5860000 126.5520000  36.2430000 143.3300000 127.5960000  36.5660000
 144.3780000 126.2100000  36.9370000 144.0660000 126.4710000  34.7650000
 144.3100000 125.4140000  34.5910000 143.2210000 126.7070000  34.0910000
 145.3300000 127.4160000  34.5180000 144.9900000 128.3780000  34.8650000
 146.2120000 127.0520000  35.0070000 145.7920000 127.4050000  33.0850000
 144.9300000 127.8010000  32.5030000 146.7130000 127.9890000  32.9630000
 146.0950000 125.9850000  32.5460000 146.8580000 125.5660000  33.1420000
 145.2630000 125.3290000  32.6720000 146.3990000 125.8650000  31.0500000
 147.0950000 126.6720000  30.6620000 146.9030000 124.8940000  30.9650000
 145.1060000 125.8590000  30.0990000 144.6870000 126.8890000  30.1060000
 145.5350000 125.6470000  29.1910000 143.9710000 124.9100000  30.6000000
 144.4570000 124.0800000  31.1920000 143.2790000 125.4360000  31.2670000
 143.1030000 124.4230000  29.3710000 142.7380000 125.2570000  28.7080000
 143.7070000 123.7750000  28.8080000 141.8710000 123.5870000  29.8860000
 142.2290000 122.6220000  30.2920000 141.4140000 124.1380000  30.7310000
 140.7680000 123.2870000  28.9610000 140.9590000 122.5400000  28.2120000
 139.9510000 122.8220000  29.5810000 140.1670000 124.4830000  28.2160000
 139.8180000 125.2120000  28.8910000 140.8990000 125.0550000  27.6400000
 138.9480000 124.1450000  27.2610000 138.3200000 123.3280000  27.5740000
 138.3070000 124.9900000  27.1190000 139.3930000 123.7730000  25.8140000
 140.4330000 123.4040000  25.7690000 138.7190000 123.0130000  25.4420000
 139.3280000 124.8910000  24.8900000 138.2910000 125.2860000  24.3450000
 140.5530000 125.3520000  24.5200000 140.6030000 126.3880000  23.5010000
 141.5850000 126.5050000  23.1240000 140.0150000 126.0420000  22.6440000
 140.1340000 127.8080000  24.0740000 139.1650000 127.7800000  24.5760000
 140.0560000 128.7370000  22.8250000 139.9900000 129.8200000  23.0350000
 141.0150000 128.6690000  22.2650000 138.8890000 128.4490000  22.0270000
 139.0280000 128.2290000  20.4140000 139.4110000 126.6610000  20.3470000
 140.3380000 126.1720000  19.4390000 140.0540000 126.0100000  18.4260000
 141.2080000 126.8790000  19.3790000 141.0820000 124.8990000  19.9870000
 141.9350000 124.6350000  19.4060000 141.4290000 125.1670000  20.9700000
 140.3320000 123.6620000  20.1500000 141.1440000 122.7480000  20.8790000
 140.5290000 121.8800000  21.0000000 141.9710000 122.3930000  20.2140000
 141.3420000 123.1960000  21.8660000 139.0810000 123.8390000  20.9210000
 138.6810000 122.8780000  21.0710000 139.3180000 124.3810000  21.8030000
 138.3920000 124.5020000  20.3180000 140.0150000 122.9610000  18.9210000
 139.5360000 122.0070000  19.2140000 140.9080000 122.7380000  18.3170000
 139.2310000 123.5520000  18.4840000 137.6470000 128.3630000  19.8970000
 140.1330000 129.0250000  19.8480000 141.1830000 128.2460000  24.9640000
 141.1380000 127.8610000  26.2620000 140.1750000 127.5440000  26.8930000
 142.4890000 127.9360000  26.8330000 143.0590000 128.4730000  26.0660000
 142.8680000 126.9290000  26.8930000 142.5890000 128.7230000  28.1670000
 142.0840000 129.7070000  28.0460000 143.6350000 128.7770000  28.3320000
 141.9430000 128.0930000  29.4520000 142.0380000 127.0270000  29.5500000
 140.8730000 128.1800000  29.3690000 142.3680000 128.8030000  30.7750000
 142.3150000 129.8630000  30.7420000 143.3150000 128.5400000  31.1850000
 141.3910000 128.4150000  31.9050000 141.4620000 127.2620000  32.0370000
 140.4190000 128.6930000  31.6230000 141.7260000 129.1930000  33.1900000
 141.8120000 130.2440000  33.0310000 142.7660000 129.0650000  33.4960000
 140.7570000 128.7380000  34.2960000 141.0850000 129.1700000  35.2500000
 140.5610000 127.6210000  34.3440000 139.4310000 129.4930000  33.9370000
 139.6270000 130.3460000  33.2940000 138.1740000 129.3690000  34.4600000
 137.4080000 130.0460000  34.0770000 137.8350000 128.3590000  35.5080000
 138.7090000 127.7490000  35.7940000 137.2740000 127.6050000  35.0140000
 137.1770000 128.9880000  36.7860000 136.1690000 129.3760000  36.5540000
 137.7430000 129.8330000  37.0870000 137.0810000 128.0910000  38.0250000
 136.4700000 127.2590000  37.7930000 136.4840000 128.6360000  38.7590000
 138.3910000 127.4920000  38.5840000 138.8710000 126.9180000  37.8550000
 138.1640000 126.7190000  39.3520000 139.4660000 128.4310000  39.1910000
 139.8960000 129.0680000  38.4300000 140.3020000 127.9320000  39.6000000
 139.0040000 129.4710000  40.0960000 138.5790000 128.9810000  40.9910000
 138.0720000 129.9650000  39.6690000 139.9230000 130.5820000  40.4470000
 140.0180000 131.1690000  39.4810000 140.9340000 130.1940000  40.7760000
 139.1650000 131.4590000  41.4380000 138.0600000 131.4660000  41.2700000
 139.5460000 132.4880000  41.5940000 139.3380000 130.9760000  42.4260000
  90.4180000 136.6240000  36.9070000  90.0540000 137.3300000  36.1310000
  91.1650000 137.1220000  37.6160000  89.5740000 136.2840000  37.5160000
  91.0460000 135.3590000  36.2830000  91.0460000 134.5740000  37.0930000
  90.2400000 135.0390000  35.5990000  92.3380000 135.4860000  35.5110000
  93.1190000 135.9840000  36.0850000  92.7270000 134.5160000  35.1790000
  92.1290000 136.2100000  34.1430000  91.4930000 135.5300000  33.6380000
  91.5190000 137.1220000  34.1790000  93.3130000 136.4270000  33.2930000
  93.9400000 137.0040000  33.9120000  93.7930000 135.4840000  33.0460000
  92.8560000 137.2340000  32.0440000  92.1400000 136.6480000  31.4530000
  92.4620000 138.1630000  32.2710000  94.1180000 137.4860000  31.1920000
  94.7480000 138.1690000  31.8700000  94.6500000 136.5030000  31.0170000
  93.8570000 138.0970000  29.7950000  93.3430000 139.0630000  29.9170000
  94.7370000 138.2780000  29.2900000  92.9630000 137.2130000  28.8550000
  93.3300000 136.1810000  28.8750000  91.9750000 137.1190000  29.2570000
  92.8240000 137.6780000  27.3430000  92.7370000 138.7560000  27.2280000
  93.7600000 137.4750000  26.8430000  91.6930000 136.9160000  26.6000000
  91.8900000 135.8410000  26.5050000  90.7380000 137.1590000  27.1370000
  91.7660000 137.3250000  25.0950000  91.7680000 138.4330000  25.0710000
  92.7170000 136.9960000  24.7400000  90.4960000 136.8440000  24.3480000
  89.6940000 137.3920000  24.6890000  90.5640000 137.0070000  23.2400000
  90.2870000 135.2730000  24.4680000  90.2260000 135.0700000  25.5360000
  89.3140000 135.0480000  23.9520000  91.4280000 134.5050000  23.8230000
  92.3580000 134.7630000  24.3480000  91.1430000 133.4430000  24.0720000
  91.6430000 134.6210000  22.3590000  90.9750000 134.0850000  21.4730000
  92.7220000 135.3870000  22.0910000  93.1230000 135.5450000  20.7210000
  94.0480000 136.1500000  20.6650000  93.3520000 134.6020000  20.3180000
  92.0980000 136.4030000  19.8700000  91.1950000 135.8670000  19.6480000
  92.7590000 136.7950000  18.4940000  92.8690000 135.8100000  17.9460000
  92.1440000 137.5150000  17.8950000  94.1120000 137.1610000  18.5530000
  94.6300000 138.6420000  19.0140000  95.9430000 138.9200000  18.0580000
  97.2230000 138.6760000  18.5130000  97.8860000 139.2290000  17.7940000
  97.3820000 139.1380000  19.4710000  97.5700000 137.1830000  18.3560000
  98.5170000 137.0980000  18.8250000  96.8650000 136.5980000  18.9470000
  97.6550000 136.5790000  16.9720000  97.8670000 135.0990000  17.0990000
  98.7700000 134.8880000  17.7480000  96.9630000 134.5550000  17.4610000
  98.1860000 134.6750000  16.1630000  96.4700000 136.7940000  16.1100000
  96.5010000 137.8450000  15.8760000  96.5230000 136.1160000  15.3400000
  95.6630000 136.5900000  16.7880000  98.8230000 137.1150000  16.2910000
  98.6150000 138.1000000  15.8890000  98.9280000 136.5450000  15.3760000
  99.6550000 137.0010000  16.9150000  93.5290000 139.5620000  18.6180000
  94.9920000 138.5620000  20.4340000  91.7950000 137.6570000  20.5470000
  90.6810000 138.3220000  20.1530000  89.8830000 137.8940000  19.3330000
  90.5080000 139.4630000  21.0960000  91.2990000 140.1890000  20.8630000
  90.6310000 138.9990000  22.0980000  89.1090000 140.1100000  20.8900000
  88.4770000 139.2340000  20.9670000  88.9210000 140.5920000  19.9050000
  88.8070000 141.2060000  21.9960000  87.8640000 141.6230000  21.8300000
  89.5970000 141.9520000  21.9340000  88.6170000 140.5400000  23.3830000
  89.4540000 139.9190000  23.6070000  87.6700000 139.9450000  23.3470000
  88.5040000 141.7090000  24.4230000  87.6610000 142.3260000  24.0670000
  89.4820000 142.1520000  24.4490000  88.2350000 141.0040000  25.7770000
  88.6450000 140.0110000  25.8170000  87.1540000 140.8870000  25.7690000
  88.5710000 141.7650000  27.1260000  88.0250000 141.4320000  27.9520000
  88.2420000 142.8570000  27.0110000  90.1460000 141.7560000  27.2830000
  90.6390000 142.0120000  26.4040000  90.8700000 141.2070000  28.2550000
  91.8950000 140.9950000  28.1510000  90.3090000 140.7110000  29.5650000
  89.5960000 141.4450000  29.9700000  91.2070000 140.7140000  30.1520000
  89.5960000 139.3150000  29.6050000  90.2620000 138.5560000  29.1190000
  88.7330000 139.3930000  28.9180000  89.1060000 139.0670000  31.0280000
  88.6450000 139.9260000  31.5370000  89.9850000 138.7380000  31.5470000
  88.0690000 137.9650000  31.0190000  88.4820000 137.1860000  30.3210000
  87.2370000 138.4270000  30.6990000  87.8640000 137.2860000  32.4100000
  87.1120000 137.8270000  32.8460000  88.8030000 137.3840000  33.0500000
  87.2320000 135.9150000  32.5550000  86.6350000 135.5480000  31.7350000
  86.5260000 135.9440000  33.3550000  88.3250000 134.8240000  32.7200000
  89.0090000 135.0720000  33.5000000  88.9120000 134.6680000  31.7850000
  87.7370000 133.4780000  33.0920000  88.3870000 132.6110000  32.9680000
  86.8430000 133.3360000  32.5590000  87.5070000 133.5010000  34.1160000
  65.7270000  28.1170000  31.6250000  64.9200000  28.7770000  31.7040000
  65.5960000  27.3180000  32.3450000  65.7970000  27.6400000  30.6850000
  67.0390000  28.8600000  31.7900000  67.1800000  29.3610000  30.8410000
  66.9690000  29.5460000  32.6670000  68.2280000  27.9250000  31.9620000
  68.1450000  27.3970000  32.9260000  68.2850000  27.2680000  31.1390000
  69.5520000  28.7810000  31.8730000  69.6850000  28.9480000  30.8210000
  69.4240000  29.8060000  32.3760000  70.7930000  27.9180000  32.4510000
  70.7140000  26.8630000  32.2310000  71.7590000  28.1980000  32.0270000
  70.8550000  28.2210000  33.9130000  70.6240000  29.2850000  33.9810000
  70.0940000  27.7270000  34.5140000  72.2280000  27.8520000  34.6160000
  72.9960000  28.5640000  34.3660000  72.2460000  27.8840000  35.6900000
  72.8320000  26.4700000  34.2650000  73.0850000  26.4760000  33.2130000
  73.7270000  26.2880000  34.8850000  71.8070000  25.3770000  34.4930000
  71.3970000  25.4960000  35.5280000  70.9170000  25.4970000  33.8650000
  72.3640000  23.9950000  34.3760000  72.9660000  23.7880000  35.2830000
  71.5110000  23.3680000  34.3870000  73.1600000  23.5790000  33.1960000
  74.1720000  23.8890000  33.3650000  73.2630000  22.5340000  33.2430000
  72.7770000  24.0340000  31.8060000  72.6350000  25.1760000  31.7570000
  73.6080000  23.7960000  31.1270000  71.5100000  23.4420000  31.3190000
  71.4790000  22.3420000  31.3820000  70.7240000  23.9540000  31.9310000
  71.2610000  23.8630000  29.8580000  71.4930000  24.9920000  29.8950000
  71.9020000  23.4050000  29.1250000  69.7520000  23.6400000  29.5720000
  69.4560000  22.5550000  29.8330000  69.2060000  24.2040000  30.3260000
  69.2260000  24.0750000  28.2050000  68.6850000  25.1800000  28.0660000
  69.5010000  23.1960000  27.2700000  69.3800000  23.6200000  25.9090000
  69.3990000  22.7790000  25.2220000  68.3710000  24.0880000  25.6760000
  70.5720000  24.5620000  25.5220000  70.6180000  25.4090000  26.1810000
  70.3550000  25.2000000  24.1190000  69.6440000  25.9290000  24.3450000
  71.3370000  25.5920000  23.7750000  69.7170000  24.3400000  23.1800000
  69.8210000  24.6840000  21.5840000  71.2820000  24.3040000  21.1850000
  71.7830000  23.0270000  21.5970000  72.9220000  23.0000000  21.7050000
  71.4730000  22.7980000  22.6800000  71.3480000  21.9780000  20.4760000
  71.9000000  21.1300000  20.7450000  70.3780000  21.5530000  20.4980000
  71.7350000  22.2720000  19.0300000  70.6430000  22.9810000  18.2890000
  70.5190000  24.0140000  18.5880000  70.8310000  23.0000000  17.2030000
  69.6980000  22.3570000  18.4620000  73.0610000  23.0180000  18.9580000
  73.4170000  22.8740000  17.9630000  72.9030000  24.0560000  19.1660000
  73.6660000  22.4970000  19.7110000  71.9100000  20.9240000  18.4160000
  72.3200000  21.0710000  17.4720000  70.8820000  20.5020000  18.4010000
  72.6620000  20.3600000  19.0020000  68.9240000  23.7580000  20.8280000
  69.5260000  26.0860000  21.4560000  71.9110000  23.8690000  25.5790000
  72.8600000  24.4330000  26.3170000  72.6350000  25.1180000  27.2920000
  74.1740000  23.9460000  25.8570000  74.1070000  22.8290000  25.8310000
  74.9970000  24.2830000  26.5680000  74.3470000  24.5180000  24.4010000
  73.7730000  23.9920000  23.6070000  75.3380000  24.2670000  24.0860000
  74.2150000  26.1020000  24.3850000  74.7770000  26.5310000  25.1680000
  73.2000000  26.4350000  24.6580000  74.4790000  26.8630000  23.0560000
  75.3180000  26.3950000  22.5540000  74.7930000  27.8510000  23.3060000
  73.2460000  27.0430000  22.1040000  72.4550000  27.5440000  22.6420000
  72.8080000  26.0650000  21.8760000  73.6180000  27.7520000  20.8260000
  74.5260000  27.2960000  20.4960000  72.9250000  27.4630000  20.0730000
  73.9420000  29.3050000  20.8750000  74.4630000  29.5190000  19.9570000
  74.5960000  29.5440000  21.7030000  72.6650000  30.1440000  20.7170000
  72.2830000  30.2470000  19.6400000  71.9540000  30.7220000  21.6630000
  71.0870000  31.3380000  21.4470000  72.3620000  30.8640000  23.0870000
  73.2790000  30.3030000  23.1330000  71.6870000  30.3090000  23.7450000
  72.4710000  32.2440000  23.6000000  71.7440000  32.8030000  23.0910000
  73.3720000  32.7490000  23.3180000  72.3310000  32.3840000  25.1120000
  71.4070000  31.8610000  25.3860000  72.2880000  33.4200000  25.3960000
  73.4620000  31.8070000  25.9780000  74.3600000  32.3620000  25.9200000
  73.5410000  30.8100000  25.6160000  73.0730000  31.7920000  27.5000000
  72.2390000  31.1080000  27.6990000  72.7610000  32.8350000  27.6760000
  74.3640000  31.4300000  28.3360000  75.0140000  32.2300000  28.1410000
  74.8960000  30.5240000  27.9010000  74.0690000  31.2340000  29.8150000
  73.9540000  32.1960000  30.3040000  75.0120000  30.7740000  30.2490000
  72.8580000  30.3610000  30.3740000  72.8610000  29.2890000  30.1990000
  71.9410000  30.6870000  29.8830000  72.6430000  30.4470000  31.4980000
  31.0310000 145.2350000  33.5600000  30.9760000 145.9490000  34.3900000
  31.9360000 144.7560000  33.5510000  30.2520000 144.5440000  33.7590000
  30.4790000 145.7560000  32.1810000  30.3360000 145.0060000  31.3550000
  29.4610000 146.1920000  32.2490000  31.4290000 146.8460000  31.6710000
  31.4160000 147.6250000  32.4270000  32.4070000 146.4220000  31.5960000
  31.0590000 147.5320000  30.3740000  30.0730000 147.9680000  30.5230000
  31.7900000 148.2720000  30.0720000  30.7070000 146.5540000  29.2230000
  31.5190000 145.8570000  29.2200000  29.8790000 145.9110000  29.4780000
  30.4270000 147.2810000  27.9190000  29.4830000 147.7910000  28.1350000
  31.1960000 148.0150000  27.7610000  30.4420000 146.2610000  26.7930000
  31.5320000 146.0250000  26.5280000  30.0270000 145.3440000  27.1640000
  29.6160000 146.6990000  25.5990000  28.6810000 146.8450000  26.0100000
  29.9510000 147.6990000  25.2420000  29.7320000 145.7030000  24.4690000
  29.6120000 144.7180000  24.9770000  28.8950000 145.9790000  23.8410000
  31.1170000 145.6630000  23.7930000  31.9450000 145.3640000  24.5080000
  31.0180000 144.9870000  22.9450000  31.6060000 146.9650000  23.0910000
  31.6680000 147.6330000  23.8980000  32.5790000 146.8780000  22.6350000
  30.5610000 147.6570000  22.2030000  30.1830000 146.9500000  21.4460000
  29.5780000 147.9170000  22.7430000  31.0940000 148.9460000  21.6160000
  31.8880000 149.4120000  22.2220000  31.5090000 148.6340000  20.6660000
  30.0850000 150.0270000  21.2690000  29.4700000 150.1620000  22.2020000
  30.7600000 150.9060000  20.9370000  29.0860000 149.6080000  20.2000000
  28.4760000 148.8120000  20.6310000  28.4590000 150.4210000  19.9500000
  29.6800000 149.2970000  18.8480000  29.9150000 150.0720000  17.9990000
  29.7600000 148.0220000  18.7830000  30.3020000 147.4390000  17.5090000
  30.0520000 146.4030000  17.6360000  29.8300000 147.8310000  16.5710000
  31.8520000 147.6070000  17.5010000  32.1660000 148.6780000  17.3170000
  32.2290000 146.9580000  16.1470000  31.6870000 147.4840000  15.3170000
  33.2660000 146.8280000  15.9310000  31.6980000 145.6510000  16.2510000
  32.5720000 144.3000000  16.0960000  31.4700000 143.2020000  15.5710000
  30.6980000 142.4630000  16.5850000  31.0370000 142.6840000  17.6060000
  29.6380000 142.6460000  16.4820000  30.8470000 140.9250000  16.6110000
  30.3130000 140.5210000  17.4410000  30.4740000 140.5370000  15.6710000
  32.2350000 140.3160000  16.7170000  32.0210000 138.8360000  16.6520000
  31.5540000 138.6330000  15.7260000  33.0220000 138.3180000  16.6190000
  31.3680000 138.5480000  17.4380000  33.1100000 140.6690000  15.5350000
  34.1350000 140.2420000  15.6390000  32.7510000 140.2150000  14.6130000
  33.2010000 141.7100000  15.4200000  32.9330000 140.7240000  17.8910000
  32.3400000 140.5200000  18.8260000  33.2550000 141.7700000  17.8050000
  33.8210000 140.1270000  18.0130000  33.4750000 144.4900000  15.0010000
  33.1250000 143.8240000  17.3790000  32.3920000 147.0710000  18.7030000
  33.7430000 146.8260000  18.7700000  34.5090000 147.3320000  17.9550000
  34.1950000 145.9550000  19.9390000  34.7800000 145.2070000  19.5660000
  33.3480000 145.4490000  20.3750000  34.9000000 146.8380000  21.0090000
  34.1410000 147.6410000  21.1960000  35.7030000 147.4120000  20.5770000
  35.3740000 146.0250000  22.2890000  36.1950000 145.3780000  21.9170000
  34.4970000 145.4630000  22.6140000  35.9150000 146.9490000  23.4660000
  36.6490000 147.6540000  23.0310000  36.4550000 146.3510000  24.1970000
  34.7880000 147.7260000  24.2040000  34.0170000 147.0350000  24.5580000
  34.3410000 148.4590000  23.5650000  35.3140000 148.4180000  25.4890000
  36.1430000 149.0700000  25.2710000  35.7110000 147.6550000  26.2110000
  34.2710000 149.2270000  26.1950000  33.6210000 148.5550000  26.6890000
  33.6210000 149.6560000  25.4220000  34.9360000 150.2170000  27.0580000
  35.3170000 151.1440000  26.5810000  35.0500000 150.0470000  28.3890000
  35.3970000 150.8860000  28.9220000  34.5500000 148.8680000  29.1630000
  34.3740000 148.0130000  28.5420000  33.6170000 148.8850000  29.7310000
  35.7140000 148.6490000  30.2380000  35.9400000 149.5840000  30.8110000
  36.5950000 148.4510000  29.5780000  35.3730000 147.4340000  31.1700000
  35.3400000 146.5140000  30.6010000  34.3680000 147.6950000  31.5400000
  36.2740000 147.3230000  32.4290000  36.5220000 148.2810000  32.9210000
  37.2170000 146.9660000  32.1230000  35.6870000 146.3930000  33.5290000
  35.4500000 145.4260000  33.0600000  34.7100000 146.7770000  33.8470000
  36.6360000 146.1750000  34.7320000  36.8940000 147.1350000  35.2240000
  37.5470000 145.7630000  34.3780000  35.9870000 145.1770000  35.7640000
  35.5400000 144.3450000  35.1920000  35.1190000 145.6040000  36.1570000
  36.9260000 144.7450000  36.8620000  36.4210000 144.0890000  37.6310000
  37.2570000 145.5940000  37.4110000  37.7850000 144.1370000  36.4320000
 108.0400000  17.4880000  31.7600000 108.1690000  18.1790000  30.8610000
 109.0100000  17.6410000  32.3190000 107.1000000  17.7690000  32.3710000
 108.0010000  16.0110000  31.2040000 108.0230000  15.2690000  32.0200000
 107.0950000  15.9000000  30.5220000 109.2600000  15.8470000  30.2850000
 109.2530000  16.5940000  29.5400000 110.1830000  15.8890000  30.8890000
 109.2450000  14.5830000  29.5310000 109.1180000  13.7060000  30.2560000
 108.3900000  14.5640000  28.8210000 110.5080000  14.4120000  28.6520000
 111.4020000  14.6720000  29.2790000 110.6310000  13.3780000  28.4040000
 110.6900000  15.2260000  27.4240000 109.8740000  14.9390000  26.7270000
 110.5970000  16.3200000  27.6820000 111.9250000  15.0270000  26.6490000
 112.6040000  15.3970000  27.3750000 112.1170000  13.9710000  26.4540000
 111.9400000  15.8440000  25.3350000 111.5880000  16.8780000  25.4890000
 112.9690000  15.8930000  25.0350000 111.0910000  15.2800000  24.2390000
 111.2520000  14.2340000  24.1730000 110.0510000  15.5060000  24.5080000
 111.4460000  15.8600000  22.8610000 112.4740000  15.6450000  22.5500000
 110.8260000  15.4640000  22.0770000 111.4500000  17.4400000  22.8550000
 110.5320000  17.8710000  23.3230000 112.4200000  17.7920000  23.2820000
 111.2030000  17.9370000  21.4080000 111.9410000  17.5790000  20.7290000
 110.2470000  17.5480000  21.1410000 111.3650000  19.5090000  21.2820000
 110.6860000  19.9120000  22.0660000 112.3370000  19.8330000  21.7240000
 111.1910000  20.1090000  19.8590000 110.1280000  19.9400000  19.6610000
 111.4980000  21.1760000  19.9020000 112.0260000  19.4630000  18.6860000
 111.9390000  18.3770000  18.6340000 111.7390000  19.9410000  17.7640000
 113.5150000  19.8100000  18.8760000 113.9070000  20.8140000  19.4430000
 114.2780000  18.9810000  18.0890000 115.7110000  19.2520000  18.0550000
 116.1160000  18.7390000  17.1420000 115.9590000  20.2810000  17.8960000
 116.3020000  18.8450000  19.4100000 115.8220000  19.4640000  20.2010000
 117.8280000  19.1650000  19.5140000 118.0160000  20.2150000  19.6110000
 118.2860000  18.6300000  20.3790000 118.4450000  18.6230000  18.3170000
 119.9470000  18.0730000  18.3480000 119.9240000  17.0000000  19.5400000
 119.2120000  15.7690000  19.4070000 119.0880000  15.3750000  20.4710000
 118.1800000  15.8960000  19.0080000 119.9460000  14.5820000  18.7310000
 119.3440000  13.6260000  18.9510000 120.0750000  14.6620000  17.7040000
 121.2920000  14.2640000  19.2030000 121.5900000  12.8570000  18.7380000
 122.6930000  12.6450000  18.8040000 120.9930000  12.1840000  19.4350000
 121.1910000  12.8510000  17.7120000 122.2990000  15.1760000  18.6660000
 122.1970000  15.3550000  17.5150000 122.1110000  16.0990000  19.2320000
 123.3220000  14.8030000  18.9280000 121.4600000  14.2530000  20.6690000
 121.3250000  15.2890000  20.8940000 122.4590000  13.9750000  20.9240000
 120.8220000  13.5410000  21.1470000 120.2480000  17.3160000  17.1090000
 120.8350000  19.1830000  18.7380000 116.1190000  17.4360000  19.4730000
 115.2520000  16.9730000  20.3700000 114.8610000  17.6570000  21.2680000
 114.9120000  15.5320000  20.1580000 115.3510000  15.2520000  19.1570000
 113.8570000  15.3660000  20.0330000 115.3300000  14.5970000  21.2530000
 115.2810000  15.0330000  22.2590000 116.4070000  14.4060000  21.1770000
 114.5290000  13.3150000  21.2380000 114.4780000  12.8320000  20.2400000
 113.5190000  13.5070000  21.4170000 115.0710000  12.2810000  22.2110000
 116.1640000  12.0450000  21.9920000 114.4850000  11.3190000  21.9590000
 114.7710000  12.5250000  23.6900000 113.7570000  12.9340000  23.7510000
 115.4830000  13.2840000  24.0020000 114.9710000  11.3780000  24.7280000
 116.0840000  11.2110000  24.6270000 114.3930000  10.5780000  24.3410000
 114.5940000  11.6730000  26.1770000 114.7960000  10.7370000  26.7530000
 113.6270000  12.0720000  26.2820000 115.3310000  12.8200000  26.7570000
 115.4240000  13.7280000  26.0770000 116.0140000  12.9170000  27.9000000
 116.5340000  13.8230000  28.1130000 115.9080000  11.9340000  29.0330000
 114.8690000  11.5210000  29.0630000 116.0810000  12.3750000  29.9720000
 116.9060000  10.7930000  28.8830000 117.8270000  11.4070000  29.0150000
 116.7540000  10.2480000  27.8960000 116.8470000   9.6980000  29.9570000
 117.5410000   8.9710000  29.6710000 115.8920000   9.3340000  29.9590000
 117.3930000  10.1700000  31.3050000 116.7960000  11.1030000  31.6010000
 118.4140000  10.4850000  31.2990000 117.2690000   9.0090000  32.2790000
 116.2190000   8.7360000  32.3530000 117.5000000   9.4420000  33.2230000
 118.0600000   7.7150000  31.9510000 119.0520000   7.8620000  32.1480000
 118.0190000   7.4580000  30.9110000 117.5470000   6.5830000  32.8310000
 117.4860000   6.8610000  33.8990000 118.3260000   5.8120000  32.7470000
 116.3060000   5.8620000  32.2300000 116.5830000   5.6220000  31.2320000
 115.4590000   6.5110000  32.3070000 116.0650000   4.9200000  32.8290000
  82.6630000  30.7120000  34.3810000  82.4470000  29.6850000  34.7320000
  81.7030000  31.1810000  34.2610000  83.1980000  31.3630000  35.0650000
  83.4500000  30.4600000  33.0890000  83.7710000  31.4050000  32.5180000
  84.3310000  29.8690000  33.2670000  82.5620000  29.7480000  32.0930000
  82.1910000  28.7760000  32.4500000  81.6680000  30.2970000  31.8770000
  83.1180000  29.4470000  30.6990000  83.5170000  30.4050000  30.2000000
  83.8330000  28.7420000  30.7950000  82.0400000  28.8810000  29.8100000
  81.4860000  28.0700000  30.2340000  81.3780000  29.6550000  29.5700000
  82.5170000  28.0810000  28.5490000  82.8480000  27.0630000  28.8240000
  81.6370000  27.9260000  27.8540000  83.5880000  28.7210000  27.6980000
  83.3720000  29.7650000  27.5930000  84.5720000  28.7680000  28.2500000
  83.8050000  28.0610000  26.2900000  82.8500000  28.1380000  25.8070000
  84.4450000  28.6860000  25.6420000  84.2690000  26.5570000  26.3130000
  85.1080000  26.4980000  26.9450000  83.5010000  25.9220000  26.8850000
  84.5490000  25.9250000  24.9280000  85.3850000  26.4150000  24.4250000
  84.8390000  24.8680000  25.0480000  83.4010000  26.0430000  23.8960000
  82.9370000  27.0020000  23.9250000  83.9440000  25.9610000  22.9530000
  82.2460000  24.9810000  24.0300000  81.7620000  24.8450000  23.0320000
  82.6700000  23.9830000  24.3330000  81.2370000  25.2730000  25.1040000
  81.7710000  24.8230000  25.9750000  81.2160000  26.3940000  25.1840000
  79.8830000  24.5680000  24.8480000  80.1980000  23.6360000  24.4370000
  79.4450000  24.4320000  25.8670000  78.8380000  25.3850000  24.0210000
  77.7940000  24.8920000  23.9260000  78.7760000  26.2510000  24.5490000
  79.3520000  25.7760000  22.6570000  79.3870000  24.9480000  21.7710000
  79.7500000  27.1140000  22.6250000  80.5140000  27.5550000  21.4980000
  81.3980000  28.0950000  21.8890000  80.8410000  26.7420000  20.8650000
  79.6340000  28.5800000  20.6640000  78.6170000  28.2490000  20.5070000
  80.2070000  28.8540000  19.2590000  80.2100000  27.9140000  18.6940000
  79.5940000  29.5850000  18.7230000  81.5470000  29.3500000  19.4030000
  82.6410000  29.1640000  18.2230000  82.9400000  27.6040000  18.5050000
  84.2560000  27.0630000  18.4810000  85.0840000  27.7150000  18.1520000
  84.4410000  26.5390000  19.3980000  84.2530000  25.8780000  17.5230000
  85.2960000  25.5350000  17.5010000  83.5810000  25.1140000  17.9890000
  83.7300000  25.9990000  16.0760000  84.4040000  24.8490000  15.3120000
  85.4650000  24.9130000  15.7190000  83.9560000  23.8890000  15.6100000
  84.3690000  24.9820000  14.2000000  82.2400000  25.9020000  15.9460000
  81.9850000  25.8460000  14.9150000  81.9200000  24.9280000  16.3700000
  81.7560000  26.7260000  16.5050000  84.1220000  27.1850000  15.3400000
  83.6340000  28.0240000  15.8990000  83.7050000  27.1430000  14.4100000
  85.2130000  27.3430000  15.3390000  81.9340000  29.2390000  16.9640000
  83.9340000  29.8650000  18.5290000  79.4240000  29.7840000  21.3930000
  78.1600000  30.1440000  21.8330000  77.1110000  29.6490000  21.4560000
  78.2770000  31.2830000  22.7800000  78.4140000  32.1340000  22.2130000
  79.1170000  31.0820000  23.3570000  77.0290000  31.4710000  23.6590000
  76.0610000  31.5460000  23.0090000  77.1310000  32.4350000  24.2200000
  76.9830000  30.4200000  24.7860000  77.0820000  29.3550000  24.5300000
  75.9060000  30.5060000  25.0840000  77.8400000  30.6610000  26.0100000
  77.5290000  31.6250000  26.3890000  78.8850000  30.6760000  25.6590000
  77.6000000  29.5250000  27.0640000  77.3810000  28.5600000  26.5010000
  76.7170000  29.7700000  27.6160000  78.8020000  29.2460000  28.1020000
  78.9880000  30.1260000  28.6960000  79.7860000  28.9860000  27.5250000
  78.5600000  28.0360000  29.0170000  77.7760000  28.2390000  29.7700000
  79.4700000  27.9110000  29.5930000  78.2600000  26.7300000  28.2730000
  79.1810000  26.2630000  27.8210000  77.1580000  26.0360000  28.2900000
  77.0540000  25.1070000  27.8010000  75.8080000  26.6310000  28.7280000
  74.9780000  26.4760000  27.9790000  75.8540000  27.7370000  28.8820000
  75.2000000  25.9930000  29.9670000  75.0330000  24.9150000  29.7390000
  74.1950000  26.2800000  30.0370000  75.9670000  26.2600000  31.3000000
  77.1030000  26.0900000  31.1380000  75.6350000  25.5410000  32.0710000
  75.7270000  27.7100000  31.8500000  74.6200000  27.8160000  32.0340000
  75.9200000  28.4220000  31.0970000  76.4860000  28.0020000  33.1320000
  76.1530000  27.2360000  33.9640000  76.0080000  28.9390000  33.3660000
  78.0220000  28.1170000  32.9560000  78.1860000  28.8330000  32.0820000
  78.3690000  27.1580000  32.5770000  78.7420000  28.5360000  34.2070000
  79.7400000  28.3440000  33.9750000  78.3930000  27.9790000  35.1220000
  78.6390000  30.0660000  34.4810000  79.2890000  30.2630000  35.3720000
  77.6170000  30.3420000  34.6430000  79.0550000  30.5180000  33.6150000
 101.5670000  89.2530000  28.2740000 101.7820000  88.3770000  28.8180000
 100.5190000  89.6140000  28.5470000 102.2390000  90.0930000  28.5220000
 101.5440000  88.9300000  26.7610000 100.5990000  88.4330000  26.4490000
 101.6630000  89.8700000  26.3130000 102.6890000  87.9550000  26.4180000
 102.4660000  86.9610000  26.7790000 102.7150000  87.8320000  25.3200000
 104.1300000  88.2970000  26.8970000 104.2880000  88.2660000  27.9310000
 104.6960000  87.4820000  26.4180000 104.4850000  89.6660000  26.3230000
 104.0820000  89.8160000  25.3370000 103.9390000  90.4440000  26.8970000
 105.9510000  89.9570000  26.3000000 106.3990000  89.8850000  27.3180000
 106.4300000  89.2000000  25.6270000 106.2270000  91.3850000  25.7470000
 105.8090000  91.4990000  24.7110000 105.5710000  92.0810000  26.3390000
 107.6820000  91.9190000  25.7970000 107.7300000  93.0200000  25.8710000
 108.2040000  91.5490000  26.6950000 108.4850000  91.3330000  24.6490000
 108.3360000  90.2410000  24.5440000 108.0010000  91.5860000  23.7650000
 109.9790000  91.7290000  24.6270000 110.0270000  92.8430000  24.7610000
 110.5120000  91.2540000  25.5160000 110.8000000  91.2920000  23.4020000
 111.7050000  90.6860000  23.6560000 110.1530000  90.5750000  22.9180000
 111.2570000  92.4970000  22.4760000 110.5160000  93.3670000  22.4810000
 112.1410000  92.9650000  22.9020000 111.4920000  92.1070000  21.0260000
 110.5110000  91.7670000  20.6520000 111.7980000  93.1090000  20.5490000
 112.6520000  91.1130000  20.8590000 112.4910000  90.1920000  21.5100000
 112.6410000  90.8310000  19.8160000 114.0580000  91.6790000  21.1760000
 114.3640000  91.7010000  22.2450000 114.7280000  90.9420000  20.7140000
 114.3760000  92.9940000  20.5020000 115.1700000  93.7650000  21.0140000
 113.8290000  93.2170000  19.3300000 113.9870000  94.4880000  18.6220000
 113.3900000  95.1870000  19.3100000 115.0050000  94.7490000  18.6490000
 113.4120000  94.3820000  17.2250000 113.8970000  93.5650000  16.7440000
 113.6620000  95.5930000  16.4040000 112.6710000  96.0070000  16.0550000
 114.1420000  96.4360000  17.0640000 114.4840000  95.2760000  15.2360000
 115.9900000  94.9500000  15.2770000 116.6270000  96.3770000  15.2590000
 116.6080000  97.1880000  14.0500000 116.3340000  96.5510000  13.1560000
 115.9790000  98.0650000  14.0900000 118.0160000  97.6690000  13.7410000
 117.8770000  98.1940000  12.8520000 118.3290000  98.5480000  14.3930000
 119.2300000  96.7590000  13.6490000 119.7130000  96.3140000  14.9510000
 120.0500000  97.1710000  15.5020000 118.8430000  95.8810000  15.3640000
 120.5650000  95.6170000  14.7210000 119.0340000  95.6440000  12.7100000
 118.1870000  95.0930000  13.0380000 118.7910000  96.1570000  11.8350000
 119.9240000  95.0730000  12.5330000 120.3220000  97.6150000  13.0920000
 121.1160000  96.9240000  12.9150000 120.7080000  98.2490000  13.8980000
 120.0040000  98.1800000  12.1750000 116.3540000  94.2820000  16.5640000
 116.3930000  94.2660000  14.0730000 111.9550000  94.1530000  17.2910000
 111.4620000  92.9580000  17.0270000 112.1390000  91.9830000  16.6560000
 109.9620000  92.8500000  17.3730000 109.4240000  93.6270000  16.7450000
 109.7580000  93.2090000  18.4140000 109.2980000  91.4560000  17.1820000
 109.6420000  91.1110000  16.1890000 108.2300000  91.4670000  16.9810000
 109.5630000  90.4630000  18.2970000 109.1270000  90.8770000  19.1640000
 110.6510000  90.4710000  18.5290000 109.0210000  89.0330000  18.1260000
 109.6920000  88.4320000  17.4680000 108.0900000  89.0520000  17.5750000
 108.8060000  88.2520000  19.4830000 108.4490000  87.2670000  19.3260000
 108.0270000  88.8200000  20.0180000 110.0520000  88.1590000  20.3960000
 110.4080000  89.1940000  20.6800000 110.8930000  87.8610000  19.7380000
 109.9540000  87.2160000  21.5880000 110.9700000  87.2120000  22.0040000
 109.8590000  86.1980000  21.2790000 108.8110000  87.6280000  22.5430000
 107.9680000  88.1160000  22.0730000 108.8120000  87.7100000  23.8840000
 107.9250000  88.1600000  24.3520000 109.8620000  87.0850000  24.7580000
 110.7440000  86.9230000  24.2040000 109.4790000  86.1260000  25.1990000
 110.3560000  88.1470000  25.8070000 110.4850000  89.1810000  25.3150000
 111.3550000  87.9540000  26.1580000 109.3600000  88.3030000  26.9530000
 108.9870000  87.3030000  27.1870000 108.4760000  88.8590000  26.5870000
 109.8800000  89.0780000  28.1680000 110.3030000  90.0770000  27.8270000
 110.7740000  88.5950000  28.5560000 108.8230000  89.2280000  29.2500000
 108.8220000  88.2190000  29.7430000 107.8150000  89.4940000  28.9060000
 109.3690000  90.1240000  30.3710000 109.4940000  91.1370000  30.0280000
 110.3550000  89.8830000  30.6570000 108.4770000  90.2040000  31.6020000
 108.1270000  89.1860000  31.9230000 107.5230000  90.6920000  31.2840000
 109.0370000  90.9870000  32.8520000 109.4050000  91.9610000  32.4800000
 109.9390000  90.4710000  33.1750000 108.3670000  91.1680000  33.6750000
 109.9020000 137.3030000  34.4040000 109.8600000 136.5600000  33.5790000
 110.7530000 137.0020000  34.9790000 110.1890000 138.2610000  34.1090000
 108.6530000 137.2050000  35.2240000 108.6460000 137.8860000  36.1030000
 107.7400000 137.5490000  34.6250000 108.4360000 135.7780000  35.7530000
 109.3720000 135.2350000  35.7610000 108.2520000 135.8270000  36.7870000
 107.3580000 134.9830000  35.0540000 107.1120000 134.1150000  35.6410000
 106.4950000 135.6820000  34.9430000 107.7970000 134.7090000  33.5200000
 107.7960000 135.7340000  33.0050000 108.8160000 134.3170000  33.5190000
 106.8000000 133.8440000  32.7430000 107.0980000 133.9830000  31.7050000
 106.9590000 132.7640000  32.9650000 105.3060000 134.2020000  32.8330000
 105.0950000 134.1870000  33.9560000 105.1580000 135.1900000  32.5650000
 104.4060000 133.1960000  32.0520000 104.1750000 133.6320000  31.0900000
 104.8790000 132.1990000  31.9290000 103.0160000 132.9960000  32.7160000
 102.4820000 132.2270000  32.0710000 103.1180000 132.5340000  33.7060000
 102.1420000 134.3060000  32.9170000 101.8850000 134.2660000  34.0080000
 102.7300000 135.1970000  32.7660000 100.8450000 134.3250000  32.0550000
 100.0710000 133.6090000  32.4040000 100.4040000 135.3080000  32.1140000
 101.0330000 134.2120000  30.5210000 101.4780000 133.2450000  30.3110000
 100.1040000 134.3120000  29.9140000 102.0140000 135.2950000  29.9580000
 101.5720000 136.2680000  30.3170000 103.0540000 135.3500000  30.3320000
 102.1550000 135.1080000  28.4160000 101.2100000 134.8950000  27.8770000
 102.6780000 135.9600000  27.9460000 103.1190000 133.9000000  28.0160000
 104.0570000 134.0480000  28.4770000 102.8080000 132.9740000  28.4940000
 103.2370000 133.7440000  26.4730000 102.7300000 134.5310000  25.7040000
 103.9510000 132.6800000  26.1290000 104.1490000 132.3560000  24.7110000
 104.3900000 131.3680000  24.6390000 103.1190000 132.6280000  24.2880000
 105.1900000 133.2460000  24.0240000 105.0860000 134.2930000  24.2580000
 105.2190000 133.1400000  22.4660000 104.2630000 133.2280000  22.0290000
 105.8170000 133.9650000  22.1170000 105.8040000 131.9290000  21.9460000
 104.9470000 130.5850000  21.7310000 105.2840000 129.7570000  22.9710000
 106.5620000 129.0380000  23.2100000 107.2790000 129.1590000  22.4040000
 106.8970000 129.4310000  24.2020000 106.3170000 127.5250000  23.3990000
 107.1620000 127.1700000  24.0560000 105.3970000 127.5240000  23.9970000
 106.1320000 126.6550000  22.1650000 106.3200000 125.1990000  22.5870000
 105.6140000 125.0480000  23.4210000 106.2470000 124.5690000  21.8190000
 107.2560000 125.1980000  23.0570000 104.8720000 126.9240000  21.5170000
 104.7760000 126.4060000  20.5120000 104.0430000 126.5230000  22.1180000
 104.7340000 127.9550000  21.4330000 107.1530000 127.0400000  21.2100000
 107.3610000 126.2580000  20.5030000 108.0360000 127.2820000  21.7990000
 106.8540000 127.9980000  20.7850000 103.5450000 131.0060000  21.8530000
 105.3980000 129.7700000  20.5990000 106.5450000 132.8640000  24.5770000
 107.6050000 133.4300000  24.0350000 107.6450000 134.5420000  23.4960000
 108.8920000 132.6490000  24.2120000 109.1480000 132.0440000  23.3580000
 108.6320000 131.8710000  24.9700000 110.1190000 133.3920000  24.6980000
 109.8040000 134.2850000  25.2950000 110.6270000 133.7780000  23.8300000
 111.1590000 132.5090000  25.4380000 111.5660000 131.6830000  24.8410000
 110.7660000 132.1650000  26.3700000 112.4820000 133.3090000  25.6580000
 112.6890000 133.8750000  24.7500000 113.3670000 132.8100000  25.9140000
 112.3070000 134.5230000  26.5850000 112.1350000 135.4480000  25.9560000
 113.3270000 134.6950000  27.0780000 111.2120000 134.4580000  27.7190000
 111.2820000 133.5530000  28.2210000 110.2070000 134.5860000  27.3190000
 111.4190000 135.6120000  28.7460000 111.0790000 136.5690000  28.3420000
 112.5330000 135.6340000  29.0430000 110.6440000 135.3280000  29.9700000
 110.7200000 134.2470000  30.1800000 109.8450000 136.1270000  30.6760000
 109.3080000 135.7140000  31.5190000 109.4620000 137.4820000  30.2440000
 108.3930000 137.6520000  30.6760000 109.3540000 137.3730000  29.1580000
 110.4730000 138.6030000  30.6420000 111.5630000 138.4440000  30.3470000
 110.4290000 138.8010000  31.6550000 110.1350000 140.0270000  30.0590000
 109.9920000 139.8980000  28.9650000 111.0370000 140.5610000  30.1130000
 109.0110000 140.8080000  30.7690000 108.5290000 141.5140000  30.0650000
 109.3430000 141.2420000  31.7160000 107.7610000 140.0110000  31.1290000
 108.0240000 139.2500000  31.8660000 107.3560000 139.5540000  30.2130000
 106.6360000 140.7860000  31.8880000 106.5430000 141.6090000  31.1730000
 106.9770000 141.2010000  32.8810000 105.3080000 140.0160000  32.0140000
 105.4740000 139.0060000  32.3080000 104.7700000 139.9250000  31.0330000
 104.2870000 140.7050000  32.9090000 103.6660000 141.4720000  32.4040000
 104.7250000 141.0920000  33.8010000 103.5330000 139.9440000  33.1520000
  48.0760000 143.7070000  34.9740000  47.0460000 143.7040000  34.7130000
  48.2830000 144.5760000  35.5660000  48.3150000 142.7410000  35.4320000
  48.8480000 143.7920000  33.7210000  48.5680000 144.7110000  33.1080000
  49.9050000 143.7500000  33.9200000  48.3280000 142.7520000  32.6900000
  47.3340000 142.9980000  32.1790000  48.9210000 142.9050000  31.8450000
  48.3510000 141.2680000  33.1900000  47.9310000 141.1610000  34.1910000
  47.6420000 140.7200000  32.4710000  49.7540000 140.5630000  33.4680000
  50.4490000 141.2630000  33.8840000  49.7010000 139.7810000  34.2420000
  50.4260000 140.0430000  32.2160000  49.6800000 139.3900000  31.7570000
  50.7230000 140.8540000  31.4930000  51.7260000 139.2200000  32.5790000
  52.3700000 139.9400000  33.0650000  51.5260000 138.4240000  33.3670000
  52.4910000 138.5460000  31.3970000  52.9210000 139.3320000  30.7720000
  53.2160000 137.8690000  31.8140000  51.5240000 137.7050000  30.5410000
  51.0150000 136.9890000  31.1910000  50.7520000 138.3210000  30.0520000
  52.2960000 136.8530000  29.5060000  53.2390000 136.4890000  29.9330000
  51.6200000 136.0230000  29.2380000  52.6810000 137.7020000  28.2900000
  53.4970000 138.4630000  28.5160000  53.1950000 136.9750000  27.7110000
  51.4890000 138.2130000  27.4680000  50.7770000 137.4150000  27.2490000
  50.9470000 138.9150000  28.0530000  51.9950000 138.8330000  26.1680000
  52.1990000 139.9300000  26.3240000  52.8570000 138.2700000  25.8660000
  51.0330000 138.7030000  25.0080000  50.0560000 139.0000000  25.3480000
  51.3830000 139.4000000  24.1990000  50.8980000 137.2560000  24.4460000
  50.6910000 136.4660000  25.1320000  49.9580000 137.2750000  23.8430000
  52.0480000 136.7270000  23.6220000  53.2270000 136.9840000  23.8400000
  51.7550000 136.0920000  22.4960000  52.8940000 135.8130000  21.6050000
  52.4610000 135.6520000  20.6090000  53.6430000 136.6170000  21.6230000
  53.5530000 134.4500000  21.9230000  54.3130000 134.2910000  21.1340000
  52.6000000 133.3260000  21.5930000  53.0110000 132.2950000  21.8030000
  51.6420000 133.6020000  22.0980000  52.2020000 133.3380000  20.1750000
  50.7640000 133.0230000  19.6350000  50.6260000 131.4420000  19.8240000
  51.0260000 130.5070000  18.8040000  50.5150000 130.7150000  17.8590000
  52.0800000 130.6560000  18.6370000  50.6960000 129.0680000  19.2310000
  51.3420000 128.2740000  18.8210000  50.9400000 129.0620000  20.2460000
  49.2030000 128.6260000  19.0420000  48.2390000 129.5970000  19.5420000
  47.2010000 129.1860000  19.3990000  48.4080000 129.8260000  20.5840000
  48.3650000 130.4220000  18.8940000  48.9590000 128.2790000  17.5940000
  49.3530000 127.2750000  17.5990000  47.8880000 128.2860000  17.3190000
  49.6050000 128.8690000  16.9190000  49.0220000 127.4320000  19.9410000
  47.9660000 127.0980000  19.8730000  49.2260000 127.7920000  20.9030000
  49.6680000 126.5990000  19.5850000  49.7740000 133.6020000  20.5530000
  50.6750000 133.2610000  18.1920000  54.0250000 134.2820000  23.3620000
  55.3090000 134.7170000  23.6610000  56.0490000 135.2570000  22.8320000
  55.7720000 134.3180000  25.0470000  56.8100000 133.9350000  25.0280000
  55.1560000 133.4630000  25.4100000  55.6660000 135.4390000  26.0090000
  54.5910000 135.6530000  26.2020000  56.1540000 136.3080000  25.5610000
  56.3630000 135.1890000  27.3220000  57.2450000 134.5200000  27.1360000
  55.6980000 134.5500000  27.8250000  56.6040000 136.4690000  28.0850000
  55.6220000 137.0390000  28.0600000  57.2800000 137.0460000  27.5090000
  57.1500000 136.1640000  29.5080000  58.1580000 135.7180000  29.5100000
  56.4480000 135.5170000  30.0030000  57.1430000 137.5200000  30.2910000
  57.9190000 138.1900000  29.9860000  57.3440000 137.3580000  31.2550000
  55.9470000 138.4340000  30.3170000  55.1140000 137.8390000  30.6890000
  55.6720000 138.8340000  29.3290000  56.0700000 139.5010000  31.3870000
  56.4460000 140.3920000  30.9340000  55.8520000 139.5540000  32.7010000
  56.0690000 140.5470000  33.1280000  55.5970000 138.5220000  33.7640000
  54.5310000 138.6660000  33.9590000  56.1490000 138.7070000  34.6610000
  55.8610000 137.0600000  33.4780000  56.9040000 136.8920000  33.3610000
  55.4730000 136.6960000  32.5510000  55.3280000 136.0760000  34.5970000
  55.4950000 136.5250000  35.5530000  56.0610000 135.3420000  34.7690000
  53.9260000 135.4950000  34.5130000  53.2790000 136.3950000  34.6560000
  53.8120000 134.9610000  35.3940000  53.6380000 134.7090000  33.1390000
  54.1690000 133.7370000  33.1100000  54.1280000 135.2030000  32.3200000
  52.1630000 134.3530000  32.8420000  52.1550000 133.8150000  31.9380000
  51.5550000 135.2200000  32.6120000  51.5450000 133.4040000  33.9640000
  51.8330000 133.8240000  34.9320000  52.0290000 132.4370000  33.7960000
  49.9920000 133.3610000  34.0010000  49.6740000 132.8370000  34.9550000
  49.7200000 132.7860000  33.0840000  49.5110000 134.3220000  33.9020000
  75.8440000 146.2310000  38.3320000  74.8180000 145.8740000  38.4630000
  75.8890000 147.2860000  38.4900000  76.2870000 145.6240000  39.1760000
  76.4170000 145.8130000  36.9040000  75.9800000 144.8220000  36.6570000
  76.1240000 146.4810000  36.1060000  77.9690000 145.3850000  36.8080000
  78.4430000 146.1290000  37.4220000  78.1110000 144.4300000  37.2220000
  78.4600000 145.3700000  35.3570000  78.0900000 144.4520000  34.8540000
  78.1990000 146.2020000  34.7660000  79.9960000 145.4430000  35.4140000
  80.1620000 146.2420000  36.2020000  80.3260000 144.4590000  35.8020000
  80.7920000 145.8120000  34.1370000  80.6490000 146.8930000  33.9880000
  81.8080000 145.6290000  34.3970000  80.4650000 145.1580000  32.6990000
  80.8510000 144.1370000  32.5460000  79.3570000 145.1430000  32.4710000
  81.0820000 145.9330000  31.5660000  80.5630000 146.8290000  31.4760000
  82.1710000 146.0910000  31.7950000  81.0010000 145.2430000  30.1650000
  81.3950000 144.2240000  30.2670000  79.9760000 145.0510000  29.6960000
  81.9340000 145.9850000  29.2150000  82.7730000 146.4000000  29.8040000
  82.3980000 145.2720000  28.4660000  81.2900000 147.1670000  28.4100000
  80.9340000 147.8190000  29.1170000  82.1120000 147.6130000  27.7860000
  80.0830000 146.8270000  27.4750000  80.3860000 145.9990000  26.7920000
  79.2450000 146.4540000  28.0110000  79.6660000 148.0800000  26.6530000
  79.0790000 148.7050000  27.3120000  80.6490000 148.5340000  26.3400000
  78.7270000 147.7880000  25.4140000  77.7170000 147.4040000  25.7710000
  78.5490000 148.7580000  24.9250000  79.1870000 146.7310000  24.4630000
  79.4500000 145.8300000  25.0070000  78.3970000 146.4060000  23.7820000
  80.4270000 147.0460000  23.7190000  80.3600000 147.4170000  22.5800000
  81.5690000 146.9900000  24.4150000  82.6930000 147.1190000  23.6140000
  82.5660000 146.4770000  22.7680000  82.8260000 148.2310000  23.4240000
  83.8880000 146.7200000  24.4000000  83.8800000 147.2280000  25.3690000
  85.1550000 146.9460000  23.5510000  85.5610000 147.8830000  23.6640000
  85.8380000 146.1430000  23.9740000  85.0740000 146.7050000  22.1220000
  85.5970000 145.3890000  21.4010000  84.6740000 144.2100000  22.1140000
  83.2870000 143.9950000  21.7940000  82.6870000 143.5540000  22.6530000
  82.7520000 144.9200000  21.5680000  83.0930000 143.0440000  20.6880000
  82.0630000 142.7600000  20.7540000  83.3920000 143.4300000  19.7000000
  83.7260000 141.6710000  20.8750000  83.6410000 141.2960000  22.2550000
  84.4580000 141.7430000  22.8330000  82.6180000 141.5700000  22.5840000
  83.7620000 140.1720000  22.2900000  82.9540000 140.6360000  20.0680000
  82.5910000 141.0940000  19.1340000  83.6490000 139.7580000  19.9040000
  82.1100000 140.4040000  20.6700000  85.2360000 141.7220000  20.6410000
  85.4020000 141.7400000  19.5850000  85.7130000 140.8360000  21.0950000
  85.6160000 142.6540000  21.0920000  85.0980000 145.5060000  19.9820000
  87.0090000 145.1310000  21.6140000  83.6720000 145.2560000  24.6700000
  84.1680000 144.7630000  25.7880000  84.7490000 145.4350000  26.6050000
  83.9880000 143.2420000  25.8330000  84.2650000 142.9060000  24.7700000
  82.9870000 143.0290000  26.0480000  84.8930000 142.5820000  26.9290000
  85.8160000 143.1040000  26.9320000  85.1690000 141.5120000  26.6900000
  84.3090000 142.6830000  28.3800000  83.2400000 142.5060000  28.4350000
  84.3930000 143.7360000  28.7360000  85.0930000 141.8100000  29.3490000
  86.1860000 142.0350000  29.3830000  84.9190000 140.7670000  29.1060000
  84.5750000 142.0520000  30.8270000  85.1580000 141.4020000  31.4670000
  83.4890000 141.7070000  30.8180000  84.6190000 143.5340000  31.4090000
  84.1570000 143.4440000  32.3720000  84.0150000 144.1910000  30.6940000
  86.0590000 144.1270000  31.6010000  86.6660000 143.9400000  30.7630000
  86.4820000 143.4520000  32.4500000  86.0280000 145.5800000  31.9550000
  86.1970000 146.2670000  31.0920000  85.7010000 146.0130000  33.1650000
  85.5880000 147.0760000  33.2510000  85.2930000 145.2170000  34.3540000
  85.7260000 144.2590000  34.3490000  84.2130000 144.9800000  34.3320000
  85.6010000 145.8860000  35.7360000  85.3120000 146.9030000  35.8290000
  86.7020000 145.8150000  35.8750000  84.7740000 145.1450000  36.7810000
  85.0520000 144.0440000  36.8430000  83.7330000 145.1830000  36.5840000
  85.1260000 145.6600000  38.1750000  84.9420000 146.7390000  38.3290000
  86.1830000 145.6440000  38.3310000  84.4690000 144.8290000  39.3070000
  84.7610000 145.2990000  40.2800000  84.8080000 143.8010000  39.4060000
  82.8970000 144.8010000  39.2760000  82.6030000 144.1120000  38.4680000
  82.5740000 145.8250000  39.0670000  82.3560000 144.1830000  40.6480000
  82.8630000 144.6550000  41.4730000  82.7480000 143.2010000  40.8650000
  80.8210000 144.1910000  40.7330000  80.4490000 143.9880000  39.7360000
  80.3630000 145.0890000  41.1050000  80.4600000 143.3240000  41.3750000
 113.9800000  66.6030000  32.1050000 115.0270000  66.8120000  31.8480000
 113.9320000  65.5710000  32.5030000 113.6270000  67.2880000  32.8710000
 113.0330000  66.7890000  30.9100000 112.9830000  67.8690000  30.5720000
 113.4500000  66.2960000  30.0080000 111.6290000  66.3320000  31.2000000
 111.5130000  65.3740000  31.5930000 111.3720000  66.9080000  32.1230000
 110.7270000  66.7000000  30.0140000 109.7820000  66.2450000  30.2160000
 110.6870000  67.7680000  29.8490000 111.2370000  66.2060000  28.6930000
 111.9670000  66.8910000  28.3210000 111.7160000  65.2470000  28.8430000
 110.1140000  66.2380000  27.6080000 109.2400000  65.7910000  27.9760000
 109.8950000  67.2590000  27.3810000 110.4460000  65.3460000  26.3960000
 111.4490000  65.3600000  26.1130000 110.3340000  64.2650000  26.5350000
 109.5300000  65.7450000  25.1830000 109.5080000  66.7590000  25.0100000
 109.9950000  65.3270000  24.2950000 108.0200000  65.2900000  25.2210000
 107.9500000  64.2340000  25.3350000 107.4520000  65.6870000  26.0610000
 107.3050000  65.7570000  23.9240000 107.4470000  66.8710000  23.9120000
 107.7650000  65.2650000  23.0300000 105.7240000  65.6130000  23.9960000
 105.3780000  64.5800000  24.1040000 105.4620000  66.1350000  24.8780000
 105.0210000  66.1730000  22.7170000 105.2520000  67.2640000  22.5970000
 105.2910000  65.6090000  21.7960000 103.4930000  66.0210000  23.0170000
 103.2990000  66.3640000  23.9850000 102.9290000  66.7300000  22.3220000
 102.8550000  64.7210000  22.8260000 103.4700000  64.0700000  23.4860000
 101.8800000  64.7230000  23.2290000 102.8320000  64.0690000  21.4040000
 103.8670000  64.0900000  21.0120000 102.5520000  63.0420000  21.4300000
 101.8620000  64.7420000  20.4570000 100.7490000  64.3250000  20.3120000
 102.4600000  65.8130000  19.8040000 101.7150000  66.6660000  18.9130000
 102.4180000  67.2830000  18.3930000 101.1570000  66.0150000  18.2390000
 100.7470000  67.6480000  19.6760000  99.9930000  67.0690000  20.1480000
 100.0900000  68.6660000  18.6720000  99.2420000  68.1790000  18.2350000
  99.7010000  69.5090000  19.1130000 100.8930000  69.0760000  17.5420000
 101.9900000  70.2820000  17.7140000 103.3880000  69.5210000  17.9490000
 104.1190000  69.0030000  16.8620000 103.6310000  68.0620000  16.5200000
 104.1390000  69.7880000  16.0890000 105.6160000  68.8450000  17.1320000
 106.0990000  68.6340000  16.2190000 105.9040000  69.8350000  17.5380000
 106.0770000  67.8540000  18.2330000 105.9200000  68.3890000  19.5610000
 106.1470000  67.7060000  20.3280000 106.5800000  69.2980000  19.6990000
 104.8880000  68.8020000  19.6210000 105.2520000  66.6390000  18.1850000
 105.0920000  66.1620000  17.2280000 105.8910000  65.9670000  18.7840000
 104.3620000  66.9040000  18.7400000 107.5160000  67.5990000  18.0490000
 107.8610000  67.2930000  19.0330000 107.9770000  68.6020000  17.8510000
 107.6250000  66.8020000  17.3250000 102.0860000  71.1040000  16.4750000
 101.7520000  71.0310000  19.0120000 101.4570000  68.4180000  20.6490000
 100.8200000  69.2890000  21.4310000  99.6060000  69.2520000  21.5270000
 101.7750000  70.2490000  22.1320000 101.6070000  71.2120000  21.6830000
 102.7650000  69.8960000  21.9120000 101.5810000  70.3020000  23.6870000
 100.5640000  70.5120000  23.8000000 102.0800000  71.1320000  24.1050000
 101.9450000  68.9910000  24.3220000 102.9030000  68.7390000  24.0230000
 101.2430000  68.1800000  24.0250000 102.0690000  68.9600000  25.8560000
 101.0670000  68.8720000  26.2570000 102.4760000  69.9250000  26.1450000
 102.9310000  67.7440000  26.3440000 103.8280000  67.7890000  25.7250000
 102.2460000  66.8950000  26.2810000 103.2680000  67.6540000  27.8230000
 102.4040000  67.4980000  28.4320000 103.6760000  68.6070000  28.2610000
 104.3390000  66.5210000  28.0320000 104.7710000  66.5780000  29.0340000
 105.2300000  66.6990000  27.4930000 103.7300000  65.1680000  27.7300000
 102.6050000  65.1880000  27.5490000 104.3980000  64.0100000  27.7900000
 103.8550000  63.1680000  27.5260000 105.8400000  63.8390000  28.2350000
 106.3900000  64.7670000  28.1580000 106.2570000  63.0620000  27.5510000
 106.0070000  63.3110000  29.6730000 105.4490000  62.3890000  29.8040000
 105.7340000  64.1100000  30.4340000 107.4350000  63.0280000  30.0470000
 107.9630000  63.9270000  29.8070000 107.7130000  62.2750000  29.3590000
 107.6270000  62.4890000  31.4880000 108.6890000  62.2230000  31.6470000
 107.0420000  61.6080000  31.6850000 107.1870000  63.3680000  32.6610000
 106.0890000  63.4700000  32.7330000 107.6190000  64.4180000  32.5150000
 107.6880000  62.6600000  33.9930000 108.5760000  62.0560000  33.7900000
 106.9660000  61.8890000  34.3610000 107.9150000  63.5860000  35.1630000
 108.6820000  64.3210000  34.9570000 108.3780000  62.9430000  35.9260000
 106.7640000  64.3250000  35.8570000 107.2130000  65.0470000  36.5680000
 106.0720000  63.5950000  36.3450000 106.0810000  64.8750000  35.1860000
 112.1590000  10.7170000  33.7280000 111.5180000  11.5380000  33.4010000
 113.0790000  11.0500000  34.1210000 111.5060000  10.0880000  34.3450000
 112.4970000   9.7850000  32.5120000 112.9790000  10.4030000  31.7490000
 113.2610000   9.0460000  32.9250000 111.3510000   8.9010000  32.0390000
 111.1500000   8.1580000  32.7600000 110.4840000   9.5900000  31.9490000
 111.5460000   8.1570000  30.7060000 111.7870000   8.9730000  29.9520000
 112.2920000   7.2980000  30.6980000 110.3770000   7.4930000  30.0600000
 110.6140000   7.1730000  29.0460000 110.1070000   6.5540000  30.5620000
 109.0820000   8.3710000  30.0280000 108.2700000   7.7190000  29.5980000
 108.6730000   8.7470000  30.9800000 109.2780000   9.6290000  29.1340000
 108.3430000  10.1710000  29.0360000 109.9580000  10.2330000  29.6420000
 109.8760000   9.3620000  27.7450000 110.9470000   9.0690000  27.8230000
 109.2740000   8.5590000  27.2400000 109.8070000  10.6010000  26.7750000
 110.1850000  11.5710000  27.2910000 110.3810000  10.2710000  25.9120000
 108.4530000  11.1370000  26.2040000 107.9010000  11.5260000  27.0680000
 108.6850000  11.9040000  25.4230000 107.4970000  10.2320000  25.4940000
 107.2900000   9.4060000  26.1650000 106.5650000  10.7910000  25.3630000
 108.0830000   9.6610000  24.1450000 108.2530000  10.4520000  23.4310000
 109.0740000   9.2460000  24.3540000 107.0320000   8.7300000  23.3970000
 106.0310000   9.1650000  23.4050000 107.3470000   8.4610000  22.3740000
 106.9660000   7.3470000  24.2030000 108.0420000   7.1230000  24.2830000
 106.4590000   7.5500000  25.1280000 106.2380000   6.2610000  23.4900000
 106.8390000   6.1950000  22.5650000 106.2970000   5.3080000  23.9810000
 104.8290000   6.6530000  23.1910000 103.9330000   6.3100000  23.9240000
 104.6530000   7.2630000  22.0200000 103.3340000   7.5260000  21.4660000
 103.5390000   7.5620000  20.3710000 102.6480000   6.7960000  21.7660000
 102.7510000   8.9430000  21.8980000 102.8540000   8.9850000  22.9890000
 101.3060000   8.9820000  21.3030000 100.7090000   8.2980000  21.9550000
 100.7710000   9.9770000  21.3610000 101.2010000   8.5290000  19.9630000
  99.7420000   8.4790000  19.2220000  98.8420000   7.4550000  20.1280000
  98.6780000   6.0140000  19.8310000  99.5210000   5.6970000  19.2120000
  98.6970000   5.4420000  20.7230000  97.2680000   5.8440000  19.2070000
  96.5030000   6.4220000  19.7130000  97.3710000   6.4320000  18.2060000
  96.9330000   4.3930000  18.8450000  96.9020000   3.4450000  20.0530000
  97.9420000   3.2540000  20.3400000  96.3040000   3.9480000  20.8020000
  96.4350000   2.5700000  19.6980000  95.5810000   4.2530000  18.2620000
  94.8130000   4.6760000  18.9560000  95.5170000   4.8070000  17.3110000
  95.2720000   3.2990000  18.0390000  97.9500000   3.8010000  17.9700000
  97.9820000   4.5440000  17.1380000  97.7230000   2.7360000  17.6540000
  98.8650000   3.8040000  18.5760000  99.1440000   9.8180000  19.2400000
  99.7970000   7.8270000  17.8990000 103.6200000   9.9800000  21.3420000
 103.5460000  11.1500000  22.0390000 102.9950000  11.3160000  23.1030000
 104.4090000  12.2570000  21.4330000 103.9060000  12.6060000  20.5120000
 105.3440000  11.8290000  21.0920000 104.7870000  13.4360000  22.3260000
 103.8500000  13.8500000  22.6480000 105.2730000  14.1910000  21.7120000
 105.6460000  13.1650000  23.5030000 106.5160000  12.5990000  23.2020000
 105.0440000  12.5770000  24.1240000 106.0930000  14.4970000  24.1270000
 105.2800000  15.2210000  24.1500000 106.9330000  14.8740000  23.5800000
 106.6120000  14.4520000  25.5700000 107.0570000  15.4040000  25.8610000
 107.4610000  13.7330000  25.6570000 105.4700000  14.0280000  26.4680000
 105.1530000  12.9990000  26.2180000 104.6260000  14.7070000  26.3540000
 105.8350000  14.0770000  27.9370000 106.1990000  15.1340000  28.1990000
 106.6270000  13.3020000  28.0680000 104.6240000  13.7740000  28.7950000
 103.6400000  14.1610000  28.3780000 104.6590000  13.1190000  29.9480000
 103.6780000  13.0020000  30.4830000 105.8930000  12.3940000  30.5550000
 106.3790000  12.9900000  31.3450000 106.6260000  12.0110000  29.8330000
 105.2730000  11.1000000  31.1860000 105.0200000  10.3900000  30.3640000
 104.3740000  11.3280000  31.6870000 106.3900000  10.4700000  32.0740000
 106.6440000  11.1970000  32.8480000 107.2850000  10.5030000  31.3680000
 106.1870000   8.9990000  32.5650000 106.2370000   8.2490000  31.7860000
 105.1530000   8.8530000  32.9910000 107.2000000   8.5890000  33.6590000
 106.9900000   9.2280000  34.5230000 108.2390000   8.6970000  33.3990000
 107.0720000   7.1580000  34.2490000 108.0070000   6.9460000  34.7640000
 106.9600000   6.4160000  33.4750000 105.8820000   6.7940000  35.2150000
 105.9270000   5.7170000  35.2910000 104.9080000   7.0920000  34.8280000
 105.9120000   7.5310000  36.5830000 104.9990000   7.3080000  37.2490000
 106.0840000   8.6220000  36.4160000 106.7150000   7.1300000  37.1590000
 120.9470000  84.2170000  28.4600000 121.9140000  83.8720000  28.7470000
 120.3500000  83.4010000  28.1300000 120.4740000  84.8210000  29.2560000
 121.0870000  85.0680000  27.1840000 121.6040000  84.6260000  26.3940000
 120.1040000  85.4400000  26.8030000 121.9680000  86.2660000  27.6770000
 121.4860000  86.8420000  28.4740000 122.9000000  85.7300000  28.0880000
 122.4780000  87.1030000  26.5940000 122.8920000  86.4430000  25.8170000
 121.6430000  87.6670000  26.1910000 123.4650000  88.1130000  27.2310000
 123.1130000  88.7910000  28.0150000 124.3000000  87.5560000  27.7400000
 124.0800000  89.0230000  26.1640000 123.2100000  89.6270000  25.9800000
 124.8270000  89.6740000  26.6210000 124.6500000  88.5540000  24.8420000
 125.4500000  87.9160000  25.1420000 123.9190000  88.1010000  24.1980000
 125.3640000  89.7170000  24.0250000 126.1550000  90.0950000  24.6430000
 125.8880000  89.1900000  23.1960000 124.5730000  90.9270000  23.5290000
 124.0120000  91.3880000  24.3410000 125.3340000  91.7030000  23.2310000
 123.4140000  90.8170000  22.5360000 122.6780000  90.1960000  22.9520000
 122.8930000  91.7540000  22.3580000 124.0060000  90.3340000  21.2300000
 124.8560000  90.9780000  20.7790000 124.4130000  89.3310000  21.3310000
 122.8140000  90.2110000  20.1770000 121.9900000  89.6800000  20.6440000
 122.4090000  91.1550000  19.7800000 123.2210000  89.3960000  18.9420000
 124.0990000  89.8740000  18.5300000 123.4380000  88.3540000  19.3260000
 122.0900000  89.3980000  17.9280000 121.2240000  89.0280000  18.4460000
 121.8190000  90.4840000  17.6770000 122.2350000  88.5360000  16.6640000
 123.1920000  88.0450000  16.7810000 121.3460000  87.8370000  16.6310000
 122.3780000  89.4640000  15.4430000 121.3750000  89.7810000  14.8030000
 123.6020000  89.9050000  15.2330000 123.9450000  90.9060000  14.2030000
 124.9420000  91.3020000  14.5570000 124.1220000  90.4430000  13.2780000
 122.8940000  92.0940000  14.0840000 121.9770000  91.7490000  13.4590000
 123.4940000  93.2560000  13.1680000 124.1630000  92.9670000  12.3720000
 122.7060000  93.9880000  12.7870000 124.3560000  94.0750000  14.0430000
 123.8530000  95.4130000  14.7340000 124.9250000  96.5260000  14.3060000
 125.4610000  97.3810000  15.3390000 125.0980000  97.1180000  16.2950000
 126.5140000  97.0690000  15.3780000 125.2600000  98.8150000  14.8680000
 125.7130000  99.4370000  15.6300000 125.7260000  98.8350000  13.8380000
 123.8400000  99.2620000  14.6840000 123.8670000 100.7250000  14.7470000
 122.8800000 101.1150000  14.6630000 124.2730000 100.9980000  15.7170000
 124.5090000 101.0900000  13.9880000 123.3140000  98.9060000  13.2980000
 122.9530000  97.8800000  13.2600000 122.4960000  99.5560000  13.0910000
 124.1350000  99.0510000  12.5230000 122.9520000  98.6990000  15.7130000
 122.8100000  97.6740000  15.3940000 122.0800000  99.3550000  15.7890000
 123.6080000  98.8790000  16.6220000 122.6330000  95.8960000  14.0710000
 123.8800000  95.3040000  16.2400000 122.5660000  92.5700000  15.4430000
 121.2600000  93.0050000  15.5590000 120.4540000  93.0120000  14.6020000
 120.9260000  93.6660000  16.8160000 120.8130000  94.7070000  16.6510000
 121.8310000  93.6990000  17.3930000 119.7440000  93.0980000  17.6780000
 119.8300000  92.0340000  17.8240000 118.7680000  93.2920000  17.2100000
 119.8530000  93.8070000  19.0920000 119.8910000  94.8670000  18.9100000
 120.8840000  93.5030000  19.3830000 118.8180000  93.2950000  20.0810000
 117.7650000  93.3930000  19.6240000 118.7020000  93.9600000  21.0000000
 119.0380000  91.8870000  20.6680000 120.0760000  91.7790000  21.0580000
 119.0900000  91.2910000  19.7740000 117.9170000  91.5010000  21.6710000
 116.9780000  91.6110000  21.1620000 117.9310000  92.1660000  22.4950000
 117.9440000  90.0700000  22.1100000 117.9810000  89.6100000  21.1540000
 116.9920000  89.9530000  22.6330000 119.0730000  89.6090000  23.0150000
 120.0180000  89.4730000  22.4920000 119.0700000  89.2830000  24.2750000
 120.0010000  88.8780000  24.6780000 117.8970000  89.1420000  25.2680000
 117.0150000  88.9060000  24.7680000 117.7280000  90.0940000  25.7530000
 118.1770000  88.2020000  26.4510000 119.0860000  88.5140000  27.0070000
 118.4050000  87.2050000  26.0170000 117.0680000  88.0260000  27.4440000
 116.3080000  87.5590000  26.8010000 116.7030000  89.0070000  27.8540000
 117.4630000  87.0550000  28.5530000 118.2440000  87.5280000  29.1380000
 117.8100000  86.1280000  28.1640000 116.3270000  86.7320000  29.4430000
 115.4920000  86.3590000  28.8630000 115.8780000  87.6200000  29.8250000
 116.6330000  85.6780000  30.5300000 116.8550000  84.7130000  30.0490000
 115.7690000  85.4600000  31.1270000 117.7450000  86.0430000  31.4480000
 117.7300000  87.0590000  31.7270000 118.7440000  85.9930000  30.9870000
 117.7630000  85.2000000  32.7130000 117.9850000  85.8770000  33.5570000
 118.3990000  84.3180000  32.5640000 116.8010000  84.8270000  32.9770000
  69.7790000  32.9590000  32.5300000  68.7490000  33.2650000  32.3020000
  69.9030000  33.5130000  33.3780000  69.7460000  31.9340000  32.8610000
  70.8500000  33.3280000  31.5770000  71.7970000  33.2070000  31.9100000
  70.6150000  32.7740000  30.6700000  70.6300000  34.7860000  31.1210000
  69.7680000  34.6940000  30.4720000  70.2960000  35.3570000  31.9870000
  71.8980000  35.4250000  30.3610000  72.6620000  35.4780000  31.1520000
  72.2690000  34.7930000  29.4960000  71.6450000  36.8810000  29.8670000
  71.4390000  37.4010000  30.7260000  72.6200000  37.2130000  29.5370000
  70.6070000  37.2090000  28.7640000  69.5720000  36.8640000  29.1420000
  70.5540000  38.3090000  28.5610000  71.0130000  36.5580000  27.4600000
  71.3160000  37.2020000  26.7150000  71.9060000  35.9610000  27.6380000
  69.8930000  35.7450000  26.7690000  70.3060000  35.5030000  25.8090000
  69.0510000  36.3050000  26.5630000  69.4340000  34.4370000  27.4760000
  70.3010000  33.7540000  27.4270000  69.1620000  34.6630000  28.4360000
  68.3080000  33.6850000  26.6460000  67.5940000  34.4430000  26.3800000
  68.6750000  33.2230000  25.6910000  67.6040000  32.5970000  27.5470000
  67.2680000  32.9320000  28.4910000  66.6930000  32.3910000  26.8860000
  68.6120000  31.4610000  27.6790000  69.0100000  31.1990000  26.7110000
  69.4900000  31.7180000  28.2460000  67.8610000  30.2500000  28.0870000
  67.5720000  30.4020000  29.1200000  67.0220000  30.1500000  27.3960000
  68.6380000  28.9560000  28.0400000  69.4580000  29.0520000  28.7360000
  67.8680000  28.1720000  28.3470000  69.1870000  28.5130000  26.7080000
  70.0500000  29.0920000  26.3620000  69.7380000  27.5690000  26.7610000
  68.1040000  28.3280000  25.7040000  66.9050000  28.1420000  25.8750000
  68.7050000  28.2000000  24.5020000  67.7660000  27.9360000  23.3420000
  68.3460000  27.9060000  22.4090000  67.3000000  27.0300000  23.6310000
  66.7480000  29.1180000  23.1830000  66.1670000  29.4700000  24.0900000
  65.5490000  28.7570000  22.2710000  64.8080000  28.3500000  22.9570000
  65.0410000  29.5990000  21.8140000  65.7890000  27.7080000  21.3240000
  64.8150000  27.5230000  20.0430000  65.6230000  28.1680000  18.8270000
  66.0250000  29.5590000  18.7910000  66.0890000  29.7680000  17.7110000
  65.3100000  30.2860000  19.2430000  67.3770000  29.6070000  19.4970000
  67.7410000  30.6100000  19.5820000  67.3080000  29.3210000  20.5290000
  68.5790000  28.8860000  18.8570000  69.7540000  29.1670000  19.7550000
  69.6130000  28.7900000  20.7510000  70.5820000  28.7130000  19.1830000
  69.9150000  30.2380000  19.6510000  68.4730000  27.3040000  18.9030000
  69.4340000  27.0650000  18.4750000  68.4180000  27.0400000  19.9740000
  67.5650000  26.8880000  18.4600000  68.8390000  29.4110000  17.5120000
  69.6690000  28.9530000  17.0380000  69.1320000  30.4360000  17.6940000
  67.8800000  29.2350000  17.0140000  64.5490000  26.0940000  19.7570000
  63.7010000  28.5050000  20.1690000  67.4180000  30.2270000  22.5840000
  67.7290000  31.2370000  23.4230000  67.5310000  31.2160000  24.5840000
  68.3330000  32.3940000  22.7000000  68.6320000  32.1780000  21.6510000
  69.2440000  32.6990000  23.1640000  67.4030000  33.6260000  22.8440000
  67.9570000  34.5350000  22.7690000  67.0450000  33.6620000  23.9060000
  66.1980000  33.7080000  21.9460000  65.6780000  34.6750000  22.0180000
  65.6580000  32.8780000  22.3190000  66.4030000  33.3920000  20.4610000
  67.0260000  32.5020000  20.3540000  66.8100000  34.3130000  19.9490000
  65.1620000  33.1000000  19.7160000  64.7780000  32.1360000  20.0240000
  65.4750000  33.0090000  18.6620000  64.1140000  34.1730000  19.7440000
  63.5800000  34.1490000  20.6740000  63.4370000  33.8910000  18.9500000
  64.6400000  35.5460000  19.3950000  65.0320000  35.5610000  18.3890000
  65.4630000  35.8480000  20.1090000  63.4690000  36.5130000  19.3930000
  62.7120000  36.2840000  18.5990000  63.3090000  37.4790000  20.2810000
  62.3850000  38.1200000  20.1620000  64.3570000  37.8640000  21.3200000
  64.1550000  38.8510000  21.6860000  65.4120000  37.8350000  20.9960000
  64.0640000  36.9390000  22.5500000  63.9920000  35.9420000  22.1040000
  63.1100000  37.2030000  23.0000000  65.1180000  37.0510000  23.6490000
  66.0730000  36.9150000  23.1100000  65.0680000  36.2000000  24.3420000
  65.0270000  38.3250000  24.4200000  63.9670000  38.5230000  24.7380000
  65.2540000  39.2150000  23.7370000  66.0410000  38.3850000  25.6050000
  66.2530000  39.4540000  25.9160000  66.9280000  37.9770000  25.1810000
  65.5190000  37.5480000  26.7660000  65.4490000  36.4990000  26.5530000
  64.5460000  37.8240000  26.9260000  66.4400000  37.6850000  28.0640000
  66.6860000  38.7080000  28.2220000  67.4280000  37.1580000  27.9230000
  65.9410000  37.0690000  29.3390000  66.5150000  37.1500000  30.2450000
  66.0460000  36.0230000  29.1880000  64.8760000  37.4300000  29.4780000
  76.2670000 150.1780000  37.2740000  76.4910000 149.5210000  38.1550000
  75.6380000 151.0480000  37.4860000  77.2150000 150.6100000  36.9530000
  75.5420000 149.1430000  36.3430000  76.2060000 148.4600000  35.8760000
  74.7590000 148.5410000  36.8960000  74.8560000 149.9490000  35.1920000
  74.1030000 150.6420000  35.5760000  75.6740000 150.4690000  34.6720000
  74.0830000 149.1370000  34.1450000  74.6070000 148.1580000  34.1120000
  73.0560000 149.0440000  34.4680000  73.9210000 149.8130000  32.6990000
  73.3880000 150.7430000  32.8570000  74.9000000 150.0620000  32.2430000
  73.1020000 148.8460000  31.7860000  73.7260000 147.9290000  31.7880000
  72.1770000 148.6160000  32.3220000  72.9300000 149.4630000  30.4080000
  73.9550000 149.4980000  29.9910000  72.3520000 148.7570000  29.8760000
  72.1700000 150.8100000  30.3300000  71.6140000 150.9300000  31.2470000
  72.7490000 151.7210000  30.4630000  71.1320000 151.0130000  29.2060000
  70.3630000 150.2050000  29.2190000  70.5720000 151.9570000  29.3540000
  71.8070000 151.0640000  27.8270000  72.5440000 151.9850000  27.8040000
  72.3830000 150.1140000  27.6150000  70.7900000 151.3170000  26.7670000
  70.0160000 150.4570000  26.8190000  70.3250000 152.2000000  27.1280000
  71.2090000 151.4750000  25.2640000  72.0550000 152.1680000  25.0890000
  71.5620000 150.4630000  24.9080000  70.1110000 151.8500000  24.2400000
  69.5600000 152.6030000  24.7430000  70.6590000 152.2450000  23.4020000
  69.1360000 150.7280000  23.7840000  68.5590000 150.4200000  24.7020000
  68.3730000 151.1950000  23.1740000  69.6790000 149.5050000  23.0070000
  70.5610000 149.0710000  23.5440000  68.9320000 148.6810000  23.0780000
  69.8880000 149.7550000  21.5420000  68.9690000 150.1520000  20.8180000
  71.1550000 149.3960000  21.1530000  71.7860000 149.7800000  19.8980000
  72.7670000 149.2110000  19.7360000  71.0460000 149.4770000  19.1290000
  72.0560000 151.3010000  19.7510000  71.1150000 151.8470000  19.8180000
  72.8330000 151.6030000  18.3860000  72.1990000 151.1340000  17.6100000
  72.9130000 152.6650000  18.0760000  74.1630000 150.9480000  18.2650000
  75.5290000 151.6360000  18.9090000  75.8200000 150.5540000  20.0840000
  76.5230000 149.4050000  19.7480000  76.3050000 148.5810000  20.4360000
  76.0860000 148.9700000  18.8120000  77.9990000 149.7550000  19.6630000
  78.5760000 148.8480000  19.3790000  78.1500000 150.4510000  18.8060000
  78.5130000 150.4010000  20.8690000  80.0200000 150.4720000  20.7170000
  80.2730000 151.3030000  20.0740000  80.5220000 150.6340000  21.7500000
  80.3880000 149.5730000  20.2570000  78.1380000 151.8510000  21.0770000
  77.1110000 151.9200000  21.0380000  78.4890000 152.2810000  21.9660000
  78.5220000 152.3250000  20.2180000  78.1500000 149.6020000  22.0670000
  78.3670000 150.2090000  22.9510000  78.6410000 148.6590000  21.8780000
  77.0590000 149.4040000  22.1980000  76.5900000 151.5790000  17.8950000
  75.2040000 152.8930000  19.5100000  72.8730000 151.5340000  20.9580000
  72.7750000 152.7190000  21.4720000  71.9520000 153.5740000  21.1140000
  73.7640000 152.9830000  22.5430000  74.7010000 152.9740000  22.0710000
  73.7760000 152.1060000  23.1920000  73.6410000 154.3100000  23.2760000
  72.7020000 154.4620000  23.8410000  73.6770000 155.1500000  22.5260000
  74.8740000 154.4960000  24.2140000  75.7190000 155.0080000  23.6950000
  75.2720000 153.4730000  24.4290000  74.5850000 155.2610000  25.5580000
  74.0850000 156.1970000  25.1690000  75.5280000 155.5880000  26.0100000
  73.6180000 154.5410000  26.5680000  74.0610000 153.6650000  26.9770000
  72.7740000 154.1890000  25.9990000  73.2060000 155.5040000  27.7120000
  72.7300000 156.4070000  27.3610000  74.1030000 155.7890000  28.2380000
  72.3040000 154.7060000  28.7570000  72.9420000 154.0290000  29.2780000
  71.4830000 154.2000000  28.2500000  71.7600000 155.9070000  29.5730000
  70.9960000 156.5550000  29.1280000  71.8660000 156.0560000  30.8990000
  71.3740000 156.8790000  31.4380000  72.5550000 155.1480000  31.8650000
  73.4340000 155.6860000  32.1460000  72.8870000 154.2240000  31.3630000
  71.8010000 154.9390000  33.2380000  70.8230000 154.4830000  33.0090000
  71.4620000 155.9020000  33.7280000  72.6090000 154.1070000  34.2060000
  72.7720000 153.1390000  33.6870000  71.9270000 153.9020000  34.9850000
  73.8990000 154.6540000  34.7710000  73.6760000 155.5470000  35.3220000
  74.6710000 154.8400000  33.9680000  74.4750000 153.7550000  35.7630000
  75.1780000 153.0540000  35.3420000  73.6400000 153.1570000  36.1880000
  75.2670000 154.4300000  36.9370000  75.4030000 153.6790000  37.6420000
  74.6850000 155.2360000  37.3970000  76.6400000 154.9330000  36.4260000
  76.4250000 155.5570000  35.5350000  77.1840000 154.0280000  36.0010000
  77.4570000 155.5930000  37.5580000  77.5230000 154.9720000  38.3770000
  76.8710000 156.5040000  37.8230000  78.4200000 155.9830000  37.2360000
 139.8150000  88.1850000  29.0360000 139.1540000  88.6030000  28.2730000
 139.8660000  88.9050000  29.8690000 139.2400000  87.3370000  29.4400000
 141.1920000  87.7430000  28.4960000 141.0570000  87.0870000  27.6570000
 141.7240000  88.5460000  28.0570000 142.1670000  87.1520000  29.5980000
 141.8380000  86.2030000  29.9930000 143.0570000  86.8240000  29.1040000
 142.5040000  88.1240000  30.8370000 141.6660000  88.7500000  31.1870000
 142.9560000  87.5010000  31.6030000 143.5820000  89.1120000  30.4080000
 144.2840000  88.6250000  29.7650000 143.2700000  89.9950000  29.9210000
 144.5330000  89.5800000  31.5610000 143.8950000  89.9300000  32.4030000
 145.1460000  88.7150000  31.8780000 145.4560000  90.7460000  31.0590000
 144.9410000  91.7870000  30.9650000 146.2630000  90.8590000  31.8610000
 146.1320000  90.5190000  29.7180000 145.3720000  90.4260000  28.9000000
 146.6800000  91.4580000  29.4200000 147.1120000  89.3400000  29.6430000
 147.7270000  89.3040000  30.4980000 146.5310000  88.4450000  29.7790000
 147.9750000  89.1510000  28.3960000 148.6450000  90.0050000  28.3800000
 148.6810000  88.3550000  28.5060000 147.2020000  89.1940000  27.0630000
 146.6310000  90.1080000  26.9540000 148.0370000  89.3590000  26.3950000
 146.3360000  87.9640000  26.7530000 146.9260000  87.0500000  26.8860000
 145.5490000  87.9720000  27.4210000 145.7190000  87.8790000  25.3120000
 146.5820000  87.8950000  24.5870000 145.2280000  86.9100000  25.1690000
 144.8180000  89.0190000  24.9140000 144.2350000  89.2270000  25.7410000
 145.3630000  89.9550000  24.7810000 144.1040000  88.8200000  23.5470000
 144.7960000  88.7110000  22.7850000 143.3760000  87.9910000  23.6070000
 143.3050000  90.0720000  23.1290000 143.2370000  91.1060000  23.7730000
 142.8000000  89.9140000  21.9520000 142.1510000  91.0670000  21.2730000
 141.7460000  90.7640000  20.3070000 141.3230000  91.4290000  21.8480000
 143.0350000  92.2720000  20.9900000 143.1380000  92.7800000  21.9570000
 142.4400000  93.3300000  20.0610000 141.7150000  93.9670000  20.5360000
 143.2090000  94.0410000  19.6480000 141.8550000  92.6870000  18.8640000
 142.7490000  92.3810000  17.5690000 143.2280000  90.9310000  17.7380000
 142.3660000  89.9190000  17.0910000 141.4180000  89.8480000  17.5180000
 142.3120000  90.1990000  16.0180000 142.9960000  88.5390000  17.0000000
 142.2840000  87.8830000  16.5470000 143.8760000  88.6190000  16.3670000
 143.3970000  87.9330000  18.3510000 144.4300000  88.7740000  19.1350000
 145.0290000  88.0720000  19.7580000 145.0320000  89.0830000  18.3020000
 143.8800000  89.5180000  19.6920000 142.2580000  87.5490000  19.2210000
 142.6630000  87.3450000  20.2190000 141.6660000  88.4040000  19.2030000
 141.7750000  86.7100000  18.7670000 144.1210000  86.6420000  18.1590000
 143.4970000  86.0360000  17.5210000 144.0130000  86.0250000  19.1020000
 145.0790000  86.6920000  17.7480000 141.9320000  92.5300000  16.3290000
 143.9120000  93.2200000  17.6320000 144.2590000  91.7140000  20.4730000
 145.3800000  92.4070000  20.5770000 145.5440000  93.5100000  21.1080000
 146.5570000  91.5130000  20.1030000 147.4790000  92.1140000  19.8810000
 146.3100000  91.0620000  19.1560000 146.8610000  90.4740000  21.1350000
 146.1840000  89.5830000  21.1050000 146.6670000  90.9690000  22.1160000
 148.2830000  89.8760000  21.1590000 148.3310000  89.1710000  20.3150000
 148.3740000  89.3060000  22.0180000 149.4720000  90.8180000  21.1350000
 149.3810000  91.6270000  21.8850000 149.4410000  91.3830000  20.2040000
 150.8210000  90.2170000  21.4630000 151.1200000  89.4600000  20.6790000
 150.8140000  89.7090000  22.3790000 151.9510000  91.2400000  21.5610000
 151.7220000  92.0800000  22.2100000 152.2210000  91.6620000  20.6050000
 153.1900000  90.4760000  21.9340000 153.5560000  89.8850000  21.1270000
 153.0040000  89.7670000  22.7520000 154.2480000  91.4950000  22.3960000
 154.8400000  91.9560000  21.6320000 154.4770000  91.8070000  23.6960000
 155.3300000  92.4670000  23.9320000 153.6110000  91.2670000  24.8430000
 153.9190000  90.2230000  24.9400000 152.5100000  91.2980000  24.6900000
 153.9570000  91.8730000  26.2430000 153.6390000  92.9130000  26.1410000
 155.0240000  91.8280000  26.4460000 153.0850000  91.1900000  27.3240000
 152.9690000  90.1180000  27.2590000 152.0450000  91.6430000  27.3900000
 153.6470000  91.4980000  28.7470000 153.8380000  92.5750000  28.8960000
 154.6330000  91.0630000  28.7200000 152.8140000  90.9790000  29.9480000
 152.4790000  89.9730000  29.7750000 151.8850000  91.5470000  30.0380000
 153.5280000  90.9870000  31.2670000 153.6620000  91.9800000  31.6070000
 154.5140000  90.4760000  31.1390000 152.7060000  90.2810000  32.3240000
 152.6910000  89.2480000  31.9460000 151.6520000  90.7080000  32.3270000
 153.1440000  90.3620000  33.7810000 152.6680000  89.7160000  34.4940000
 153.0200000  91.3680000  34.2020000 154.2840000  90.1010000  33.6970000
 120.7590000  65.3290000  36.3280000 120.6460000  65.3300000  37.3430000
 120.5020000  64.3190000  35.9240000 120.1460000  66.0880000  35.8600000
 122.1380000  65.7030000  35.9750000 122.3610000  66.7280000  36.2680000
 122.8300000  65.1550000  36.6590000 122.4740000  65.5080000  34.4980000
 122.5750000  64.4170000  34.3180000 121.6090000  65.8910000  33.8290000
 123.9330000  65.9990000  34.2020000 123.9020000  67.0770000  34.4870000
 124.7280000  65.5370000  34.8610000 124.3730000  65.6980000  32.7380000
 123.7500000  66.2640000  32.0560000 125.3850000  66.0740000  32.6800000
 124.4570000  64.2260000  32.2420000 125.0150000  63.5820000  32.9020000
 123.4650000  63.8200000  32.1450000 125.2620000  64.1060000  31.0050000
 126.3080000  64.1760000  31.2060000 125.1110000  63.1400000  30.5710000
 124.8420000  65.0860000  29.8590000 124.9060000  66.1070000  30.2600000
 125.6010000  65.0510000  29.0810000 123.5020000  64.7460000  29.2900000
 123.5390000  63.7340000  28.8620000 122.7750000  64.6780000  30.0480000
 122.9220000  65.6930000  28.2040000 123.0850000  66.7910000  28.5150000
 123.4850000  65.5140000  27.3020000 121.4460000  65.4080000  27.8180000
 121.3150000  64.3830000  27.5910000 120.7560000  65.5100000  28.6260000
 120.9840000  66.3850000  26.7290000 121.0190000  67.3980000  27.1990000
 121.7160000  66.2900000  25.9110000 119.5780000  66.0090000  26.2560000
 118.8780000  66.3040000  27.0510000 119.4670000  66.6030000  25.3450000
 119.3530000  64.5440000  25.7210000 119.6100000  63.7910000  26.5380000
 118.3310000  64.3200000  25.4070000 120.2240000  64.1680000  24.4630000
 121.3320000  64.3920000  24.6270000 120.0690000  63.0610000  24.3790000
 119.8720000  64.9610000  23.2340000 119.1140000  64.5210000  22.4120000
 120.6080000  66.1490000  23.1850000 120.7270000  66.8540000  21.9280000
 121.5840000  67.5200000  22.0370000 120.8750000  66.2120000  21.0140000
 119.4780000  67.6910000  21.6950000 118.5910000  66.9930000  21.6630000
 119.5500000  68.5420000  20.3550000 118.7270000  69.2920000  20.4070000
 120.5260000  69.0300000  20.2830000 119.4480000  67.8130000  19.1520000
 118.7070000  68.3650000  17.8340000 119.8780000  68.7010000  16.9040000
 120.7900000  69.7310000  17.1640000 121.0260000  70.2320000  16.2380000
 120.3950000  70.4310000  17.9120000 122.1220000  69.0440000  17.6200000
 122.7800000  69.8900000  17.8110000 121.9650000  68.4510000  18.4950000
 122.7540000  68.0820000  16.6930000 124.1020000  67.8520000  17.2970000
 124.0570000  66.9800000  18.0190000 124.9180000  67.5000000  16.6180000
 124.3890000  68.8330000  17.7290000 122.0180000  66.7660000  16.6320000
 121.8800000  66.4520000  17.6440000 121.0730000  66.9580000  16.2000000
 122.4650000  65.9670000  16.0790000 122.9000000  68.7430000  15.3630000
 122.0240000  69.2460000  15.0780000 123.1260000  67.9560000  14.6570000
 123.7370000  69.4970000  15.3840000 117.9400000  67.2360000  17.2590000
 117.9340000  69.5870000  18.1400000 119.3270000  68.6890000  22.7450000
 118.0460000  69.2900000  22.8610000 117.0700000  68.9770000  22.2510000
 118.1180000  70.4280000  23.9120000 117.1860000  70.9090000  23.9970000
 119.0180000  71.0720000  23.7090000 118.2590000  69.8360000  25.3310000
 119.1880000  69.2300000  25.3860000 117.4170000  69.1090000  25.4230000
 118.3000000  70.9310000  26.3900000 117.4560000  71.6570000  26.2970000
 119.2310000  71.4810000  26.0630000 118.4660000  70.4300000  27.8190000
 119.4000000  69.9130000  27.9060000 117.6160000  69.7620000  27.9780000
 118.4610000  71.5580000  28.9140000 117.5660000  72.2110000  28.7470000
 119.2680000  72.2420000  28.7160000 118.4810000  70.9690000  30.3490000
 117.7310000  70.2630000  30.3300000 118.2950000  71.8810000  30.9780000
 119.8340000  70.2890000  30.7130000 120.6180000  71.0240000  30.5070000
 119.9270000  69.3900000  30.0900000 119.7910000  69.6790000  32.1270000
 118.7940000  69.3640000  32.4970000 120.8400000  69.5670000  32.9380000
 120.7050000  69.1860000  33.9020000 122.3080000  69.6480000  32.4870000
 122.4580000  69.9140000  31.4450000 122.7870000  68.7560000  32.6830000
 123.0430000  70.7420000  33.3260000 123.3060000  70.2580000  34.2690000
 122.4610000  71.6550000  33.5590000 124.2800000  71.1560000  32.5930000
 123.9490000  71.7460000  31.7050000 124.8020000  70.2960000  32.1160000
 125.2350000  72.1100000  33.4020000 124.7120000  72.9690000  33.8180000
 126.0840000  72.5380000  32.8420000 125.9010000  71.3240000  34.6550000
 125.0550000  71.1240000  35.3260000 126.8200000  71.8610000  35.0350000
 126.4460000  69.8960000  34.3020000 125.6360000  69.2150000  34.1610000
 127.0190000  69.5750000  35.2050000 127.4070000  69.9220000  33.1220000
 128.0540000  70.8410000  33.1360000 126.7940000  69.8330000  32.1710000
 128.3760000  68.7610000  33.1400000 129.1400000  68.7360000  32.4080000
 127.8560000  67.7770000  33.1490000 128.9330000  68.7950000  34.1520000
  11.5660000 133.2870000  33.1700000  11.9640000 134.1710000  33.6650000
  12.3970000 132.6150000  32.9780000  10.9670000 132.7410000  33.8900000
  10.9650000 133.7920000  31.8630000  11.6920000 134.0180000  31.1790000
  10.3200000 133.0450000  31.4200000  10.0830000 135.0740000  32.0190000
   9.1380000 134.8300000  32.4130000  10.5170000 135.7300000  32.7990000
   9.8200000 135.8930000  30.7850000   9.2200000 136.8300000  31.1450000
  10.8150000 136.1880000  30.4700000   9.1810000 135.0660000  29.6820000
   9.9820000 134.3750000  29.4060000   8.3110000 134.5330000  30.0990000
   8.6810000 135.8710000  28.4470000   8.0310000 136.6910000  28.7570000
   9.4580000 136.4920000  27.9940000   7.9150000 134.9970000  27.4060000
   7.0540000 134.5940000  27.8770000   7.5730000 135.7650000  26.6450000
   8.8690000 133.8810000  26.8220000   9.2290000 133.3030000  27.6780000
   8.3250000 133.1110000  26.2090000   9.9850000 134.4000000  25.9140000
   9.4020000 134.8160000  25.1490000  10.5900000 135.1190000  26.4280000
  10.9300000 133.2600000  25.3790000  10.3500000 132.5570000  24.9590000
  11.5720000 133.5510000  24.5650000  11.8720000 132.5890000  26.4150000
  11.4020000 132.3400000  27.3390000  12.2340000 131.7090000  26.0250000
  13.0580000 133.5070000  26.8050000  13.3940000 134.1610000  26.0480000
  12.8720000 134.1130000  27.6510000  14.1760000 132.5630000  27.2020000
  13.9080000 131.8860000  27.9000000  14.4080000 131.9950000  26.3320000
  15.4380000 133.2840000  27.7610000  15.1150000 133.8380000  28.6510000
  16.0700000 132.4770000  28.0150000  16.2880000 134.2640000  26.8530000
  15.5250000 135.0330000  26.5680000  17.0300000 134.7660000  27.3130000
  16.8540000 133.6170000  25.5900000  16.1720000 133.0820000  24.7140000
  18.2180000 133.6810000  25.6080000  18.8220000 133.5670000  24.3030000
  18.0410000 133.4500000  23.4630000  19.3730000 134.4930000  24.1120000
  19.8400000 132.4090000  24.3960000  20.5240000 132.5290000  25.1530000
  20.4850000 132.2020000  22.9690000  21.1740000 133.0120000  22.7610000
  21.1280000 131.3060000  22.9680000  19.4940000 132.0290000  21.9110000
  19.4060000 132.9230000  20.6360000  19.9730000 131.8810000  19.5440000
  21.3140000 131.5380000  19.3690000  21.6820000 131.8700000  18.3900000
  21.9020000 131.9440000  20.1690000  21.2970000 130.0050000  19.4770000
  22.2790000 129.5330000  19.3870000  20.8900000 129.7520000  20.4730000
  20.4980000 129.1750000  18.5690000  20.8490000 127.7070000  18.8100000
  20.6360000 127.4230000  19.8660000  20.1510000 127.0950000  18.1540000
  21.8890000 127.5060000  18.4950000  19.0320000 129.4060000  18.8570000
  18.8640000 129.3690000  19.9290000  18.7420000 130.4040000  18.4790000
  18.3420000 128.6470000  18.3510000  20.7500000 129.4900000  17.1600000
  20.6120000 130.5360000  16.8650000  20.2220000 128.8700000  16.4640000
  21.8370000 129.2520000  17.0020000  18.0000000 133.2660000  20.3790000
  20.3660000 134.0220000  20.8010000  19.0220000 131.2660000  24.7860000
  19.5790000 130.0830000  25.0870000  20.7900000 129.8200000  25.1360000
  18.5480000 129.0320000  25.3400000  19.0100000 128.2510000  25.9380000
  18.1410000 128.5670000  24.4250000  17.3930000 129.5760000  26.2590000
  16.8080000 130.3380000  25.7190000  17.8200000 129.9930000  27.1090000
  16.5470000 128.4010000  26.7480000  17.2100000 127.7340000  27.2670000
  16.2660000 127.8950000  25.8430000  15.2930000 128.8040000  27.5620000
  14.7470000 129.5020000  26.8990000  15.6080000 129.3420000  28.4730000
  14.2990000 127.5850000  27.7280000  14.7650000 126.8220000  28.4340000
  14.0950000 127.0710000  26.7840000  12.9490000 127.9900000  28.3730000
  13.1810000 128.5950000  29.2460000  12.3750000 127.1340000  28.7760000
  12.0850000 128.8420000  27.4480000  12.4190000 128.4270000  26.4730000
  12.3920000 129.8790000  27.4890000  10.6680000 128.5870000  27.7540000
  10.2520000 127.6860000  27.3420000   9.9720000 129.2770000  28.6700000
   8.9360000 128.9760000  28.8300000  10.4890000 130.3030000  29.6650000
  10.0530000 131.3000000  29.3190000  11.5370000 130.4790000  29.6080000
  10.0550000 130.1480000  31.1020000   8.9620000 130.2860000  31.1750000
  10.4200000 130.9860000  31.7500000  10.4700000 128.8700000  31.7330000
  11.6270000 128.7780000  31.6350000  10.1210000 128.1340000  31.1410000
   9.9760000 128.8040000  33.1600000   8.8730000 128.9010000  33.2270000
  10.4090000 129.7250000  33.7470000  10.4870000 127.5500000  33.9020000
  11.5600000 127.4200000  33.8190000  10.1630000 126.6490000  33.4400000
   9.9340000 127.5600000  35.3690000   8.8120000 127.5810000  35.4170000
  10.2420000 128.4670000  35.8650000  10.4870000 126.3840000  36.1650000
  11.6110000 126.5720000  36.2490000  10.2460000 125.5400000  35.5250000
   9.8070000 126.1150000  37.5320000   9.7690000 127.0290000  38.0860000
  10.1940000 125.3190000  38.1230000   8.7500000 125.9100000  37.3430000
  36.7780000  70.3270000  32.6730000  36.1980000  69.8360000  33.4000000
  36.4820000  70.0410000  31.6280000  36.4990000  71.3790000  32.6920000
  38.2110000  69.9810000  32.9900000  38.3590000  68.9250000  32.9160000
  38.9370000  70.3400000  32.2120000  38.5230000  70.4840000  34.4170000
  37.8010000  69.9580000  35.0140000  39.5200000  70.1460000  34.6620000
  38.4360000  71.9910000  34.6820000  37.4470000  72.3290000  34.4790000
  38.7140000  72.1910000  35.7200000  39.4710000  72.8510000  33.8960000
  39.8480000  73.6620000  34.5700000  40.2940000  72.1520000  33.7320000
  38.9490000  73.4550000  32.6310000  38.4840000  72.7530000  31.9120000
  38.1880000  74.2850000  32.8600000  40.0740000  74.2570000  31.9310000
  40.3830000  74.8960000  32.7900000  40.9490000  73.6580000  31.5160000
  39.5650000  75.0950000  30.6650000  38.5430000  75.3280000  30.9370000
  40.0850000  76.0080000  30.6450000  39.7260000  74.3270000  29.3490000
  40.7810000  74.2400000  29.0880000  39.3370000  73.3410000  29.5770000
  39.0290000  74.9190000  28.1300000  39.4740000  75.8960000  27.8770000
  39.2990000  74.2970000  27.2440000  37.4780000  75.0130000  28.3260000
  37.0810000  74.0200000  28.6730000  37.1600000  75.5900000  29.2100000
  36.6860000  75.4510000  27.0400000  36.7360000  74.6870000  26.2500000
  35.6060000  75.5820000  27.4490000  37.0750000  76.8300000  26.4210000
  37.2090000  77.5150000  27.2540000  37.9900000  76.7770000  25.8300000
  35.9930000  77.3480000  25.4980000  35.1630000  77.5950000  26.1220000
  36.3250000  78.3690000  25.1170000  35.5320000  76.4100000  24.3360000
  35.8130000  75.3860000  24.5210000  34.4640000  76.3730000  24.2490000
  36.2370000  76.9030000  23.0460000  35.8790000  77.9470000  22.4980000
  37.2010000  76.1380000  22.5840000  37.8960000  76.5540000  21.3900000
  37.1530000  76.6980000  20.5970000  38.3500000  77.4970000  21.5320000
  38.9150000  75.4280000  20.9480000  39.4830000  75.7080000  20.0450000
  38.1450000  74.0770000  20.6980000  37.4620000  73.9230000  21.5560000
  37.5410000  73.9960000  19.7290000  39.0700000  72.9440000  20.8140000
  39.8620000  72.3590000  19.5050000  38.6170000  72.0300000  18.4980000
  37.8620000  70.8580000  18.8020000  38.2960000  69.9730000  18.3700000
  37.7430000  70.7270000  19.8600000  36.6070000  70.9770000  17.9990000
  36.0030000  71.8170000  18.3670000  36.8910000  71.1820000  16.9970000
  35.6250000  69.8040000  18.0490000  35.2340000  69.5870000  19.3920000
  34.8500000  70.4530000  19.9000000  34.4620000  68.8190000  19.4660000
  36.1430000  69.2340000  19.9180000  34.3970000  70.0960000  17.2060000
  34.6990000  70.4340000  16.1260000  33.9800000  69.0800000  17.2820000
  33.8880000  70.9400000  17.6840000  36.1960000  68.5400000  17.4510000
  35.6600000  67.6820000  17.7660000  37.1280000  68.4790000  18.0000000
  36.3100000  68.5570000  16.3380000  40.7820000  73.4260000  19.0280000
  40.3830000  71.0320000  19.8750000  39.8540000  75.2260000  22.0710000
  40.6240000  76.2070000  22.4940000  40.8090000  77.2590000  21.9410000
  41.4480000  75.8890000  23.7310000  42.4570000  76.2200000  23.4520000
  41.3590000  74.8290000  24.0500000  40.9560000  76.8340000  24.8480000
  39.8960000  76.6200000  25.0550000  41.0000000  77.8530000  24.3760000
  41.7250000  76.7680000  26.1630000  42.7510000  76.7430000  26.0040000
  41.4740000  75.8110000  26.6590000  41.3600000  77.9580000  27.1090000
  40.2790000  78.1480000  27.1410000  41.7950000  78.8290000  26.6620000
  41.8310000  77.9030000  28.5540000  42.8790000  78.1040000  28.5580000
  41.6190000  76.8670000  28.9500000  41.1810000  78.9840000  29.4650000
  40.1310000  78.9190000  29.5280000  41.5140000  79.9430000  29.0200000
  41.7180000  78.9240000  30.9410000  42.7940000  79.2220000  30.8700000
  41.6570000  77.8170000  31.2390000  40.7850000  79.7260000  31.8310000
  40.5440000  80.6780000  31.4560000  40.3080000  79.2720000  32.9950000
  39.6840000  79.8680000  33.6140000  40.7670000  77.9710000  33.7200000
  41.7770000  77.5600000  33.4120000  40.0730000  77.1720000  33.4020000
  40.6760000  78.2270000  35.2380000  39.6780000  78.3360000  35.6260000
  41.1500000  79.2700000  35.3590000  41.4080000  77.1640000  36.1540000
  41.6720000  77.7550000  37.0620000  42.3920000  76.8990000  35.8030000
  40.6910000  75.7630000  36.3390000  40.4880000  75.2940000  35.3950000
  39.8010000  76.1070000  36.8530000  41.4830000  74.7870000  37.2230000
  41.6620000  75.2660000  38.1440000  42.4200000  74.6880000  36.6130000
  40.9240000  73.3900000  37.3680000  41.0370000  72.9420000  36.3690000
  39.8100000  73.4480000  37.5630000  41.6610000  72.5710000  38.4330000
  41.3730000  72.9140000  39.3780000  42.6750000  72.8060000  38.3760000
  41.3290000  71.0580000  38.3360000  41.8530000  70.5140000  37.4990000
  40.2640000  71.0260000  38.2320000  41.4980000  70.5480000  39.3080000
 133.0650000  29.5300000  26.9360000 133.3270000  28.8820000  27.7640000
 133.1010000  30.4750000  27.3560000 133.7380000  29.4500000  26.0860000
 131.7040000  29.0650000  26.5130000 131.4060000  29.6950000  25.6590000
 131.8520000  28.0160000  26.1840000 130.6190000  29.1440000  27.6760000
 130.8100000  28.3390000  28.4310000 130.8120000  30.0570000  28.2520000
 129.0980000  29.2360000  27.2230000 129.1130000  29.9140000  26.2970000
 128.6870000  28.2990000  26.9360000 128.2700000  29.8150000  28.3440000
 127.4110000  29.2360000  28.6970000 129.0250000  29.9070000  29.1930000
 127.8210000  31.2850000  28.1390000 128.6870000  31.9980000  28.1010000
 127.3540000  31.3870000  27.2210000 126.8760000  31.7040000  29.3390000
 125.9930000  31.0570000  29.2590000 127.4190000  31.5670000  30.2840000
 126.5870000  33.1470000  29.1410000 126.2530000  33.2460000  28.1000000
 125.7210000  33.3900000  29.7280000 127.6840000  34.2320000  29.4100000
 128.1830000  33.9980000  30.3490000 128.3250000  34.2080000  28.5820000
 127.0630000  35.6340000  29.3440000 126.3190000  35.7030000  30.1050000
 127.7990000  36.4430000  29.6080000 126.3410000  36.1950000  28.1190000
 125.4970000  35.6170000  27.7910000 125.8340000  37.1300000  28.5010000
 127.2200000  36.4390000  26.8830000 126.5150000  37.0460000  26.2200000
 127.9900000  37.0500000  27.2590000 127.7250000  35.1400000  26.1950000
 128.6340000  34.6720000  26.7610000 127.0600000  34.3450000  26.1260000
 128.2610000  35.4060000  24.7180000 128.8740000  36.2880000  24.8260000
 128.9440000  34.5510000  24.5170000 127.1450000  35.6420000  23.6480000
 126.1770000  35.0940000  23.7280000 126.9430000  36.6690000  23.8490000
 127.6640000  35.4220000  22.2600000 128.7160000  34.8580000  21.9990000
 126.8250000  35.9000000  21.2980000 127.1390000  35.5760000  19.9170000
 126.5290000  36.2340000  19.2590000 128.1910000  35.7220000  19.6620000
 126.8490000  34.0250000  19.6590000 127.5530000  33.5420000  20.2880000
 127.1510000  33.4990000  18.2160000 128.1660000  33.1720000  18.2200000
 126.5570000  32.6110000  17.9670000 126.8280000  34.5450000  17.2410000
 127.2070000  34.2390000  15.6780000 126.7010000  32.7280000  15.5260000
 125.4600000  32.3940000  14.8790000 125.1650000  32.9510000  14.0090000
 125.5680000  31.3850000  14.5810000 124.2960000  32.3670000  15.9080000
 123.6180000  31.6290000  15.5060000 124.6220000  31.9390000  16.8550000
 123.4060000  33.6300000  16.0680000 122.0020000  33.2070000  16.3920000
 122.1550000  32.6810000  17.3520000 121.3050000  34.0290000  16.4290000
 121.6390000  32.4930000  15.7000000 123.8110000  34.6000000  17.1290000
 123.8870000  34.0730000  18.0220000 124.7730000  34.9440000  16.8010000
 123.0910000  35.3790000  17.1150000 123.2370000  34.4250000  14.7910000
 123.0320000  33.6620000  14.0480000 124.1460000  34.9550000  14.5200000
 122.3490000  35.0660000  15.0150000 126.2890000  35.0230000  14.8870000
 128.6860000  34.2900000  15.5090000 125.4390000  33.7380000  19.8430000
 125.1090000  33.3290000  21.1030000 125.9180000  33.0870000  21.9760000
 123.6420000  33.0380000  21.1080000 123.2220000  32.8900000  20.1290000
 123.0650000  33.8420000  21.6080000 123.2840000  31.6520000  21.8470000
 124.0000000  30.8850000  21.3600000 122.2730000  31.2600000  21.6350000
 123.4790000  31.6630000  23.3950000 122.6700000  32.2450000  23.8760000
 124.4890000  32.0910000  23.6850000 123.6460000  30.2150000  23.9210000
 124.4300000  29.6560000  23.4150000 122.8010000  29.5630000  23.8120000
 123.7900000  30.2380000  25.4370000 123.0930000  30.8960000  25.8480000
 124.8230000  30.4970000  25.6180000 123.6880000  28.8810000  26.0870000
 124.5350000  28.2610000  25.7530000 122.7820000  28.4090000  25.7620000
 123.6390000  29.0030000  27.6140000 122.6320000  29.4360000  27.8440000
 124.5230000  29.5370000  27.9890000 123.6260000  27.6060000  28.2960000
 123.7270000  26.7280000  27.6760000 123.3750000  27.4470000  29.5670000
 123.3480000  26.4230000  29.9580000 123.1680000  28.5210000  30.6160000
 122.4300000  28.0910000  31.2630000 122.7180000  29.4040000  30.2770000
 124.5010000  28.7680000  31.4020000 125.1120000  29.5150000  30.7940000
 125.0060000  27.7880000  31.4370000 124.3190000  29.2370000  32.8270000
 125.3040000  29.3180000  33.2420000 123.7450000  28.5020000  33.3170000
 123.5140000  30.6120000  33.0470000 122.5160000  30.4750000  32.5710000
 124.0130000  31.3960000  32.5320000 123.2310000  30.9680000  34.5740000
 124.1800000  30.9440000  35.0910000 122.5300000  30.2410000  34.9930000
 122.5060000  32.3800000  34.8160000 121.9030000  32.4550000  33.9250000
 123.2460000  33.1350000  34.8380000 121.5940000  32.4140000  36.0240000
 122.2630000  32.0250000  36.7870000 120.8010000  31.6820000  35.9390000
 121.0540000  33.7690000  36.5310000 121.8690000  34.4460000  36.7310000
 120.5340000  33.4660000  37.3900000 120.4140000  34.2370000  35.7330000
 101.5510000 127.3400000  41.8140000 101.4810000 126.3600000  42.3750000
 100.6510000 127.9600000  42.0160000 102.4880000 127.7880000  42.1830000
 101.5440000 127.1600000  40.3080000 101.9440000 128.0000000  39.7920000
 102.2890000 126.3550000  40.0860000 100.1440000 126.8520000  39.6600000
  99.4970000 126.5770000  40.4640000  99.7970000 127.7460000  39.2120000
 100.1630000 125.7290000  38.6120000 101.0280000 125.0690000  38.8580000
  99.2820000 125.0610000  38.6960000 100.2610000 126.2690000  37.1970000
  99.3370000 126.7150000  36.8980000 101.1050000 127.0680000  37.2810000
 100.5180000 125.1860000  36.1790000 101.4680000 124.8180000  36.5320000
  99.6770000 124.4210000  36.3080000 100.6890000 125.6890000  34.7250000
  99.8060000 126.2140000  34.4050000 101.5570000 126.4670000  34.7310000
 100.9250000 124.5090000  33.7880000 101.7100000 123.9480000  34.3270000
 100.0580000 123.8530000  33.6550000 101.4450000 124.9340000  32.4030000
 102.2360000 125.7200000  32.5390000 101.7880000 124.0110000  31.9300000
 100.3690000 125.5460000  31.5240000  99.5820000 124.8330000  31.4180000
  99.8330000 126.3960000  31.9390000 100.8780000 126.0260000  30.1290000
 101.1890000 125.1280000  29.5440000  99.9640000 126.3290000  29.4710000
 102.1530000 126.9110000  30.0940000 101.9870000 127.7740000  30.8310000
 103.0220000 126.4200000  30.5220000 102.5700000 127.3980000  28.7180000
 102.7100000 126.5090000  28.0790000 101.6800000 127.9190000  28.3580000
 103.8120000 128.2480000  28.7300000 104.1600000 128.5560000  29.6990000
 104.6610000 127.6360000  28.4730000 103.6100000 129.5220000  27.8640000
 102.7050000 130.0620000  28.2990000 104.3790000 130.2190000  27.9750000
 103.4680000 129.2990000  26.3500000 104.4590000 129.1080000  25.7030000
 102.2290000 129.2700000  25.9910000 101.9950000 129.3190000  24.5360000
 100.9870000 129.5440000  24.4030000 102.5830000 130.1130000  23.9770000
 102.1680000 127.9340000  23.7990000 103.2130000 127.7730000  23.8240000
 101.7660000 128.0870000  22.3130000 100.7780000 128.5600000  22.3130000
 102.4620000 128.7180000  21.7370000 101.6170000 126.8240000  21.6350000
 100.6370000 126.7250000  20.3330000  99.3490000 126.1270000  20.9940000
  99.2070000 124.6870000  21.1440000 100.1170000 124.0740000  20.8600000
  99.0700000 124.5690000  22.2560000  98.0090000 124.2120000  20.2380000
  97.9040000 123.1580000  20.4530000  97.0080000 124.6750000  20.4180000
  98.2890000 124.2690000  18.7400000  97.1970000 123.5710000  18.0370000
  96.3650000 124.2190000  18.1340000  97.4930000 123.3910000  17.0370000
  97.0170000 122.6000000  18.4180000  98.3330000 125.6450000  18.1870000
  97.9690000 125.4990000  17.1690000  97.8050000 126.3040000  18.8420000
  99.4570000 125.8510000  18.1970000  99.5400000 123.4800000  18.4480000
 100.4640000 124.0640000  18.6550000  99.5130000 123.4530000  17.3380000
  99.5080000 122.5010000  18.9370000 100.3460000 128.0580000  19.8250000
 101.2820000 125.7220000  19.4770000 101.4590000 126.8410000  24.4250000
 102.0720000 125.6230000  24.3250000 103.2540000 125.4500000  24.0860000
 101.1230000 124.5970000  24.8260000 100.5150000 124.0320000  24.0470000
 100.2770000 125.0320000  25.3970000 101.9610000 123.6230000  25.7460000
 102.3320000 124.0790000  26.6200000 102.8470000 123.2570000  25.2310000
 101.2550000 122.3850000  26.0840000 100.9540000 121.8390000  25.1530000
 100.3020000 122.6370000  26.5330000 102.1180000 121.4700000  26.9860000
 103.1700000 121.6030000  26.7080000 101.9460000 120.3830000  26.7530000
 101.9530000 121.6900000  28.4590000 101.7560000 122.7610000  28.6120000
 102.8250000 121.5620000  29.0820000 100.7760000 120.8570000  28.9620000
 101.0940000 119.8230000  29.0600000 100.0180000 120.8600000  28.2360000
 100.1980000 121.3630000  30.2660000  99.3720000 120.7230000  30.5760000
  99.8060000 122.3900000  30.0430000 101.1570000 121.5010000  31.4740000
 102.1360000 121.7580000  31.1430000 100.9470000 121.0900000  32.7610000
 101.8210000 121.1370000  33.4710000  99.7270000 120.3390000  33.2060000
  98.8970000 120.6020000  32.5470000  99.5770000 120.5930000  34.2560000
  99.8880000 118.8090000  32.9930000 100.7610000 118.4540000  33.5310000
 100.1580000 118.5740000  31.9940000  98.6420000 118.0940000  33.4560000
  98.3260000 118.3860000  34.4860000  98.8450000 117.0470000  33.4790000
  97.3940000 118.1370000  32.5070000  97.7440000 117.8130000  31.5330000
  97.0940000 119.1750000  32.4810000  96.1350000 117.4290000  32.9790000
  95.7810000 117.7990000  33.9360000  96.3830000 116.4290000  33.2790000
  94.9170000 117.6160000  32.0440000  95.1780000 117.4470000  30.9420000
  94.4320000 118.6090000  32.0570000  93.7080000 116.7100000  32.4080000
  92.8060000 117.1750000  32.0440000  93.7750000 116.6530000  33.5160000
  93.8930000 115.3070000  31.7430000  94.8730000 114.9270000  32.0130000
  93.8720000 115.3190000  30.6930000  93.2240000 114.4940000  32.0660000
  88.1430000  39.5020000  30.3230000  87.5580000  40.3420000  29.8590000
  89.1730000  39.7750000  30.2290000  87.8070000  39.4480000  31.3670000
  87.7060000  38.1060000  29.6680000  88.1350000  37.3030000  30.2440000
  86.6140000  38.0660000  29.6550000  88.0980000  38.1320000  28.1630000
  87.8400000  39.0950000  27.7060000  89.1740000  38.1060000  28.0080000
  87.6440000  36.8390000  27.4850000  88.1370000  36.0250000  27.9630000
  86.5670000  36.5800000  27.6700000  87.8190000  36.8740000  25.9310000
  86.9970000  37.5470000  25.4560000  88.7630000  37.2750000  25.5980000
  87.6490000  35.4210000  25.4600000  88.4330000  34.8680000  25.9150000
  86.7150000  35.0060000  25.9620000  87.6520000  35.2510000  23.9230000
  88.6620000  35.3360000  23.5200000  87.4180000  34.2490000  23.6000000
  86.5130000  36.0300000  23.1850000  86.6320000  37.1130000  23.2830000
  86.4370000  35.6250000  22.1790000  85.1950000  35.6040000  23.8280000
  85.3700000  34.6270000  24.2150000  84.9500000  36.2200000  24.7060000
  84.0120000  35.6920000  22.8170000  84.1730000  34.9010000  22.0520000
  83.0520000  35.5500000  23.3330000  83.8920000  37.0440000  22.0270000
  84.8130000  37.2260000  21.5400000  83.1370000  36.8460000  21.2550000
  83.5680000  38.2950000  22.7600000  82.8190000  38.1390000  23.5870000
  84.4940000  38.5270000  23.3120000  83.0340000  39.4780000  21.8900000
  83.6730000  39.6360000  21.0690000  82.1400000  39.1110000  21.4010000
  82.7840000  40.7140000  22.7440000  83.7010000  41.2340000  23.0330000
  82.2870000  41.4350000  22.0100000  81.7020000  40.5640000  23.8370000
  82.0940000  39.9190000  24.5900000  81.4980000  41.5510000  24.2480000
  80.3710000  39.9640000  23.3850000  79.3300000  40.5790000  23.2620000
  80.3660000  38.5940000  23.4420000  79.0360000  37.9940000  23.3360000
  79.0390000  37.0530000  23.9460000  78.2280000  38.5770000  23.7810000
  78.6950000  37.5800000  21.8660000  77.7740000  37.0260000  21.9840000
  79.7690000  36.7150000  21.2920000  80.5040000  37.4610000  20.9570000
  80.2550000  36.1470000  22.1060000  79.2900000  35.8920000  20.1780000
  78.7010000  34.5230000  20.4730000  80.0200000  33.6910000  20.8110000
  80.2910000  32.4470000  20.1460000  80.9840000  31.9300000  20.7960000
  79.4760000  31.7490000  20.0340000  81.0090000  32.6700000  18.8570000
  81.0670000  31.7050000  18.2710000  80.4170000  33.3600000  18.2510000
  82.4020000  33.1760000  18.9250000  83.1540000  32.8570000  17.6620000
  82.8130000  33.3960000  16.7960000  84.1900000  33.1430000  17.8870000
  83.0990000  31.7080000  17.4700000  82.4010000  34.6280000  19.0470000
  83.4120000  34.9090000  19.1130000  82.0690000  35.1700000  18.1600000
  81.8250000  34.9180000  19.8880000  83.2810000  32.7560000  20.0390000
  83.5230000  31.7200000  20.0010000  82.8400000  33.0110000  21.0210000
  84.1150000  33.4140000  19.9670000  77.8730000  34.5510000  21.6980000
  78.1640000  34.0470000  19.2030000  78.5080000  38.7080000  20.9870000
  77.4780000  38.8050000  20.1860000  76.5130000  38.0650000  20.1390000
  77.6780000  40.0050000  19.2630000  78.2550000  39.6900000  18.3700000
  78.2770000  40.7710000  19.7230000  76.3200000  40.6460000  18.9300000
  75.5880000  39.8470000  18.6880000  76.4150000  41.1990000  18.0530000
  75.8310000  41.6830000  19.9320000  74.9040000  42.1100000  19.6330000
  76.6010000  42.3970000  19.9060000  75.5590000  41.1310000  21.3310000
  76.4390000  40.6090000  21.6590000  74.7130000  40.4910000  21.3430000
  75.1760000  42.2270000  22.3490000  74.3500000  42.8700000  21.9180000
  75.9800000  43.0150000  22.6950000  74.7010000  41.6700000  23.6350000
  73.7950000  41.1730000  23.3570000  74.3740000  42.4730000  24.3340000
  75.6350000  40.6550000  24.3030000  76.6550000  41.1190000  24.4770000
  75.7760000  39.7560000  23.7070000  74.9730000  40.2840000  25.5850000
  73.8690000  40.0340000  25.5130000  75.6130000  40.2320000  26.7500000
  75.0130000  40.0930000  27.6570000  77.1340000  40.3830000  26.8530000
  77.5060000  41.1990000  26.3180000  77.6370000  39.5120000  26.3930000
  77.5520000  40.4660000  28.3270000  76.9280000  39.8920000  28.9100000
  77.2400000  41.5170000  28.6120000  79.0020000  40.2050000  28.6110000
  79.3060000  39.2380000  28.3130000  79.2720000  40.3560000  29.6490000
  79.9820000  41.1570000  27.8770000  79.8050000  42.1310000  28.2630000
  79.7870000  41.1040000  26.8050000  81.5120000  40.8260000  28.0950000
  81.7490000  40.9570000  29.0990000  82.0510000  41.4570000  27.4750000
  81.8320000  39.3960000  27.6150000  81.3290000  39.3140000  26.6520000
  81.3050000  38.6500000  28.2710000  83.3400000  39.0640000  27.4500000
  83.7940000  39.3360000  28.3620000  83.7590000  39.5900000  26.6040000
  83.5530000  37.6470000  27.0450000  82.7740000  36.9380000  27.4610000
  84.5420000  37.2830000  27.4180000  83.5550000  37.5040000  25.9440000
  87.1020000  74.3040000  32.3330000  86.5070000  73.7490000  32.9800000
  86.5080000  75.2350000  32.0230000  88.0880000  74.6720000  32.7280000
  87.3440000  73.5050000  31.0570000  87.8110000  72.5510000  31.3510000
  86.3490000  73.1660000  30.6370000  88.3450000  74.1300000  30.0150000
  89.2450000  74.3350000  30.5710000  88.6110000  73.3530000  29.3330000
  87.7940000  75.3580000  29.2580000  86.7500000  75.2510000  28.7730000
  87.7090000  76.0870000  30.0220000  88.7200000  76.0220000  28.2020000
  88.2370000  77.0290000  28.0810000  89.7350000  76.0760000  28.6780000
  88.9050000  75.2180000  26.9570000  89.4440000  74.2600000  27.1280000
  87.9540000  74.9200000  26.5580000  89.5200000  76.0300000  25.7440000
  89.3990000  75.3770000  24.8360000  88.9530000  77.0000000  25.6510000
  90.9720000  76.4060000  25.9510000  91.0250000  77.1120000  26.7050000
  91.5590000  75.5390000  26.4500000  91.6640000  76.8890000  24.6760000
  91.0370000  77.5610000  24.0710000  92.4860000  77.5870000  24.9320000
  92.4560000  75.8720000  23.8050000  93.0170000  75.1400000  24.3820000
  91.7420000  75.2290000  23.3060000  93.4340000  76.4780000  22.6850000
  93.9490000  77.4070000  23.1050000  94.2160000  75.7500000  22.3120000
  92.5270000  77.0210000  21.4800000  92.0160000  76.1300000  21.0340000
  91.7730000  77.5730000  21.9780000  93.2090000  77.7440000  20.3010000
  93.6500000  77.0840000  19.5530000  92.3440000  78.0180000  19.6780000
  94.0480000  79.0210000  20.5030000  94.8630000  78.6910000  21.1550000
  94.4430000  79.3880000  19.5360000  93.2820000  80.1830000  21.2100000
  92.8690000  79.9510000  22.1780000  94.0080000  80.9440000  21.4090000
  92.1200000  80.7770000  20.5030000  92.2620000  81.3540000  19.3700000
  90.9490000  80.6830000  21.1950000  89.6440000  81.1260000  20.7190000
  88.8860000  80.6600000  21.2630000  89.6590000  82.2450000  20.8850000
  89.3190000  80.9490000  19.1580000  90.0360000  81.5830000  18.6470000
  87.8680000  81.3370000  18.7700000  87.9190000  82.0410000  17.9110000
  87.1190000  80.5400000  18.6670000  87.2660000  82.2200000  19.7740000
  87.4860000  83.8350000  19.8790000  85.9880000  84.3150000  19.6520000
  85.3480000  85.3710000  20.4410000  84.2900000  85.1770000  20.4610000
  85.6590000  85.3740000  21.5180000  85.8780000  86.7170000  19.9550000
  85.5690000  87.5530000  20.6410000  86.9810000  86.6200000  19.8160000
  85.2570000  87.0750000  18.6420000  85.0910000  88.5650000  18.5790000
  84.3220000  88.8130000  19.3390000  86.0930000  88.9420000  18.8450000
  84.6850000  88.8990000  17.6140000  86.1160000  86.5960000  17.4500000
  86.0030000  85.5420000  17.3230000  85.6340000  87.0350000  16.5560000
  87.1440000  86.9040000  17.6320000  83.7880000  86.5740000  18.3500000
  83.0850000  87.0030000  19.1020000  83.8230000  85.4140000  18.2610000
  83.4840000  86.8410000  17.3560000  87.8010000  84.2100000  21.2300000
  88.3120000  84.3870000  18.7770000  89.5720000  79.5640000  18.7920000
  89.9580000  79.2230000  17.6160000  90.2390000  80.0000000  16.6820000
  90.0370000  77.6960000  17.4630000  89.2660000  77.3430000  16.8120000
  89.6810000  77.2740000  18.3930000  91.3960000  77.1070000  17.0730000
  92.1760000  77.6340000  17.5850000  91.6190000  77.3700000  15.9970000
  91.4180000  75.5690000  17.3800000  90.4940000  75.1820000  16.8980000
  91.5620000  75.3960000  18.5010000  92.6550000  74.8340000  16.8000000
  93.5730000  75.4870000  16.9510000  92.4070000  74.5720000  15.7580000
  92.9100000  73.5200000  17.5340000  91.9200000  72.9630000  17.5500000
  93.1820000  73.8020000  18.5300000  94.0740000  72.6420000  16.9320000
  93.6730000  72.3110000  15.9910000  94.2020000  71.8040000  17.5480000
  95.4000000  73.3810000  16.7130000  95.6040000  73.9470000  17.6540000
  95.3520000  74.0840000  15.8620000  96.5360000  72.3460000  16.5990000
  96.6390000  72.0490000  15.5690000  97.2680000  71.8710000  17.5740000
  98.1050000  71.1820000  17.3640000  96.9300000  72.2030000  19.0120000
  95.9690000  72.6890000  19.0500000  97.7040000  72.8880000  19.3480000
  96.8070000  70.8280000  19.7800000  97.5840000  70.1810000  19.3860000
  95.8840000  70.3900000  19.3360000  96.5620000  70.8150000  21.2980000
  97.1740000  71.6100000  21.7840000  96.7940000  69.7340000  21.7030000
  95.1320000  71.0830000  21.6970000  94.5060000  70.2150000  21.7500000
  94.7570000  71.7770000  21.0440000  94.9960000  71.5910000  23.1700000
  95.7980000  72.2760000  23.4220000  94.9020000  70.7240000  23.7920000
  93.5910000  72.2460000  23.2160000  93.5590000  73.1160000  22.4930000
  93.4140000  72.7770000  24.1930000  92.4350000  71.2510000  22.9330000
  92.2730000  70.5810000  23.8210000  92.5440000  70.6700000  21.9640000
  91.1780000  72.1170000  22.6950000  91.0860000  72.5450000  21.6820000
  91.0600000  73.0260000  23.3990000  90.2540000  71.5630000  22.8880000
  32.7310000  11.5590000  31.7270000  33.2790000  12.0450000  32.5020000
  33.4680000  11.2750000  30.9710000  32.3030000  10.5860000  32.0020000
  31.6730000  12.4570000  30.9920000  31.0790000  12.9320000  31.6510000
  32.1910000  13.2350000  30.4230000  30.8250000  11.6390000  29.9970000
  31.5470000  11.2150000  29.3140000  30.3470000  10.8990000  30.5460000
  29.7330000  12.4320000  29.2520000  28.9430000  12.7020000  29.9440000
  30.3120000  13.3840000  28.9140000  29.2400000  11.7040000  27.9670000
  30.1880000  11.3530000  27.4430000  28.7310000  10.7780000  28.3830000
  28.2630000  12.5860000  27.0390000  27.4400000  13.0160000  27.6490000
  28.7660000  13.4500000  26.7030000  27.6420000  11.9170000  25.8120000
  27.2060000  10.9460000  26.1420000  26.6680000  12.4270000  25.5540000
  28.5850000  11.6660000  24.5910000  29.4100000  11.0860000  24.9020000
  28.1830000  11.1460000  23.7430000  29.2160000  12.9230000  24.0290000
  28.4990000  13.7360000  24.2610000  30.1470000  13.0440000  24.5340000
  29.5460000  12.9450000  22.5650000  28.5970000  12.9180000  22.0760000
  29.8880000  13.9620000  22.2400000  30.5210000  11.8210000  22.0990000
  30.1340000  10.8110000  22.2130000  30.6080000  11.8980000  21.0160000
  31.9360000  11.9010000  22.5390000  32.3870000  12.7610000  22.0270000
  31.9430000  12.1560000  23.6050000  32.7480000  10.6320000  22.0460000
  32.4760000   9.6990000  22.5520000  32.3800000  10.4240000  21.0510000
  34.2780000  10.7200000  22.1190000  34.5100000  10.7000000  23.1640000
  34.7650000   9.7910000  21.7680000  34.9560000  11.8850000  21.3410000
  34.6520000  12.8720000  21.6920000  36.0120000  11.5810000  21.4980000
  34.5460000  11.8340000  19.8880000  35.2800000  11.4380000  19.0050000
  33.3200000  12.2740000  19.7370000  32.6570000  12.2290000  18.4290000
  31.6740000  12.6510000  18.5360000  33.3180000  12.6920000  17.7010000
  32.3920000  10.8160000  18.0390000  33.2320000  10.1730000  18.1870000
  32.0890000  10.6240000  16.5610000  32.9390000  11.0660000  16.0070000
  32.0720000   9.5510000  16.2560000  30.8570000  11.3230000  16.2070000
  29.4630000  10.6520000  16.1200000  28.8270000  10.7430000  17.6010000
  28.2980000  12.0220000  17.9370000  28.2720000  11.9750000  19.0430000
  28.9450000  12.8420000  17.5870000  26.9290000  12.2550000  17.3380000
  26.6700000  13.2400000  17.7230000  27.0540000  12.2010000  16.2520000
  25.8700000  11.3480000  17.6900000  26.0890000   9.8990000  17.1710000
  25.0310000   9.4600000  17.1590000  26.6840000   9.8770000  16.1870000
  26.6790000   9.2810000  17.8750000  25.7530000  11.3980000  19.1340000
  26.7020000  10.8910000  19.5770000  25.7650000  12.4240000  19.5330000
  24.8260000  10.9660000  19.4610000  24.6870000  11.8790000  17.0340000
  23.9500000  11.0450000  17.0900000  24.9690000  12.1500000  16.0760000
  24.3640000  12.7840000  17.5380000  28.6710000  11.4930000  15.2090000
  29.5840000   9.2420000  15.8620000  31.3500000  10.3650000  18.8900000
  31.0430000   9.0610000  18.8290000  31.6540000   8.1860000  18.2380000
  29.9150000   8.7870000  19.7860000  29.2420000   8.2660000  19.1980000
  29.3870000   9.7560000  20.0690000  30.4050000   7.9330000  21.0210000
  30.9590000   8.6080000  21.7000000  31.1900000   7.3450000  20.6470000
  29.3040000   7.1710000  21.7710000  29.7370000   6.6460000  22.4770000
  28.9080000   6.5990000  20.9910000  28.1610000   8.1280000  22.3550000
  28.0860000   9.0910000  21.7870000  28.3250000   8.2500000  23.4400000
  26.6850000   7.6030000  22.1980000  26.5920000   7.3900000  21.1480000
  25.9510000   8.4650000  22.4100000  26.2390000   6.3240000  22.9020000
  26.5680000   5.4410000  22.4140000  25.1450000   6.3290000  22.8380000
  26.6180000   6.2490000  24.4160000  25.9100000   5.6200000  24.9560000
  26.4790000   7.2710000  24.8070000  27.9640000   5.6590000  24.6860000
  28.1970000   4.7780000  24.0650000  28.9020000   6.0610000  25.5490000
  29.8790000   5.6110000  25.6940000  28.8360000   7.2280000  26.5230000
  27.7730000   7.4940000  26.6340000  29.3740000   7.9760000  26.0960000
  29.4830000   6.8880000  27.8500000  30.5190000   6.4970000  27.6400000
  28.9090000   6.0400000  28.1720000  29.5440000   8.0600000  28.8910000
  28.6010000   8.1340000  29.4060000  29.6520000   8.9760000  28.3830000
  30.6380000   7.8270000  29.9510000  30.7140000   8.7540000  30.5420000
  31.5660000   7.7300000  29.4320000  30.5900000   6.5590000  30.7510000
  30.4870000   5.6880000  30.0400000  29.6840000   6.5590000  31.3250000
  31.7400000   6.3050000  31.7070000  31.5990000   7.0640000  32.5150000
  32.6710000   6.4780000  31.2690000  31.7070000   4.9070000  32.3680000
  32.1500000   4.1320000  31.7000000  30.7050000   4.7400000  32.7280000
  32.6520000   4.9530000  33.6310000  32.9010000   3.9760000  34.0170000
  32.3580000   5.6490000  34.4040000  33.6610000   5.2810000  33.2940000
 131.8620000  54.0230000  29.4200000 131.3790000  54.1110000  28.4480000
 131.3420000  54.4200000  30.3220000 131.8280000  52.9630000  29.5880000
 133.2410000  54.6560000  29.3940000 133.6980000  54.3530000  30.3600000
 133.8340000  54.2390000  28.5760000 133.2500000  56.1600000  29.2460000
 132.8790000  56.3520000  28.2210000 132.5770000  56.6570000  29.9710000
 134.6480000  56.7780000  29.3440000 134.9450000  56.8290000  30.4080000
 135.3240000  56.1770000  28.7710000 134.5990000  58.2610000  28.8370000
 133.5860000  58.6110000  28.9490000 135.2830000  58.7760000  29.4760000
 135.0590000  58.3810000  27.3500000 136.1490000  58.2500000  27.2960000
 134.6480000  57.5090000  26.8250000 134.6030000  59.7010000  26.7410000
 134.8420000  60.5390000  27.3260000 135.2270000  59.6250000  25.8490000
 133.1170000  59.7280000  26.3270000 132.3980000  59.6480000  27.1010000
 132.9140000  60.7100000  25.9060000 132.6680000  58.6900000  25.2900000
 133.0860000  59.0480000  24.3090000 133.0310000  57.7190000  25.5390000
 131.1490000  58.5600000  25.1030000 130.6380000  59.5110000  25.2390000
 131.0960000  58.4380000  24.0660000 130.4810000  57.3900000  25.8170000
 130.5300000  57.5170000  26.9600000 129.4110000  57.4860000  25.5960000
 130.9910000  56.0120000  25.3400000 131.4490000  56.1950000  24.3850000
 131.7670000  55.6310000  26.0770000 129.8050000  55.0510000  25.0620000
 129.2350000  54.8670000  25.9990000 129.2560000  55.4510000  24.2150000
 130.1980000  53.6460000  24.5320000 131.0520000  53.2970000  25.1480000
 129.3450000  52.9340000  24.6170000 130.8160000  53.5160000  23.1930000
 131.6610000  54.1770000  23.2140000 131.2960000  52.5430000  23.1030000
 129.9210000  53.9990000  22.0910000 128.8850000  53.4600000  21.7520000
 130.4250000  55.0220000  21.3790000 129.7030000  55.4280000  20.1990000
 130.2810000  56.1300000  19.6950000 129.5770000  54.5980000  19.5080000
 128.3250000  56.1740000  20.4470000 127.6580000  55.3860000  20.7100000
 127.9250000  56.9760000  19.2140000 127.5810000  56.3660000  18.3910000
 127.0150000  57.5190000  19.5060000 128.8880000  58.0420000  18.8480000
 128.7700000  59.5720000  19.3560000 130.2840000  60.0800000  19.7000000
 130.8360000  60.0360000  21.0100000 131.5540000  60.8340000  21.0940000
 130.1050000  60.1830000  21.7380000 131.4010000  58.6520000  21.0940000
 131.7810000  58.3700000  22.1290000 130.5910000  57.9960000  20.7140000
 132.6310000  58.2370000  20.2490000 132.9420000  56.8380000  20.7190000
 133.5260000  56.7860000  21.6590000 132.0590000  56.2830000  20.8080000
 133.4710000  56.3450000  20.0020000 132.2140000  58.1980000  18.8110000
 131.2950000  57.5700000  18.8660000 131.8790000  59.1840000  18.4100000
 132.9430000  57.6800000  18.2400000 133.8000000  59.1760000  20.4600000
 133.4260000  60.0840000  20.0980000 134.5970000  58.7050000  19.8550000
 134.0350000  59.2070000  21.5320000 128.3090000  60.3850000  18.2240000
 127.9390000  59.5750000  20.5390000 128.4770000  57.0120000  21.6760000
 127.3600000  57.2030000  22.3630000 126.2870000  56.7140000  21.9840000
 127.6000000  58.0720000  23.5900000 127.6580000  59.0880000  23.1800000
 128.5230000  57.8480000  24.0410000 126.4480000  58.0220000  24.5890000
 125.5320000  58.4050000  24.1870000 126.7580000  58.7430000  25.3980000
 126.3170000  56.6920000  25.3750000 127.2520000  56.4800000  25.8370000
 126.0480000  55.8630000  24.6980000 125.2380000  56.8390000  26.4570000
 124.3100000  56.9980000  26.0160000 125.3900000  57.7010000  27.1470000
 125.3000000  55.5780000  27.3710000 126.3180000  55.4580000  27.6470000
 124.9800000  54.7550000  26.7180000 124.5620000  55.7770000  28.7590000
 123.4860000  55.7440000  28.6580000 124.7660000  56.8130000  29.1280000
 125.0510000  54.6810000  29.8390000 124.4250000  54.6800000  30.7930000
 126.0430000  54.9380000  30.2050000 125.0360000  53.3130000  29.1930000
 124.0670000  53.0670000  28.9410000 126.0500000  52.5260000  29.0170000
 125.7560000  51.5370000  28.6290000 127.5510000  52.8500000  29.2110000
 127.7310000  53.5150000  30.1050000 127.8080000  53.2970000  28.2470000
 128.4270000  51.5840000  29.4060000 129.5130000  51.7990000  29.4820000
 128.2130000  50.9630000  28.5380000 127.9030000  50.9480000  30.7120000
 126.8350000  50.7930000  30.6870000 128.2350000  51.6430000  31.5320000
 128.6900000  49.5930000  30.8840000 129.7830000  49.7990000  30.7930000
 128.3550000  48.9320000  30.0940000 128.3380000  48.8530000  32.1830000
 128.4980000  49.5580000  33.0350000 129.0640000  48.0580000  32.2820000
 126.9160000  48.2230000  32.1640000 126.8350000  47.4700000  31.4120000
 126.0960000  48.9580000  31.9750000 126.3940000  47.6250000  33.4420000
 126.2670000  48.5320000  34.1340000 127.1660000  46.9630000  33.8250000
 125.0920000  46.9400000  33.2120000 125.0360000  46.4470000  32.2640000
 124.2780000  47.7040000  33.1640000 124.8650000  46.1750000  34.0000000
  61.8580000   2.0790000  29.7080000  62.6170000   1.3740000  29.4040000
  61.1700000   2.1310000  28.8970000  61.3180000   1.6270000  30.4880000
  62.4450000   3.5250000  29.9840000  61.6710000   4.2350000  30.1280000
  62.9480000   3.5270000  30.9630000  63.3030000   3.9770000  28.8290000
  63.9880000   4.7380000  29.1380000  63.8050000   3.0660000  28.5050000
  62.5920000   4.2970000  27.4800000  63.4130000   4.6610000  26.8140000
  62.2590000   3.3510000  27.2090000  61.4780000   5.3960000  27.4530000
  60.8420000   5.3040000  26.6340000  60.8380000   5.1080000  28.3500000
  62.0820000   6.7730000  27.4810000  62.3230000   6.9330000  28.5410000
  62.9930000   6.8290000  26.8800000  61.0890000   7.8890000  27.0320000
  60.2220000   7.8450000  27.7200000  61.6250000   8.8190000  27.1750000
  60.6830000   7.8790000  25.5630000  59.9350000   7.0670000  25.4730000
  60.1650000   8.7960000  25.2110000  61.8840000   7.6270000  24.6240000
  62.5390000   8.4520000  24.8770000  62.3660000   6.6890000  24.9320000
  61.3550000   7.5620000  23.1640000  60.7400000   8.4310000  22.9700000
  62.2020000   7.7140000  22.5360000  60.6410000   6.2470000  22.8200000
  59.7980000   6.0270000  23.5510000  60.3570000   6.4160000  21.8120000
  61.6120000   5.0740000  22.8170000  62.3440000   5.1900000  21.9030000
  62.1940000   5.0200000  23.7680000  60.8200000   3.7480000  22.4620000
  60.3380000   3.4870000  23.3760000  59.9640000   4.0240000  21.7900000
  61.6630000   2.5770000  21.9340000  62.3040000   2.4320000  22.7530000
  60.9870000   1.7520000  21.7330000  62.6120000   2.7770000  20.7750000
  63.1130000   3.7540000  20.8040000  63.4200000   2.0010000  20.8130000
  61.9390000   2.6620000  19.4270000  61.8720000   1.6760000  18.6950000
  61.2320000   3.8150000  19.1800000  60.2800000   3.9000000  18.0700000
  60.7740000   3.9740000  17.1060000  59.8910000   2.9420000  18.0530000
  59.2990000   4.9430000  18.4470000  58.6820000   5.0410000  17.5630000
  59.7260000   6.3700000  18.8140000  59.1240000   6.7890000  19.6350000
  60.7550000   6.3860000  19.0850000  59.4840000   7.2820000  17.7650000
  60.4010000   7.3180000  16.4220000  60.5880000   8.9160000  16.1810000
  61.2540000   9.8320000  17.1270000  62.1300000   9.3510000  17.5120000
  61.5260000  10.6780000  16.5020000  60.3030000  10.3010000  18.1870000
  59.5060000  10.9560000  17.7440000  59.8790000   9.4110000  18.6310000
  60.8680000  11.1460000  19.2540000  59.6800000  11.6630000  19.9300000
  58.9040000  10.8770000  20.1550000  60.0700000  12.2260000  20.8400000
  59.3250000  12.5500000  19.2800000  61.7110000  10.2900000  20.1080000
  61.9840000  10.8870000  20.9710000  61.2500000   9.3230000  20.3900000
  62.5220000  10.0780000  19.4400000  61.6360000  12.3470000  18.7290000
  62.1630000  12.7580000  19.6240000  61.0560000  13.0430000  18.2890000
  62.4630000  11.9650000  18.0210000  61.6680000   6.7010000  16.7330000
  59.5320000   6.8060000  15.3420000  58.4730000   4.4190000  19.6180000
  57.2000000   4.7210000  19.7490000  56.6330000   5.4920000  19.0480000
  56.4600000   3.9340000  20.8300000  55.8520000   4.6290000  21.4380000
  57.2560000   3.5690000  21.5670000  55.7310000   2.6940000  20.3200000
  56.3400000   1.9700000  19.8770000  55.2160000   3.1020000  19.4070000
  54.7620000   1.9680000  21.3320000  54.1110000   2.6830000  21.8650000
  55.3360000   1.4380000  22.1020000  53.9720000   0.8950000  20.5570000
  54.7130000   0.1970000  20.1660000  53.5670000   1.2030000  19.5580000
  52.9040000   0.2390000  21.4230000  52.2680000  -0.4410000  20.8290000
  52.1940000   1.0270000  21.7750000  53.4600000  -0.4250000  22.6230000
  53.9300000   0.3090000  23.2410000  54.2030000  -1.1310000  22.3200000
  52.3050000  -1.1120000  23.3730000  51.7610000  -1.8830000  22.7750000
  51.5590000  -0.3380000  23.5650000  52.7800000  -1.6370000  24.7190000
  52.9970000  -2.6680000  24.6750000  52.8570000  -0.8950000  25.8000000
  53.1610000  -1.3370000  26.8230000  52.2440000   0.5480000  25.8750000
  52.3640000   0.9870000  24.9080000  52.7710000   1.0640000  26.5620000
  50.8180000   0.7140000  26.2000000  50.8160000   0.3420000  27.2140000
  50.1990000   0.2920000  25.4630000  50.2470000   2.1370000  26.2990000
  50.7250000   2.5640000  27.1770000  49.1960000   2.1690000  26.6470000
  50.3420000   3.0390000  25.0270000  51.4070000   3.0520000  24.6810000
  50.0040000   3.9950000  25.3050000  49.4510000   2.4230000  23.9160000
  48.4570000   2.5340000  24.2500000  49.6520000   1.3900000  23.7250000
  49.6720000   3.2560000  22.5590000  50.7350000   3.2370000  22.3390000
  49.4240000   4.3340000  22.7960000  48.7290000   2.7980000  21.3510000
  47.7050000   2.8700000  21.7570000  48.9260000   1.7690000  21.1180000
  49.0210000   3.6440000  20.1090000  50.0970000   3.3860000  19.7840000
  48.7810000   4.6890000  20.2860000  48.3660000   3.4120000  19.2750000
   2.6890000  63.6650000  28.7590000   1.8170000  64.1400000  29.0410000
   3.3880000  63.6660000  29.6210000   2.5700000  62.5760000  28.7500000
   3.3770000  64.1650000  27.5770000   3.2450000  65.2410000  27.6320000
   4.4430000  63.8850000  27.6210000   2.6950000  63.8560000  26.2660000
   2.6050000  62.7970000  26.1790000   1.7220000  64.2750000  26.2900000
   3.3900000  64.3370000  24.9690000   3.3490000  65.4800000  24.9020000
   4.4150000  64.1700000  25.0870000   2.9990000  63.8000000  23.6420000
   3.6170000  64.4230000  22.9530000   3.3250000  62.8010000  23.5140000
   1.5500000  64.0000000  23.2280000   0.8610000  63.7220000  24.0340000
   1.5190000  65.0250000  22.9690000   1.1600000  63.1680000  21.9810000
   2.0970000  63.2010000  21.3970000   1.0390000  62.1220000  22.3060000
  -0.0940000  63.7570000  21.2100000  -0.9540000  63.7040000  21.8460000
   0.0910000  64.7810000  20.9730000  -0.4080000  62.9920000  19.8870000
  -0.3960000  61.9120000  20.1550000  -1.4630000  63.2020000  19.6410000
   0.5180000  63.1700000  18.6890000   1.4510000  62.7690000  18.9500000
   0.0590000  62.5070000  17.9010000   0.7260000  64.5540000  18.0850000
   1.4200000  65.0980000  18.7910000   1.3780000  64.3960000  17.2290000
  -0.5710000  65.3850000  17.6890000  -1.3400000  64.8200000  17.3060000
  -1.0020000  65.7520000  18.6120000  -0.2470000  66.6780000  16.7970000
   0.5990000  67.1850000  17.2620000  -0.0720000  66.2870000  15.7640000
  -1.4930000  67.6190000  16.9040000  -2.3570000  67.0370000  16.5850000
  -1.6050000  67.8130000  17.9740000  -1.3440000  68.9750000  16.1870000
  -1.3540000  68.8510000  15.1400000  -2.0560000  69.7440000  16.3870000
  -0.0130000  69.6220000  16.4610000   0.9790000  69.6350000  15.6790000
   0.0470000  70.1960000  17.6540000   1.1960000  70.9840000  17.9810000
   2.0120000  70.5110000  17.5000000   1.0520000  71.8690000  17.3990000
   1.3440000  71.2040000  19.4660000   0.4140000  71.4260000  20.0200000
   2.3550000  72.3700000  19.7950000   1.6810000  73.2640000  19.8780000
   2.7410000  72.2810000  20.7710000   3.4510000  72.3220000  18.7940000
   4.8740000  73.0170000  19.1750000   5.3480000  72.1050000  20.4570000
   6.2520000  71.0600000  20.3050000   5.9460000  70.2530000  20.9930000
   6.2450000  70.6930000  19.2910000   7.6500000  71.5560000  20.5440000
   7.6740000  72.5890000  20.3460000   7.8770000  71.4480000  21.5790000
   8.8060000  71.0310000  19.6580000   8.8680000  69.6100000  19.9730000
   8.1830000  68.9970000  19.4680000   9.8900000  69.2370000  19.8040000
   8.6060000  69.5410000  21.0810000   8.5940000  71.3720000  18.2500000
   7.9100000  70.6220000  17.7460000   8.0260000  72.3150000  18.2500000
   9.5350000  71.5040000  17.6950000   9.9530000  71.7830000  20.0920000
  10.8040000  71.2060000  19.7320000   9.9720000  71.7880000  21.2060000
   9.9050000  72.8060000  19.6780000   5.6940000  72.6510000  18.0090000
   4.6240000  74.4510000  19.5140000   1.8780000  69.9540000  20.0970000
   1.1890000  68.8120000  20.1690000  -0.0400000  68.7950000  19.9560000
   1.9850000  67.6080000  20.7330000   2.7970000  67.4050000  20.1050000
   1.2600000  66.7540000  20.7870000   2.5420000  68.0110000  22.1420000
   3.2020000  68.9120000  22.0220000   3.1800000  67.1720000  22.3850000
   1.4900000  68.2960000  23.2640000   0.7940000  67.4410000  23.3070000
   0.8790000  69.1380000  22.9580000   1.9790000  68.3930000  24.7090000
   2.4490000  67.5310000  25.1400000   1.1170000  68.5810000  25.3790000
   3.0580000  69.5040000  24.7840000   2.5470000  70.3980000  24.3400000
   3.9630000  69.3160000  24.2540000   3.4190000  69.9020000  26.2170000
   2.5180000  70.0840000  26.8520000   3.9610000  70.8030000  26.2170000
   4.1040000  68.7520000  26.9950000   4.8940000  68.3980000  26.3620000
   3.4230000  67.9820000  27.2090000   4.6000000  69.3380000  28.2770000
   5.0040000  70.3700000  28.1910000   4.3090000  68.8650000  29.4940000
   4.3610000  69.5740000  30.3290000   3.7400000  67.5190000  29.8540000
   4.1390000  66.7500000  29.1610000   2.6520000  67.4830000  29.7340000
   4.1730000  67.1280000  31.3270000   3.4080000  67.6930000  31.8050000
   5.1360000  67.5960000  31.6830000   4.0650000  65.7490000  31.7150000
   4.6930000  65.1880000  30.9600000   2.9740000  65.4310000  31.6450000
   4.4770000  65.5080000  33.1760000   5.4220000  65.9270000  33.3680000
   4.7800000  64.4960000  33.2490000   3.3760000  65.6630000  34.1920000
   2.4470000  65.1470000  33.9210000   3.1130000  66.7210000  34.1540000
   3.8170000  65.1100000  35.5380000   3.8520000  64.0370000  35.4040000
   2.9990000  65.4800000  36.1810000   5.1710000  65.5880000  36.1050000
   5.2420000  66.6790000  36.3460000   5.9900000  65.3730000  35.4590000
   5.4520000  64.8900000  37.4840000   6.5470000  65.1410000  37.8220000
   5.3450000  63.8220000  37.5550000   4.7600000  65.3340000  38.2250000
  32.0760000  87.3970000  32.4730000  32.2300000  87.0500000  33.4740000
  31.1650000  87.9790000  32.3560000  33.0450000  87.8850000  32.2200000
  31.9550000  86.1340000  31.6280000  32.9320000  85.5820000  31.7160000
  31.1510000  85.4910000  31.9610000  31.8200000  86.4430000  30.1040000
  30.8580000  86.8710000  29.9460000  32.5870000  87.1790000  29.8410000
  32.0950000  85.2580000  29.2300000  33.0690000  84.8950000  29.4730000
  31.3870000  84.4660000  29.3220000  32.1210000  85.7110000  27.7650000
  31.1620000  86.1760000  27.3800000  32.8890000  86.5040000  27.6430000
  32.5020000  84.4520000  26.8900000  33.4460000  84.0440000  27.3440000
  31.7790000  83.6730000  27.1040000  32.7090000  84.6250000  25.3800000
  33.6150000  85.1980000  25.2120000  32.9610000  83.6480000  25.0190000
  31.5870000  85.3200000  24.5360000  31.2520000  86.2550000  24.9230000
  31.9840000  85.5990000  23.5840000  30.4060000  84.3640000  24.2900000
  30.7940000  83.4740000  23.8380000  29.8450000  83.9430000  25.1410000
  29.2730000  84.9850000  23.4140000  29.5790000  85.0170000  22.3060000
  28.3820000  84.3270000  23.4240000  28.7600000  86.3520000  23.9070000
  28.6080000  86.3660000  24.9860000  29.5060000  87.0560000  23.6050000
  27.3930000  86.8200000  23.3370000  27.4300000  86.7820000  22.3010000
  26.5700000  86.2570000  23.7400000  27.0400000  88.1890000  23.7960000
  27.1440000  88.2340000  24.8460000  27.7220000  88.8350000  23.3280000
  25.6230000  88.8180000  23.4550000  24.7600000  88.2290000  23.9010000
  25.4970000  89.7310000  24.1510000  25.3000000  88.9910000  21.9590000
  25.3440000  88.0800000  21.3780000  24.3290000  89.3760000  21.8520000
  26.2760000  89.9160000  21.2930000  26.0840000  91.1250000  21.1470000
  27.4600000  89.4060000  20.9330000  28.4520000  90.1560000  20.2330000
  29.0350000  89.5210000  19.6110000  28.0220000  90.8290000  19.4960000
  29.3080000  90.9020000  21.2850000  28.6680000  91.3550000  22.0710000
  30.1050000  92.0270000  20.5300000  29.4290000  92.7370000  20.0220000
  30.8300000  92.5160000  21.1840000  30.7460000  91.3350000  19.4090000
  32.3300000  91.1160000  19.2730000  32.7820000  92.4680000  18.4160000
  32.7630000  93.8120000  18.9560000  31.7870000  93.8600000  19.5230000
  33.5680000  93.9180000  19.6540000  32.6890000  94.7870000  17.7400000
  33.1280000  94.3250000  16.8730000  31.7610000  95.0020000  17.4060000
  33.4080000  96.1300000  18.0160000  34.7940000  95.9290000  17.7510000
  34.9100000  95.5170000  16.7260000  35.2590000  96.9250000  17.7460000
  35.1860000  95.2540000  18.4140000  32.9160000  97.1290000  17.0720000
  33.1480000  96.8400000  16.0430000  31.8390000  97.1300000  17.1370000
  33.2360000  98.1900000  17.3640000  33.1750000  96.7200000  19.3920000
  33.2650000  95.9670000  20.1950000  32.1730000  97.1460000  19.4860000
  33.9280000  97.4360000  19.6040000  32.8820000  91.2340000  20.6940000
  32.6370000  89.8850000  18.4770000  30.2910000  90.0030000  21.9470000
  30.8610000  90.5420000  23.0150000  30.5230000  91.5970000  23.5390000
  31.9540000  89.6520000  23.6090000  32.9680000  89.9710000  23.3350000
  31.7840000  88.6710000  23.1780000  31.7920000  89.6360000  25.1850000
  32.1010000  90.6340000  25.5850000  32.5090000  88.8370000  25.4590000
  30.3940000  89.1010000  25.7040000  30.2510000  88.0310000  25.4880000
  29.5940000  89.6020000  25.1910000  30.1030000  89.2710000  27.2210000
  30.4210000  90.2480000  27.5440000  30.7940000  88.6360000  27.7170000
  28.7410000  88.7580000  27.6120000  28.7590000  88.6230000  28.6380000
  28.5090000  87.7140000  27.2770000  27.7550000  89.7540000  27.1790000
  27.7940000  89.6950000  26.1460000  27.9110000  90.7640000  27.5490000
  26.3320000  89.3200000  27.5380000  26.3060000  89.0770000  28.6020000
  26.0860000  88.3500000  27.0520000  25.4060000  90.4550000  27.2830000
  25.0740000  90.5640000  26.2440000  25.1500000  91.4100000  28.1200000
  24.6220000  92.2760000  27.6250000  25.6630000  91.5650000  29.5060000
  25.7010000  92.6680000  29.7880000  26.7190000  91.3220000  29.6550000
  24.9960000  90.6530000  30.5750000  25.1500000  89.5110000  30.3350000
  23.8960000  90.8200000  30.5410000  25.4230000  91.0410000  32.0430000
  25.0470000  90.2820000  32.7560000  24.7930000  91.8960000  32.2300000
  26.9100000  91.3740000  32.1990000  27.1800000  92.2680000  31.5780000
  27.5170000  90.5460000  31.8710000  27.2340000  91.8170000  33.7030000
  26.7970000  91.1260000  34.3990000  26.6060000  92.6320000  33.9090000
  28.7030000  92.1640000  33.9440000  28.6870000  92.6770000  34.9080000
  29.0020000  92.8680000  33.1310000  29.6400000  90.9410000  33.9670000
  29.4670000  90.2890000  33.1010000  29.2930000  90.3000000  34.7610000
  31.1020000  91.3120000  34.1390000  31.7960000  90.5650000  33.7250000
  31.3870000  91.4890000  35.2000000  31.1720000  92.2670000  33.6180000
 110.9680000 121.7270000  32.4530000 112.0110000 121.4580000  32.5340000
 110.5000000 121.5170000  33.4120000 110.8760000 122.7940000  32.2120000
 110.3070000 120.9150000  31.4250000 110.9000000 120.9870000  30.4750000
 110.3010000 119.8650000  31.7760000 108.9080000 121.4680000  31.0670000
 109.0460000 122.4620000  30.6630000 108.4090000 120.7620000  30.2960000
 107.8200000 121.6040000  32.2460000 107.6490000 120.6620000  32.7720000
 108.2630000 122.2970000  33.0210000 106.3660000 122.0510000  31.9840000
 105.9220000 121.5200000  31.1670000 105.7120000 121.8080000  32.8180000
 106.4550000 123.5300000  31.7190000 106.4940000 124.0200000  32.6600000
 107.3060000 123.8050000  31.1670000 105.2480000 124.2990000  31.2340000
 104.4760000 124.0830000  31.9090000 105.5110000 125.3410000  31.2970000
 104.8500000 124.0540000  29.7740000 104.7660000 122.9550000  29.5770000
 103.8760000 124.4920000  29.5070000 105.8270000 124.6760000  28.8020000
 105.8600000 125.7980000  28.9270000 106.8320000 124.3870000  29.1650000
 105.6080000 124.2380000  27.2980000 104.7610000 124.6020000  26.8120000
 106.4520000 124.7620000  26.7450000 105.6970000 122.6750000  27.0600000
 104.9070000 122.1970000  27.6480000 105.5170000 122.5760000  25.9940000
 107.0060000 122.0730000  27.5480000 107.3000000 122.3660000  28.5760000
 106.9780000 120.9240000  27.5710000 108.1180000 122.4910000  26.6180000
 107.8770000 122.3240000  25.5490000 108.3460000 123.5710000  26.7300000
 109.3870000 121.6510000  26.9230000 109.5380000 121.4150000  27.9530000
 109.1420000 120.6890000  26.4550000 110.7120000 122.2610000  26.3660000
 110.8080000 123.2710000  26.7110000 111.5100000 121.6340000  26.6500000
 110.7670000 122.3830000  24.7920000 111.5470000 121.6930000  24.1020000
 109.9430000 123.3100000  24.3230000 109.8320000 123.5700000  22.9020000
 109.2730000 124.4780000  22.7990000 110.8510000 123.7500000  22.5440000
 109.0860000 122.4170000  22.1650000 109.8400000 121.6040000  22.0740000
 108.5780000 122.8900000  20.7650000 107.6600000 122.3650000  20.5010000
 108.2190000 123.9100000  20.7870000 109.7320000 122.7660000  19.8450000
 110.4830000 124.1260000  19.3420000 109.4430000 124.9040000  18.4180000
 108.7580000 124.2750000  17.3170000 108.2700000 123.3410000  17.6650000
 108.0180000 124.9910000  16.8830000 109.7630000 123.8160000  16.1940000
 110.5810000 123.2850000  16.6490000 109.3210000 123.0600000  15.5100000
 110.3020000 124.8380000  15.2770000 111.3910000 124.2650000  14.4630000
 111.6080000 124.9940000  13.8390000 112.1120000 124.0920000  15.1900000
 111.0180000 123.2870000  14.0840000 109.1670000 125.2590000  14.4210000
 108.8850000 124.4400000  13.6980000 108.2660000 125.3830000  14.9650000
 109.4030000 126.1690000  13.9320000 110.8520000 125.9990000  16.0190000
 110.0600000 126.4400000  16.6390000 111.2890000 126.6940000  15.2610000
 111.6640000 125.7660000  16.7500000 110.7510000 124.9800000  20.4980000
 111.5970000 123.6290000  18.5160000 107.9090000 121.9090000  22.8920000
 107.4820000 120.6670000  22.6890000 108.0700000 119.8970000  21.9440000
 106.3060000 120.2740000  23.4930000 105.4210000 120.4510000  22.8470000
 106.1860000 120.7940000  24.4030000 106.3140000 118.7400000  23.7710000
 106.4080000 118.2190000  22.7780000 105.2500000 118.4620000  24.1020000
 107.2920000 118.2470000  24.8460000 106.7420000 117.5130000  25.3890000
 107.5190000 119.0040000  25.5900000 108.6500000 117.7890000  24.3740000
 109.2610000 117.3790000  25.2290000 109.2830000 118.6080000  23.9880000
 108.6280000 116.5320000  23.4580000 108.4800000 116.8820000  22.4270000
 107.7560000 115.9590000  23.7630000 109.8210000 115.5520000  23.5340000
 109.9280000 115.2450000  24.5740000 110.7220000 116.0700000  23.3240000
 109.8320000 114.2650000  22.6550000 109.8520000 114.5690000  21.5730000
 108.9100000 113.6780000  22.8430000 111.0790000 113.5880000  22.9840000
 112.0720000 113.9600000  22.6370000 111.2040000 112.5420000  23.8100000
 112.1630000 112.2760000  24.0630000 110.1630000 111.7940000  24.5380000
 110.4460000 110.7120000  24.5000000 109.2610000 111.9590000  23.9450000
 109.8400000 112.2270000  25.9110000 109.2220000 111.4920000  26.4100000
 109.3580000 113.2220000  25.7790000 111.1100000 112.4830000  26.7710000
 111.6640000 113.3270000  26.2930000 111.7050000 111.5710000  26.6860000
 110.8610000 112.8520000  28.1880000 110.4510000 111.9910000  28.7060000
 110.1910000 113.7720000  28.3050000 112.1940000 113.2270000  28.8690000
 112.5680000 114.1650000  28.2840000 112.9400000 112.4650000  28.7130000
 112.1510000 113.4680000  30.3970000 111.7070000 112.5630000  30.8230000
 111.5800000 114.3760000  30.6170000 113.5840000 113.6530000  30.9990000
 114.1150000 112.7350000  30.8070000 113.4460000 113.6480000  32.0910000
 114.3590000 114.8510000  30.4930000 115.3500000 114.8820000  30.9610000
 113.7500000 115.7220000  30.6400000 114.5270000 114.6760000  29.4750000
 124.3580000 120.5510000  36.2170000 125.2310000 119.9290000  36.3470000
 123.7230000 120.5870000  37.1000000 124.6690000 121.5670000  35.9150000
 123.5980000 119.9850000  34.9890000 124.2520000 119.8990000  34.1050000
 123.3950000 118.9910000  35.2360000 122.2880000 120.7310000  34.7040000
 121.4870000 120.3520000  35.3250000 122.4860000 121.8090000  34.9820000
 121.8500000 120.5460000  33.3250000 122.6890000 120.5680000  32.5840000
 121.5640000 119.4850000  33.2820000 120.7220000 121.4420000  32.9440000
 120.3920000 121.1030000  31.9420000 119.9340000 121.2710000  33.6450000
 121.1670000 122.8990000  32.8080000 121.7920000 123.2160000  33.6820000
 121.8030000 123.0310000  31.9420000 120.0030000 123.8250000  32.6350000
 119.3270000 123.6860000  33.4560000 120.4480000 124.8280000  32.5940000
 119.1780000 123.5950000  31.3850000 118.3710000 122.9020000  31.6520000
 118.4880000 124.4620000  31.2530000 119.8730000 123.1980000  30.0360000
 120.6980000 123.9070000  29.8580000 120.2920000 122.2280000  30.1000000
 118.9260000 123.3150000  28.8240000 117.9300000 122.8310000  29.0540000
 118.7290000 124.3780000  28.5340000 119.3850000 122.5460000  27.5690000
 119.4470000 121.5370000  27.9500000 118.6680000 122.5760000  26.7840000
 120.7770000 122.9040000  26.9790000 120.8030000 123.9670000  26.7260000
 121.5260000 122.8390000  27.8020000 121.3260000 122.0520000  25.7980000
 121.5030000 121.0470000  26.2250000 120.5920000 121.9640000  24.9830000
 122.6910000 122.6870000  25.3830000 123.2180000 122.9920000  26.3050000
 123.4210000 121.9620000  24.9320000 122.5810000 124.0410000  24.6410000
 121.9980000 124.7920000  25.1730000 123.5340000 124.4120000  24.4980000
 121.9470000 123.8390000  23.3500000 122.4060000 123.2210000  22.4210000
 120.6580000 124.3350000  23.3280000 119.9390000 124.1860000  22.1220000
 119.0530000 124.7990000  22.1980000 120.5710000 124.6220000  21.3040000
 119.4980000 122.7990000  21.7380000 120.3120000 122.0700000  21.7260000
 119.0440000 122.9000000  20.3120000 119.9200000 122.9660000  19.6550000
 118.6770000 121.9700000  20.0410000 118.0630000 123.8890000  20.0650000
 117.5920000 124.0810000  18.5210000 116.2180000 123.3520000  18.3600000
 114.9160000 124.0910000  18.6150000 114.9490000 125.0670000  18.2010000
 114.1420000 123.6740000  17.9610000 114.4580000 124.1280000  20.0970000
 115.1870000 124.6420000  20.6730000 113.4980000 124.6890000  20.1150000
 114.2060000 122.8310000  20.7770000 113.0380000 122.8950000  21.7600000
 112.2200000 123.2990000  21.1570000 112.7120000 121.8600000  22.1010000
 113.3510000 123.4740000  22.5890000 113.9580000 121.7090000  19.7110000
 112.9910000 122.0000000  19.2450000 114.7500000 121.6780000  19.0300000
 113.8880000 120.7180000  20.1900000 115.4440000 122.5660000  21.4310000
 116.2510000 122.5500000  20.6930000 115.2880000 121.7040000  21.9150000
 115.6780000 123.3650000  22.1460000 117.3130000 125.5270000  18.3930000
 118.6080000 123.5590000  17.5930000 118.3820000 122.4970000  22.6720000
 118.1250000 121.2050000  22.8580000 118.6400000 120.3610000  22.1910000
 117.0690000 120.9210000  23.9470000 116.3150000 120.2380000  23.5740000
 116.5940000 121.8390000  24.2740000 117.7460000 120.1160000  25.0440000
 118.8000000 120.3610000  25.1830000 117.8360000 119.0210000  24.7440000
 116.9510000 120.0130000  26.4000000 115.9900000 119.6710000  26.2410000
 116.8030000 121.0350000  26.7680000 117.6720000 119.1540000  27.4420000
 118.6360000 119.5170000  27.6150000 117.8070000 118.1300000  27.1030000
 116.8130000 119.2780000  28.6520000 115.8710000 118.9040000  28.4500000
 116.6320000 120.2860000  28.9030000 117.5670000 118.5010000  29.7800000
 118.5300000 118.9600000  29.9180000 117.7260000 117.4440000  29.5450000
 116.7750000 118.4200000  31.0880000 115.8610000 117.7500000  31.0130000
 116.4450000 119.4270000  31.5180000 117.5310000 117.9430000  32.3110000
 118.1330000 117.1020000  32.0020000 117.5850000 118.4530000  33.5480000
 118.2800000 118.0880000  34.3100000 116.6980000 119.6320000  34.0970000
 116.0350000 119.9150000  33.2830000 117.4690000 120.4430000  34.3710000
 115.9550000 119.3170000  35.3740000 116.6660000 119.1610000  36.2190000
 115.5570000 118.2930000  35.2290000 114.7290000 120.2750000  35.5640000
 115.1220000 121.2670000  35.3670000 114.4470000 120.2380000  36.6420000
 113.5470000 119.9940000  34.5990000 113.9080000 120.3100000  33.6230000
 112.8550000 120.7250000  34.8380000 113.0130000 118.5570000  34.6350000
 112.7330000 118.2430000  35.6570000 113.6920000 117.7910000  34.2780000
 111.7250000 118.4410000  33.7430000 111.8220000 119.0080000  32.8350000
 110.9840000 118.9070000  34.2770000 111.2780000 117.0050000  33.3750000
 112.1280000 116.4530000  32.9050000 110.4780000 117.0980000  32.6930000
 110.8860000 116.2910000  34.6280000 111.7370000 116.1290000  35.2950000
 110.4430000 115.3350000  34.4390000 110.1010000 116.8590000  35.0810000
  33.4150000  50.9250000  30.3160000  33.4130000  49.9460000  30.8030000
  34.4410000  51.3050000  30.1950000  33.0460000  50.6710000  29.3430000
  32.6380000  52.0090000  30.9740000  32.6260000  52.9020000  30.2990000
  31.5960000  51.6900000  31.0380000  33.2220000  52.4290000  32.3350000
  33.7270000  51.5360000  32.7840000  34.0440000  53.2100000  32.1470000
  32.1530000  53.0100000  33.2960000  32.6600000  53.5630000  34.1620000
  31.7110000  53.8490000  32.7260000  31.0770000  52.0210000  33.8380000
  30.4040000  51.8910000  33.0300000  31.5020000  51.0350000  34.1210000
  30.1430000  52.5910000  34.9810000  30.7740000  52.8960000  35.8690000
  29.6770000  53.4860000  34.6330000  29.0580000  51.6230000  35.4850000
  29.5140000  50.8650000  36.1490000  28.3350000  52.2020000  36.0720000
  28.1790000  50.9820000  34.4080000  28.9650000  50.5280000  33.8230000
  27.5250000  50.2330000  34.8180000  27.2110000  51.9380000  33.5950000
  26.6680000  52.5980000  34.3100000  27.8450000  52.6400000  32.9370000
  26.2040000  50.9670000  32.7470000  25.6170000  50.3780000  33.4540000
  25.4670000  51.5080000  32.1150000  27.0650000  49.9850000  31.8500000
  27.7520000  49.3320000  32.3790000  26.3950000  49.3260000  31.2320000
  27.9080000  50.7500000  30.8580000  27.3240000  51.3820000  30.1580000
  28.5710000  51.3350000  31.4500000  28.8490000  49.7860000  30.1000000
  29.5190000  49.3840000  30.8230000  28.2110000  48.9450000  29.8160000
  29.6590000  50.4190000  28.9120000  29.9920000  51.3870000  29.2510000
  30.5290000  49.7810000  28.6210000  28.8360000  50.6190000  27.6230000
  28.2520000  49.6490000  27.3630000  28.1450000  51.4950000  27.6760000
  29.7410000  50.8660000  26.4620000  30.8320000  51.4120000  26.5400000
  29.4110000  50.1190000  25.3950000  30.1700000  50.1070000  24.1570000
  29.5490000  49.9020000  23.3550000  30.7940000  51.0410000  24.0690000
  31.3420000  49.0830000  24.0880000  31.9720000  49.2040000  24.9910000
  32.1220000  49.4490000  22.8260000  32.3400000  50.5400000  22.8530000
  33.0560000  48.8530000  23.0220000  31.4630000  49.0580000  21.6180000
  32.0680000  49.3270000  20.2100000  31.6390000  50.8090000  19.9670000
  31.4030000  51.4440000  18.7320000  32.3710000  51.4250000  18.1770000
  30.6660000  50.8230000  18.1530000  30.8400000  52.8800000  19.0110000
  30.3920000  53.3480000  18.0730000  30.0660000  52.7910000  19.8300000
  31.9130000  53.8040000  19.4410000  32.3320000  53.5790000  20.8540000
  32.6340000  52.5470000  20.7970000  33.2080000  54.1400000  21.0650000
  31.5450000  53.6440000  21.6750000  33.0790000  53.7970000  18.4960000
  33.8590000  54.5170000  18.8470000  33.7460000  52.8370000  18.4990000
  32.7750000  53.9450000  17.4350000  31.4580000  55.2540000  19.4110000
  31.7300000  55.6750000  18.4650000  31.8750000  55.7990000  20.2550000
  30.3860000  55.1410000  19.5370000  33.5700000  49.4260000  20.2360000
  31.3610000  48.5190000  19.2310000  30.8050000  47.7720000  23.9070000
  30.4770000  47.1470000  25.0630000  30.5680000  47.5690000  26.2020000
  30.1320000  45.7360000  24.7690000  30.8670000  45.4500000  23.9650000
  29.1850000  45.7680000  24.2940000  30.3350000  44.7790000  25.9680000
  31.2930000  44.9110000  26.4900000  30.3230000  43.8050000  25.5240000
  29.1070000  44.9000000  26.9130000  28.1500000  44.9180000  26.3760000
  29.1140000  45.8180000  27.4620000  28.9650000  43.7360000  27.9570000
  30.0210000  43.3730000  28.1100000  28.6190000  42.8050000  27.3760000
  28.2570000  43.9360000  29.3350000  27.2150000  44.1510000  29.0860000
  28.8350000  44.7280000  29.8800000  28.2110000  42.6570000  30.2900000
  29.1990000  42.3110000  30.5150000  27.8900000  41.8420000  29.7570000
  27.3180000  42.9010000  31.5140000  26.2670000  43.0260000  31.1080000
  27.6460000  43.8170000  31.9870000  27.4180000  41.7530000  32.4410000
  28.3720000  41.3410000  32.4270000  26.4930000  41.3190000  33.3160000
  26.7500000  40.5840000  34.0930000  25.0890000  41.9240000  33.3780000
  24.4040000  41.0710000  33.1870000  24.8430000  42.6710000  32.6160000
  24.9960000  42.4180000  34.8300000  25.7500000  43.1630000  34.9580000
  25.2350000  41.6630000  35.5680000  23.5970000  43.0890000  35.1070000
  22.7510000  42.3640000  35.1210000  23.4670000  43.8510000  34.3420000
  23.6480000  43.8760000  36.4940000  24.4400000  44.5750000  36.4980000
  23.9670000  43.1300000  37.2240000  22.3090000  44.4980000  36.8800000
  22.0150000  45.3290000  36.1980000  22.3920000  44.9790000  37.8330000
  21.1680000  43.4980000  37.0900000  21.4420000  42.7800000  37.8800000
  20.9970000  43.0140000  36.1380000  19.8270000  44.2600000  37.5710000
  18.9360000  43.7910000  37.3560000  19.9240000  45.2000000  37.0170000
  19.8780000  44.7460000  38.9770000  20.1010000  43.9740000  39.7040000
  18.9000000  45.2640000  39.1800000  20.6170000  45.4790000  39.1310000
  31.0170000  87.3200000  39.8650000  30.3270000  88.0640000  40.2020000
  30.4090000  86.6630000  39.1450000  31.9460000  87.7580000  39.4020000
  31.5800000  86.5140000  40.9860000  32.1020000  87.2140000  41.6770000
  30.7580000  86.0780000  41.4530000  32.6460000  85.5500000  40.4750000
  32.6460000  84.6840000  41.0280000  32.3600000  85.1770000  39.5010000
  34.1530000  85.9960000  40.4250000  34.1470000  86.8880000  39.8300000
  34.5550000  86.1810000  41.4140000  35.0690000  84.9440000  39.7260000
  35.2000000  84.0430000  40.2740000  34.5740000  84.5860000  38.7780000
  36.4460000  85.4310000  39.3200000  36.9320000  85.7300000  40.2470000
  37.0550000  84.6360000  38.8920000  36.4490000  86.6910000  38.4300000
  35.9370000  87.5030000  38.9930000  37.4900000  86.9320000  38.1950000
  35.7260000  86.6930000  37.0270000  34.6880000  86.6570000  37.1350000
  35.9520000  87.7210000  36.6120000  36.2850000  85.5670000  36.1260000
  36.2620000  84.6610000  36.7890000  35.6500000  85.4670000  35.2370000
  37.7390000  85.7770000  35.6830000  38.4970000  85.9800000  36.4800000
  38.0750000  84.8950000  35.0860000  37.8380000  86.9410000  34.6870000
  37.4750000  87.8950000  35.0900000  38.8740000  87.1730000  34.4520000
  37.0680000  86.8010000  33.3420000  36.1530000  86.3630000  33.4250000
  36.8500000  87.7780000  32.8800000  37.7570000  85.8940000  32.3000000
  38.8310000  86.2190000  32.2600000  37.8010000  84.8710000  32.6860000
  36.9580000  85.8410000  30.9670000  35.9820000  85.2920000  31.1330000
  36.6380000  86.8400000  30.7780000  37.7510000  85.2280000  29.8210000
  38.5590000  85.9090000  29.6280000  38.1510000  84.2470000  30.1590000
  36.9160000  85.1190000  28.5450000  35.6980000  85.2550000  28.5170000
  37.6080000  84.6490000  27.4890000  37.0130000  85.0940000  26.2450000
  37.6540000  84.6090000  25.4230000  36.0110000  84.6900000  26.2030000
  37.0610000  86.6440000  26.0500000  36.5050000  87.1260000  26.8790000
  36.2910000  87.0160000  24.7000000  35.3310000  86.7340000  25.0510000
  36.4950000  88.0070000  24.3280000  36.6190000  86.1400000  23.6230000
  35.4720000  85.3790000  22.8370000  35.2920000  83.9680000  23.5260000
  36.3410000  82.9810000  23.4530000  37.0820000  83.1590000  22.7140000
  36.8080000  83.1350000  24.3890000  35.6310000  81.6330000  23.2180000
  36.3300000  80.9650000  22.9000000  35.1700000  81.3400000  24.1560000
  34.4380000  81.6040000  22.1770000  33.2160000  82.3250000  22.6440000
  32.3170000  82.0590000  22.0440000  33.1010000  82.0450000  23.6660000
  33.3940000  83.3570000  22.5390000  34.8040000  82.1150000  20.8310000
  33.9870000  82.0340000  20.1290000  35.2010000  83.0990000  20.8710000
  35.5840000  81.4560000  20.4330000  34.0820000  80.1670000  22.0210000
  34.7750000  79.7460000  21.3650000  33.0570000  80.2230000  21.6440000
  34.1730000  79.7350000  23.0070000  34.2200000  86.1310000  23.0050000
  35.9000000  85.0550000  21.4670000  38.5180000  86.9790000  25.9940000
  39.1340000  87.6890000  26.9230000  38.5720000  87.9960000  27.9790000
  40.5340000  88.0310000  26.5340000  40.5200000  88.6140000  25.6480000
  40.9620000  87.0010000  26.3510000  41.4340000  88.7180000  27.6210000
  40.9450000  89.6360000  28.0050000  42.3030000  89.2140000  27.1670000
  41.8200000  87.7740000  28.8380000  42.5150000  86.9930000  28.5410000
  40.9750000  87.2200000  29.1720000  42.3880000  88.4460000  30.0830000
  42.1910000  89.5200000  30.2180000  43.4530000  88.3150000  29.9510000
  41.9660000  87.8090000  31.4690000  42.2590000  86.7650000  31.3460000
  40.8550000  87.8200000  31.5810000  42.5960000  88.5780000  32.6180000
  42.4900000  89.6630000  32.4570000  43.6290000  88.3260000  32.8070000
  41.8240000  88.2420000  33.8620000  41.7760000  87.1500000  34.0820000
  40.8130000  88.6350000  33.7350000  42.4820000  88.7620000  35.1490000
  43.4540000  88.2890000  35.5340000  41.9700000  89.6870000  36.0290000
  42.5600000  90.0610000  36.9040000  40.5750000  90.2680000  35.9280000
  39.8730000  89.6520000  35.3820000  40.5780000  91.3060000  35.5990000
  39.9720000  90.3820000  37.2980000  38.9350000  90.6830000  37.1130000
  40.3830000  91.2520000  37.8790000  39.9790000  89.1100000  38.1890000
  41.0270000  88.9700000  38.5280000  39.6590000  88.1550000  37.7090000
  39.0930000  89.5480000  39.4480000  38.0240000  89.5990000  39.1580000
  39.4190000  90.5340000  39.8710000  39.1410000  88.4880000  40.5810000
  40.1750000  88.5870000  40.9520000  39.1070000  87.4460000  40.1850000
  37.9870000  88.7880000  41.5720000  37.0310000  88.6420000  41.0510000
  38.1580000  89.7710000  41.8770000  38.0060000  87.8940000  42.7290000
  38.2970000  86.9090000  42.4980000  37.0400000  87.7230000  43.1780000
  38.9760000  88.4180000  43.8070000  38.9510000  89.5050000  43.8250000
  40.0210000  88.1530000  43.5550000  38.6840000  87.9080000  44.8030000
  63.5530000 150.0740000  31.4290000  63.7980000 149.1500000  31.9960000
  62.5610000 150.3570000  31.5880000  64.2470000 150.7290000  31.8080000
  63.8120000 149.8480000  29.9790000  63.6330000 150.7630000  29.4580000
  64.8100000 149.4730000  29.8470000  62.8900000 148.8060000  29.2760000
  63.1280000 147.8120000  29.5900000  61.8600000 148.9500000  29.5000000
  63.1100000 148.9310000  27.7320000  62.8120000 149.9520000  27.3030000
  64.1570000 148.7530000  27.5590000  62.2020000 147.9870000  26.9370000
  61.2070000 148.4740000  26.9090000  62.5000000 148.0510000  25.8880000
  62.0430000 146.4650000  27.2610000  63.0760000 146.0180000  27.3040000
  61.6380000 146.3380000  28.2930000  61.2240000 145.6970000  26.1720000
  60.2570000 146.0520000  26.1850000  61.6590000 145.8910000  25.1710000
  61.1860000 144.1920000  26.3880000  60.4070000 144.0790000  27.1290000
  60.7620000 143.7920000  25.3720000  62.4420000 143.3350000  26.7140000
  63.3020000 143.6880000  26.1100000  62.6620000 143.3860000  27.7700000
  62.3080000 141.7550000  26.6510000  61.5250000 141.3830000  27.3230000
  62.0640000 141.4020000  25.6240000  63.6560000 141.2260000  27.1690000
  64.4610000 141.2320000  26.3600000  63.8720000 141.8460000  28.0270000
  63.6150000 139.8410000  27.7930000  64.3200000 139.8170000  28.6170000
  62.6320000 139.8000000  28.2440000  63.9150000 138.6370000  26.8440000
  63.3090000 138.7200000  25.9700000  64.9620000 138.6810000  26.6780000
  63.4930000 137.2840000  27.5210000  63.8430000 137.2580000  28.5480000
  62.4260000 137.1750000  27.5640000  64.0510000 136.0380000  26.7020000
  65.0930000 136.1530000  26.4810000  63.9530000 135.0920000  27.2920000
  63.3430000 135.6030000  25.4190000  62.9510000 134.4730000  25.2030000
  63.1750000 136.6770000  24.5870000  62.3650000 136.6140000  23.4270000
  62.7160000 137.4910000  22.8820000  62.5700000 135.7530000  22.8180000
  60.8770000 136.6480000  23.7680000  60.6930000 135.7280000  24.3230000
  59.9870000 136.7080000  22.5060000  60.2730000 135.8920000  21.7970000
  58.9080000 136.5280000  22.7170000  60.0110000 138.0050000  21.7810000
  61.0920000 138.4940000  20.6950000  60.1250000 138.5440000  19.4070000
  59.7770000 137.3680000  18.6720000  59.6090000 137.8120000  17.6670000
  60.6340000 136.7170000  18.6350000  58.4990000 136.7690000  19.2570000
  58.2360000 135.8500000  18.8080000  58.6760000 136.7100000  20.3740000
  57.1450000 137.4810000  19.2640000  56.7040000 138.1080000  18.0450000
  55.9480000 138.7980000  18.3660000  57.5200000 138.6350000  17.5810000
  56.2640000 137.2820000  17.3810000  56.1840000 136.4340000  19.6480000
  55.1620000 136.7890000  19.7920000  56.1310000 135.7460000  18.8420000
  56.4410000 136.0020000  20.6020000  57.1260000 138.4680000  20.3600000
  56.0600000 138.8420000  20.4780000  57.8760000 139.2710000  20.1340000
  57.3870000 137.9060000  21.1880000  61.4980000 139.8230000  21.0370000
  62.0370000 137.3300000  20.5210000  60.6870000 137.8340000  24.5540000
  59.7660000 137.7380000  25.5300000  59.1930000 136.7020000  25.7590000
  59.3730000 139.1460000  26.0970000  58.3710000 139.3990000  25.8280000
  60.0150000 139.9340000  25.7310000  59.4910000 139.1410000  27.6670000
  60.5700000 139.0920000  27.8500000  59.0140000 138.3070000  28.1340000
  58.9320000 140.3690000  28.4630000  57.8570000 140.2010000  28.7680000
  58.9110000 141.2470000  27.9010000  59.7780000 140.8510000  29.7470000
  59.1040000 141.3930000  30.4160000  60.6090000 141.5030000  29.4710000
  60.5230000 139.8190000  30.6450000  61.0730000 139.1720000  29.9680000
  59.7280000 139.1880000  31.1920000  61.4490000 140.4280000  31.7250000
  62.0030000 139.6300000  32.2240000  60.9000000 141.0560000  32.4320000
  62.6780000 141.2210000  31.1850000  62.3540000 141.9490000  30.4020000
  63.3290000 140.4190000  30.7720000  63.3820000 141.9300000  32.3400000
  64.1100000 141.3400000  32.9010000  63.1800000 143.2360000  32.5900000
  63.8490000 143.7450000  33.3030000  62.0760000 144.0650000  31.9370000
  61.2690000 143.4280000  31.5640000  62.4340000 144.5970000  31.0470000
  61.3480000 144.9600000  32.9330000  62.1340000 145.3550000  33.5980000
  60.5960000 144.4330000  33.4650000  60.6830000 146.1510000  32.2950000
  59.7680000 145.7790000  31.8310000  61.3310000 146.5210000  31.5590000
  60.3160000 147.2790000  33.2390000  61.1720000 147.6040000  33.8050000
  59.5680000 146.9350000  33.9620000  59.6550000 148.4530000  32.5150000
  58.5600000 148.1460000  32.2800000  60.1220000 148.5480000  31.5410000
  59.5860000 149.8060000  33.3040000  60.5870000 150.0680000  33.4640000
  59.2580000 149.6710000  34.3200000  58.8790000 151.0430000  32.6840000
  58.6940000 151.7760000  33.4520000  57.8460000 150.9030000  32.3070000
  59.6980000 151.6650000  31.5960000  59.4790000 151.3060000  30.6240000
  60.7280000 151.5680000  31.7940000  59.4020000 152.6640000  31.5100000
  93.1590000  58.6650000  33.3750000  93.0450000  57.6180000  33.1340000
  92.2170000  59.1690000  33.0740000  93.3730000  58.7490000  34.4820000
  94.3700000  59.3690000  32.6400000  95.2350000  58.8700000  33.0150000
  94.1770000  59.1110000  31.6250000  94.3090000  60.9250000  32.7210000
  93.3640000  61.3590000  32.2120000  94.2120000  61.1470000  33.7370000
  95.5460000  61.7410000  32.1690000  95.4970000  62.7750000  32.4680000
  96.4110000  61.2170000  32.5600000  95.6900000  61.7530000  30.5820000
  95.6760000  60.6990000  30.2770000  94.8020000  62.0740000  30.0840000
  96.8690000  62.5530000  30.1250000  96.5180000  63.5870000  30.0920000
  97.6630000  62.6300000  30.8410000  97.5450000  62.0560000  28.7780000
  97.9720000  60.9700000  28.9280000  96.7070000  61.9870000  28.0530000
  98.7940000  62.8280000  28.3560000  98.6330000  63.9750000  28.3690000
  99.5780000  62.5140000  28.9970000  99.3050000  62.5360000  26.9330000
  98.8380000  61.6070000  26.5710000  99.1030000  63.4210000  26.2600000
 100.8330000  62.3840000  26.7450000 101.3780000  63.1830000  27.2150000
 101.0660000  61.5230000  27.2970000 101.2420000  62.4330000  25.2990000
 101.1230000  63.5030000  24.8880000 102.3800000  62.3330000  25.2010000
 100.3990000  61.5470000  24.3420000 100.3660000  60.5990000  24.7990000
  99.3580000  61.9160000  24.3390000 100.7990000  61.3100000  22.8410000
 100.7620000  62.2600000  22.3140000 101.8600000  61.0070000  22.8010000
 100.0450000  60.1420000  22.1510000 100.0240000  59.2900000  22.8490000
  98.9480000  60.4650000  22.0540000 100.6970000  59.6240000  20.9120000
 101.7630000  59.4530000  21.0640000 100.2870000  58.6770000  20.6110000
 100.5970000  60.5200000  19.6960000  99.6120000  60.6220000  19.0040000
 101.6430000  61.3440000  19.4970000 101.8720000  61.8010000  18.1870000
 101.6200000  60.8910000  17.5920000 101.1440000  62.5230000  17.8670000
 103.3050000  62.2920000  18.1670000 103.3760000  63.1670000  18.8170000
 103.6320000  62.8020000  16.7130000 103.8290000  62.0220000  16.0030000
 102.8480000  63.4580000  16.2480000 104.6470000  63.8230000  16.7670000
 106.2040000  63.5420000  17.2060000 106.1890000  63.4340000  18.7620000
 107.3560000  63.6520000  19.6230000 108.0310000  64.4220000  19.1060000
 106.9980000  64.1220000  20.5570000 108.0340000  62.2310000  19.9430000
 107.2730000  61.7010000  20.5330000 108.1710000  61.6420000  19.0170000
 109.3810000  62.1820000  20.5990000 109.8520000  60.7330000  20.7350000
 110.8870000  60.6790000  21.2130000 109.0750000  60.2060000  21.3760000
 109.8770000  60.2640000  19.7460000 110.4080000  62.8980000  19.8140000
 110.6920000  62.2600000  18.9440000 109.9540000  63.8970000  19.7100000
 111.3480000  62.9580000  20.4480000 109.1610000  62.8610000  21.8950000
 109.1460000  63.9110000  21.6540000 110.0760000  62.6350000  22.4950000
 108.2230000  62.5010000  22.3630000 106.5750000  62.2060000  16.7170000
 107.0370000  64.6430000  16.8330000 104.2670000  61.1300000  18.5220000
 104.7110000  60.9420000  19.7730000 104.5920000  61.7730000  20.6480000
 105.3880000  59.6310000  19.9370000 106.3010000  59.6490000  19.3860000
 104.7090000  58.9110000  19.3900000 105.7390000  59.1470000  21.3580000
 105.9880000  59.9370000  22.0300000 106.5860000  58.4420000  21.3080000
 104.5920000  58.4000000  22.0200000 104.2810000  57.5490000  21.4600000
 103.8030000  59.1410000  21.9400000 104.8280000  58.1220000  23.5130000
 105.7810000  57.6880000  23.6890000 104.0890000  57.3940000  23.8050000
 104.5930000  59.4410000  24.3420000 103.5440000  59.6930000  24.3720000
 105.0940000  60.2200000  23.8760000 105.1150000  59.2330000  25.7840000
 106.1990000  59.0330000  25.7930000 104.6260000  58.3270000  26.0540000
 104.9320000  60.3170000  26.7720000 103.9870000  60.8410000  26.7670000
 105.6510000  61.1090000  26.4330000 105.3620000  59.9120000  28.1840000
 106.3740000  59.4520000  28.2630000 104.6330000  59.9700000  29.3160000
 105.0360000  59.6260000  30.2820000 103.1980000  60.5210000  29.4130000
 102.5190000  60.0110000  28.7930000 103.3320000  61.5330000  29.1300000
 102.6350000  60.4940000  30.8640000 103.1610000  61.0510000  31.5760000
 102.7380000  59.3990000  31.1570000 101.1520000  60.9940000  30.8610000
 100.5430000  60.2560000  30.2890000 101.1790000  61.9740000  30.3110000
 100.5160000  61.1530000  32.2760000  99.5760000  61.6400000  32.1580000
 101.1970000  61.7570000  32.8780000 100.4530000  59.7850000  32.9430000
 101.5300000  59.4530000  33.0670000 100.0210000  59.0900000  32.2000000
  99.6220000  59.7140000  34.2200000  98.6440000  60.0200000  33.9760000
  99.9060000  60.3770000  35.0480000  99.5050000  58.2570000  34.7470000
 100.3900000  58.0010000  35.3090000  99.4540000  57.5990000  33.9470000
  98.3320000  58.1120000  35.7890000  98.2490000  57.0820000  36.1220000
  97.4280000  58.4680000  35.2700000  98.5800000  58.8270000  36.5680000
   5.9880000 132.8940000  33.6620000   5.0990000 132.2100000  33.6000000
   5.7630000 133.6910000  34.3850000   6.8740000 132.3410000  34.0420000
   6.3630000 133.5440000  32.2870000   7.2190000 134.2110000  32.2430000
   6.6940000 132.7580000  31.6560000   5.1570000 134.1950000  31.5630000
   4.3600000 133.4930000  31.7190000   5.0210000 135.1590000  31.9680000
   5.1730000 134.4320000  30.0430000   6.0270000 135.1330000  29.8580000
   5.3230000 133.5210000  29.4220000   3.9340000 135.1940000  29.5890000
   3.0610000 134.5290000  29.3600000   3.4810000 135.8080000  30.3680000
   4.2200000 136.0740000  28.3320000   5.0400000 136.7640000  28.5880000
   4.6060000 135.5030000  27.5240000   3.0030000 136.8860000  27.9430000
   2.0470000 136.3480000  27.9520000   2.8820000 137.6430000  28.6440000
   3.1900000 137.4710000  26.5640000   3.3080000 136.7080000  25.8280000
   2.3220000 138.1150000  26.2950000   4.3680000 138.4740000  26.3490000
   4.3640000 139.0640000  27.1620000   5.3770000 138.0240000  26.4400000
   4.3360000 139.2880000  25.0670000   3.4780000 139.9380000  24.8760000
   5.2140000 139.9720000  25.0030000   4.5170000 138.2990000  23.8850000
   3.8240000 137.3920000  23.9230000   4.2500000 138.8470000  22.9490000
   5.9260000 137.6930000  23.6660000   6.5140000 138.5700000  23.3910000
   6.2630000 137.2690000  24.5790000   6.1290000 136.6270000  22.5820000
   5.6990000 135.6220000  22.9110000   5.6160000 136.9070000  21.6680000
   7.6810000 136.3390000  22.2640000   8.2410000 136.2860000  23.2060000
   7.7410000 135.3360000  21.7600000   8.5380000 137.2170000  21.3610000
   8.0800000 137.0590000  20.4120000   8.5060000 138.2060000  21.6390000
   9.9800000 136.6610000  21.2490000  10.2940000 135.4930000  21.1790000
  10.8120000 137.6910000  21.3310000  12.2660000 137.4360000  21.1960000
  12.6030000 138.2710000  21.7590000  12.6180000 136.5280000  21.7110000
  12.8600000 137.4340000  19.7680000  13.9800000 137.3140000  19.7930000
  12.3800000 138.6900000  19.0940000  12.4370000 138.5580000  18.0660000
  11.3820000 138.9320000  19.3530000  13.2540000 139.8420000  19.4120000
  14.6770000 140.0510000  18.6690000  14.3810000 140.8280000  17.3570000
  14.2350000 142.2250000  17.2170000  14.8630000 142.6640000  18.0680000
  14.5450000 142.6080000  16.3040000  12.7330000 142.4330000  17.5290000
  12.2120000 142.6590000  16.5840000  12.4860000 141.4590000  17.9060000
  12.3100000 143.4690000  18.5980000  10.7680000 143.5420000  18.5150000
  10.5750000 143.8520000  17.4730000  10.3370000 142.5640000  18.7720000
  10.3790000 144.2850000  19.3060000  12.7910000 142.9280000  19.8540000
  12.5670000 143.6450000  20.6950000  12.3100000 141.9860000  20.0580000
  13.8810000 142.8140000  19.7860000  12.9540000 144.8050000  18.4030000
  12.6620000 145.4060000  19.2430000  12.6900000 145.2620000  17.4780000
  13.9690000 144.6460000  18.5490000  15.4670000 140.9730000  19.5250000
  15.2200000 138.7920000  18.2840000  12.2780000 136.3770000  18.9510000
  12.5990000 135.1040000  19.1430000  13.4440000 134.7910000  19.9190000
  12.0900000 134.1030000  18.1210000  12.8060000 134.0550000  17.3130000
  11.0460000 134.4350000  17.8610000  11.8930000 132.5880000  18.6060000
  12.8910000 132.1330000  18.7300000  11.3450000 131.9770000  17.8330000
  11.0630000 132.5670000  19.9040000  10.0540000 133.0180000  19.7700000
  11.6120000 133.1710000  20.6220000  10.8220000 131.0940000  20.4100000
  11.7610000 130.6220000  20.2670000  10.1250000 130.5470000  19.7490000
  10.4350000 130.9480000  21.9070000  11.2190000 131.3520000  22.4750000
  10.2800000 129.8770000  22.1080000   9.1240000 131.6660000  22.2650000
   9.1290000 132.6740000  21.9010000   9.0470000 131.7410000  23.3460000
   7.9060000 131.0390000  21.6000000   7.9360000 129.9710000  21.8280000
   7.8440000 131.1000000  20.4580000   6.6250000 131.6610000  22.2030000
   6.1860000 132.4880000  21.5680000   5.9720000 131.1290000  23.3050000
   4.9500000 131.5600000  23.5380000   6.4920000 130.0900000  24.3390000
   7.5360000 129.9360000  24.1960000   6.0510000 129.0830000  24.1610000
   6.0800000 130.5920000  25.7660000   4.9570000 130.5270000  25.8060000
   6.2170000 131.6910000  25.8930000   6.7160000 129.8140000  26.9120000
   7.7810000 130.0580000  26.9960000   6.5160000 128.7060000  26.6680000
   6.2320000 130.0360000  28.3530000   6.2990000 131.1290000  28.5990000
   7.0170000 129.5870000  28.9820000   4.8170000 129.4420000  28.7460000
   4.9120000 128.3780000  28.9480000   4.3240000 129.6320000  27.8080000
   4.1580000 130.1100000  29.9030000   3.1710000 129.7750000  30.1740000
   4.0600000 131.1490000  29.6840000   4.9320000 130.0520000  31.2500000
   4.5030000 130.7380000  31.9790000   5.9200000 130.4090000  30.9820000
   5.0060000 128.6890000  31.9130000   4.0330000 128.0720000  31.8310000
   5.3000000 128.8050000  33.0060000   5.7350000 128.1070000  31.3440000
 103.3370000  53.6280000  35.7540000 103.1440000  54.6420000  35.4240000
 104.0410000  53.2560000  35.0320000 103.6810000  53.7770000  36.7800000
 102.1740000  52.6290000  35.8220000 102.4740000  51.6450000  36.0100000
 101.4910000  52.9310000  36.5750000 101.2680000  52.4920000  34.5170000
 100.3940000  51.9910000  34.7420000 100.9430000  53.4840000  34.3670000
 101.9620000  51.8020000  33.3010000 103.0060000  52.0990000  33.2320000
 101.9750000  50.7140000  33.3590000 101.0840000  52.0800000  32.0420000
 100.0960000  51.6640000  32.1720000 100.8390000  53.1670000  31.9270000
 101.8060000  51.6160000  30.7480000 102.8800000  51.7950000  30.7360000
 101.7970000  50.5100000  30.6500000 101.2030000  52.2490000  29.5070000
 100.1480000  51.9920000  29.4360000 101.2600000  53.3390000  29.7190000
 101.9560000  52.0710000  28.2080000 102.8040000  52.6910000  28.0510000
 102.4460000  51.0560000  28.1230000 101.0610000  52.4070000  26.9760000
 100.0500000  52.0380000  27.0730000 101.0590000  53.4840000  26.8140000
 101.5150000  51.6270000  25.6580000 102.5990000  51.5590000  25.4440000
 101.1450000  50.6390000  25.7850000 101.0280000  52.1860000  24.3440000
 100.0370000  52.4730000  24.4840000 101.6200000  53.1040000  24.1070000
 101.0730000  51.2180000  23.1620000 102.1180000  51.1620000  22.7390000
 100.8530000  50.1750000  23.3870000 100.1160000  51.7790000  22.0690000
  99.1360000  51.9270000  22.3700000 100.4860000  52.7470000  21.7340000
  99.9490000  50.9510000  20.8400000  99.5740000  49.9220000  21.0600000
  99.2170000  51.3210000  20.1350000 101.2660000  50.8350000  20.0560000
 102.0180000  50.3540000  20.6920000 101.1250000  50.1210000  19.2980000
 101.8800000  52.0700000  19.4820000 101.5300000  52.5100000  18.3810000
 102.8420000  52.6690000  20.2450000 103.6820000  53.6370000  19.5380000
 104.6460000  53.7030000  20.0560000 103.9030000  53.2780000  18.5130000
 102.9760000  55.0780000  19.2880000 102.0900000  54.8480000  18.6710000
 103.8920000  56.0300000  18.4640000 104.8400000  56.2440000  18.9850000
 104.1800000  55.5500000  17.5470000 103.0760000  57.1830000  18.2190000
 102.2470000  57.3170000  16.9070000 103.2480000  57.8860000  15.8500000
 103.8930000  59.1670000  15.9930000 103.9540000  59.7380000  15.0720000
 103.2430000  59.7440000  16.6630000 105.2520000  59.0990000  16.6630000
 105.4740000  60.1420000  16.8750000 104.9980000  58.5300000  17.5920000
 106.4330000  58.3700000  15.9690000 107.3090000  59.3790000  15.2770000
 108.1160000  58.8760000  14.8070000 106.5760000  59.9440000  14.6630000
 107.6870000  60.0340000  16.1280000 107.2480000  57.7510000  17.0740000
 106.8260000  56.7270000  17.2810000 108.1860000  57.6460000  16.5280000
 107.2630000  58.4570000  17.8330000 105.9620000  57.2820000  15.0150000
 105.3900000  57.7390000  14.2320000 105.5220000  56.4870000  15.5740000
 106.8390000  56.8010000  14.5700000 101.7640000  55.9930000  16.5200000
 101.2000000  58.2920000  17.2670000 102.6220000  55.6950000  20.5490000
 101.3830000  55.5660000  21.0750000 100.4330000  54.9450000  20.5860000
 101.2340000  56.2590000  22.3630000 101.5060000  57.2540000  22.1380000
 101.9550000  55.8590000  23.0220000  99.8330000  56.0640000  22.9520000
  99.3540000  55.0360000  22.8910000  99.1730000  56.7100000  22.4570000
  99.7480000  56.3880000  24.4210000 100.2640000  57.3110000  24.6250000
 100.2270000  55.5780000  24.9970000  98.3310000  56.5390000  24.9750000
  97.7680000  55.8230000  24.5910000  97.8850000  57.4460000  24.4370000
  98.2590000  56.5670000  26.5390000  98.5610000  55.5490000  26.9470000
  97.2450000  56.7000000  26.7500000  99.0640000  57.6190000  27.2460000
  98.4610000  58.5540000  27.1630000 100.0810000  57.7170000  26.8040000
  99.1310000  57.3840000  28.7830000  99.5100000  58.2350000  29.3540000
  99.8050000  56.5430000  28.9070000  97.7200000  57.0730000  29.2870000
  96.9470000  57.3200000  28.6300000  97.4950000  56.5180000  30.4730000
  96.4660000  56.2940000  30.7440000  98.5830000  55.9420000  31.3550000
  99.0160000  56.8010000  31.8180000  99.4360000  55.3930000  30.8460000
  98.1270000  54.8910000  32.3990000  99.0470000  54.7270000  33.0540000
  97.8700000  53.9910000  31.8490000  96.9960000  55.4960000  33.1840000
  96.1900000  55.8110000  32.5870000  97.2940000  56.3950000  33.7380000
  96.5970000  54.4430000  34.1210000  97.4260000  54.1340000  34.7420000
  96.2710000  53.5340000  33.5410000  95.4880000  54.9070000  35.1470000
  94.8000000  55.6120000  34.6110000  96.0240000  55.3190000  35.9710000
  94.6560000  53.7040000  35.6560000  95.4190000  52.9730000  36.0640000
  94.0940000  53.2050000  34.7930000  93.6660000  54.0170000  36.7610000
  93.2110000  54.9510000  36.4870000  94.2720000  54.2870000  37.6140000
  92.6130000  52.8300000  36.9880000  91.9970000  53.1900000  37.8080000
  93.0350000  51.8710000  37.2590000  91.9590000  52.7140000  36.1490000
  55.2930000 148.0060000  33.2860000  55.2530000 148.6090000  34.2540000
  55.9890000 148.5040000  32.6220000  55.5810000 146.9650000  33.5080000
  53.8750000 148.0980000  32.7710000  53.2310000 147.8240000  33.5500000
  53.6590000 149.2200000  32.5300000  53.6520000 147.1020000  31.6120000
  52.6620000 147.3290000  31.2290000  54.4000000 147.2020000  30.7720000
  53.6700000 145.6380000  32.1610000  54.5790000 145.3880000  32.6540000
  52.8020000 145.4650000  32.7810000  53.5430000 144.7560000  30.9300000
  52.5910000 145.0990000  30.4700000  54.3510000 145.0290000  30.2710000
  53.4460000 143.2550000  31.2730000  54.2630000 143.1800000  32.0160000
  52.4570000 143.0070000  31.6750000  53.7730000 142.3960000  30.0730000
  54.7930000 142.4630000  29.7290000  53.6550000 141.3520000  30.4140000
  52.9280000 142.6830000  28.8500000  53.1610000 143.6610000  28.3930000
  53.2070000 142.0080000  28.0440000  51.3600000 142.5530000  28.9100000
  51.0730000 141.4640000  28.9360000  51.0470000 142.9700000  29.8770000
  50.6470000 143.0670000  27.6920000  50.5780000 144.2060000  27.7130000
  51.1920000 142.8240000  26.7710000  49.2060000 142.5050000  27.5480000
  48.5420000 143.1160000  28.1760000  48.8800000 142.7580000  26.5230000
  48.9200000 141.0980000  27.8780000  49.2690000 140.4860000  27.0530000
  49.3090000 140.7630000  28.8390000  47.3690000 140.9280000  27.8660000
  47.0100000 141.4890000  28.7790000  46.8880000 141.4690000  27.0260000
  46.7170000 139.5830000  27.8190000  46.3770000 139.4290000  28.8320000
  45.7170000 139.6700000  27.2960000  47.4750000 138.3480000  27.3030000
  48.5060000 138.3320000  27.6890000  46.9720000 137.5090000  27.7860000
  47.4590000 138.2770000  25.8130000  47.2270000 137.2610000  25.2980000
  47.5690000 139.4060000  25.2110000  47.2280000 139.5390000  23.7620000
  48.0240000 139.0130000  23.1890000  46.2150000 139.1160000  23.5250000
  47.2970000 141.0260000  23.1850000  46.7980000 141.7200000  23.8240000
  46.6830000 141.0710000  21.8240000  45.5870000 141.1040000  21.9760000
  47.0420000 141.9950000  21.3310000  47.1650000 139.9670000  20.9650000
  46.1510000 138.9120000  20.2940000  45.0670000 139.7110000  19.4370000
  43.6570000 139.5560000  19.5930000  43.3810000 138.5210000  19.6530000
  43.2470000 140.0680000  20.4470000  42.8990000 140.1900000  18.4100000
  41.8800000 139.8320000  18.5500000  42.9610000 141.3010000  18.4430000
  43.3500000 139.7690000  17.0590000  43.8420000 138.3320000  16.9820000
  44.3700000 138.1690000  16.0560000  44.5290000 138.2730000  17.8530000
  42.9940000 137.5870000  17.0130000  42.1520000 139.9770000  16.1880000
  42.4130000 139.5900000  15.2900000  41.2590000 139.4390000  16.5910000
  41.9570000 141.0670000  16.0580000  44.4050000 140.8010000  16.7820000
  44.0090000 141.8050000  17.0540000  44.6900000 140.7910000  15.7320000
  45.2590000 140.3300000  17.3180000  46.9070000 137.9870000  19.3910000
  45.4640000 138.2520000  21.4100000  48.7170000 141.5430000  23.1460000
  49.0140000 142.7980000  23.5110000  48.1910000 143.5920000  23.8350000
  50.4610000 143.1540000  23.4870000  51.0810000 142.2500000  23.6470000
  50.5560000 143.8090000  24.2860000  50.8320000 143.8600000  22.1850000
  51.8620000 144.0450000  22.3470000  50.2920000 144.8150000  22.0120000
  50.7870000 142.8490000  20.9910000  49.7680000 142.5150000  20.7720000
  51.2420000 141.8890000  21.3120000  51.3540000 143.5060000  19.7530000
  50.8330000 144.4000000  19.4800000  51.2230000 142.8190000  18.9440000
  52.7860000 144.0180000  19.8020000  53.4450000 143.2120000  20.1700000
  52.7960000 144.9110000  20.4220000  53.4870000 144.4130000  18.4860000
  52.9790000 145.1830000  17.9360000  53.5110000 143.4950000  17.7930000
  54.8800000 144.9290000  18.9150000  55.4690000 145.0120000  17.9790000
  55.3920000 144.1610000  19.4950000  54.8780000 146.3250000  19.5490000
  54.5520000 147.0190000  18.8800000  55.2420000 146.6960000  20.7580000
  55.2380000 147.7240000  20.9930000  55.7260000 145.7660000  21.8800000
  56.5710000 146.2580000  22.4160000  56.3010000 144.8850000  21.4300000
  54.6370000 145.2640000  22.8710000  54.9030000 144.2190000  23.1320000
  53.6570000 145.3690000  22.4810000  54.6310000 146.1640000  24.0510000
  54.7540000 147.1750000  23.7030000  55.5180000 145.9850000  24.6790000
  53.2910000 146.1170000  24.7970000  53.0710000 145.0750000  25.1550000
  52.4330000 146.4130000  24.1420000  53.2670000 147.0470000  26.1010000
  53.7030000 148.0140000  25.9080000  53.6970000 146.5790000  26.9610000
  51.8270000 147.1870000  26.4790000  51.3970000 146.1130000  26.5900000
  51.4070000 147.7680000  25.6080000  51.4270000 147.8410000  27.7790000
  51.9650000 148.7970000  27.8110000  51.5870000 147.1230000  28.6230000
  49.9200000 148.0440000  27.7410000  49.3600000 147.2230000  27.2830000
  49.7000000 148.9010000  27.1150000  49.5400000 148.2800000  28.7630000
  76.3280000  13.0780000  36.7230000  76.9880000  12.2630000  36.3120000
  76.3620000  13.0650000  37.7990000  76.8320000  13.9980000  36.4690000
  74.8800000  13.0860000  36.2140000  74.4090000  13.9900000  36.5620000
  74.8720000  13.0910000  35.1920000  74.0030000  11.9270000  36.7920000
  74.3940000  10.8850000  36.6590000  73.8790000  12.1690000  37.8870000
  72.5510000  11.8520000  36.2730000  72.0000000  11.3480000  37.0680000
  72.1340000  12.8460000  36.1950000  72.2870000  11.0940000  34.9470000
  72.8340000  11.5260000  34.0690000  72.7120000  10.0470000  34.9460000
  70.7860000  11.0550000  34.6440000  70.4140000  10.4960000  35.4790000
  70.2490000  11.9540000  34.6430000  70.3410000  10.2440000  33.3770000
  70.6210000   9.2130000  33.5260000  69.2440000  10.3240000  33.3860000
  70.9430000  10.8040000  32.0430000  72.0270000  10.7180000  32.0880000
  70.6620000  10.0990000  31.2500000  70.3140000  12.2180000  31.8090000
  69.2190000  12.2400000  31.8930000  70.7060000  12.9430000  32.5250000
  70.7310000  12.7470000  30.4330000  70.4700000  11.9600000  29.6670000
  70.0760000  13.5770000  30.1950000  72.1820000  13.1630000  30.2740000
  72.4630000  13.8570000  31.0700000  72.9170000  12.3170000  30.1430000
  72.4140000  14.0560000  29.0290000  72.2440000  13.5000000  28.1000000
  71.7330000  14.8840000  29.1000000  73.8430000  14.5480000  28.8770000
  74.1750000  14.9290000  29.8780000  74.5310000  13.7420000  28.6330000
  73.9020000  15.7600000  27.9140000  73.2830000  16.5530000  28.3300000
  74.9250000  16.0730000  27.8670000  73.3360000  15.6280000  26.5040000
  72.2640000  15.4180000  26.4160000  73.5440000  16.5660000  26.0590000
  73.9510000  14.5770000  25.7010000  75.1490000  14.4250000  25.4620000
  72.9730000  13.7620000  25.2790000  73.3680000  12.6200000  24.4000000
  73.6800000  12.9950000  23.4560000  74.1110000  12.0280000  25.0050000
  72.1450000  11.6700000  24.2250000  72.4520000  10.7730000  23.7620000
  71.0230000  12.2450000  23.3980000  70.2060000  11.5380000  23.4350000
  70.6530000  13.2260000  23.8300000  71.5130000  12.3550000  22.0400000
  70.6580000  12.9190000  20.8700000  69.6690000  11.7240000  20.4620000
  70.1970000  10.6320000  19.6660000  69.4790000  10.2380000  18.9510000
  71.0630000  10.9310000  19.0590000  70.6210000   9.5330000  20.6020000
  71.3860000   8.9220000  20.1730000  70.8660000   9.9640000  21.5740000
  69.5860000   8.5210000  20.9680000  68.2980000   9.1250000  21.4170000
  68.5440000   9.6850000  22.3700000  67.8650000   9.7630000  20.6450000
  67.6040000   8.2600000  21.6590000  69.2450000   7.5220000  19.9170000
  68.7810000   6.6530000  20.3990000  68.4770000   7.9520000  19.3280000
  70.1320000   7.1870000  19.3840000  70.1410000   7.6930000  22.0340000
  70.7680000   8.3000000  22.6300000  70.6940000   6.8890000  21.4810000
  69.4640000   7.1350000  22.6230000  69.7550000  13.9900000  21.4000000
  71.6660000  13.2310000  19.8050000  71.6870000  11.2700000  25.5300000
  71.3950000   9.9340000  25.7360000  71.1380000   9.1780000  24.7730000
  71.2980000   9.5970000  27.2280000  70.2760000   9.0980000  27.3810000
  71.3560000  10.5000000  27.8000000  72.4340000   8.6350000  27.7260000
  73.3560000   9.2010000  27.6510000  72.6310000   7.7500000  27.1750000
  72.1680000   8.3120000  29.1400000  71.4410000   7.5770000  29.1640000
  71.6590000   9.1590000  29.6290000  73.3560000   7.7920000  29.9240000
  74.2400000   8.4080000  29.6540000  73.6890000   6.7760000  29.5710000
  73.2010000   7.7060000  31.3890000  72.2310000   7.2240000  31.6640000
  73.1620000   8.7550000  31.6170000  74.1580000   6.9000000  32.3160000
  75.1450000   7.3700000  32.3190000  74.3030000   5.8810000  31.9160000
  73.7570000   6.7690000  33.8060000  72.8130000   6.2340000  33.9690000
  73.6550000   7.7840000  34.2180000  74.8950000   6.0080000  34.4840000
  75.1300000   5.0460000  33.9930000  75.4460000   6.3140000  35.6570000
  76.0480000   5.6400000  36.1990000  75.5020000   7.6870000  36.3030000
  75.0520000   8.4670000  35.6980000  76.5310000   7.9890000  36.4680000
  74.7760000   7.6340000  37.6360000  74.8910000   8.5080000  38.1780000
  75.0290000   6.7590000  38.2080000  73.2320000   7.6490000  37.4060000
  72.8340000   6.8610000  36.7580000  72.9590000   8.5180000  36.9080000
  72.4770000   7.5590000  38.7260000  72.9600000   8.2470000  39.4410000
  72.6810000   6.5550000  39.1520000  70.9350000   7.6060000  38.6840000
  70.6050000   6.9070000  37.9010000  70.6770000   8.5440000  38.1950000
  70.1380000   7.3590000  40.0200000  70.5510000   8.1100000  40.6820000
  70.3930000   6.3460000  40.4090000  68.6710000   7.4560000  39.9100000
  68.3180000   6.5860000  39.4400000  68.3500000   8.2480000  39.2060000
  68.1580000   7.7130000  41.3580000  67.0920000   7.9410000  41.3430000
  68.6460000   8.6360000  41.7580000  68.2710000   6.8780000  42.1050000
  94.3740000  50.5310000  31.4300000  93.2910000  50.4730000  31.0440000
  94.3900000  50.4660000  32.5410000  94.8770000  49.5900000  30.9890000
  95.1470000  51.7730000  30.8580000  94.7970000  52.7450000  31.2790000
  96.1380000  51.7650000  31.2800000  95.2910000  51.7550000  29.2690000
  95.9300000  50.9420000  29.0050000  94.3020000  51.4750000  28.8860000
  95.6830000  53.1140000  28.7450000  95.0990000  53.8830000  29.3090000
  96.7430000  53.2940000  28.9260000  95.2280000  53.2240000  27.2320000
  94.1920000  53.2520000  27.3380000  95.4420000  54.2460000  26.8610000
  95.6570000  52.1670000  26.2340000  95.3790000  51.2460000  26.7430000
  94.9550000  52.1270000  25.3770000  97.1250000  51.9700000  25.8340000
  97.5220000  52.7850000  25.3060000  97.7690000  51.8980000  26.7260000
  97.5210000  50.6570000  25.1460000  98.5250000  50.7310000  24.8590000
  97.4440000  49.8090000  25.8480000  96.7440000  50.2910000  23.8830000
  95.8000000  49.8140000  24.1110000  96.7570000  51.1690000  23.1680000
  97.4350000  49.1210000  23.1300000  98.5180000  49.4380000  22.9080000
  97.5110000  48.3370000  23.8540000  96.7290000  48.7070000  21.8360000
  96.7970000  49.5900000  21.1240000  97.1770000  47.8490000  21.2830000
  95.2190000  48.3590000  22.0580000  95.1570000  47.4460000  22.6230000
  94.7650000  49.0590000  22.7090000  94.3610000  48.2260000  20.7660000
  94.6890000  48.8850000  19.9160000  94.4890000  47.1850000  20.4060000
  92.8170000  48.2890000  20.9190000  92.4710000  47.4630000  21.5760000
  92.5540000  49.2070000  21.3440000  92.1070000  48.3210000  19.5560000
  92.3080000  47.4370000  18.9400000  91.0050000  48.3650000  19.6730000
  92.6080000  49.4550000  18.7260000  92.1870000  50.5570000  18.9230000
  93.5350000  49.1280000  17.7540000  94.0200000  50.1800000  16.9010000
  94.1830000  49.8540000  15.8900000  93.3190000  51.0170000  16.8080000
  95.4850000  50.6830000  17.2970000  95.7590000  51.5010000  16.6260000
  96.4130000  49.4060000  17.1250000  96.1160000  48.6890000  17.8870000
  96.3200000  49.0260000  16.0880000  97.8110000  49.6040000  17.5450000
  98.7420000  50.5590000  16.7470000  98.7850000  51.7930000  17.6610000
  98.2070000  53.0570000  17.3600000  98.3100000  53.1420000  16.1970000
  97.1560000  52.9390000  17.5980000  98.9820000  54.1780000  18.0330000
  99.0550000  53.9730000  19.0920000 100.0490000  54.1550000  17.5760000
  98.4960000  55.6060000  17.8050000  99.2070000  56.5440000  18.7200000
  98.9850000  57.6370000  18.6160000  98.8640000  56.2580000  19.6790000
 100.2950000  56.4360000  18.5600000  98.5590000  55.9770000  16.3350000
  99.5600000  55.5710000  16.1070000  97.7560000  55.5220000  15.7620000
  98.6030000  57.0470000  16.2100000  97.0540000  55.7250000  18.1050000
  96.7040000  56.7010000  17.9030000  97.0440000  55.4880000  19.1760000
  96.3410000  55.0190000  17.6440000 100.1160000  49.9510000  16.7580000
  98.0890000  50.8220000  15.4530000  95.4790000  51.1240000  18.6670000
  94.8850000  52.2770000  19.0070000  94.5800000  53.1420000  18.1910000
  94.6940000  52.3400000  20.5240000  95.3920000  51.6570000  21.0730000
  93.6230000  52.0020000  20.6450000  94.8310000  53.7280000  21.0930000
  94.4940000  54.4920000  20.4280000  95.9180000  53.9630000  21.1820000
  94.1300000  53.8260000  22.4640000  94.5900000  53.1490000  23.0670000
  93.1170000  53.3540000  22.2290000  93.8920000  55.2520000  23.0200000
  93.1860000  55.8260000  22.4970000  94.8970000  55.7560000  23.0970000
  93.3270000  55.3040000  24.4560000  93.9910000  54.6520000  25.0570000
  92.2560000  54.9770000  24.5700000  93.3530000  56.6680000  25.1580000
  92.8730000  57.4100000  24.6080000  94.3450000  57.0960000  25.2420000
  92.6470000  56.6920000  26.5390000  92.7970000  55.8220000  27.1730000
  91.5400000  56.8040000  26.4580000  93.3160000  57.9040000  27.2570000
  93.5620000  58.7320000  26.5850000  93.7970000  57.9780000  28.4780000
  94.3620000  58.8080000  28.8320000  93.6730000  56.8620000  29.5360000
  94.0770000  57.0820000  30.5350000  94.1400000  55.9160000  29.1720000
  92.1830000  56.6530000  29.9560000  91.4830000  56.4270000  29.1620000
  91.7490000  57.5310000  30.4250000  92.0300000  55.4860000  30.9410000
  92.7400000  55.6370000  31.7570000  92.3320000  54.5010000  30.4720000
  90.5690000  55.4380000  31.3580000  89.8890000  55.2680000  30.5080000
  90.3120000  56.3830000  31.8400000  90.1320000  54.3730000  32.3350000
  90.6140000  53.4520000  32.0880000  89.0030000  54.1920000  32.3890000
  90.4750000  54.6660000  33.8470000  91.0810000  55.4840000  33.8110000
  91.0710000  53.8730000  34.2810000  89.1960000  55.1260000  34.5820000
  88.4190000  54.3030000  34.4520000  88.8440000  56.0650000  34.1390000
  89.3970000  55.2970000  36.1200000  88.5270000  55.2710000  36.7090000
  90.0670000  56.0950000  36.2720000  89.9390000  54.4820000  36.6310000
 146.1320000  80.7470000  31.9870000 145.5330000  80.3820000  32.8850000
 146.2650000  81.8770000  31.9920000 147.1410000  80.3230000  31.9860000
 145.2600000  80.3330000  30.7930000 144.6790000  79.5050000  31.2570000
 144.4060000  81.0210000  30.6240000 145.9980000  79.9500000  29.5590000
 146.3770000  80.9280000  29.2240000 146.7830000  79.2140000  29.7950000
 144.9600000  79.2090000  28.6020000 144.2350000  78.6080000  29.1400000
 144.3540000  79.9440000  28.0360000 145.6630000  78.2760000  27.6310000
 146.4660000  78.7770000  27.0940000 146.0960000  77.5580000  28.3440000
 144.8270000  77.7130000  26.5680000 144.3790000  76.7710000  26.9790000
 143.9090000  78.3210000  26.4340000 145.4250000  77.4120000  25.2050000
 146.3080000  76.8740000  25.4030000 144.8650000  76.6140000  24.7050000
 145.6180000  78.6510000  24.2980000 146.2700000  79.3270000  24.7690000
 146.1810000  78.4600000  23.3910000 144.4000000  79.4160000  23.9020000
 143.7510000  78.7190000  23.3170000 143.7860000  79.6460000  24.7570000
 144.5980000  80.7280000  23.0500000 145.2630000  80.3420000  22.2730000
 143.6520000  81.1670000  22.5770000 145.2390000  81.9030000  23.9070000
 146.2750000  81.6140000  24.1060000 145.2320000  82.6930000  23.1490000
 144.3940000  82.3440000  25.0500000 143.3900000  82.3350000  24.5870000
 144.2800000  81.5030000  25.7650000 144.9000000  83.6180000  25.6820000
 145.8770000  83.5070000  26.1700000 144.9490000  84.3820000  24.9010000
 143.9620000  84.2690000  26.6890000 144.0690000  83.6910000  27.5820000
 144.3340000  85.3240000  26.8630000 142.4470000  84.3850000  26.3500000
 142.0180000  83.4140000  26.0660000 142.0310000  84.8210000  27.2990000
 142.2560000  85.3130000  25.1540000 142.2610000  86.5220000  25.1150000
 142.0250000  84.4980000  24.0330000 141.7550000  85.2200000  22.7350000
 140.7320000  84.9790000  22.4280000 141.9680000  86.2920000  22.8850000
 142.6380000  84.6470000  21.4650000 142.6020000  85.3140000  20.5510000
 142.1750000  83.3290000  20.9100000 142.1560000  82.4960000  21.7070000
 141.1440000  83.4590000  20.4960000 142.9890000  82.8390000  19.8100000
 142.8880000  83.4230000  18.3010000 142.2580000  82.1790000  17.5400000
 143.0740000  81.0500000  17.2200000 142.6660000  80.6130000  16.3110000
 144.0500000  81.2740000  16.8940000 142.9740000  79.9830000  18.3160000
 143.6620000  79.1570000  17.8940000 143.4880000  80.2940000  19.2970000
 141.6550000  79.3900000  18.6060000 141.7770000  77.9220000  19.0450000
 140.7690000  77.5270000  19.4390000 142.1910000  77.3950000  18.1810000
 142.4920000  78.0770000  19.8750000 141.0410000  80.1270000  19.7430000
 141.0430000  81.2000000  19.2610000 140.0410000  79.6710000  20.0720000
 141.8090000  80.0660000  20.5110000 140.7090000  79.4100000  17.4390000
 140.1880000  80.3930000  17.3040000 139.9460000  78.6610000  17.4760000
 141.2670000  79.2890000  16.5490000 141.9360000  84.5800000  18.3170000
 144.3100000  83.6270000  17.9430000 144.0160000  84.5170000  21.9740000
 144.8560000  85.5040000  21.7880000 144.5840000  86.6090000  21.3550000
 146.2870000  85.0760000  22.0100000 146.4760000  84.1480000  21.4650000
 146.4080000  84.9400000  23.1070000 147.2340000  86.0930000  21.4920000
 147.0460000  87.0030000  21.9650000 146.9640000  86.2670000  20.4060000
 148.7860000  85.6830000  21.6420000 149.4870000  86.4890000  21.4040000
 148.9660000  84.8920000  20.9880000 149.1310000  85.2470000  23.0050000
 148.6250000  85.8450000  23.7110000 150.1400000  85.5690000  23.1990000
 148.9250000  83.7110000  23.3050000 149.2360000  83.1840000  22.4040000
 147.9020000  83.5010000  23.5730000 149.8150000  83.3820000  24.5370000
 149.3590000  83.8450000  25.3780000 150.8130000  83.7260000  24.4190000
 149.8200000  81.8180000  24.9130000 150.5220000  81.5810000  25.7000000
 150.1030000  81.1520000  24.0620000 148.5060000  81.4220000  25.4020000
 147.9700000  80.8000000  24.7150000 147.9820000  81.6160000  26.6170000
 147.0790000  81.0780000  26.8500000 148.7210000  82.2950000  27.8460000
 149.7010000  82.6910000  27.6440000 148.8210000  81.5510000  28.5980000
 147.8960000  83.3870000  28.4150000 146.8060000  83.0720000  28.6540000
 147.7880000  84.1660000  27.5540000 148.5650000  84.2280000  29.4950000
 149.6010000  84.4570000  29.1170000 148.5710000  83.7040000  30.4730000
 147.7980000  85.5710000  29.7350000 147.7120000  85.9600000  28.6810000
 148.4130000  86.1500000  30.3500000 146.3520000  85.5220000  30.3630000
 145.7280000  84.9220000  29.7570000 145.9070000  86.4660000  30.5390000
 146.2890000  84.8620000  31.7530000 147.1010000  85.3080000  32.3800000
 146.5090000  83.8060000  31.7960000 144.8980000  84.8260000  32.3000000
 144.6220000  85.8790000  32.5290000 144.8140000  84.3070000  33.1850000
 143.7940000  84.2880000  31.3910000 144.0210000  83.2670000  31.0980000
 143.7710000  84.9160000  30.4860000 142.7900000  84.3240000  31.8660000
 111.0890000  79.3690000  32.3120000 110.5440000  80.2400000  31.8310000
 111.9690000  79.7000000  32.7170000 110.4050000  78.9840000  33.1270000
 111.2940000  78.2760000  31.2840000 110.4370000  77.9050000  30.7420000
 112.0980000  78.5940000  30.6140000 111.7110000  77.0220000  32.1450000
 112.2540000  77.2840000  33.0850000 110.8120000  76.5300000  32.5130000
 112.5520000  76.0210000  31.3070000 112.5030000  75.0960000  31.7680000
 111.9420000  75.7940000  30.4090000 114.0570000  76.3550000  31.1010000
 114.2410000  77.3290000  30.6270000 114.5920000  76.4810000  32.1020000
 114.9200000  75.3670000  30.2300000 115.9470000  75.7500000  30.3180000
 114.8740000  74.3690000  30.5430000 114.5040000  75.3870000  28.7580000
 113.5510000  74.8450000  28.6420000 114.3620000  76.4270000  28.4170000
 115.6110000  74.9230000  27.8000000 116.5180000  75.5180000  27.8740000
 115.8760000  73.8560000  28.1350000 115.0130000  74.9190000  26.3880000
 114.3040000  74.1280000  26.3290000 114.5220000  75.8300000  26.0770000
 116.1140000  74.6440000  25.3950000 116.8490000  75.4950000  25.4070000
 116.7660000  73.8140000  25.7250000 115.5240000  74.4900000  23.9630000
 114.8310000  73.6400000  23.8820000 114.9100000  75.4140000  23.6460000
 116.6390000  74.2600000  22.9520000 117.0240000  75.2310000  22.8070000
 117.3820000  73.5900000  23.4210000 116.1990000  73.6510000  21.6080000
 115.7850000  72.6830000  21.7160000 115.3810000  74.3500000  21.2590000
 117.2330000  73.5070000  20.5210000 117.7820000  72.5350000  20.4870000
 116.6990000  73.6450000  19.6260000 118.3620000  74.5850000  20.4790000
 117.7770000  75.5320000  20.4920000 118.8820000  74.5360000  21.4150000
 119.2450000  74.5540000  19.2530000 119.1930000  75.4180000  18.4470000
 120.1070000  73.5190000  19.2640000 121.0270000  73.4450000  18.1870000
 121.4550000  72.4170000  18.0710000 120.5770000  73.7300000  17.2380000
 122.2310000  74.3700000  18.5510000 121.7690000  75.3860000  18.7230000
 123.2660000  74.5470000  17.3910000 122.8520000  74.3530000  16.4320000
 123.5170000  75.6150000  17.4330000 124.4750000  73.7410000  17.5080000
 124.5160000  72.1730000  17.3260000 125.7390000  72.0410000  16.2210000
 127.0080000  72.7560000  16.4970000 127.6220000  72.6350000  15.6510000
 126.9020000  73.8940000  16.5670000 127.7750000  72.1950000  17.6710000
 128.6710000  72.8640000  17.7570000 127.1340000  72.2380000  18.5600000
 128.2620000  70.7330000  17.6820000 129.3330000  70.3870000  16.6840000
 128.9500000  70.4840000  15.6970000 130.1040000  71.1540000  16.8960000
 129.7260000  69.4080000  16.9220000 128.7870000  70.5830000  19.0600000
 129.3400000  71.5210000  19.2560000 127.9560000  70.3660000  19.7510000
 129.4410000  69.6460000  18.9930000 127.1500000  69.7690000  17.5330000
 127.5330000  68.8020000  17.5160000 126.5990000  69.9630000  16.6310000
 126.4470000  69.8490000  18.3410000 124.9640000  71.6070000  18.6340000
 123.3050000  71.6790000  16.6100000 122.7810000  73.9760000  19.8580000
 123.4810000  74.8470000  20.6230000 123.7440000  76.0230000  20.3050000
 124.0490000  74.2140000  21.8590000 124.5780000  73.3710000  21.4710000
 123.2160000  73.8900000  22.4370000 124.9250000  75.1280000  22.7760000
 124.3820000  76.1160000  22.8570000 125.9230000  75.2190000  22.2570000
 125.1260000  74.4990000  24.1550000 125.4770000  73.4620000  24.1940000
 124.1170000  74.4600000  24.5860000 126.1690000  75.3400000  24.9260000
 125.9450000  76.3680000  24.7380000 127.1800000  75.1830000  24.5910000
 126.1160000  74.9830000  26.4170000 127.0050000  75.4750000  26.9440000
 126.2110000  73.8060000  26.5910000 124.9160000  75.5510000  27.1540000
 124.0540000  74.9880000  26.7760000 124.7830000  76.5860000  26.8700000
 124.9780000  75.3770000  28.6850000 125.8620000  75.8910000  29.0570000
 125.0320000  74.3070000  28.9690000 123.8580000  76.1780000  29.3100000
 123.8160000  77.1520000  28.9360000 122.9310000  75.7660000  30.1440000
 122.1710000  76.4830000  30.5460000 122.9970000  74.4560000  30.9500000
 123.9690000  74.1950000  31.3060000 122.7420000  73.5840000  30.2860000
 122.0250000  74.4370000  32.1560000 122.2260000  75.3580000  32.7560000
 122.1530000  73.6260000  32.7660000 120.5550000  74.5410000  31.6810000
 120.5160000  73.6340000  31.0070000 120.5500000  75.3620000  30.9400000
 119.5130000  74.6190000  32.7920000 119.7420000  75.5250000  33.3980000
 119.4940000  73.8380000  33.4840000 118.1170000  74.7800000  32.1100000
 118.0190000  74.0030000  31.3420000 118.0080000  75.7850000  31.6170000
 116.9830000  74.6900000  33.2420000 117.0780000  73.9220000  33.9820000
 116.0270000  74.4940000  32.7160000 117.0530000  76.0170000  34.0050000
 117.0140000  76.8020000  33.1900000 118.0420000  76.0310000  34.5570000
 115.9300000  76.1140000  35.0350000 116.1210000  76.6610000  35.9350000
 115.8190000  75.1780000  35.5290000 115.0200000  76.2960000  34.5640000
  99.0630000  51.2520000  37.1890000 100.0070000  50.7960000  36.9220000
  98.9470000  51.2230000  38.2560000  98.9880000  52.2450000  36.7540000
  97.9870000  50.4690000  36.3640000  97.9970000  49.4650000  36.8550000
  96.9600000  50.8660000  36.4060000  98.2330000  50.2630000  34.8360000
  98.1860000  51.2120000  34.2550000  99.2410000  49.8960000  34.6030000
  97.3020000  49.1790000  34.2140000  97.3750000  48.2420000  34.7810000
  96.2030000  49.5040000  34.3270000  97.5580000  48.9730000  32.6950000
  96.6940000  48.6180000  32.1380000  97.7410000  50.0120000  32.2090000
  98.8140000  48.0420000  32.4090000  99.6370000  48.2290000  33.0860000
  98.6110000  46.9980000  32.5210000  99.3880000  48.4100000  31.0380000
  99.0050000  49.4050000  30.6600000 100.4730000  48.6230000  31.1800000
  99.1820000  47.3170000  29.9760000  99.4250000  46.3600000  30.3880000
  98.0920000  47.2620000  29.7140000  99.9390000  47.5240000  28.6720000
  99.8050000  48.6010000  28.4740000 100.9780000  47.4210000  28.9400000
  99.5950000  46.7550000  27.3540000  98.6140000  46.9770000  27.0960000
 100.1700000  47.1900000  26.5090000  99.9070000  45.2620000  27.3190000
  99.3330000  44.7800000  28.1460000  99.5330000  45.0110000  26.3700000
 101.3680000  44.8380000  27.4270000 101.8510000  45.0790000  26.5820000
 101.8960000  45.2280000  28.2330000 101.6220000  43.3400000  27.7310000
 101.0610000  43.0270000  28.6630000 101.0750000  42.7910000  26.9620000
 103.1350000  42.9880000  27.7660000 103.5920000  43.6000000  28.5850000
 103.2460000  41.9710000  28.0040000 103.9130000  43.3600000  26.4750000
 103.9760000  44.4380000  26.2340000 104.9710000  42.9990000  26.6290000
 103.4510000  42.5510000  25.2600000 103.9830000  41.5340000  24.9880000
 102.5450000  43.1770000  24.5090000 102.5130000  42.8250000  23.0140000
 101.8770000  43.5090000  22.5030000 103.4520000  43.0740000  22.4870000
 101.9860000  41.4210000  22.6880000 102.6790000  40.7220000  23.2320000
 102.0500000  41.2010000  21.1750000 103.0530000  41.3150000  20.8340000
 101.7290000  40.1920000  20.9170000 101.2470000  42.2040000  20.4200000
 101.9400000  43.1900000  19.2890000 100.8010000  44.1300000  18.8070000
  99.9570000  43.6390000  17.6960000 100.4970000  43.3760000  16.8430000
  99.4480000  42.7470000  18.0670000  98.9420000  44.7820000  17.3280000
  98.2460000  44.4650000  16.5970000  98.2420000  45.1410000  18.1250000
  99.4540000  46.0820000  16.9130000  98.3560000  46.8550000  16.2990000
  98.2890000  46.2790000  15.3610000  97.4350000  46.7510000  16.8840000
  98.7260000  47.8200000  16.0070000  99.8780000  46.8630000  18.0780000
 100.5760000  47.6310000  17.7620000  98.9700000  47.2430000  18.5350000
 100.4390000  46.1700000  18.7560000 100.5930000  45.8700000  16.0040000
 101.3060000  45.2980000  16.5450000 101.0540000  46.8310000  15.7960000
 100.2520000  45.3930000  15.0610000 102.9790000  44.0050000  19.8890000
 102.2250000  42.3400000  18.1010000 100.6340000  41.2130000  23.1430000
 100.1400000  39.9810000  23.3740000 100.6360000  38.9170000  23.1140000
  98.8140000  40.1230000  24.0620000  98.0850000  39.7360000  23.3970000
  98.5660000  41.1680000  24.2120000  98.7050000  39.3410000  25.3570000
  99.3890000  39.7550000  26.0970000  98.9270000  38.3080000  25.2240000
  97.3570000  39.2960000  26.0130000  97.2590000  38.7860000  26.9050000
  96.6780000  38.6600000  25.4450000  96.7700000  40.7030000  26.3690000
  95.7400000  40.6640000  26.5070000  96.9360000  41.4520000  25.5330000
  97.4080000  41.3990000  27.5350000  96.9830000  42.4010000  27.5710000
  98.5110000  41.4840000  27.4210000  96.9780000  40.6250000  28.8100000
  97.3470000  39.5880000  28.7270000  95.8990000  40.5160000  28.8340000
  97.5080000  41.3570000  30.1060000  98.6150000  41.5120000  30.0760000
  97.3750000  40.7110000  30.9640000  96.7960000  42.7010000  30.2260000
  96.7160000  43.2320000  29.3080000  96.3090000  43.2100000  31.3680000
  95.7330000  44.1150000  31.2420000  96.6700000  42.7310000  32.8280000
  97.5150000  42.0890000  32.7930000  95.8990000  42.1020000  33.1210000
  96.9500000  43.8800000  33.7480000  96.0360000  44.4930000  33.9300000
  97.5540000  44.6390000  33.2130000  97.6120000  43.4370000  35.1090000
  98.2250000  42.5630000  34.8900000  96.8420000  43.0820000  35.7510000
  98.3000000  44.6970000  35.7240000  97.6400000  45.5680000  35.6290000
  99.2330000  45.0610000  35.1560000  98.6930000  44.4410000  37.1690000
  99.0150000  43.4330000  37.2950000  97.8680000  44.5990000  37.8470000
  99.8320000  45.4150000  37.5870000  99.8680000  45.2270000  38.6590000
  99.5030000  46.4950000  37.4500000 101.3070000  45.3460000  37.1050000
 101.2940000  45.6640000  36.0670000 101.7600000  44.3490000  36.9280000
 102.4100000  46.2290000  37.8700000 102.2810000  47.2130000  37.4920000
 103.4530000  45.8380000  37.6470000 102.2180000  46.1950000  38.9310000
 131.8710000  -3.0970000  35.0910000 131.8830000  -4.2080000  35.0320000
 131.5090000  -2.7580000  34.0450000 131.1140000  -2.6370000  35.7750000
 133.2130000  -2.6170000  35.4850000 133.1010000  -2.7120000  36.5750000
 133.9500000  -3.2700000  35.0260000 133.5020000  -1.1600000  35.1180000
 132.5370000  -0.5810000  35.3340000 134.2590000  -0.8900000  35.8070000
 133.9940000  -0.9150000  33.6570000 134.9420000  -1.4310000  33.6910000
 133.2630000  -1.4080000  32.9780000 134.2650000   0.5520000  33.3250000
 133.3610000   1.1310000  33.4630000 135.0470000   0.9300000  33.9370000
 134.7130000   0.8260000  31.8690000 135.6840000   0.3180000  31.5980000
 133.9000000   0.5240000  31.2210000 134.9760000   2.4170000  31.7110000
 135.7960000   2.7340000  32.2770000 135.2320000   2.4970000  30.6190000
 133.9450000   3.4650000  32.1670000 133.7460000   3.3260000  33.1910000
 134.4280000   4.5220000  32.1050000 132.6610000   3.5710000  31.3580000
 132.0720000   2.7010000  31.5700000 132.1290000   4.4780000  31.5770000
 132.8370000   3.5580000  29.8560000 133.7280000   4.1420000  29.6490000
 133.1210000   2.6150000  29.4490000 131.6330000   3.9770000  28.9760000
 131.3780000   5.0520000  29.0630000 131.9010000   3.8620000  27.9050000
 130.3520000   3.1710000  29.2110000 130.5170000   2.1390000  29.0100000
 129.9870000   3.3230000  30.1830000 129.1950000   3.6310000  28.3150000
 129.2330000   4.6770000  28.2200000 129.3050000   3.2570000  27.3130000
 127.7500000   3.2320000  28.7850000 127.6520000   3.4680000  29.8590000
 127.0220000   3.6900000  28.0910000 127.3880000   1.7480000  28.6380000
 128.2670000   1.1110000  28.5050000 126.8380000   1.4420000  29.4990000
 126.5210000   1.5710000  27.3580000 125.3910000   1.0890000  27.4250000
 127.1070000   1.8900000  26.2390000 126.5390000   1.5900000  24.9710000
 127.3110000   1.6750000  24.2370000 126.0810000   0.6090000  24.9880000
 125.3800000   2.5020000  24.5690000 124.5990000   2.5030000  25.3250000
 124.7350000   2.0280000  23.2640000 124.3000000   0.9980000  23.3110000
 123.9330000   2.7240000  23.0070000 125.6940000   2.1250000  22.1680000
 125.4400000   1.5540000  20.6400000 125.8200000  -0.0330000  20.7010000
 125.0840000  -0.9400000  21.5840000 125.6310000  -1.8490000  21.5040000
 125.2840000  -0.6940000  22.6170000 123.5750000  -1.0790000  21.2270000
 123.1110000  -1.7980000  21.8470000 123.0230000  -0.1790000  21.3890000
 123.1240000  -1.5480000  19.8260000 123.8290000  -0.8920000  18.7400000
 123.6170000   0.1760000  18.7830000 124.9040000  -1.1650000  18.8440000
 123.4950000  -1.2130000  17.7310000 123.3810000  -2.9730000  19.6610000
 123.3570000  -3.1560000  18.6620000 124.4220000  -3.1450000  19.9230000
 122.6910000  -3.5890000  20.2380000 121.6470000  -1.3190000  19.6680000
 121.1390000  -2.0520000  20.3140000 121.3700000  -1.5150000  18.5830000
 121.5790000  -0.2950000  20.0240000 123.9770000   1.6580000  20.3890000
 126.3050000   2.2630000  19.7340000 125.8870000   3.9150000  24.5150000
 125.0390000   4.9510000  24.5150000 123.8380000   4.8670000  24.4220000
 125.7040000   6.2840000  24.7230000 125.4440000   6.9760000  23.9030000
 126.8140000   6.2440000  24.7160000 125.3670000   6.8920000  26.0450000
 125.6960000   6.1710000  26.7890000 124.3090000   7.1440000  26.1620000
 126.2150000   8.1340000  26.3300000 125.7980000   8.8370000  25.5810000
 127.3110000   7.9710000  26.3210000 125.8710000   8.6570000  27.7950000
 124.9030000   9.0630000  27.7430000 126.4940000   9.5450000  28.1020000
 125.8920000   7.7130000  28.9940000 125.2770000   6.8430000  28.8450000
 125.3820000   8.2000000  29.8770000 127.3290000   7.3360000  29.3650000
 127.8530000   8.2140000  29.7510000 127.7710000   7.0760000  28.4130000
 127.4450000   6.1180000  30.2840000 128.4690000   5.8390000  30.3090000
 126.8040000   5.3830000  29.8380000 127.0590000   6.4020000  31.7280000
 126.3090000   7.1200000  31.9650000 127.4950000   5.8200000  32.7900000
 127.1570000   6.1090000  33.7270000 128.5170000   4.6440000  32.7550000
 129.5090000   5.1180000  32.9740000 128.4450000   4.1730000  31.8040000
 128.0680000   3.5830000  33.7860000 127.2050000   3.2220000  33.2640000
 127.7000000   4.1220000  34.6450000 129.1770000   2.4640000  34.1060000
 129.4490000   1.8380000  33.3100000 128.7660000   1.8240000  34.8740000
 130.3970000   3.1220000  34.7840000 130.1070000   3.9310000  35.4700000
 130.9350000   3.6150000  33.9610000 131.4170000   2.2450000  35.4300000
 132.2960000   2.8700000  35.5810000 131.7680000   1.5800000  34.6810000
 131.1050000   1.7060000  36.8280000 131.9720000   1.1010000  37.1750000
 130.2260000   1.1650000  36.9050000 130.9810000   2.9340000  37.7850000
 130.0870000   3.5180000  37.6930000 131.7950000   3.5860000  37.5630000
 131.2330000   2.5080000  39.2180000 130.6350000   1.7300000  39.5400000
 131.2610000   3.2940000  39.9290000 132.1810000   1.9570000  39.3160000
 131.3100000 141.0590000  32.1920000 130.6220000 141.6790000  32.8010000
 130.8630000 140.1510000  31.8450000 131.6360000 141.6960000  31.3270000
 132.5920000 140.6310000  32.9180000 132.8800000 141.2810000  33.7880000
 132.4250000 139.7270000  33.3920000 133.8350000 140.4150000  32.0070000
 134.3660000 139.5600000  32.4800000 133.6060000 140.0960000  30.9980000
 134.6880000 141.6930000  32.1030000 134.0200000 142.5030000  31.8100000
 134.8110000 141.8660000  33.1890000 136.1260000 141.7270000  31.4500000
 136.6980000 142.6760000  31.6120000 136.7420000 140.9320000  31.8690000
 136.1380000 141.3350000  29.9260000 137.1210000 141.5250000  29.4390000
 135.9450000 140.2990000  29.9270000 135.1460000 142.2440000  29.1310000
 134.1620000 141.9800000  29.4880000 135.3140000 143.3280000  29.3700000
 135.1980000 141.9170000  27.6010000 136.1890000 142.1390000  27.1730000
 134.9920000 140.8420000  27.4570000 134.1790000 142.7350000  26.7570000
 134.2720000 143.7650000  26.9670000 134.4920000 142.6780000  25.7220000
 132.6530000 142.4830000  26.8440000 132.3470000 142.6080000  27.9020000
 132.3300000 143.3770000  26.3930000 132.1580000 141.2000000  26.0780000
 132.3360000 140.3700000  26.6890000 131.0480000 141.2630000  25.9530000
 132.7050000 141.1600000  24.6750000 132.9060000 142.1780000  24.3760000
 133.6240000 140.5170000  24.6330000 131.8500000 140.4880000  23.5660000
 131.1010000 141.2090000  23.2540000 132.5470000 140.2900000  22.7150000
 131.2310000 139.1420000  24.0520000 131.9630000 138.6200000  24.6280000
 130.4310000 139.3900000  24.7260000 130.8050000 138.1440000  22.9910000
 130.1010000 138.6960000  22.4490000 131.6600000 137.8140000  22.3640000
 130.3100000 136.8090000  23.5000000 130.9220000 136.1110000  24.2780000
 129.2460000 136.3040000  22.7750000 128.9660000 134.8480000  22.8420000
 129.4250000 134.2620000  22.0300000 129.2550000 134.4250000  23.7910000
 127.4080000 134.7480000  22.7660000 127.1080000 133.7210000  23.1260000
 126.8900000 135.0090000  21.3430000 125.8220000 135.0190000  21.3540000
 127.3780000 135.9370000  20.9860000 127.2730000 134.0260000  20.2550000
 127.4650000 132.4000000  20.4450000 128.9860000 132.1770000  20.8440000
 130.0160000 132.3130000  19.9250000 129.8080000 132.0420000  18.7980000
 130.3690000 133.2850000  19.9240000 131.1120000 131.4580000  20.5460000
 131.6390000 132.0230000  21.3270000 130.7130000 130.5510000  21.0590000
 132.1800000 130.9080000  19.6300000 132.8090000 131.9410000  18.6960000
 133.3200000 132.6240000  19.2760000 133.5860000 131.3670000  18.1530000
 132.1090000 132.4350000  18.0690000 133.2600000 130.2080000  20.4710000
 133.9100000 130.9180000  21.0250000 132.8010000 129.6100000  21.1760000
 133.7810000 129.7020000  19.7550000 131.6290000 129.9150000  18.6210000
 130.7570000 130.3950000  18.1510000 131.2030000 128.9900000  19.1100000
 132.4040000 129.7300000  17.9000000 126.6260000 131.9350000  21.5850000
 127.2540000 131.7660000  19.1390000 126.8560000 135.7220000  23.6380000
 125.7960000 135.4320000  24.4360000 125.1200000 134.3930000  24.3980000
 125.5520000 136.6770000  25.3900000 126.5010000 137.2340000  25.4780000
 125.2850000 136.2790000  26.3880000 124.3030000 137.4630000  24.8600000
 123.4070000 136.7440000  24.8630000 124.3740000 137.7800000  23.8530000
 124.1150000 138.7590000  25.6910000 123.2260000 139.2510000  25.3840000
 124.9400000 139.4500000  25.4970000 123.9570000 138.5500000  27.2220000
 124.7990000 138.0280000  27.6660000 123.1000000 137.8630000  27.3690000
 123.8020000 139.8200000  28.0000000 122.8810000 140.2560000  27.6880000
 124.5870000 140.5860000  27.7540000 123.8900000 139.5510000  29.4840000
 124.8100000 139.0910000  29.7260000 123.0310000 138.9650000  29.7700000
 123.6950000 140.7260000  30.3870000 122.8690000 141.3200000  30.1370000
 124.5280000 141.4380000  30.3310000 123.6690000 140.3410000  31.8170000
 123.1850000 139.4620000  32.0620000 124.4010000 140.8870000  32.7890000
 124.3380000 140.5490000  33.7830000 125.2350000 142.1620000  32.7140000
 124.6430000 142.9870000  32.2850000 126.0980000 141.8170000  32.0770000
 125.8830000 142.5770000  34.0940000 126.3250000 141.7250000  34.6590000
 125.1360000 142.9460000  34.7850000 127.0260000 143.6020000  33.9050000
 127.8890000 143.1760000  33.3660000 127.3740000 143.9100000  34.8990000
 126.7280000 144.8850000  33.1460000 125.7900000 145.2390000  33.5770000
 126.4750000 144.6870000  32.0770000 127.7990000 146.0190000  33.2560000
 128.7080000 145.7010000  32.6630000 128.2000000 146.1280000  34.2490000
 127.4770000 147.4890000  32.8190000 128.4280000 148.1030000  32.6620000
 126.9350000 148.0300000  33.6280000 126.7340000 147.5070000  31.5060000
 126.5420000 148.5610000  31.2460000 125.7770000 146.9640000  31.4230000
 127.5210000 147.0760000  30.2690000 127.9220000 146.0270000  30.2720000
 128.5010000 147.5910000  30.2300000 126.8260000 147.1820000  29.3660000
  38.7140000 129.1310000  36.8280000  38.3670000 128.7150000  35.8760000
  39.2760000 130.0700000  36.6100000  37.8840000 129.3650000  37.5000000
  39.7260000 128.1580000  37.4500000  39.9820000 128.5380000  38.4080000
  39.3300000 127.1720000  37.5350000  41.0800000 128.0170000  36.7690000
  41.4470000 129.0430000  36.6740000  41.7480000 127.4180000  37.3570000
  40.9650000 127.3720000  35.3710000  40.2830000 126.5060000  35.3150000
  40.4760000 127.9950000  34.6500000  42.2870000 126.8540000  34.8110000
  42.9960000 127.6530000  34.5770000  42.8270000 126.4240000  35.6870000
  42.1690000 125.8840000  33.6520000  41.3930000 125.1550000  33.9890000
  41.7040000 126.4380000  32.8360000  43.3920000 125.1920000  33.2710000
  43.9200000 125.7540000  32.4970000  44.1320000 125.1830000  34.1120000
  43.0660000 123.8250000  32.6120000  42.2230000 123.9620000  31.9930000
  43.9450000 123.5740000  32.0390000  42.8020000 122.6200000  33.5040000
  43.6890000 122.1880000  34.0220000  42.0700000 122.9070000  34.1260000
  42.3190000 121.3420000  32.7040000  42.8580000 121.2070000  31.7470000
  42.4990000 120.4900000  33.3570000  40.7990000 121.4050000  32.4210000
  40.3820000 121.3960000  33.4390000  40.5790000 122.2940000  31.7940000
  40.3480000 120.1560000  31.6100000  40.9770000 120.1540000  30.7330000
  40.3350000 119.2130000  32.0910000  38.9170000 120.3350000  31.1280000
  38.1990000 120.3350000  31.9580000  38.7270000 121.3420000  30.7690000
  38.3510000 119.4090000  30.0110000  37.8390000 118.6210000  30.5540000
  37.5860000 119.9780000  29.3790000  39.4800000 118.8880000  29.1260000
  40.1490000 119.5730000  28.6900000  40.1210000 118.2860000  29.7810000
  39.0870000 117.9810000  27.9720000  37.9940000 117.9010000  27.5350000
  40.1200000 117.2960000  27.5330000  39.7280000 116.1400000  26.6690000
  40.7080000 115.6290000  26.5400000  38.9160000 115.5820000  27.0580000
  39.3870000 116.6740000  25.1930000  38.4200000 117.2020000  25.2120000
  39.3360000 115.3880000  24.3520000  40.1520000 114.6760000  24.4020000
  38.4740000 114.8500000  24.5620000  39.3540000 115.7690000  23.0060000
  39.0300000 114.6840000  21.8690000  38.3040000 115.6030000  20.7460000
  36.8920000 115.9100000  20.8030000  36.4220000 116.0710000  19.8350000
  36.3410000 115.0730000  21.1330000  36.9800000 117.1940000  21.6150000
  37.7500000 116.8610000  22.3620000  37.3430000 117.9990000  20.9810000
  35.7210000 117.5410000  22.3490000  35.9490000 118.7470000  23.2150000
  35.0090000 119.1650000  23.6670000  36.6430000 118.5180000  24.0310000
  36.3040000 119.5550000  22.6180000  34.5860000 117.6290000  21.4780000
  34.8300000 118.3150000  20.6490000  34.3850000 116.6250000  21.1080000
  33.8200000 118.0180000  22.2200000  35.4880000 116.4240000  23.3260000
  34.4000000 116.3830000  23.4830000  35.9350000 116.4610000  24.3750000
  35.7320000 115.4910000  22.9430000  40.3390000 114.2260000  21.3360000
  38.0590000 113.7640000  22.4630000  40.3830000 117.5840000  24.6540000
  39.9930000 118.4790000  23.6760000  38.8210000 118.8000000  23.4440000
  41.2120000 119.2270000  23.1300000  41.9140000 118.5020000  22.7150000
  41.7080000 119.6620000  24.0010000  40.7620000 120.1930000  22.0060000
  40.0730000 120.8670000  22.4590000  40.2250000 119.5560000  21.2350000
  41.9910000 120.9520000  21.3310000  42.4380000 121.6020000  22.1020000
  41.5640000 121.6130000  20.5960000  43.0570000 120.0920000  20.6320000
  42.5580000 119.5450000  19.7980000  43.4670000 119.3030000  21.3860000
  44.1640000 120.9890000  20.0510000  44.3830000 121.6660000  20.8330000
  43.8340000 121.5330000  19.1480000  45.3740000 120.0090000  19.6990000
  45.1420000 119.6770000  18.7090000  45.3800000 119.1250000  20.3740000
  46.7010000 120.7620000  19.6720000  47.4820000 120.0620000  19.2960000
  47.1110000 121.0720000  20.6750000  46.7380000 121.9070000  18.6480000
  46.7720000 121.5710000  17.6650000  46.8250000 123.2110000  18.9340000
  46.8910000 123.9050000  18.0960000  46.9530000 123.8330000  20.2850000
  47.5980000 124.7230000  20.1920000  47.4180000 123.1120000  20.9480000
  45.6480000 124.3110000  20.9360000  44.9990000 123.4400000  20.8820000
  45.2800000 125.2140000  20.3260000  45.8400000 124.7530000  22.3910000
  46.3180000 125.7230000  22.3430000  46.4770000 124.0980000  23.0070000
  44.5900000 125.0040000  23.3090000  44.1500000 123.9950000  23.3690000
  43.9750000 125.6990000  22.7040000  45.0310000 125.5280000  24.6920000
  45.8140000 126.2680000  24.5460000  45.4860000 124.8120000  25.3180000
  43.9340000 126.2150000  25.4660000  43.2630000 125.4290000  25.8100000
  43.3850000 126.8350000  24.7580000  44.5580000 127.0880000  26.5470000
  45.4350000 127.5900000  26.2590000  44.8540000 126.4750000  27.4850000
  43.4480000 128.0670000  26.9800000  43.2690000 128.6820000  26.1110000
  43.7110000 128.6080000  27.8740000  42.5830000 127.4620000  27.2600000
 114.6670000  28.9980000  30.0880000 113.8560000  29.6270000  30.5100000
 114.4570000  28.0170000  30.3740000 114.7980000  29.1950000  29.0400000
 116.1450000  29.1780000  30.7830000 116.1680000  28.8060000  31.7740000
 116.7610000  28.5180000  30.1860000 116.6790000  30.6370000  30.6520000
 116.5150000  31.0820000  29.6680000 115.9920000  31.2090000  31.3480000
 118.1620000  30.8480000  31.1110000 118.2360000  31.0250000  32.2110000
 118.6460000  29.9300000  30.7750000 118.7850000  32.1670000  30.3970000
 118.6640000  31.8560000  29.3360000 118.1310000  32.9830000  30.6350000
 120.2270000  32.2270000  30.9330000 120.1590000  32.5840000  31.9360000
 120.8030000  31.2760000  31.0230000 121.0400000  33.2430000  30.0650000
 120.4820000  34.1400000  29.9810000 121.9750000  33.3180000  30.5950000
 121.3490000  32.7100000  28.5900000 121.8500000  31.7330000  28.6680000
 120.3340000  32.5710000  28.0630000 122.3770000  33.7200000  27.9100000
 123.1850000  33.8950000  28.6620000 122.7610000  33.2480000  26.9720000
 121.7590000  35.1390000  27.4910000 121.5980000  35.6640000  28.5030000
 122.4620000  35.7470000  26.9460000 120.3930000  34.9190000  26.7130000
 119.6280000  34.5970000  27.4400000 120.0060000  35.8600000  26.4180000
 120.3180000  33.9680000  25.5270000 121.0300000  34.3070000  24.8240000
 120.6600000  32.9690000  25.7480000 118.9620000  33.9310000  24.7110000
 118.2310000  33.9490000  25.5090000 118.8150000  34.8370000  24.1340000
 118.7620000  32.7260000  23.7790000 118.7880000  31.7800000  24.3370000
 117.7740000  32.8040000  23.3900000 119.6400000  32.6150000  22.5560000
 120.7590000  32.5550000  22.7060000 119.3640000  31.7680000  22.0150000
 119.4750000  33.7240000  21.5350000 118.3960000  34.2290000  21.2370000
 120.6820000  34.0720000  20.9430000 120.6730000  35.0190000  19.8530000
 121.4860000  34.8570000  19.1200000 119.8090000  34.7710000  19.2780000
 120.7130000  36.4490000  20.3040000 120.0000000  36.6760000  21.0910000
 120.5050000  37.5310000  19.1690000 119.5200000  37.4080000  18.7630000
 120.6610000  38.4910000  19.6430000 121.4460000  37.2380000  18.0710000
 120.9550000  37.1380000  16.5410000 120.2750000  35.7650000  16.5160000
 118.7840000  35.7160000  16.3970000 118.3460000  34.6390000  16.5920000
 118.2740000  36.3910000  17.1770000 118.3260000  36.1020000  14.9430000
 117.1790000  36.0180000  14.9840000 118.4080000  37.1340000  14.8120000
 118.7770000  35.3910000  13.7120000 118.3080000  34.0070000  13.7370000
 117.2340000  34.0400000  13.8710000 118.6290000  33.6070000  12.7650000
 118.7340000  33.5360000  14.5570000 118.0780000  36.0410000  12.5930000
 118.2540000  35.5110000  11.6410000 116.9890000  35.9910000  12.7710000
 118.3790000  37.0950000  12.6570000 120.2180000  35.4220000  13.4920000
 120.7240000  34.6470000  14.1670000 120.6100000  36.4400000  13.5840000
 120.2970000  35.0330000  12.4680000 120.0170000  38.2080000  16.2870000
 122.1550000  37.0590000  15.7280000 122.0250000  36.8590000  20.8490000
 122.3660000  36.5820000  22.1150000 121.8190000  35.8140000  22.8340000
 123.6060000  37.3160000  22.4320000 123.5060000  38.3400000  22.0710000
 124.4040000  36.7740000  21.8780000 123.9660000  37.5250000  23.8940000
 124.9520000  38.0080000  23.9910000 124.0300000  36.5480000  24.4340000
 123.0070000  38.4420000  24.6890000 122.0010000  37.8390000  24.7390000
 122.6810000  39.3320000  24.1720000 123.6010000  38.6970000  26.0540000
 124.5600000  39.1980000  26.0000000 123.7860000  37.7400000  26.4430000
 122.6460000  39.5530000  26.9600000 122.4230000  40.5780000  26.5410000
 123.1660000  39.7140000  27.9280000 121.2870000  38.9000000  27.2530000
 121.5070000  37.8410000  27.4910000 120.6880000  38.7970000  26.3390000
 120.5270000  39.5380000  28.4370000 119.5390000  39.0550000  28.5790000
 120.2920000  40.6630000  28.2990000 121.2350000  39.5070000  29.7230000
 122.1890000  40.1040000  29.8570000 120.8560000  38.8550000  30.8220000
 121.5010000  39.0570000  31.7460000 119.6960000  37.9410000  30.9230000
 119.7220000  37.3480000  29.9970000 118.7590000  38.4340000  30.8910000
 119.8760000  36.9830000  32.0870000 120.1320000  37.5860000  32.9360000
 120.7290000  36.3480000  31.8170000 118.6040000  36.1260000  32.4500000
 118.2480000  35.5290000  31.6070000 117.6960000  36.6940000  32.5870000
 118.7390000  35.2020000  33.6950000 118.8110000  35.8300000  34.5560000
 119.6120000  34.5330000  33.5260000 117.5420000  34.3180000  33.8420000
 117.4530000  33.8100000  32.9160000 116.6090000  34.9430000  33.9840000
 117.6140000  33.3780000  35.0680000 117.6820000  34.0490000  35.8590000
 118.4060000  32.6810000  35.0230000 116.3150000  32.6490000  35.2990000
 116.0000000  32.0970000  34.4240000 115.5630000  33.4980000  35.4960000
 116.3530000  31.7040000  36.5550000 116.6190000  32.1510000  37.4510000
 117.0170000  30.9400000  36.3960000 115.3820000  31.2770000  36.7120000
  13.7560000  76.3690000  34.4220000  13.8480000  77.2560000  35.0440000
  14.6930000  76.1040000  33.9840000  13.2770000  75.6160000  34.9930000
  12.7980000  76.8350000  33.2850000  12.6290000  75.9510000  32.5920000
  11.8420000  77.1140000  33.6670000  13.4250000  77.9810000  32.5390000
  13.4160000  78.8480000  33.2680000  14.4320000  77.7480000  32.3180000
  12.8100000  78.4210000  31.2170000  12.3620000  77.5460000  30.7000000
  12.0490000  79.2490000  31.3960000  14.0020000  79.0170000  30.3910000
  14.4190000  79.7670000  31.0280000  14.6910000  78.2000000  30.1920000
  13.5910000  79.7570000  29.1380000  12.8270000  80.4550000  29.2810000
  14.5410000  80.2230000  28.8140000  13.2080000  78.9270000  27.9220000
  14.0730000  78.2540000  27.7530000  12.3900000  78.2300000  28.0150000
  13.1490000  79.9030000  26.7140000  12.3290000  80.5490000  26.8580000
  13.9890000  80.6290000  26.7230000  12.9320000  79.2020000  25.3790000
  12.0140000  78.6190000  25.4560000  12.5910000  80.0210000  24.6450000
  14.1940000  78.4250000  24.8390000  15.1520000  78.8340000  24.9880000
  14.3030000  77.5420000  25.4820000  13.9510000  78.1830000  23.3650000
  13.5490000  78.9980000  22.7950000  14.9230000  78.0760000  22.9290000
  13.1520000  76.9650000  22.9860000  13.2340000  76.9130000  21.9150000
  13.6980000  75.9760000  23.2110000  11.7080000  76.8720000  23.5100000
  11.6800000  76.8190000  24.5850000  11.2510000  77.8310000  23.3690000
  10.9160000  75.7910000  22.7530000  10.9140000  76.1560000  21.6880000
  11.4310000  74.8410000  22.8420000   9.4940000  75.6760000  23.2960000
   9.4630000  74.9970000  24.0770000   9.1180000  76.6360000  23.6720000
   8.5520000  75.2490000  22.2900000   8.6190000  74.1320000  21.8170000
   7.5650000  76.1360000  22.0050000   6.4590000  75.9660000  21.0040000
   6.2110000  74.9120000  21.0860000   5.5800000  76.5250000  21.2940000
   6.9110000  76.3820000  19.5620000   5.9990000  76.4070000  19.0580000
   7.9550000  75.4760000  18.8980000   7.6740000  74.4560000  19.0320000
   7.8070000  75.7640000  17.8050000   9.3250000  75.8170000  19.2820000
  10.5910000  75.4240000  18.3680000  11.7690000  76.1190000  19.0850000
  11.7550000  77.5550000  19.3150000  10.9990000  78.0060000  18.5770000
  11.3170000  77.8660000  20.3200000  13.0560000  78.3540000  19.0470000
  12.8960000  79.3700000  19.0560000  13.8400000  78.0400000  19.6750000
  13.7070000  78.1810000  17.7110000  14.9710000  79.1020000  17.5750000
  14.6970000  80.1010000  17.8320000  15.6710000  78.8400000  18.3850000
  15.3950000  79.0960000  16.5610000  14.0540000  76.7750000  17.4490000
  13.1890000  76.1910000  17.1900000  14.7040000  76.7140000  16.6840000
  14.4800000  76.3980000  18.4290000  12.8670000  78.5690000  16.5070000
  12.0940000  77.8940000  16.1660000  13.4380000  78.8690000  15.7000000
  12.4120000  79.5110000  16.8170000  10.9280000  74.0160000  18.4250000
  10.6080000  76.0900000  17.0380000   7.5120000  77.6500000  19.6350000
   6.9110000  78.7010000  20.1290000   5.7980000  78.9880000  19.7770000
   7.6430000  79.3060000  21.3150000   7.8190000  80.3440000  21.0260000
   8.6150000  78.8340000  21.4870000   6.7160000  79.3750000  22.5140000
   6.1160000  78.4500000  22.5610000   5.9780000  80.1940000  22.3420000
   7.4100000  79.6000000  23.9080000   7.9050000  80.5870000  23.9650000
   8.1460000  78.8690000  23.9870000   6.4040000  79.2650000  25.0450000
   5.9310000  78.2510000  24.8850000   5.5120000  80.0020000  25.0910000
   7.0030000  79.2800000  26.5050000   6.1210000  79.1110000  27.1340000
   7.1830000  80.2830000  26.9110000   8.1950000  78.4400000  26.8520000
   8.4170000  78.7660000  27.9000000   9.0470000  78.8030000  26.2740000
   7.9580000  76.8620000  26.7390000   7.4440000  76.5520000  25.7910000
   7.3190000  76.5240000  27.5100000   9.3800000  76.2090000  26.7300000
   9.9910000  76.3180000  25.8280000   9.8560000  75.5200000  27.7860000
  10.7880000  74.9780000  27.6370000   9.2420000  75.3700000  29.1570000
   8.7410000  74.4470000  29.2090000   8.5290000  76.1440000  29.2540000
  10.3080000  75.6030000  30.2150000  10.9160000  76.4270000  30.0190000
  11.0360000  74.7300000  30.2450000   9.7270000  75.7380000  31.5840000
  10.5380000  75.4640000  32.2630000   8.8710000  75.0910000  31.7220000
   9.1390000  77.0820000  31.9530000   8.4090000  77.4400000  31.2250000
   9.9630000  77.7580000  31.9300000   8.5390000  77.1230000  33.3490000
   9.3130000  76.9530000  34.1410000   7.8290000  76.3800000  33.5390000
   7.8860000  78.5810000  33.5790000   7.0430000  78.7480000  32.9160000
   8.5870000  79.3760000  33.3860000   7.1080000  78.7800000  34.9450000
   6.3260000  78.1390000  34.8540000   6.5670000  79.7070000  34.9430000
   8.0310000  78.6520000  36.1630000   8.3370000  77.5900000  36.1490000
   7.5150000  78.8570000  37.0890000   8.8750000  79.3280000  36.1400000
 114.3260000  43.1660000  33.2500000 113.3310000  42.7370000  32.9810000
 114.6520000  42.5070000  34.0810000 115.1600000  43.0810000  32.4810000
 114.2110000  44.6260000  33.7510000 113.4440000  44.7980000  34.5320000
 115.1330000  44.9200000  34.0620000 113.7840000  45.5190000  32.5600000
 114.0650000  46.5350000  32.8350000 114.3970000  45.4050000  31.6080000
 112.2600000  45.5440000  32.2710000 111.9210000  44.6060000  31.8290000
 111.7380000  45.7980000  33.1840000 111.8010000  46.6580000  31.2850000
 110.6810000  46.6730000  31.1200000 112.0550000  47.6330000  31.6550000
 112.5260000  46.5310000  29.9090000 113.5750000  46.7640000  30.1790000
 112.5800000  45.5000000  29.4780000 112.1730000  47.6800000  28.9670000
 111.1390000  47.6030000  28.7250000 112.2900000  48.6380000  29.5060000
 112.9710000  47.7850000  27.6460000 112.7460000  46.8720000  27.1100000
 112.6400000  48.6450000  27.0380000 114.4440000  47.7800000  27.8780000
 114.6810000  48.5300000  28.6640000 114.7610000  46.8440000  28.2120000
 115.2630000  48.1090000  26.5590000 115.0020000  49.1680000  26.4650000
 116.2820000  47.9560000  26.7510000 114.9440000  47.3290000  25.2740000
 114.0590000  47.8180000  24.8690000 115.7350000  47.6690000  24.6380000
 114.8470000  45.8280000  25.4740000 114.2870000  45.6300000  26.3060000
 114.3780000  45.4580000  24.5870000 116.2160000  45.1220000  25.6340000
 116.7840000  45.5890000  26.4690000 116.8170000  45.0620000  24.7410000
 116.0380000  43.6350000  26.0200000 116.9400000  43.3030000  26.4980000
 115.2420000  43.5580000  26.8460000 115.7650000  42.7300000  24.7960000
 115.5720000  41.6990000  25.0910000 114.8130000  42.9870000  24.3730000
 116.8570000  42.7080000  23.7560000 117.7570000  41.9040000  23.8320000
 116.6350000  43.5140000  22.7420000 117.4670000  43.4600000  21.5420000
 117.2120000  44.4170000  21.0500000 118.5180000  43.3420000  21.7710000
 116.9920000  42.2620000  20.5870000 117.7780000  42.1220000  19.8150000
 115.7020000  42.6120000  19.8060000 114.9280000  41.9170000  20.0420000
 115.3660000  43.5890000  20.0150000 115.9490000  42.6210000  18.3500000
 116.7130000  43.8280000  17.6280000 115.5190000  44.7960000  17.2300000
 114.5560000  44.4080000  16.1780000 114.7550000  45.0150000  15.2890000
 114.5710000  43.3520000  15.9270000 113.1660000  44.7440000  16.7350000
 112.3080000  44.5250000  16.1130000 112.9790000  44.2110000  17.6410000
 112.9160000  46.2330000  16.8710000 111.5230000  46.6360000  17.2000000
 111.3980000  46.5570000  18.2850000 111.4140000  47.6110000  16.7660000
 110.8850000  45.9420000  16.6150000 113.6920000  46.8260000  17.9710000
 114.7430000  46.8740000  17.6660000 113.3070000  47.8170000  18.0750000
 113.4960000  46.2980000  18.8750000 113.2890000  47.0660000  15.7120000
 112.7250000  46.7720000  14.8700000 114.3470000  46.9150000  15.4480000
 113.1570000  48.1090000  15.9150000 117.4740000  44.4590000  18.7300000
 117.3720000  43.3620000  16.3890000 116.8190000  40.9630000  21.2990000
 117.9740000  40.1800000  21.3130000 119.0240000  40.4640000  20.7300000
 117.7760000  39.0040000  22.2550000 117.7300000  38.0430000  21.6700000
 116.9010000  39.2540000  22.8460000 118.9430000  38.8910000  23.1920000
 118.9550000  39.7620000  23.8490000 119.9170000  38.9890000  22.7380000
 118.8720000  37.6690000  24.1670000 119.8000000  37.6310000  24.7560000
 118.8260000  36.8130000  23.5120000 117.6500000  37.6310000  25.0510000
 117.5170000  36.6870000  25.5860000 116.6930000  37.7730000  24.5070000
 117.6530000  38.7520000  26.0910000 117.9160000  39.6550000  25.5820000
 118.4760000  38.5720000  26.8080000 116.2350000  38.9020000  26.7660000
 115.8810000  37.9730000  27.3120000 115.5150000  39.0580000  26.0090000
 116.2860000  40.0970000  27.7770000 116.5350000  40.8520000  27.1250000
 117.0370000  39.9940000  28.5540000 114.8940000  40.3170000  28.3780000
 114.1130000  40.8190000  27.7810000 114.5050000  39.6970000  29.5280000
 113.5260000  39.9210000  29.9070000 115.3670000  39.0630000  30.6070000
 115.4220000  39.7710000  31.4600000 116.3690000  39.0180000  30.2220000
 114.9100000  37.7100000  31.0750000 113.8690000  37.8240000  31.3090000
 115.4740000  37.3970000  32.0010000 115.1160000  36.6140000  30.0810000
 116.0970000  36.6950000  29.4720000 114.3310000  36.7110000  29.2770000
 115.0400000  35.1460000  30.6210000 114.4610000  35.0160000  31.5320000
 115.9860000  34.9500000  30.9850000 114.5360000  34.1270000  29.6400000
 113.5700000  34.3660000  29.3090000 114.5160000  33.1400000  30.1690000
 115.4460000  33.7960000  28.4650000 116.4000000  33.5130000  28.9490000
 115.5280000  34.6520000  27.7820000 114.8880000  32.6700000  27.5910000
 114.0160000  33.1220000  27.0200000 114.6890000  31.8050000  28.1660000
 115.8950000  32.3040000  26.4640000 115.5560000  31.5180000  25.7570000
 116.8090000  31.9300000  26.8690000 116.0530000  33.1700000  25.8370000
  48.7790000  73.4050000  42.6460000  48.3090000  72.5190000  42.0790000
  48.0250000  74.1740000  42.6420000  48.9930000  72.9870000  43.6670000
  49.9930000  73.9280000  41.9170000  50.1230000  75.0240000  42.1360000
  50.8090000  73.3640000  42.3870000  50.0000000  73.6340000  40.4030000
  49.7970000  72.5640000  40.2740000  49.1440000  74.2260000  39.8760000
  51.3500000  73.9170000  39.7390000  51.4830000  75.0110000  39.8830000
  52.1120000  73.3870000  40.2450000  51.4300000  73.6030000  38.2330000
  51.3010000  72.5340000  38.0800000  50.6150000  74.2020000  37.7160000
  52.7360000  74.0970000  37.4940000  52.9200000  75.1680000  37.6090000
  53.5710000  73.6750000  38.0140000  52.8980000  73.5710000  36.0130000
  53.9350000  73.6970000  35.6630000  52.7340000  72.5610000  36.0920000
  51.9630000  74.2390000  34.9260000  50.9380000  74.0710000  35.2780000
  52.0820000  75.3450000  34.9080000  52.1290000  73.6860000  33.4900000
  53.2130000  73.8750000  33.2680000  52.0140000  72.5930000  33.5410000
  51.0930000  74.1210000  32.4180000  50.0770000  73.7580000  32.8350000
  51.0600000  75.2090000  32.2710000  51.3610000  73.4040000  31.0540000
  52.2650000  73.8020000  30.5510000  51.6810000  72.3730000  31.3480000
  50.1140000  73.2930000  30.0990000  49.2790000  73.0750000  30.8170000
  49.9190000  74.2250000  29.6050000  50.1280000  72.2090000  29.0000000
  50.5220000  72.6570000  28.0830000  50.6780000  71.3210000  29.2730000
  48.7620000  71.6460000  28.6010000  48.3230000  71.1100000  29.4370000
  48.0510000  72.5010000  28.4410000  48.8970000  70.6860000  27.4590000
  49.3460000  71.1660000  26.5900000  49.5770000  69.8260000  27.6200000
  47.5980000  70.2060000  27.0220000  46.6110000  70.1230000  27.7190000
  47.6060000  69.9470000  25.7040000  46.3440000  69.4590000  25.0800000
  46.5150000  68.5670000  24.4990000  45.7840000  68.9980000  25.9530000
  45.6620000  70.5380000  24.2570000  44.6190000  70.2550000  23.8630000
  46.5200000  70.8820000  23.0360000  46.0120000  71.6270000  22.4910000
  47.4930000  71.2780000  23.4620000  46.5680000  69.6710000  22.2650000
  47.5760000  69.5010000  21.0220000  46.6530000  70.1110000  19.8360000
  45.3600000  69.5230000  19.4540000  45.0890000  69.7290000  18.4100000
  45.2320000  68.5010000  19.6920000  44.3320000  70.2090000  20.3170000
  43.3530000  69.6270000  20.2860000  44.6000000  70.0610000  21.3790000
  43.9500000  71.6200000  19.9960000  42.9610000  72.0740000  21.0000000
  42.2310000  71.2100000  21.0960000  43.4490000  72.2070000  22.0150000
  42.5040000  73.0240000  20.6290000  45.0810000  72.5540000  19.9400000
  45.5890000  72.3980000  18.9760000  44.6850000  73.6140000  19.8930000
  45.8180000  72.5110000  20.7310000  43.3590000  71.5610000  18.6230000
  42.7910000  72.4500000  18.5220000  42.6890000  70.7070000  18.5050000
  44.1710000  71.6040000  17.9150000  48.6590000  70.4780000  21.2920000
  47.9020000  68.0930000  20.6730000  45.4660000  71.6570000  25.0750000
  44.4340000  72.4960000  24.9400000  43.5530000  72.4400000  24.0780000
  44.4030000  73.5540000  26.0580000  43.6020000  73.3960000  26.6880000
  44.1890000  74.4510000  25.5540000  45.7450000  73.5970000  26.8360000
  46.5390000  73.6170000  26.0820000  45.7880000  72.7910000  27.4820000
  45.7560000  74.9030000  27.6850000  44.7400000  75.1180000  28.0570000
  46.0160000  75.7800000  27.0150000  46.6510000  74.8280000  28.9090000
  47.6730000  74.4380000  28.7330000  46.2890000  74.1700000  29.7250000
  46.7720000  76.2840000  29.3920000  47.2750000  76.8850000  28.5630000
  47.5570000  76.2410000  30.1540000  45.5610000  77.0850000  29.8760000
  44.8750000  76.9630000  29.0380000  45.7510000  78.1370000  29.8520000
  44.8400000  76.6340000  31.1220000  44.2370000  77.4560000  31.4610000
  45.6450000  76.4590000  31.8580000  43.9740000  75.4330000  30.8270000
  43.2200000  75.6030000  30.0680000  43.9980000  74.2880000  31.4600000
  43.2500000  73.5050000  31.1900000  44.8770000  73.8950000  32.6250000
  45.8700000  74.3470000  32.4960000  45.0110000  72.8380000  32.6570000
  44.3400000  74.4360000  33.8960000  43.3560000  74.0000000  34.1420000
  44.2440000  75.5190000  33.8260000  45.3580000  74.0550000  35.0760000
  45.7530000  73.0030000  35.1560000  44.6850000  74.1530000  35.9450000
  46.4640000  75.0450000  35.4590000  47.1170000  74.6660000  36.2760000
  45.9440000  75.8480000  35.9650000  47.2380000  75.6260000  34.2400000
  46.7040000  76.3270000  33.6710000  47.7530000  74.8320000  33.6300000
  48.3950000  76.4020000  34.8620000  49.0390000  75.7940000  35.4980000
  48.0730000  77.1610000  35.5230000  49.2650000  77.0770000  33.7510000
  49.7660000  76.3180000  33.1380000  50.0230000  77.7210000  34.3070000
  48.4510000  77.8900000  32.8010000  47.8090000  78.5830000  33.2580000
  47.7420000  77.2490000  32.1920000  49.0920000  78.3650000  32.0550000
   2.8240000  59.6020000  18.6600000   2.8860000  58.8530000  17.8950000
   3.8490000  59.8620000  19.0760000   2.6490000  60.4950000  18.0260000
   1.8130000  59.3500000  19.8340000   1.4780000  60.3220000  20.2520000
   0.9900000  58.6180000  19.6440000   2.5120000  58.5970000  21.0450000
   3.3850000  59.0830000  21.4570000   1.7870000  58.6210000  21.8410000
   2.8950000  57.1780000  20.6820000   3.3890000  57.0740000  19.6980000
   3.7480000  56.7980000  21.3160000   1.7740000  56.1430000  20.8750000
   1.2570000  56.3840000  21.8650000   0.9780000  56.4080000  20.1920000
   2.0290000  54.6120000  20.7120000   1.1800000  54.0050000  20.7720000
   2.3610000  54.4140000  19.6800000   3.1620000  54.0070000  21.6050000
   4.0420000  54.6230000  21.4830000   2.8000000  54.0260000  22.6220000
   3.7020000  52.5980000  21.2970000   4.2560000  52.6090000  20.3480000
   4.4430000  52.3900000  22.1160000   2.5520000  51.5650000  21.2560000
   2.0210000  51.8580000  22.2250000   1.8880000  51.8040000  20.4070000
   2.8500000  50.0090000  21.2810000   3.2390000  49.7520000  22.2830000
   1.8990000  49.5390000  21.1250000   3.9620000  49.5990000  20.3680000
   4.9040000  50.0030000  20.6410000   4.0730000  48.4950000  20.4980000
   3.7130000  49.9480000  18.9230000   2.8400000  49.3290000  18.6870000
   3.5730000  51.0340000  18.7740000   4.7460000  49.6890000  17.8750000
   4.7810000  48.6460000  17.5750000   4.3820000  50.2700000  16.9880000
   6.2470000  50.2000000  18.2110000   6.2740000  51.3060000  18.1300000
   6.5770000  50.0540000  19.1870000   7.1700000  49.6910000  17.1420000
   7.1780000  48.6040000  17.2230000   6.8480000  49.9480000  16.1550000
   8.5670000  50.2160000  17.2700000   8.9200000  51.2500000  17.8610000
   9.4720000  49.4810000  16.6310000  10.7950000  49.7340000  16.9670000
  11.3520000  49.2470000  16.1940000  11.0660000  50.8490000  16.8970000
  11.0980000  49.0720000  18.3670000  10.3660000  49.4730000  19.1400000
  12.4540000  49.5950000  18.9960000  12.1920000  50.5010000  19.5450000
  12.8430000  48.9110000  19.7510000  13.4040000  49.9100000  17.9290000
  14.5560000  48.8420000  17.5110000  13.7660000  47.7610000  16.7120000
  13.7650000  46.3770000  17.0790000  13.6270000  46.4210000  18.2020000
  12.8560000  45.9520000  16.6980000  15.0700000  45.7700000  16.6270000
  15.2060000  45.9140000  15.5680000  15.8690000  46.4390000  17.0510000
  15.3340000  44.3330000  17.1160000  15.3890000  44.4350000  18.5370000
  16.2260000  45.1460000  18.8140000  14.4390000  44.8430000  19.0180000
  15.5370000  43.4650000  18.9840000  14.3050000  43.3660000  16.4970000
  14.6070000  43.1620000  15.4800000  14.2610000  42.4430000  17.0350000
  13.3830000  43.8720000  16.4300000  16.7340000  43.8410000  16.6710000
  16.8010000  42.7880000  16.8890000  17.4080000  44.4200000  17.2330000
  16.8440000  44.0720000  15.5670000  15.5120000  49.4210000  16.5770000
  15.2040000  48.1350000  18.6180000  11.1860000  47.6100000  18.3730000
   9.9460000  47.0150000  18.7080000   8.9700000  47.6150000  19.0010000
   9.7130000  45.5060000  18.5810000   9.6880000  45.2970000  17.5080000
   8.6900000  45.2740000  18.8080000  10.6430000  44.5810000  19.3440000
  11.6560000  45.0000000  19.2810000  10.6550000  43.6070000  18.8830000
  10.3770000  44.4860000  20.9070000  11.3070000  44.1260000  21.3500000
   9.6640000  43.7140000  21.1960000  10.0360000  45.7130000  21.7030000
   9.1180000  46.1500000  21.3370000  10.8040000  46.4680000  21.4830000
   9.8790000  45.6060000  23.2570000  10.5520000  44.7340000  23.5910000
   8.7720000  45.3670000  23.3510000  10.1100000  46.8410000  24.1080000
  11.1670000  47.1810000  23.9250000  10.0880000  46.4770000  25.1110000
   9.1760000  48.0150000  23.8940000   8.9810000  48.6050000  24.8670000
   8.2180000  47.6580000  23.5000000   9.5810000  48.9000000  22.7240000
   9.4110000  48.4150000  21.7830000  10.0070000  50.1380000  22.8140000
  10.1630000  50.7320000  21.9280000  10.1150000  50.8170000  24.1860000
  10.9320000  51.5180000  24.2130000  10.4200000  50.1360000  24.9680000
   8.8080000  51.4440000  24.6210000   7.8300000  50.9100000  24.3470000
   8.6470000  52.4180000  24.1760000   8.7240000  51.7560000  26.1560000
   9.5570000  52.3600000  26.4920000   8.7990000  50.7890000  26.7440000
   7.4170000  52.3350000  26.6930000   7.1520000  53.2400000  26.0830000
   7.6610000  52.6280000  27.7130000   6.2390000  51.3480000  26.6480000
   6.3580000  50.6120000  27.5220000   6.1030000  50.8170000  25.7090000
   4.9820000  52.1390000  26.9620000   4.9580000  53.0850000  26.4820000
   4.9480000  52.3480000  28.0550000   3.6350000  51.4200000  26.6520000
   3.6710000  50.9580000  25.6600000   2.6660000  52.0180000  26.7040000
   3.3830000  50.2880000  27.6810000   3.5900000  50.8290000  28.6390000
   4.0760000  49.4770000  27.5700000   2.3530000  49.9980000  27.5250000
  82.2000000  79.4590000  31.4030000  81.4970000  79.3490000  32.2210000
  82.0040000  78.6760000  30.6090000  82.1340000  80.3970000  30.9310000
  83.6240000  79.1830000  32.0510000  84.0650000  80.1690000  32.4110000
  83.5720000  78.5480000  32.9390000  84.6110000  78.5810000  31.0420000
  85.5790000  78.4290000  31.4770000  84.2880000  77.5870000  30.6860000
  84.9170000  79.5340000  29.8370000  83.9530000  79.6550000  29.2440000
  85.0570000  80.6060000  30.2020000  86.0950000  79.1100000  29.0090000
  86.7850000  78.2950000  29.4320000  85.6970000  78.6350000  28.1300000
  86.9650000  80.3760000  28.4760000  86.2510000  80.9780000  27.8800000
  87.3990000  81.0080000  29.2400000  88.1330000  80.0250000  27.4870000
  88.9490000  79.5270000  27.9270000  87.5930000  79.2530000  26.8800000
  88.7260000  81.2320000  26.6410000  88.7620000  82.1080000  27.2520000
  89.7250000  80.8970000  26.4190000  87.9870000  81.5210000  25.3590000
  87.8860000  80.5820000  24.7650000  86.9690000  81.7490000  25.5660000
  88.6410000  82.5850000  24.4150000  89.7240000  82.4320000  24.3020000
  88.0790000  82.6110000  23.5210000  88.5250000  84.0400000  24.9300000
  88.9190000  84.1530000  25.9240000  89.1810000  84.5980000  24.3290000
  87.1400000  84.6080000  24.9940000  86.6940000  84.7040000  23.9780000
  86.5190000  83.8840000  25.5270000  87.0940000  85.8790000  25.7450000
  87.1890000  85.7550000  26.7820000  87.9200000  86.5520000  25.3780000
  85.7010000  86.6320000  25.6150000  85.0480000  86.0090000  26.3080000
  85.8470000  87.6010000  26.0670000  84.9360000  86.8850000  24.2930000
  84.7040000  85.9160000  23.7890000  83.9630000  87.3480000  24.5180000
  85.6380000  87.8970000  23.3360000  84.9800000  88.5790000  22.6060000
  87.0010000  87.8220000  23.2850000  87.8040000  88.6530000  22.4550000
  87.9580000  88.0990000  21.5700000  87.1870000  89.5480000  22.1940000
  89.0440000  89.2140000  23.0710000  88.6720000  89.8800000  23.8330000
  89.8350000  90.1370000  22.1290000  89.3670000  91.1040000  22.0210000
  90.7580000  90.2870000  22.6680000  90.0890000  89.6170000  20.7820000
  89.1310000  89.8000000  19.5470000  88.7370000  88.3540000  19.3470000
  89.6500000  87.2500000  19.0550000  89.1980000  86.4840000  18.4070000
  90.6030000  87.5200000  18.6530000  89.8990000  86.5560000  20.4200000
  90.2020000  87.3460000  21.1670000  89.0340000  86.0200000  20.7140000
  91.0820000  85.5240000  20.6500000  90.7660000  84.6690000  21.7920000
  91.6580000  84.1010000  22.0210000  90.4320000  85.3130000  22.6720000
  89.9760000  83.9650000  21.6320000  91.2280000  84.7340000  19.4320000
  90.2320000  84.1750000  19.2800000  91.5710000  85.4200000  18.5950000
  92.0390000  84.0710000  19.6330000  92.3210000  86.2560000  20.7940000
  92.1920000  86.9490000  21.5640000  92.4920000  86.6550000  19.8020000
  93.0710000  85.5000000  21.0870000  87.9070000  90.4540000  19.9550000
  89.7770000  90.1870000  18.2960000  89.8550000  88.0790000  23.4620000
  90.5780000  88.2210000  24.5850000  90.6400000  89.2430000  25.2890000
  91.3610000  86.9990000  24.9300000  92.0010000  86.7400000  24.0930000
  90.6600000  86.1130000  24.9780000  92.1080000  86.8480000  26.2810000
  91.3400000  86.7060000  27.0990000  92.6600000  87.8210000  26.5860000
  93.0770000  85.6140000  26.2410000  93.8710000  85.7910000  25.5320000
  92.3430000  84.8140000  26.0220000  93.8150000  85.2950000  27.5960000
  93.0090000  85.1030000  28.3080000  94.3300000  86.1960000  27.9780000
  94.7830000  84.1720000  27.3360000  95.6010000  84.4250000  26.7280000
  94.3410000  83.3410000  26.8230000  95.3380000  83.6470000  28.6710000
  95.9390000  84.4220000  29.1950000  96.0340000  82.7770000  28.4210000
  94.2140000  83.1390000  29.6890000  93.7180000  83.9880000  30.0460000
  94.6720000  82.6030000  30.6090000  93.2240000  82.1490000  29.0400000
  93.6630000  81.4650000  28.2610000  91.9310000  82.0980000  29.3060000
  91.2420000  81.3890000  28.8390000  91.1850000  82.8580000  30.3170000
  91.0210000  83.9140000  29.9390000  91.7070000  83.1230000  31.2740000
  89.7900000  82.2510000  30.6610000  89.9450000  81.2180000  30.9880000
  89.1920000  82.1570000  29.7650000  89.0400000  82.9050000  31.8320000
  89.7520000  83.1330000  32.6660000  88.3380000  82.1370000  32.1980000
  88.1390000  84.0290000  31.4240000  88.6200000  84.7240000  30.7270000
  87.9430000  84.5130000  32.3540000  86.8120000  83.5320000  30.7600000
  86.5350000  82.5890000  31.2220000  87.0170000  83.4120000  29.7350000
  85.5520000  84.4110000  30.8880000  85.9810000  85.4030000  30.6050000
  85.2550000  84.4540000  31.9220000  84.4080000  84.0700000  29.9220000
  83.7200000  84.8870000  30.0420000  83.9120000  83.1520000  30.2690000
  84.6030000  83.9980000  28.4110000  85.0810000  83.0490000  28.1720000
  85.2900000  84.8090000  28.0010000  83.6680000  84.0210000  27.8640000
  37.1140000  32.6380000  28.3650000  36.1890000  32.3490000  27.9220000
  37.3810000  33.6810000  28.1830000  36.9630000  32.5790000  29.4300000
  38.3040000  31.6860000  28.0190000  39.2220000  32.1600000  28.4160000
  38.0930000  30.7020000  28.4140000  38.6310000  31.5160000  26.5060000
  38.9790000  32.4930000  26.0460000  39.2800000  30.6810000  26.3290000
  37.4130000  30.9520000  25.7380000  37.1740000  29.9430000  26.1660000
  36.5850000  31.5840000  25.9850000  37.5710000  30.7250000  24.1730000
  38.2600000  29.9480000  23.9740000  36.6080000  30.4200000  23.7800000
  38.0620000  31.9770000  23.2860000  37.3490000  32.8410000  23.3150000
  39.1120000  32.2810000  23.5800000  38.0990000  31.4850000  21.7870000
  38.5410000  30.5840000  21.6160000  37.0340000  31.2880000  21.4260000
  38.6940000  32.5380000  20.7840000  39.7630000  32.4770000  20.9870000
  38.4360000  32.2390000  19.7490000  38.2300000  34.0250000  20.8690000
  38.3330000  34.3140000  21.9190000  38.8050000  34.6920000  20.1700000
  36.7310000  34.1260000  20.4820000  36.5810000  33.6470000  19.5050000
  36.0640000  33.5020000  21.2110000  36.2380000  35.6330000  20.5640000
  36.3220000  36.1050000  21.5660000  36.9650000  36.2470000  19.9410000
  34.7930000  35.7620000  20.0760000  34.2850000  34.9750000  20.5400000
  34.4170000  36.6680000  20.4870000  34.5940000  35.5880000  18.5210000
  35.0750000  36.3830000  18.0110000  35.0290000  34.6410000  18.2640000
  33.0930000  35.6040000  18.0790000  32.6380000  36.5250000  18.5080000
  32.9580000  35.5610000  16.9890000  32.1920000  34.4690000  18.6380000
  32.2970000  34.2970000  19.6970000  31.1050000  34.6120000  18.3380000
  32.6080000  33.2410000  17.9020000  31.9250000  32.7440000  17.0580000
  33.6750000  32.6150000  18.4520000  34.1690000  31.2480000  17.9610000
  34.7990000  30.8700000  18.8370000  33.3870000  30.5130000  17.9330000
  35.0600000  31.2900000  16.7490000  34.3870000  31.7590000  15.9960000
  35.6360000  29.9400000  16.2960000  34.8230000  29.4020000  15.8940000
  36.3930000  30.0930000  15.5210000  36.2260000  29.1780000  17.3590000
  36.6100000  27.6110000  17.1660000  38.1520000  27.5870000  16.7170000
  39.1420000  27.5910000  17.7440000  40.0810000  27.8670000  17.2360000
  38.7650000  28.3280000  18.5240000  39.3420000  26.1500000  18.2090000
  40.3070000  26.1360000  18.7570000  38.5080000  25.8440000  18.8870000
  39.4650000  25.0360000  17.1530000  39.8970000  23.7940000  17.8240000
  40.8210000  24.1180000  18.3020000  39.1820000  23.4870000  18.6470000
  40.0710000  22.9590000  17.1100000  38.2150000  24.7700000  16.4870000
  37.4700000  24.5540000  17.2400000  37.7820000  25.6260000  15.9280000
  38.4000000  23.8510000  15.9830000  40.5410000  25.3130000  16.1570000
  40.5740000  24.5580000  15.3970000  41.5060000  25.3410000  16.6640000
  40.3090000  26.2190000  15.7960000  36.4370000  26.9750000  18.4880000
  35.8520000  26.9370000  16.0790000  36.2230000  32.1740000  17.0710000
  36.8420000  32.7770000  16.1130000  36.3310000  32.9770000  14.9900000
  38.1040000  33.3990000  16.5530000  38.8070000  32.6610000  16.9240000
  37.7130000  33.9560000  17.4370000  38.6360000  34.5530000  15.6510000
  37.8290000  35.2370000  15.5350000  38.6570000  33.9740000  14.6880000
  40.0640000  35.1980000  15.7790000  40.8420000  34.6610000  15.2360000
  40.5340000  35.2800000  16.7860000  40.1340000  36.5760000  15.2390000
  39.7300000  36.4730000  14.2300000  41.1130000  36.9450000  15.0240000
  39.3560000  37.5150000  16.2130000  39.8740000  37.3950000  17.2070000
  38.3570000  37.2310000  16.3850000  39.3630000  38.9760000  15.6460000
  39.0060000  38.9370000  14.6000000  40.3740000  39.3140000  15.5190000
  38.4050000  39.9670000  16.3370000  38.5190000  40.9900000  15.8810000
  38.5830000  39.9530000  17.4100000  36.9990000  39.6350000  15.9550000
  36.9330000  39.1430000  14.9890000  35.9820000  39.8940000  16.7030000
  35.0100000  39.4810000  16.3760000  35.9510000  40.6880000  18.0450000
  35.2780000  41.5610000  17.9690000  36.9360000  41.1340000  18.2030000
  35.5660000  39.8420000  19.2880000  35.9730000  38.8070000  19.2500000
  34.4700000  39.7440000  19.3930000  36.1080000  40.5700000  20.5810000
  35.4980000  41.4640000  20.8290000  37.1040000  40.9770000  20.4730000
  36.1990000  39.6370000  21.8230000  36.8780000  38.8160000  21.6180000
  35.1980000  39.3130000  22.1470000  36.8580000  40.2720000  23.0420000
  36.5270000  41.2820000  23.2700000  37.9460000  40.3210000  23.0180000
  36.5750000  39.4410000  24.2950000  35.5010000  39.0860000  24.2100000
  36.6170000  39.9660000  25.2200000  37.5180000  38.1900000  24.5220000
  38.5110000  38.5100000  24.6960000  37.4340000  37.6410000  23.6100000
  36.9840000  37.1890000  25.5480000  37.2210000  36.1750000  25.2310000
  35.8870000  37.1510000  25.6080000  37.3730000  37.3890000  26.5320000
  28.6760000 126.3890000  38.0890000  27.6610000 126.2870000  38.5380000
  29.4610000 126.0550000  38.7870000  28.6580000 125.7590000  37.2290000
  29.0190000 127.8390000  37.5730000  28.9190000 128.5380000  38.4150000
  30.0970000 127.8490000  37.2430000  28.1130000 128.2580000  36.4090000
  27.0790000 128.1400000  36.6790000  28.2310000 129.3120000  36.2150000
  28.2840000 127.4790000  35.1900000  27.9010000 126.4460000  35.2810000
  27.5400000 127.9560000  34.6030000  29.5510000 127.5680000  34.3880000
  29.8280000 128.5550000  34.3770000  30.4170000 127.0220000  34.8190000
  29.4660000 127.0950000  32.9210000  29.1320000 126.0700000  32.8980000
  28.6820000 127.6550000  32.4070000  30.7120000 127.2310000  31.9760000
  31.3340000 128.0810000  32.2440000  31.2290000 126.2940000  32.1240000
  30.3900000 127.2540000  30.4680000  29.6170000 128.0090000  30.3540000
  31.1830000 127.6340000  29.8770000  29.8880000 125.9160000  29.9470000
  30.7270000 125.1750000  29.9930000  29.0510000 125.6380000  30.5180000
  29.5140000 126.0420000  28.4440000  28.9370000 126.9300000  28.2880000
  30.4540000 126.0470000  27.8140000  28.7410000 124.8020000  27.9010000
  28.0180000 124.5370000  28.6420000  28.2430000 125.1320000  27.0060000
  29.5670000 123.5020000  27.6210000  30.4140000 123.7500000  27.0070000
  29.9480000 123.2830000  28.6290000  28.6840000 122.2680000  27.2030000
  27.8620000 122.1550000  27.9540000  28.2960000 122.5440000  26.2170000
  29.3610000 120.9000000  27.0680000  29.9370000 120.6560000  27.9760000
  28.6000000 120.2030000  26.7970000  30.2190000 120.7070000  25.7600000
  30.7830000 121.6360000  25.6340000  30.9280000 119.8230000  25.9400000
  29.2910000 120.6390000  24.5600000  28.5900000 119.6790000  24.3060000
  29.3830000 121.7460000  23.8120000  28.9700000 121.7900000  22.4100000
  28.9500000 120.7420000  21.9850000  27.9340000 122.2240000  22.3620000
  30.0360000 122.5440000  21.4630000  29.6740000 122.7170000  20.5040000
  31.4900000 121.8440000  21.3770000  31.3720000 120.9030000  21.0110000
  32.0950000 122.3960000  20.6870000  32.0420000 121.7520000  22.7240000
  33.2670000 120.7350000  22.9460000  34.2790000 121.6080000  23.8720000
  35.3350000 122.4800000  23.4390000  36.0200000 122.7330000  24.2780000
  35.8680000 122.1200000  22.5640000  34.6730000 123.8120000  22.9880000
  35.3990000 124.4510000  22.4790000  33.8550000 123.5470000  22.2730000
  33.9770000 124.7210000  23.9230000  34.8000000 125.0720000  25.1660000
  34.6260000 126.0850000  25.4630000  34.5350000 124.3520000  25.9840000
  35.8520000 124.9840000  24.8450000  33.6970000 125.9940000  23.1730000
  33.1560000 125.6470000  22.2650000  33.0330000 126.6090000  23.7680000
  34.6780000 126.5620000  23.0340000  32.6680000 124.1830000  24.3120000
  32.1930000 124.9520000  24.8680000  32.9140000 123.3070000  24.9250000
  31.9810000 123.9330000  23.5070000  32.7590000 119.6050000  23.6910000
  33.9180000 120.4600000  21.6300000  30.2840000 123.8450000  22.0500000
  29.4680000 124.8250000  21.7530000  28.6230000 124.8220000  20.9040000
  29.9390000 126.0810000  22.4730000  30.6520000 126.5590000  21.8090000
  30.4850000 125.7050000  23.4000000  28.8000000 127.0450000  22.8530000
  28.0520000 126.4150000  23.2920000  28.2690000 127.4590000  21.9730000
  29.3130000 128.0900000  23.8160000  28.5210000 128.8230000  23.9110000
  30.2070000 128.4830000  23.2820000  29.6600000 127.6300000  25.2540000
  30.1740000 126.6390000  25.2270000  28.7800000 127.3570000  25.7580000
  30.4970000 128.7060000  26.0200000  31.5080000 128.6870000  25.5090000
  30.7080000 128.2870000  27.0210000  29.9640000 130.1860000  26.2850000
  29.6640000 130.6410000  25.3770000  30.8680000 130.7950000  26.5130000
  28.7880000 130.2600000  27.2590000  28.5050000 131.2910000  27.3170000
  28.9770000 129.9070000  28.2510000  27.5590000 129.4560000  26.7910000
  27.6100000 129.2060000  25.7230000  26.5790000 129.1270000  27.6160000
  25.8150000 128.6840000  27.1160000  26.4440000 129.2720000  29.1100000
  26.1290000 130.2940000  29.2620000  27.4740000 129.1330000  29.4780000
  25.4070000 128.3880000  29.7710000  25.4980000 127.3880000  29.4230000
  24.3810000 128.7710000  29.5210000  25.4350000 128.4820000  31.3570000
  26.4600000 128.2860000  31.6610000  24.8560000 127.7340000  31.8180000
  25.0780000 129.8830000  31.9680000  24.0250000 130.0140000  31.7500000
  25.6370000 130.6690000  31.4650000  25.2390000 129.8930000  33.5070000
  26.2220000 129.8530000  33.7780000  24.5340000 129.0210000  33.9300000
  24.4870000 131.0750000  34.0920000  23.4230000 130.9420000  33.8610000
  24.7660000 131.8780000  33.5300000  24.7220000 131.5670000  35.5750000
  25.7740000 131.7970000  35.7280000  24.5180000 130.7980000  36.2070000
  23.8360000 132.7110000  36.0540000  22.8360000 132.4270000  36.2750000
  23.8130000 133.4170000  35.1520000  24.3570000 133.0720000  36.8950000
 126.8030000  25.8440000  27.7040000 127.5560000  25.4850000  27.0920000
 127.1850000  26.1650000  28.6660000 126.3420000  26.7060000  27.1990000
 125.6950000  24.7560000  27.8800000 125.0080000  25.1450000  28.5880000
 125.1510000  24.5580000  26.9170000 126.1740000  23.4100000  28.4250000
 126.8390000  23.5540000  29.2110000 125.2520000  22.7750000  28.7900000
 126.8650000  22.5780000  27.4090000 126.1460000  22.3630000  26.5940000
 127.7250000  23.0720000  26.9880000 127.3840000  21.2550000  28.0610000
 128.0470000  21.4540000  28.9490000 126.5520000  20.6840000  28.4390000
 128.2140000  20.4080000  26.9600000 128.2050000  19.3950000  27.3450000
 127.6380000  20.3180000  26.0550000 129.5370000  21.0380000  26.6820000
 129.5170000  22.0470000  26.3680000 130.1050000  21.1400000  27.6170000
 130.4730000  20.2460000  25.7710000 130.6750000  19.2500000  26.1740000
 129.9950000  20.0890000  24.7990000 131.8800000  20.8360000  25.5410000
 132.4470000  20.2300000  24.8140000 131.7390000  21.8500000  25.2500000
 132.7030000  20.8270000  26.8530000 132.1180000  21.3700000  27.6040000
 132.8720000  19.7480000  26.9880000 134.0300000  21.4940000  26.7200000
 134.5720000  21.1600000  25.8780000 133.8120000  22.5790000  26.6770000
 134.8690000  21.2200000  28.0340000 135.4940000  22.0970000  28.2030000
 134.1140000  21.1460000  28.8220000 135.7970000  20.0280000  27.9990000
 136.1300000  19.8450000  29.0640000 135.2450000  19.1180000  27.6540000
 136.9620000  20.1950000  27.1080000 136.6910000  20.5270000  26.1180000
 137.4650000  21.0500000  27.6940000 137.8650000  18.9860000  27.0460000
 137.9940000  18.5530000  28.0500000 137.3860000  18.1580000  26.4850000
 139.1550000  19.3070000  26.4930000 140.0630000  19.5650000  27.2190000
 139.1840000  19.1550000  25.1680000 140.2860000  19.5270000  24.3560000
 140.0050000  20.1370000  23.5120000 140.9410000  20.1720000  24.9650000
 141.0370000  18.2280000  23.8120000 141.0220000  17.4410000  24.5560000
 142.4920000  18.5690000  23.6710000 142.6890000  19.0760000  24.6350000
 143.0590000  17.6590000  23.6890000 142.7360000  19.3920000  22.4850000
 143.7020000  18.9500000  21.2950000 142.9810000  19.5750000  20.0300000
 141.6260000  19.3270000  19.6140000 141.7150000  19.6720000  18.5580000
 141.3850000  18.2480000  19.6650000 140.5780000  20.0980000  20.4250000
 139.6050000  19.6970000  20.0450000 140.6690000  19.8880000  21.4890000
 140.5100000  21.5860000  20.2410000 139.5330000  22.0670000  21.2580000
 138.6340000  21.4980000  21.0690000 140.0380000  22.0020000  22.1200000
 139.1970000  23.0590000  21.1200000 141.8260000  22.3070000  20.3240000
 142.2720000  22.1040000  21.3250000 142.4400000  21.9210000  19.4410000
 141.6020000  23.4160000  20.2010000 139.9060000  21.9250000  18.9300000
 138.8800000  21.5160000  18.9540000 140.4200000  21.4600000  18.0860000
 139.8400000  22.9770000  18.8820000 144.9520000  19.6630000  21.3940000
 143.6830000  17.4920000  21.1770000 140.3380000  17.8740000  22.6180000
 139.8420000  16.6370000  22.4970000 139.8250000  15.8990000  23.4040000
 139.0630000  16.4420000  21.2200000 139.6580000  16.7410000  20.3900000
 138.1740000  17.1630000  21.1980000 138.6880000  14.8490000  21.0240000
 138.1780000  14.3910000  21.8590000 139.6150000  14.3130000  20.9470000
 137.8360000  14.7300000  19.7490000 137.4640000  13.6720000  19.7450000
 138.4240000  14.9290000  18.7940000 136.5980000  15.6480000  19.6530000
 136.9200000  16.7140000  19.3540000 136.1920000  15.6650000  20.6460000
 135.4070000  15.4130000  18.6630000 135.9720000  15.5090000  17.7380000
 134.6130000  16.1290000  18.7840000 134.8070000  13.9860000  18.8060000
 135.5160000  13.2560000  18.4410000 133.9310000  13.9690000  18.1170000
 134.3320000  13.5480000  20.2250000 133.5860000  14.2940000  20.3910000
 135.1560000  13.4250000  21.0080000 133.6250000  12.2130000  19.9570000
 133.0120000  12.2310000  19.0160000 133.8110000  11.0720000  20.5730000
 133.4680000  10.1490000  20.0730000 134.5790000  10.9060000  21.7950000
 134.8820000  11.8680000  22.1650000 135.4380000  10.3050000  21.5150000
 133.7050000  10.2870000  22.8530000 133.2870000   9.3420000  22.5000000
 132.8490000  10.9460000  22.9330000 134.3430000  10.2410000  24.2760000
 134.8460000  11.2040000  24.5470000 135.0520000   9.3990000  24.1930000
 133.2550000   9.8770000  25.3380000 133.7410000   9.4510000  26.2830000
 132.5660000   9.2110000  24.8870000 132.4260000  11.1070000  25.8270000
 131.7710000  11.4440000  25.1110000 133.1600000  11.9350000  25.9330000
 131.5380000  10.7780000  27.0480000 132.1530000  10.8560000  27.9550000
 131.0100000   9.7520000  26.9170000 130.4210000  11.6950000  27.1930000
 129.6150000  11.5590000  26.4190000 130.7900000  12.7140000  27.1680000
 129.7690000  11.3580000  28.5880000 130.0950000  10.4040000  28.9410000
 128.6950000  11.4630000  28.5790000 130.1600000  12.0060000  29.4280000
 127.8400000 109.4930000  34.1480000 127.4610000 110.3810000  34.6570000
 127.5350000 108.5740000  34.7550000 127.3630000 109.3910000  33.1720000
 129.4010000 109.4870000  33.9560000 129.7310000 110.3440000  33.3700000
 129.8790000 109.5310000  34.9600000 129.9050000 108.2630000  33.1820000
 129.8560000 107.4210000  33.9150000 129.1870000 108.1160000  32.3790000
 131.3460000 108.4010000  32.6570000 131.4400000 109.2500000  32.0010000
 132.1110000 108.5400000  33.4010000 131.6510000 107.1670000  31.8070000
 131.7290000 106.2870000  32.4070000 130.8590000 107.0360000  31.0770000
 132.9260000 107.2770000  30.9330000 132.7640000 108.0110000  30.1410000
 133.7470000 107.7430000  31.5680000 133.4900000 105.9740000  30.2880000
 134.4840000 106.2980000  29.9180000 133.7110000 105.2540000  31.0370000
 132.6410000 105.2320000  29.2550000 131.7820000 104.8720000  29.7530000
 132.3770000 106.0110000  28.5420000 133.3490000 104.0820000  28.5300000
 134.1630000 104.4980000  27.8880000 133.7980000 103.4340000  29.3250000
 132.2960000 103.2880000  27.7380000 131.4610000 102.9320000  28.4260000
 131.8950000 104.0020000  26.9960000 132.9430000 102.0690000  27.0810000
 133.6940000 101.6110000  27.7670000 132.1920000 101.3340000  26.9310000
 133.5140000 102.3650000  25.7040000 132.8280000 102.9680000  25.1490000
 134.4490000 103.0110000  25.8110000 133.8500000 101.1880000  24.8790000
 133.1060000 100.4290000  24.9670000 133.8000000 101.5690000  23.8520000
 135.2360000 100.4890000  25.1650000 135.5530000 100.4690000  26.1960000
 135.1000000  99.4170000  24.8550000 136.3880000 101.1240000  24.3440000
 136.6430000 102.1830000  24.6340000 137.4030000 100.5620000  24.5100000
 136.1050000 101.0960000  22.8580000 135.2560000 100.3320000  22.3760000
 136.8420000 101.9520000  22.1320000 136.5060000 101.9470000  20.7280000
 137.4280000 102.1470000  20.2540000 136.1890000 100.9550000  20.3250000
 135.6370000 103.1870000  20.4270000 135.3560000 103.1160000  19.3960000
 136.5160000 104.4610000  20.6020000 135.8500000 105.3700000  20.6080000
 137.0980000 104.3890000  21.5480000 137.4150000 104.6070000  19.4740000
 137.0200000 105.4630000  18.2120000 135.8840000 104.5910000  17.5930000
 136.2390000 103.2490000  17.1030000 136.8880000 103.3770000  16.1910000
 136.6830000 102.6820000  17.9610000 134.9720000 102.4160000  16.7170000
 134.2360000 102.6910000  17.4290000 134.4670000 102.8210000  15.8250000
 135.1620000 100.9630000  16.5720000 136.3320000 100.6000000  15.6530000
 136.3890000  99.5200000  15.6140000 136.3720000 101.1890000  14.7730000
 137.2490000 100.7870000  16.1560000 135.4380000 100.2960000  17.9050000
 136.4400000 100.5400000  18.1920000 134.8160000 100.6290000  18.7190000
 135.3380000  99.2210000  17.7970000 133.9530000 100.4370000  15.9920000
 133.0900000 100.2510000  16.6260000 134.1950000  99.4820000  15.6110000
 133.6190000 101.1400000  15.1710000 136.4220000 106.6640000  18.7790000
 138.1750000 105.5850000  17.3380000 134.4810000 103.2730000  21.2790000
 133.3510000 102.6870000  20.8360000 133.1400000 102.0660000  19.8020000
 132.2800000 102.7710000  21.9280000 132.7850000 103.2010000  22.8480000
 132.0330000 101.7580000  22.1860000 131.0440000 103.6230000  21.6000000
 130.5490000 103.0630000  20.8330000 131.2150000 104.6200000  21.2830000
 130.0350000 103.7160000  22.7180000 129.2460000 104.2870000  22.3850000
 130.3700000 104.3490000  23.5990000 129.4870000 102.3960000  23.1820000
 130.3580000 101.8380000  23.4630000 128.9640000 101.9120000  22.3520000
 128.5410000 102.4800000  24.3520000 128.1290000 101.4820000  24.4850000
 127.6660000 103.0890000  24.1000000 129.1680000 103.1320000  25.5680000
 128.9580000 104.1930000  25.5770000 130.2270000 102.9150000  25.5310000
 128.5520000 102.6310000  26.8690000 129.0500000 103.2010000  27.7230000
 128.8740000 101.6060000  26.9810000 127.0280000 102.8010000  27.0170000
 126.6440000 103.7420000  26.6980000 126.2070000 101.8820000  27.5480000
 125.1660000 102.2420000  27.7260000 126.4800000 100.3930000  27.7750000
 127.5170000 100.1770000  27.4580000 125.7480000  99.8000000  27.1730000
 126.3470000  99.9320000  29.1880000 126.5130000  98.8750000  29.1210000
 125.4110000 100.2410000  29.6440000 127.4560000 100.4850000  30.2040000
 128.4070000 100.3720000  29.7370000 127.5370000  99.8950000  31.1180000
 127.2680000 101.9430000  30.7410000 126.1680000 102.1270000  30.9090000
 127.5810000 102.5870000  29.9530000 128.1360000 102.3290000  31.9510000
 127.9990000 101.6110000  32.8290000 127.8910000 103.4100000  32.2190000
 129.6830000 102.2390000  31.7200000 129.8900000 102.6870000  30.7190000
 129.9630000 101.1660000  31.6180000 130.6400000 102.8050000  32.8110000
 130.4180000 102.1730000  33.6590000 130.3300000 103.8780000  33.0180000
 132.0460000 102.8020000  32.2550000 132.0250000 103.2960000  31.2480000
 132.4050000 101.8330000  32.0870000 132.7650000 103.2700000  32.9360000
  47.5670000  56.0100000  30.9590000  48.2920000  56.7310000  31.2820000
  46.5570000  56.5200000  30.8130000  47.7300000  55.3960000  30.0240000
  47.4090000  54.9520000  32.0780000  48.3580000  54.6540000  32.4110000
  46.9370000  55.4210000  32.9640000  46.5710000  53.7740000  31.7470000
  46.8350000  53.3820000  30.7880000  46.8320000  52.9760000  32.4560000
  45.0400000  54.1880000  31.9470000  45.0090000  54.6300000  32.9310000
  44.8270000  54.9000000  31.1900000  44.0550000  53.0140000  31.8700000
  44.1550000  52.5930000  30.8620000  44.3440000  52.2430000  32.5650000
  42.6100000  53.5270000  32.1420000  42.6690000  54.0370000  33.1350000
  42.3020000  54.2630000  31.4320000  41.5510000  52.4580000  32.2780000
  41.7120000  51.9120000  33.1910000  40.6500000  53.0250000  32.4640000
  41.3810000  51.4130000  31.1460000  42.3250000  50.8690000  30.9520000
  40.6420000  50.6910000  31.6100000  40.8120000  52.1690000  29.8670000
  39.7610000  51.9720000  29.9090000  40.9580000  53.2040000  29.9110000
  41.3400000  51.6390000  28.5240000  41.0980000  50.5820000  28.5720000
  40.7450000  52.0930000  27.7480000  42.8310000  51.8220000  28.1580000
  43.4560000  51.3810000  29.0110000  43.0080000  51.2150000  27.2000000
  43.3140000  53.2690000  27.9400000  42.6880000  53.6300000  27.1280000
  43.1670000  53.8750000  28.7610000  44.7690000  53.3040000  27.6050000
  45.2890000  52.7420000  28.4430000  44.8730000  52.6980000  26.6940000
  45.4740000  54.6270000  27.5140000  45.6180000  55.1250000  28.4380000
  46.5230000  54.5660000  27.1520000  44.6790000  55.5380000  26.5520000
  43.5750000  55.4880000  26.6610000  44.9070000  56.5830000  26.6740000
  44.9800000  55.1830000  25.1240000  45.9890000  54.5600000  24.7860000
  44.1180000  55.6980000  24.1530000  44.5670000  55.4460000  22.8050000
  44.1890000  56.2390000  22.1510000  45.6790000  55.4730000  22.8340000
  43.9560000  54.1530000  22.2740000  44.3670000  53.2410000  22.8020000
  44.1430000  54.0230000  20.7400000  45.1900000  53.6090000  20.5900000
  43.2570000  53.4610000  20.3750000  44.1150000  55.3630000  20.1850000
  42.8720000  55.9880000  19.4550000  41.8060000  54.8320000  19.1800000
  40.6220000  54.7640000  19.9640000  40.2760000  53.7370000  19.8550000
  40.6980000  54.9900000  21.0770000  39.5530000  55.8470000  19.4630000
  38.5740000  55.5590000  19.9330000  39.9840000  56.7330000  19.8580000
  39.2680000  55.8890000  18.0250000  39.2690000  54.5260000  17.3560000
  38.4890000  53.8800000  17.8140000  39.1360000  54.5880000  16.3260000
  40.1900000  53.9970000  17.6430000  37.9120000  56.4020000  17.9340000
  37.7000000  56.5480000  16.8670000  37.2020000  55.6040000  18.2500000
  37.8980000  57.2680000  18.5190000  40.1910000  56.8900000  17.3700000
  40.2830000  57.7720000  18.0220000  39.8640000  57.1300000  16.3120000
  41.2390000  56.5020000  17.2800000  42.3580000  57.0360000  20.3640000
  43.3310000  56.4000000  18.1420000  42.4990000  54.0950000  22.6000000
  41.8770000  52.8890000  22.5730000  42.2840000  52.0580000  21.8060000
  40.6750000  52.6590000  23.4150000  40.0140000  52.1210000  22.7930000
  40.2330000  53.6220000  23.6730000  40.9930000  51.8450000  24.6820000
  40.2120000  51.9310000  25.4550000  41.9830000  52.1710000  25.0440000
  40.9950000  50.3240000  24.2940000  41.8580000  50.1450000  23.6310000
  40.1110000  50.0690000  23.7200000  41.0380000  49.5600000  25.5260000
  40.2890000  50.0770000  26.1550000  42.0290000  49.6800000  25.9630000
  40.7570000  48.0700000  25.2460000  41.3800000  47.6730000  24.4440000
  39.8030000  47.9940000  24.7620000  40.7290000  47.1670000  26.4750000
  40.3340000  46.0950000  26.2770000  40.0430000  47.5160000  27.2050000
  42.0930000  47.0020000  27.1640000  42.2720000  47.9990000  27.5860000
  42.8980000  46.8190000  26.4690000  41.9560000  45.9630000  28.2720000
  41.5130000  45.0400000  27.9480000  42.1890000  46.2140000  29.6370000
  42.1320000  45.4250000  30.3980000  42.5840000  47.5440000  30.2270000
  41.8010000  48.1060000  30.6520000  42.9100000  48.2470000  29.4490000
  43.6500000  47.4130000  31.3230000  44.4880000  46.8440000  30.9500000
  43.1600000  46.6730000  32.0030000  44.1560000  48.7370000  31.9250000
  43.3710000  49.3770000  32.3470000  44.5920000  49.3060000  31.1160000
  45.3890000  48.5650000  32.9080000  46.3520000  48.4530000  32.3910000
  45.3080000  47.8130000  33.5910000  45.6320000  49.8520000  33.7670000
  45.8450000  50.6880000  33.0790000  46.5250000  49.6890000  34.3640000
  44.4760000  50.2450000  34.6470000  43.9950000  49.3690000  34.9310000
  43.8720000  50.8840000  34.0150000  44.8380000  51.0980000  35.8430000
  45.5170000  50.5790000  36.4950000  43.9320000  51.2470000  36.4820000
  45.2950000  52.5410000  35.4830000  44.4740000  53.0780000  35.0550000
  46.0310000  52.4300000  34.7310000  45.6240000  53.0710000  36.3270000
 122.4370000 144.5140000  30.6250000 122.9200000 144.6850000  31.6220000
 121.7640000 143.6890000  30.7450000 121.8200000 145.3850000  30.4020000
 123.4580000 144.4070000  29.4980000 124.0840000 145.3550000  29.5150000
 124.0310000 143.5520000  29.5950000 122.7660000 144.3070000  28.0740000
 122.5040000 143.2980000  27.7780000 121.8580000 144.9020000  27.9730000
 123.7430000 144.7990000  26.9400000 123.1460000 144.8160000  26.0090000
 123.9260000 145.9100000  27.1150000 124.9110000 143.9380000  26.7340000
 125.4950000 144.0100000  27.6690000 124.4650000 142.9270000  26.5880000
 125.7350000 144.4180000  25.5320000 125.2500000 144.1220000  24.6230000
 125.8820000 145.4880000  25.4600000 127.1240000 143.6870000  25.4660000
 126.8270000 142.6330000  25.3020000 127.7010000 143.9810000  24.5990000
 127.9340000 143.6660000  26.8530000 127.3400000 143.3380000  27.6510000
 128.8580000 143.0950000  26.9440000 128.3290000 145.1350000  27.2840000
 127.4010000 145.7150000  27.3670000 128.6960000 145.1510000  28.3200000
 129.4040000 145.6990000  26.3510000 130.1650000 144.9650000  26.2680000
 128.8990000 145.8420000  25.3780000 130.1010000 147.0300000  26.7300000
 130.7110000 146.8930000  27.5800000 130.7540000 147.3890000  25.9050000
 129.1830000 148.2280000  26.9550000 128.5690000 148.1190000  27.8860000
 129.7850000 149.0910000  27.2460000 128.3780000 148.5500000  25.7210000
 129.0180000 148.7150000  24.9500000 127.6080000 147.8280000  25.4750000
 127.6740000 149.9390000  25.9680000 128.2200000 150.7230000  26.4500000
 127.5200000 150.3020000  24.8710000 126.2630000 149.7750000  26.5480000
 126.2500000 149.0950000  27.4160000 125.9240000 150.7560000  26.9640000
 125.2670000 149.4060000  25.4410000 124.9220000 150.1940000  24.5650000
 124.7470000 148.1540000  25.6430000 123.5750000 147.7320000  24.8190000
 123.1340000 146.8980000  25.4520000 122.7440000 148.4970000  24.9200000
 123.9400000 147.4490000  23.3590000 123.9750000 148.3610000  22.7750000
 122.9400000 146.3950000  22.7630000 123.1890000 146.1280000  21.7460000
 123.0610000 145.5010000  23.4000000 121.5500000 146.7120000  22.9710000
 120.7870000 147.7820000  22.0300000 119.3700000 147.9090000  22.7020000
 118.2300000 148.4270000  22.0120000 117.3900000 148.6240000  22.7570000
 118.6340000 149.2360000  21.4350000 117.7210000 147.3540000  21.0880000
 116.7680000 147.6380000  20.6820000 118.4610000 147.2120000  20.3660000
 117.4080000 145.9260000  21.6450000 118.5850000 145.2200000  22.0830000
 118.4510000 144.1720000  22.0560000 119.3510000 145.4930000  21.4080000
 118.7420000 145.4970000  23.1320000 116.4120000 145.9130000  22.6670000
 115.5650000 146.4500000  22.3330000 116.1560000 144.9040000  22.9820000
 116.8510000 146.4290000  23.4950000 116.8200000 144.9800000  20.6310000
 115.8900000 145.4350000  20.2990000 116.5680000 144.0880000  21.1970000
 117.4960000 144.7880000  19.8150000 121.5260000 149.0040000  22.2400000
 120.7230000 147.2770000  20.6910000 125.2480000 146.7090000  23.3370000
 126.0390000 146.8340000  22.2270000 125.8420000 147.6800000  21.3880000
 127.0890000 145.7110000  21.9880000 127.1850000 145.5160000  20.9530000
 126.8370000 144.8750000  22.5120000 128.4530000 146.2370000  22.5150000
 128.2350000 146.5400000  23.5010000 128.7480000 147.1810000  22.0020000
 129.6300000 145.2300000  22.5770000 129.8020000 144.7330000  21.5480000
 129.3470000 144.3930000  23.2250000 130.9540000 145.7720000  23.0860000
 130.8780000 146.2660000  24.0330000 131.3720000 146.4360000  22.4380000
 132.1010000 144.6780000  23.2100000 132.0800000 143.9320000  22.4130000
 131.8100000 144.0820000  24.1300000 133.5640000 145.1330000  23.4080000
 133.9540000 145.5750000  22.4590000 134.2130000 144.2880000  23.6500000
 133.8130000 146.1980000  24.4550000 134.8230000 145.9800000  24.9290000
 133.0260000 146.2110000  25.2770000 133.8130000 147.5970000  23.9320000
 133.5620000 147.6520000  22.8800000 133.9700000 148.6680000  24.6910000
 133.8820000 149.6140000  24.2050000 134.3940000 148.8080000  26.1150000
 135.4610000 149.3110000  26.1850000 134.2810000 147.8220000  26.6620000
 133.3300000 149.6880000  26.7710000 132.3270000 149.3430000  26.5550000
 133.4500000 150.7320000  26.4540000 133.3580000 149.6210000  28.2650000
 134.3510000 149.9010000  28.6560000 133.3080000 148.4630000  28.5170000
 132.2870000 150.4580000  28.9270000 131.4190000 150.5360000  28.2090000
 132.4930000 151.4890000  29.1740000 131.8050000 149.7920000  30.2260000
 132.6400000 149.6110000  30.8840000 131.3990000 148.8030000  29.9920000
 130.7160000 150.5900000  30.9800000 131.1620000 151.5370000  31.3190000
 130.5070000 150.0260000  31.9400000 129.4070000 150.9090000  30.2460000
 128.9470000 149.9800000  29.8250000 129.6670000 151.5210000  29.3590000
 128.3630000 151.6070000  31.1430000 127.3070000 151.5200000  30.7010000
 128.6610000 152.6370000  31.2730000 128.3680000 151.0540000  32.0990000
 124.8450000  97.6860000  32.8540000 124.0990000  97.6590000  33.6880000
 125.7780000  98.2440000  33.0190000 125.1790000  96.6920000  32.6670000
 124.2300000  98.3780000  31.5940000 125.0360000  98.6300000  30.8950000
 123.6700000  97.5830000  31.0900000 123.2960000  99.5390000  31.9210000
 122.5460000  99.2490000  32.6450000 123.8290000 100.3990000  32.4330000
 122.6680000 100.0870000  30.5860000 123.3530000  99.8920000  29.7960000
 121.7570000  99.5330000  30.3280000 122.1090000 101.5000000  30.6260000
 121.5440000 101.7500000  29.7120000 121.2920000 101.6230000  31.4030000
 123.2420000 102.5930000  30.8390000 123.6290000 102.4870000  31.9080000
 124.0650000 102.5420000  30.1710000 122.7130000 104.0060000  30.7380000
 122.1030000 104.0670000  29.8080000 122.1200000 104.2570000  31.5760000
 123.7790000 105.1090000  30.6380000 124.2430000 104.9550000  29.6460000
 123.2500000 106.1220000  30.5840000 124.7700000 105.2210000  31.7780000
 124.2100000 105.2050000  32.7250000 125.4370000 104.3550000  31.7290000
 125.5930000 106.5110000  31.8010000 125.0210000 107.3970000  31.8970000
 126.2540000 106.4110000  32.6340000 126.3580000 106.6770000  30.4620000
 125.6420000 106.8480000  29.6860000 126.9050000 107.6360000  30.5670000
 127.2340000 105.5150000  30.0390000 127.8090000 105.1660000  30.8900000
 126.7260000 104.7360000  29.5790000 128.3790000 105.9020000  29.0580000
 129.0890000 106.5750000  29.5250000 128.9760000 105.0670000  28.6830000
 127.9280000 106.4160000  27.7260000 127.4720000 105.5810000  27.1800000
 127.2160000 107.1550000  28.1020000 129.1230000 107.0110000  26.9460000
 129.1960000 108.0160000  27.3250000 130.0780000 106.4090000  27.1320000
 128.8540000 107.1100000  25.4230000 129.2620000 106.4090000  24.5210000
 128.0220000 108.0750000  25.1280000 127.4220000 108.2310000  23.8090000
 127.0140000 109.1980000  23.5980000 128.3270000 108.2390000  23.1880000
 126.3400000 107.1160000  23.6330000 126.8480000 106.1680000  23.7640000
 125.6260000 107.1170000  22.2070000 125.3530000 108.1010000  21.7880000
 126.3480000 106.6900000  21.4570000 124.4010000 106.4240000  22.2290000
 123.5220000 106.4950000  20.8660000 123.0920000 108.0200000  20.8650000
 122.3250000 108.6400000  21.9500000 121.1860000 108.4430000  21.7950000
 122.6400000 108.1870000  22.9180000 122.7280000 110.1210000  21.9050000
 122.4410000 110.5130000  22.9170000 123.8400000 110.2670000  21.8290000
 122.0840000 110.9390000  20.8790000 122.6670000 112.3750000  20.9740000
 123.6790000 112.4390000  20.6020000 121.9790000 113.0380000  20.3650000
 122.5290000 112.6230000  22.0700000 122.2990000 110.4470000  19.4740000
 121.5070000 110.9160000  18.8750000 123.2870000 110.8030000  19.1540000
 122.3210000 109.3340000  19.3080000 120.5600000 111.1240000  20.9750000
 120.0050000 110.2380000  20.6460000 120.1910000 111.9770000  20.3270000
 120.3090000 111.3380000  22.0050000 124.3260000 106.3640000  19.6830000
 122.2810000 105.7560000  21.0180000 125.3180000 107.2990000  24.6300000
 124.8370000 106.2120000  25.1640000 125.2850000 105.1080000  25.1110000
 123.4980000 106.5070000  25.7760000 123.0840000 107.3860000  25.2250000
 123.8360000 106.7230000  26.7660000 122.5290000 105.3260000  25.9090000
 122.2470000 105.1550000  24.8560000 121.6260000 105.7350000  26.4020000
 122.9220000 104.0140000  26.6990000 122.9940000 104.1130000  27.7490000
 124.0020000 103.7930000  26.4080000 121.9770000 102.8120000  26.4260000
 121.6390000 102.8210000  25.4130000 121.0380000 103.1190000  27.0140000
 122.7370000 101.4710000  26.6710000 122.8190000 101.3870000  27.7810000
 123.6970000 101.7170000  26.2950000 122.0590000 100.2600000  26.0050000
 121.9310000 100.5090000  24.9600000 121.0270000 100.1040000  26.3850000
 122.9090000  98.9700000  26.2330000 123.1330000  98.9120000  27.2800000
 123.8420000  99.1600000  25.7000000 122.2450000  97.7790000  25.5430000
 122.6460000  97.4560000  24.5810000 121.3330000  97.0100000  26.1610000
 120.9100000  96.1420000  25.7070000 120.8270000  97.2540000  27.5880000
 119.7120000  97.2260000  27.6360000 120.9470000  98.2540000  27.9960000
 121.4250000  96.2690000  28.6310000 122.5140000  96.4750000  28.7640000
 121.2170000  95.2160000  28.4100000 120.8240000  96.4730000  30.0550000
 119.7480000  96.2920000  29.9750000 121.0230000  97.5490000  30.3870000
 121.2280000  95.4210000  31.1400000 122.3350000  95.2260000  31.0370000
 120.7660000  94.4480000  31.0170000 120.8410000  95.8830000  32.5890000
 119.7790000  96.0430000  32.7090000 121.1490000  96.9380000  32.8420000
 121.2460000  94.7890000  33.6400000 120.6840000  93.8540000  33.3450000
 120.7850000  95.0520000  34.6040000 122.7990000  94.5480000  33.9050000
 122.8730000  94.2010000  34.8970000 123.3810000  95.4430000  33.8150000
 123.5650000  93.5700000  32.9840000 124.6010000  93.7290000  33.2700000
 123.2970000  93.8060000  31.9140000 123.2940000  92.5380000  33.1980000
 124.0550000  50.9200000  32.6900000 124.2670000  49.8940000  32.3490000
 124.7650000  51.2070000  33.5460000 124.3010000  51.5310000  31.8190000
 122.6310000  51.0800000  33.2580000 122.0930000  50.2000000  32.7300000
 122.5840000  50.8350000  34.3370000 121.8580000  52.4620000  32.9310000
 120.9870000  52.6780000  33.5780000 122.6390000  53.2470000  33.0520000
 121.3580000  52.6120000  31.4830000 122.2490000  52.5710000  30.8080000
 120.6550000  51.8310000  31.2070000 120.6430000  53.9670000  31.3630000
 119.6030000  53.9170000  31.7940000 121.1540000  54.7940000  31.9250000
 120.6560000  54.3790000  29.8920000 120.1580000  55.3380000  29.7170000
 121.7230000  54.5380000  29.7250000 120.1290000  53.3860000  28.8090000
 120.2180000  52.4200000  29.1350000 119.0660000  53.5590000  28.5530000
 121.0660000  53.4350000  27.5550000 121.1770000  54.4920000  27.2910000
 122.0220000  53.0040000  27.7270000 120.4690000  52.7740000  26.3420000
 119.4700000  53.1360000  26.2500000 121.1670000  52.8440000  25.4360000
 120.2530000  51.2290000  26.3970000 121.1380000  50.5610000  26.6080000
 119.5770000  51.0650000  27.1940000 119.5800000  50.7340000  25.1250000
 118.7930000  51.4000000  24.9560000 120.2600000  50.8670000  24.2900000
 119.1540000  49.2640000  25.2700000 120.0630000  48.6450000  25.5580000
 118.4260000  49.2810000  26.1280000 118.4620000  48.5870000  24.0740000
 118.0670000  47.7670000  24.5470000 117.6500000  49.1940000  23.7200000
 119.3940000  48.0550000  22.9520000 119.7240000  48.8860000  22.3500000
 120.2730000  47.5980000  23.3500000 118.7390000  47.0570000  22.0390000
 118.5830000  46.1090000  22.5510000 117.7730000  47.4120000  21.7390000
 119.5650000  46.7790000  20.7860000 120.6460000  46.1700000  20.7610000
 118.9500000  47.1620000  19.7040000 119.3990000  46.6970000  18.4340000
 120.4090000  47.0670000  18.2960000 119.4550000  45.6880000  18.4180000
 118.4810000  47.1510000  17.3130000 117.5070000  46.7440000  17.4380000
 118.9950000  46.5800000  15.9320000 118.7910000  45.4430000  15.9930000
 118.4960000  46.9420000  14.9300000 120.4500000  46.7320000  15.8370000
 121.1850000  47.9000000  14.8960000 121.2960000  47.0690000  13.5290000
 122.5210000  46.4630000  13.0840000 122.7410000  46.7360000  12.0550000
 123.3620000  46.8140000  13.7340000 122.3150000  45.0100000  13.2400000
 123.2730000  44.5050000  12.9900000 122.0520000  44.7260000  14.2460000
 121.2380000  44.2710000  12.4820000 121.6190000  42.8170000  12.3340000
 121.8590000  42.4530000  13.3280000 120.8590000  42.2960000  11.8650000
 122.5480000  42.7960000  11.6530000 119.9760000  44.4500000  13.3180000
 120.1530000  44.0610000  14.2910000 119.7910000  45.4730000  13.4420000
 119.1520000  43.9920000  12.7540000 120.9970000  44.8910000  11.1320000
 121.8450000  44.6840000  10.3640000 121.0070000  45.8980000  11.4720000
 119.9630000  44.7290000  10.6670000 120.2240000  48.9990000  14.6580000
 122.5450000  48.1850000  15.4660000 118.4200000  48.6120000  17.1140000
 117.3460000  49.1280000  16.3460000 116.3570000  48.5140000  15.9280000
 117.4750000  50.5660000  16.0080000 117.6290000  50.6010000  14.9300000
 118.4120000  50.8760000  16.4350000 116.3520000  51.4240000  16.5320000
 116.3810000  51.3680000  17.6080000 115.3540000  51.0450000  16.1240000
 116.6370000  52.8640000  16.0270000 116.4480000  52.6340000  14.9610000
 117.6440000  53.2210000  16.2530000 115.6630000  53.9410000  16.5430000
 114.6400000  53.7590000  16.0670000 116.0360000  54.7820000  16.0120000
 115.6900000  54.4630000  17.9790000 115.1400000  55.4070000  17.9330000
 116.7730000  54.6500000  18.2400000 114.9660000  53.4990000  18.9190000
 115.3320000  52.4540000  18.8640000 113.9530000  53.3830000  18.6330000
 114.9910000  54.0130000  20.3230000 114.7090000  54.9960000  20.3680000
 116.0050000  53.9220000  20.7600000 114.1580000  53.1110000  21.2420000
 113.1220000  52.8570000  20.8810000 114.5760000  52.6220000  22.4550000
 113.8540000  51.9900000  23.0160000 115.9330000  52.9270000  23.1110000
 116.4090000  53.7600000  22.5930000 116.4190000  51.9930000  23.1030000
 115.8580000  53.3310000  24.6250000 115.6750000  54.4760000  24.6500000
 116.8080000  52.9830000  25.1280000 114.7010000  52.6030000  25.5290000
 114.7140000  51.5190000  25.2630000 113.7310000  52.9660000  25.2480000
 114.7680000  52.6160000  27.1030000 114.7910000  53.6350000  27.3380000
 115.7080000  52.2110000  27.5130000 113.6690000  51.8810000  27.9550000
 113.8340000  50.8070000  27.9200000 112.7110000  52.1220000  27.5080000
 113.8780000  52.3730000  29.4030000 114.0430000  53.4220000  29.5020000
 114.8300000  51.9660000  29.7000000 112.7020000  51.9700000  30.4070000
 112.8050000  52.4400000  31.3650000 112.6470000  50.8950000  30.5120000
 111.3660000  52.4400000  29.9600000 111.1640000  51.9910000  28.9160000
 111.2440000  53.5300000  29.9590000 110.5510000  52.1710000  30.6160000
 131.9800000  47.1970000  31.1420000 133.0640000  47.2460000  31.1710000
 131.7550000  47.3720000  32.1710000 131.5210000  48.0680000  30.6130000
 131.6390000  45.7450000  30.7830000 132.2280000  45.1330000  31.5050000
 130.6410000  45.4790000  30.9290000 132.0640000  45.2840000  29.3270000
 131.2560000  45.6370000  28.5950000 133.0390000  45.7820000  29.1280000
 132.1740000  43.7370000  29.3120000 132.6990000  43.3980000  30.1910000
 131.2040000  43.3220000  29.2700000 132.8950000  43.1110000  28.0720000
 132.2250000  42.4760000  27.5190000 133.1910000  43.8650000  27.2750000
 134.1990000  42.4030000  28.4340000 134.7410000  43.1520000  29.1040000
 133.9650000  41.5890000  29.0100000 135.1450000  42.0750000  27.2620000
 135.6320000  43.0020000  26.9540000 135.9810000  41.4760000  27.6900000
 134.5200000  41.3120000  26.0920000 133.7030000  41.9590000  25.6720000
 135.2250000  41.1500000  25.2970000 134.0090000  39.8500000  26.3520000
 134.8660000  39.3140000  26.6700000 133.2860000  39.9260000  27.0910000
 133.4760000  39.2840000  25.0540000 132.6270000  39.8510000  24.6010000
 134.1890000  39.1040000  24.2310000 132.8440000  37.9280000  25.4330000
 133.5760000  37.1800000  25.4710000 132.3660000  37.9170000  26.4160000
 131.6890000  37.4350000  24.5090000 130.7710000  37.5950000  25.0520000
 131.5570000  38.1630000  23.7050000 131.7110000  35.9930000  24.0390000
 131.6750000  35.3690000  24.9350000 130.8090000  35.8270000  23.4260000
 133.1010000  35.6080000  23.4790000 133.8540000  35.4980000  24.2890000
 132.9820000  34.6500000  22.9260000 133.7110000  36.6490000  22.4790000
 134.0380000  37.5970000  22.9410000 134.5930000  36.2730000  21.9520000
 132.7860000  36.9850000  21.3330000 132.2830000  36.1150000  20.6500000
 132.4000000  38.2770000  21.2780000 131.4730000  38.8330000  20.3260000
 131.7670000  39.8920000  20.2220000 131.4870000  38.2750000  19.3960000
 129.9360000  38.7610000  20.7820000 129.6810000  37.7230000  20.8040000
 128.9030000  39.3710000  19.8380000 127.9200000  39.2300000  20.2560000
 129.0710000  40.4770000  19.7160000 128.9020000  38.8300000  18.5000000
 129.7720000  39.4920000  17.3030000 128.7000000  39.8990000  16.1600000
 128.4010000  38.9870000  15.0730000 127.9120000  39.5680000  14.2640000
 129.3330000  38.4510000  14.7240000 127.4300000  37.9420000  15.5920000
 127.2180000  37.2400000  14.7920000 127.9480000  37.3110000  16.3630000
 126.0580000  38.3420000  16.0450000 126.1080000  39.1930000  17.2180000
 125.0960000  39.5190000  17.5100000 126.5490000  38.5930000  18.0670000
 126.8400000  40.0720000  17.0930000 125.4020000  38.9280000  14.8390000
 125.4830000  38.3750000  13.9170000 124.3330000  39.0240000  15.0520000
 125.7840000  39.9510000  14.7240000 125.2560000  37.2360000  16.4380000
 125.6390000  36.6680000  17.2620000 125.1730000  36.6930000  15.5540000
 124.2150000  37.6430000  16.5560000 130.3510000  40.6910000  17.8710000
 130.6790000  38.5670000  16.6430000 129.7960000  39.4720000  22.1070000
 128.7080000  39.2770000  22.8690000 127.7940000  38.5920000  22.5580000
 128.8220000  40.0810000  24.1550000 128.5020000  41.1480000  24.0540000
 129.7680000  40.0820000  24.5280000 127.9510000  39.4730000  25.2760000
 127.9020000  38.3770000  25.2290000 126.8830000  39.8610000  25.1240000
 128.2210000  39.9960000  26.7100000 127.5090000  39.5550000  27.4330000
 128.0410000  41.0910000  26.6690000 129.6650000  39.8530000  27.2920000
 130.4080000  40.4210000  26.7300000 129.9640000  38.8300000  27.1010000
 129.7500000  40.0700000  28.7700000 128.7180000  39.8690000  29.1370000
 129.9260000  41.1240000  28.8670000 130.8290000  39.1890000  29.5690000
 131.8020000  39.5520000  29.2100000 130.7000000  38.1690000  29.2160000
 130.8900000  39.1310000  31.1200000 129.9300000  38.6980000  31.3930000
 130.9920000  40.1340000  31.4360000 131.9970000  38.2250000  31.5280000
 132.9360000  38.2250000  30.9800000 131.9180000  37.1670000  32.3340000
 132.8240000  36.5750000  32.6050000 130.7660000  36.8560000  33.1730000
 130.0920000  37.7000000  33.0880000 131.0070000  36.7530000  34.2240000
 130.0150000  35.5950000  32.6970000 130.7180000  34.7240000  32.6690000
 129.5070000  35.7240000  31.7580000 128.8690000  35.2480000  33.6520000
 128.2530000  36.2000000  33.6950000 129.3010000  35.0530000  34.6120000
 127.8740000  34.1130000  33.3480000 128.6360000  33.3360000  33.2490000
 127.4470000  34.1270000  32.3750000 126.8450000  33.7420000  34.3660000
 127.3280000  33.5430000  35.2590000 126.5310000  32.7500000  34.1370000
 125.6190000  34.6960000  34.4650000 125.9860000  35.6590000  34.7870000
 124.8940000  34.3810000  35.1990000 124.8330000  35.0870000  33.1670000
 124.6100000  34.1470000  32.5630000 125.4820000  35.5630000  32.4370000
 123.4890000  35.9170000  33.4170000 123.0080000  35.7420000  34.3460000
 122.7980000  35.5510000  32.6500000 123.6930000  36.9790000  33.2530000
  31.2070000  61.0800000  30.5470000  31.8860000  61.8030000  30.1480000
  31.9260000  60.4410000  31.1730000  30.3540000  61.5060000  31.1140000
  30.6930000  60.1740000  29.3760000  31.5540000  59.4750000  29.2040000
  30.0130000  59.4960000  29.7610000  30.1300000  60.8810000  28.1170000
  29.2860000  60.2500000  27.7480000  29.6870000  61.8820000  28.3820000
  31.2000000  60.9730000  27.0070000  31.8880000  61.7530000  27.2640000
  31.7750000  60.0090000  26.9980000  30.6740000  61.2890000  25.5740000
  29.9470000  60.4660000  25.2680000  30.2080000  62.2940000  25.7210000
  31.7090000  61.5120000  24.4650000  32.5720000  62.1560000  24.7920000
  32.1420000  60.4670000  24.2320000  31.1870000  61.9880000  23.1570000
  30.5200000  62.8650000  23.2840000  32.0250000  62.3440000  22.6350000
  30.4900000  60.9600000  22.2320000  29.8860000  60.3860000  22.9060000
  29.8900000  61.5770000  21.5920000  31.4590000  60.0740000  21.3680000
  32.2030000  60.6640000  20.8750000  31.9800000  59.4900000  22.1140000
  30.6500000  59.1120000  20.5060000  30.1870000  59.7820000  19.7630000
  31.4040000  58.5400000  19.9840000  29.4960000  58.3420000  21.1510000
  29.9350000  57.6450000  21.9240000  28.7780000  59.0430000  21.5980000
  28.6530000  57.4680000  20.1830000  29.3160000  56.9700000  19.5730000
  28.1570000  56.7390000  20.8170000  27.6690000  58.1890000  19.3600000
  27.0570000  58.8360000  19.9660000  28.1710000  58.9070000  18.7960000
  26.6830000  57.3540000  18.5420000  25.9090000  56.8210000  19.0610000
  26.0040000  57.9630000  17.9240000  27.4650000  56.4280000  17.6010000
  28.1520000  55.7610000  18.0490000  26.8400000  55.8250000  16.9540000
  28.3620000  57.2620000  16.7110000  27.9870000  58.0190000  15.8560000
  29.6670000  57.2910000  17.0930000  30.6480000  58.2150000  16.5400000
  31.5360000  58.1990000  17.1770000  30.8640000  57.7880000  15.5420000
  30.2730000  59.7210000  16.3830000  29.6170000  59.7540000  15.5090000
  31.4900000  60.7170000  16.1220000  32.0160000  60.1330000  15.3920000
  31.1250000  61.6390000  15.6810000  32.1720000  60.8690000  17.3520000
  33.7490000  60.3690000  17.6460000  34.5840000  61.3950000  16.7860000
  34.9880000  62.6310000  17.2680000  35.1300000  63.3480000  16.4320000
  34.1770000  62.8960000  17.9500000  36.3190000  62.3550000  18.0230000
  36.6200000  63.2730000  18.4360000  36.1430000  61.6380000  18.7320000
  37.4700000  61.8690000  17.2380000  38.7240000  62.3280000  17.9220000
  38.9650000  63.3850000  17.8220000  38.6140000  61.9660000  18.9630000
  39.5460000  61.7250000  17.5900000  37.5550000  60.3840000  17.1380000
  37.6870000  59.9780000  18.1640000  36.5930000  60.0110000  16.8010000
  38.3640000  60.0690000  16.5090000  37.4620000  62.5840000  15.8490000
  38.1050000  62.0320000  15.1650000  37.7560000  63.6460000  15.8920000
  36.4010000  62.4320000  15.4520000  34.0930000  60.7080000  19.0750000
  33.9660000  58.9880000  17.2160000  29.5220000  60.2900000  17.4990000
  28.8410000  61.4250000  17.2490000  28.6990000  61.9930000  16.2080000
  28.3930000  61.9870000  18.5230000  28.6710000  61.2730000  19.3180000
  27.3610000  62.0770000  18.3030000  29.1270000  63.3570000  18.8870000
  29.0650000  63.8940000  17.9380000  30.1940000  63.0890000  18.9650000
  28.6760000  64.0480000  20.1670000  28.5280000  63.3390000  21.0380000
  27.6740000  64.4620000  19.9380000  29.5520000  65.2920000  20.5190000
  29.4110000  66.0780000  19.7880000  30.5870000  64.9340000  20.4990000
  29.0670000  65.8650000  21.8500000  29.0070000  65.0340000  22.5230000
  28.0800000  66.3540000  21.7920000  30.0580000  66.8480000  22.3920000
  30.2470000  67.6240000  21.6180000  31.0420000  66.2670000  22.6410000
  29.4860000  67.5060000  23.6940000  30.2620000  68.1770000  24.1420000
  29.2770000  66.8030000  24.4970000  28.3010000  68.3790000  23.3570000
  28.2870000  68.8320000  22.3110000  27.2210000  68.5510000  24.0860000
  26.4750000  69.0870000  23.5430000  26.9870000  67.9970000  25.5310000
  27.8940000  67.8350000  26.0550000  26.4410000  67.0970000  25.4140000
  26.1450000  68.9870000  26.3010000  25.0990000  69.0280000  25.9450000
  26.5000000  70.0120000  26.2230000  26.0790000  68.5800000  27.8060000
  27.1090000  68.5130000  28.2550000  25.6010000  67.6120000  27.7660000
  25.1480000  69.5260000  28.6350000  24.1250000  69.6400000  28.3130000
  25.5100000  70.5330000  28.4070000  25.0720000  69.2160000  30.1310000
  24.6580000  68.2130000  30.2320000  24.2940000  69.8930000  30.5990000
  26.4410000  69.2620000  30.8430000  26.9620000  70.2010000  30.5700000
  27.1260000  68.4120000  30.5860000  26.1100000  69.1130000  32.3400000
  25.3930000  68.2180000  32.4370000  25.5450000  69.9890000  32.7720000
  27.2930000  68.7560000  33.2350000  26.9470000  68.3700000  34.1710000
  27.8490000  69.6240000  33.4580000  27.9170000  68.0480000  32.7560000
  61.8120000  33.4150000  35.1820000  62.4220000  33.9440000  35.9320000
  61.7630000  33.9060000  34.1950000  62.3330000  32.4260000  35.1950000
  60.3860000  33.2350000  35.6170000  60.3700000  32.6750000  36.5740000
  59.8500000  34.2200000  35.7580000  59.5450000  32.6380000  34.4100000
  58.5010000  32.7150000  34.6950000  59.6780000  33.2600000  33.5220000
  59.8890000  31.1830000  33.9610000  60.9400000  31.0470000  33.7860000
  59.6960000  30.5270000  34.8470000  59.0480000  30.6580000  32.7810000
  58.0470000  30.5860000  33.1590000  58.9210000  31.4410000  31.9800000
  59.5800000  29.3300000  32.1920000  60.5980000  29.4910000  31.8290000
  59.5810000  28.5450000  32.8840000  58.7360000  28.8990000  30.8850000
  57.7040000  28.9430000  31.0980000  58.8860000  29.5780000  30.0400000
  59.0850000  27.4940000  30.5030000  58.5440000  26.9190000  31.2300000
  58.6210000  27.2790000  29.5340000  60.5950000  27.1710000  30.4510000
  60.9980000  27.8350000  29.7180000  61.1150000  27.4150000  31.3740000
  60.7840000  25.6990000  29.9880000  60.2890000  25.0460000  30.7980000
  60.2180000  25.7010000  29.1150000  62.2040000  25.1930000  29.8660000
  62.7020000  25.1300000  30.8430000  62.1100000  24.1580000  29.4670000
  63.1320000  26.0430000  28.9930000  62.5400000  26.3480000  28.1150000
  63.4140000  26.9280000  29.5580000  64.4160000  25.3740000  28.4220000
  65.1330000  25.2170000  29.2030000  64.2150000  24.3320000  28.2240000
  65.1230000  26.1710000  27.2860000  65.1840000  27.1830000  27.6110000
  66.2020000  25.9170000  27.0440000  64.4240000  26.2850000  25.9220000
  63.3740000  26.6760000  25.9930000  64.8760000  27.1110000  25.3210000
  64.4880000  25.0480000  25.1340000  65.2930000  24.8640000  24.2900000
  63.4500000  24.1550000  25.3670000  63.3170000  23.1250000  24.3670000
  62.9950000  23.5860000  23.4830000  64.2860000  22.5190000  24.3060000
  62.2380000  22.1120000  24.9210000  62.6050000  21.8180000  25.8910000
  62.1050000  20.8640000  23.9770000  63.0660000  20.4480000  23.7160000
  61.5800000  20.0640000  24.5450000  61.3530000  21.1280000  22.6970000
  62.0680000  21.4570000  21.3020000  61.8840000  22.9990000  21.1400000
  60.6960000  23.5420000  20.5980000  60.8900000  23.7550000  19.5300000
  59.9600000  22.6850000  20.6280000  60.1410000  24.7190000  21.4600000
  59.1730000  25.0460000  21.1400000  59.8920000  24.4790000  22.5020000
  60.9410000  25.9870000  21.4510000  60.1530000  27.1320000  21.8910000
  60.6690000  28.0390000  21.6310000  59.2030000  27.1660000  21.3360000
  60.0370000  27.0820000  22.9890000  62.2210000  25.9290000  22.2900000
  61.9510000  25.7810000  23.3240000  62.7900000  25.0430000  21.9790000
  62.8560000  26.8200000  22.0510000  61.3100000  26.3060000  20.0250000
  62.1350000  25.6110000  19.7460000  61.7030000  27.3400000  20.1160000
  60.4310000  26.4580000  19.4060000  63.5090000  21.2840000  21.5360000
  61.4550000  20.6770000  20.2580000  60.9480000  22.7450000  25.0400000
  60.0370000  22.0670000  25.8130000  60.2840000  21.0720000  26.4060000
  58.8040000  22.8700000  26.1030000  58.2040000  22.9230000  25.1700000
  59.1280000  23.8760000  26.3300000  57.9300000  22.3790000  27.2870000
  57.6940000  21.3140000  27.1890000  56.9440000  22.9120000  27.3280000
  58.5580000  22.6660000  28.6500000  58.6780000  23.7210000  28.6260000
  59.5400000  22.1520000  28.7280000  57.6180000  22.2230000  29.7550000
  57.3150000  21.2300000  29.5510000  56.8320000  22.9100000  29.6390000
  58.2380000  22.3460000  31.2160000  58.5980000  23.4010000  31.3280000
  59.0420000  21.6410000  31.3670000  57.1380000  22.0690000  32.2690000
  57.0170000  20.9760000  32.3670000  56.1860000  22.5670000  32.0480000
  57.6920000  22.7110000  33.6000000  56.8400000  22.6190000  34.3220000
  57.8750000  23.7660000  33.5390000  58.8110000  21.8410000  34.1260000
  58.4740000  20.8320000  34.3900000  60.0950000  22.2350000  34.1550000
  60.8470000  21.5530000  34.4180000  60.6100000  23.5740000  33.6910000
  59.8390000  24.3650000  33.7770000  60.9910000  23.4860000  32.6170000
  61.7340000  24.0940000  34.5430000  62.6460000  23.5860000  34.4210000
  61.3350000  23.9790000  35.5590000  62.0880000  25.6490000  34.3100000
  61.1180000  26.2180000  34.2450000  62.5330000  25.6210000  33.3130000
  63.1020000  26.1830000  35.2980000  63.9350000  25.4260000  35.3510000
  62.7450000  26.1400000  36.3170000  63.6530000  27.5600000  34.8380000
  64.0910000  27.4530000  33.8450000  64.5460000  27.7300000  35.4430000
  62.5760000  28.6380000  34.8370000  61.5910000  28.3500000  34.3020000
  62.9450000  29.4670000  34.2290000  62.1390000  29.2080000  36.1850000
  61.4890000  28.5360000  36.8050000  61.4940000  30.0050000  35.8200000
  63.2280000  29.7940000  37.0300000  62.8920000  29.9020000  38.0280000
  63.5860000  30.7380000  36.6870000  64.0650000  29.0770000  37.1000000
  40.9630000  84.9170000  42.8040000  41.5870000  84.4150000  43.5500000
  39.9990000  84.5270000  42.8140000  40.8830000  85.9920000  43.0050000
  41.5960000  84.7080000  41.4330000  42.4880000  85.3450000  41.3190000
  41.9970000  83.6800000  41.4790000  40.7260000  84.7490000  40.1920000
  39.7590000  84.2830000  40.4400000  40.5740000  85.7790000  40.0630000
  41.3560000  84.0240000  38.9530000  42.3620000  84.3900000  38.9520000
  41.4050000  82.9600000  39.0830000  40.8060000  84.4040000  37.5510000
  39.7820000  84.2730000  37.5560000  40.9930000  85.4950000  37.3430000
  41.5540000  83.6460000  36.4200000  42.6780000  83.7530000  36.4100000
  41.2230000  82.6510000  36.6440000  40.8870000  84.1640000  35.1170000
  39.8010000  83.8490000  35.0680000  41.0100000  85.2250000  34.9660000
  41.6000000  83.5670000  33.8890000  42.6880000  83.7950000  33.9070000
  41.4430000  82.5090000  33.9180000  41.0420000  83.9490000  32.4540000
  39.9930000  83.5720000  32.5880000  41.0560000  84.9850000  32.2170000
  41.8480000  83.3180000  31.3440000  42.9250000  83.6060000  31.5180000
  41.7060000  82.2360000  31.5210000  41.3040000  83.6520000  29.9160000
  40.3980000  83.2720000  29.6160000  41.1340000  84.7370000  29.8390000
  42.3390000  83.2270000  28.8550000  43.3360000  83.7040000  29.1460000
  42.4760000  82.1720000  28.9440000  42.0070000  83.7040000  27.4060000
  42.1230000  84.8120000  27.4780000  42.8010000  83.2800000  26.7740000
  40.6680000  83.2810000  26.7730000  39.8950000  83.2940000  27.5130000
  40.3740000  84.1350000  26.0530000  40.7210000  81.9100000  26.1430000
  41.2530000  81.1210000  26.7410000  39.7290000  81.4490000  25.9930000
  41.4790000  81.9270000  24.8260000  40.9790000  82.3020000  23.8430000
  42.8140000  81.6330000  24.9090000  43.6190000  81.5360000  23.7070000
  44.5830000  81.0440000  23.9180000  43.1670000  80.9270000  22.9320000
  43.9450000  82.9390000  23.1570000  42.9140000  83.2790000  22.9260000
  44.8330000  83.0350000  21.9490000  44.8070000  84.0100000  21.5310000
  45.8550000  82.7910000  22.1800000  44.4050000  81.9550000  21.0530000
  45.2080000  80.5710000  20.8370000  44.2670000  79.4790000  21.3950000
  43.2280000  78.9130000  20.4890000  42.4340000  78.4710000  21.0710000
  42.9580000  79.7510000  19.8710000  43.8740000  77.7970000  19.5950000
  44.3580000  78.3540000  18.7490000  44.5860000  77.3260000  20.3050000
  43.0430000  76.7260000  19.1710000  43.6770000  76.1760000  17.9390000
  44.4610000  75.4560000  18.1850000  42.9590000  75.7560000  17.2980000
  44.1740000  76.9190000  17.4100000  43.0120000  75.6310000  20.1140000
  42.6460000  74.7380000  19.6460000  44.0180000  75.5680000  20.5580000
  42.2820000  76.0380000  20.8450000  41.6270000  77.0990000  18.8680000
  41.1110000  77.5350000  19.7540000  41.0790000  76.2460000  18.5550000
  41.6180000  77.8030000  18.0680000  45.4150000  80.2140000  19.4340000
  46.3550000  80.5190000  21.8360000  44.6460000  83.7420000  24.1380000
  43.9780000  84.6610000  24.8880000  42.8100000  84.8400000  24.7980000
  44.8990000  85.5520000  25.6800000  45.9230000  85.4740000  25.1980000
  44.9220000  85.2840000  26.7500000  44.4940000  87.0140000  25.4110000
  43.5210000  87.2160000  25.8040000  44.4130000  87.0990000  24.3240000
  45.5780000  87.9630000  25.9130000  45.3760000  88.9540000  25.4510000
  46.5970000  87.6580000  25.5810000  45.7290000  88.1810000  27.4330000
  44.6790000  88.3080000  27.7610000  46.1970000  89.0970000  27.6770000
  46.3520000  87.0390000  28.2910000  47.3710000  86.8460000  27.8940000
  45.6530000  86.2310000  28.2260000  46.5420000  87.3450000  29.8030000
  45.6470000  87.7900000  30.1490000  47.3170000  88.0620000  29.9810000
  46.8180000  86.0320000  30.5840000  47.6290000  86.2060000  31.3350000
  47.2240000  85.3450000  29.8830000  45.4890000  85.4360000  31.1360000
  44.9240000  84.9820000  30.3820000  45.0090000  85.4840000  32.3590000
  44.0080000  85.0700000  32.4650000  45.6970000  86.0530000  33.6550000
  45.8290000  87.1520000  33.5840000  46.7220000  85.5940000  33.7850000
  44.7210000  85.7170000  34.8890000  44.4180000  84.7100000  34.9190000
  43.8780000  86.4180000  34.7640000  45.3760000  86.1240000  36.1890000
  45.4960000  87.2260000  36.1330000  46.3000000  85.5780000  36.2250000
  44.5710000  85.8920000  37.4770000  44.4140000  84.8120000  37.4990000
  43.5680000  86.4280000  37.4850000  45.3520000  86.2460000  38.7220000
  46.2230000  85.6740000  38.8310000  44.8140000  86.0000000  39.6170000
  45.7540000  87.6640000  38.8130000  44.9900000  88.3580000  38.5070000
  46.5590000  87.7580000  38.0550000  46.2930000  88.0430000  40.2380000
  45.5700000  87.9080000  41.0120000  46.4270000  89.0640000  40.1920000
  47.4800000  87.2890000  40.8890000  47.3460000  86.1430000  40.8680000
  47.7670000  87.6600000  41.8570000  48.3530000  87.4740000  40.3140000
  22.2790000 134.0150000  32.2920000  22.3280000 133.4270000  31.4030000
  23.2610000 134.0850000  32.6830000  21.9720000 135.0520000  31.9820000
  21.1980000 133.4220000  33.2370000  20.2380000 133.1310000  32.8260000
  21.6580000 132.4560000  33.5750000  20.9210000 134.3400000  34.4140000
  21.8080000 134.3880000  35.0430000  20.8270000 135.2820000  34.1190000
  19.7590000 133.8310000  35.3860000  19.8690000 132.8010000  35.7330000
  19.8650000 134.3730000  36.3460000  18.3240000 133.9370000  34.8200000
  18.2420000 133.4800000  33.8240000  17.7950000 133.2400000  35.4910000
  17.8250000 135.4060000  34.8420000  17.7620000 135.6840000  35.9030000
  18.5770000 136.0230000  34.3700000  16.5280000 135.5850000  34.1470000
  15.8160000 134.9060000  34.6080000  16.1540000 136.6470000  34.2080000
  16.4440000 135.3070000  32.5950000  16.6000000 134.2810000  32.3280000
  15.4300000 135.4190000  32.2570000  17.3110000 136.2880000  31.7420000
  16.9240000 137.2840000  32.0630000  18.4410000 136.1470000  31.8870000
  17.1600000 136.0600000  30.2210000  17.4580000 135.0720000  29.8840000
  16.0810000 136.2630000  29.9770000  18.0140000 136.9570000  29.2640000
  17.5860000 136.9290000  28.2950000  17.9610000 138.0080000  29.5910000
  19.5510000 136.6390000  29.2440000  19.9150000 137.3040000  28.4640000
  20.1830000 136.9650000  30.1490000  19.9760000 135.2320000  28.7250000
  19.5710000 134.4620000  29.2920000  19.5710000 134.9420000  27.7500000
  21.5550000 134.9470000  28.5100000  22.0560000 135.0370000  29.4640000
  21.7340000 133.8730000  28.2420000  22.1930000 135.8150000  27.4010000
  22.3550000 136.8040000  27.7530000  23.1630000 135.4490000  27.1390000
  21.3080000 135.9770000  26.1780000  21.3300000 135.1410000  25.2140000
  20.6010000 137.1410000  26.1570000  19.4860000 137.2820000  25.1810000
  19.8760000 137.0130000  24.1400000  18.7150000 136.6110000  25.4880000
  19.0080000 138.6980000  25.0980000  18.0550000 138.6780000  24.6150000
  20.0020000 139.5350000  24.2990000  19.7600000 140.5840000  24.4300000
  21.0070000 139.4520000  24.6240000  19.9430000 139.1260000  22.9260000
  20.8830000 139.6420000  21.7810000  20.4750000 141.1770000  21.6530000
  19.0800000 141.6270000  21.8050000  18.4270000 140.8010000  21.6920000
  18.9610000 142.0260000  22.8450000  18.6900000 142.6040000  20.6540000
  17.6120000 142.9390000  20.6670000  19.2240000 143.4650000  20.8360000
  19.0850000 142.3200000  19.2040000  18.3210000 143.2640000  18.3620000
  17.3010000 142.9270000  18.5270000  18.4570000 144.2610000  18.7320000
  18.6220000 143.1570000  17.3160000  20.4930000 142.4160000  18.9140000
  20.9810000 142.1740000  19.8950000  20.7990000 141.8660000  18.0420000
  20.6500000 143.4870000  18.7720000  18.6640000 140.9680000  18.8640000
  19.4330000 140.2770000  19.3530000  18.5530000 140.7480000  17.8300000
  17.7040000 140.7310000  19.3210000  22.2860000 139.5300000  22.2230000
  20.3820000 138.8680000  20.6100000  18.6280000 139.2910000  26.4100000
  17.7420000 140.2860000  26.4770000  17.5250000 141.0620000  25.5660000
  17.0240000 140.3040000  27.7880000  17.4830000 139.4100000  28.3420000
  15.9080000 140.2140000  27.6780000  17.4810000 141.4160000  28.7530000
  17.2860000 142.4240000  28.4300000  18.5610000 141.2720000  28.8060000
  16.7960000 141.2510000  30.1500000  17.0650000 140.2350000  30.5250000
  15.6520000 141.2750000  30.0430000  17.0950000 142.3630000  31.2240000
  16.8980000 143.3560000  30.7800000  18.1890000 142.2820000  31.3970000
  16.3030000 142.4650000  32.5330000  16.7280000 143.3320000  33.1300000
  16.5350000 141.5020000  33.0350000  14.8110000 142.6700000  32.2180000
  14.4020000 141.7180000  31.8210000  14.6770000 143.4410000  31.5130000
  13.9960000 143.1910000  33.4350000  14.4060000 144.0560000  33.8960000
  14.0370000 142.4440000  34.1690000  12.6010000 143.5480000  33.1100000
  12.6300000 143.9500000  32.1110000  11.4580000 143.1710000  33.6480000
  10.5220000 143.3460000  33.2300000  11.3370000 142.5830000  35.0260000
  10.5840000 143.0790000  35.6000000  12.3000000 142.6760000  35.5460000
  10.9490000 141.1360000  35.0160000  10.8320000 140.7510000  36.0350000
  11.7370000 140.6010000  34.4960000   9.5740000 140.7940000  34.3840000
   9.4470000 141.1940000  33.3330000   8.7890000 141.2910000  34.9770000
   9.1990000 139.3030000  34.2160000   9.9630000 138.8160000  33.5640000
   8.2180000 139.2850000  33.7090000   9.1520000 138.4910000  35.5290000
   8.3700000 138.9580000  36.1070000  10.0510000 138.6140000  36.1380000
   8.8480000 137.0070000  35.3110000   9.6290000 136.3220000  34.9580000
   7.9870000 136.7790000  34.7300000   8.6040000 136.2750000  36.6160000
   7.6630000 136.7860000  37.0140000   9.3300000 136.4830000  37.3290000
   8.3880000 134.7970000  36.4430000   7.5360000 134.5680000  35.7980000
   8.2880000 134.2590000  37.3640000   9.3270000 134.3860000  36.0080000
 142.3610000  97.3550000  35.9400000 143.0790000  96.7260000  36.4430000
 141.3910000  96.9040000  36.0950000 142.3740000  98.2180000  36.5670000
 142.7310000  97.6090000  34.4820000 143.7060000  98.1340000  34.4380000
 142.8810000  96.7090000  33.9160000 141.6830000  98.4860000  33.8050000
 141.0380000  99.0460000  34.4860000 142.2310000  99.2730000  33.2010000
 140.7240000  97.6420000  32.8380000 139.9390000  98.3200000  32.4620000
 141.2560000  97.2230000  31.9670000 139.8230000  96.5740000  33.4740000
 140.3580000  96.0150000  34.1830000 138.8780000  96.8960000  33.8700000
 139.4880000  95.4740000  32.5150000 140.3480000  95.0730000  31.9980000
 138.8380000  94.7000000  32.9430000 138.5410000  96.0370000  31.3810000
 137.8880000  96.7720000  31.8160000 139.1360000  96.6260000  30.6770000
 137.6150000  94.9150000  30.7990000 138.1690000  94.2880000  30.0840000
 137.3320000  94.2850000  31.6740000 136.3870000  95.4890000  30.0460000
 135.8670000  96.0850000  30.7140000 136.7170000  96.2160000  29.2990000
 135.4980000  94.3700000  29.4250000 135.1390000  93.6940000  30.1420000
 134.6650000  94.8800000  29.0010000 136.1920000  93.4340000  28.4380000
 136.7580000  92.7510000  29.0340000 135.4150000  92.8450000  27.9930000
 136.9710000  94.1320000  27.2500000 137.7050000  94.7930000  27.6980000
 137.3500000  93.3130000  26.6430000 136.2120000  95.0330000  26.3570000
 135.3400000  94.5250000  25.9450000 135.7180000  95.8370000  26.9420000
 136.9450000  95.6640000  25.1970000 137.7970000  96.2240000  25.7070000
 137.3600000  94.9340000  24.5330000 136.0220000  96.5940000  24.4240000
 135.2010000  95.9870000  24.1240000 135.6310000  97.4620000  24.9350000
 136.7760000  97.0750000  23.2580000 137.6290000  97.8940000  23.3900000
 136.3120000  96.7550000  22.0730000 137.0460000  97.2610000  20.9180000
 136.6490000  98.2620000  20.7030000 138.0880000  97.2540000  21.1500000
 136.7650000  96.3120000  19.6960000 137.4820000  96.4370000  18.9610000
 135.3930000  96.6580000  19.1020000 134.5960000  96.5380000  19.8440000
 135.4270000  97.7070000  18.8050000 134.9360000  95.8540000  18.0140000
 135.3300000  96.1150000  16.4830000 134.0570000  95.5390000  15.6990000
 134.0120000  94.1730000  15.3430000 133.4410000  94.2050000  14.4070000
 135.0030000  93.7030000  15.1480000 133.2000000  93.4280000  16.4760000
 133.0840000  92.3630000  16.2010000 133.8300000  93.5450000  17.3920000
 131.8590000  93.9230000  16.9890000 130.8330000  93.9270000  15.9690000
 130.0280000  94.4060000  16.4300000 131.1570000  94.4830000  15.1400000
 130.7490000  92.8930000  15.5520000 131.2910000  93.0040000  18.0450000
 131.9880000  92.9690000  18.8210000 130.3410000  93.4410000  18.4130000
 130.9600000  92.0590000  17.5770000 131.9310000  95.2500000  17.6830000
 130.9170000  95.5910000  17.9720000 132.3880000  96.0700000  17.0630000
 132.4870000  95.0350000  18.5200000 135.5400000  97.5580000  16.3410000
 136.3800000  95.1420000  16.1990000 136.8960000  94.8900000  20.1390000
 138.1590000  94.5190000  20.3610000 139.0730000  95.2660000  20.1820000
 138.2550000  93.1960000  21.0460000 139.1740000  92.7660000  20.6410000
 137.4960000  92.6100000  20.6450000 138.2700000  93.3110000  22.5870000
 137.3500000  93.7990000  22.8790000 139.0580000  93.9700000  22.8950000
 138.5040000  92.0310000  23.4370000 138.9670000  91.2660000  22.8230000
 137.4540000  91.7490000  23.8060000 139.4810000  92.2440000  24.7080000
 138.9900000  93.0000000  25.3690000 140.3830000  92.7910000  24.3150000
 139.9870000  91.1000000  25.6040000 140.3950000  90.2990000  24.9660000
 139.2350000  90.7090000  26.2420000 141.2110000  91.5380000  26.3860000
 141.8740000  92.0630000  25.7530000 141.6580000  90.6020000  26.8330000
 140.9160000  92.5660000  27.5660000 141.7280000  92.5080000  28.3580000
 139.9910000  92.3030000  28.0750000 140.8660000  93.9620000  27.0440000
 140.6100000  94.0800000  26.0480000 141.1790000  95.0610000  27.6990000
 141.0520000  96.0870000  27.3010000 141.8150000  95.1530000  29.0790000
 141.2330000  94.4760000  29.7820000 141.7070000  96.1300000  29.5050000
 143.3160000  94.8840000  28.9950000 143.6940000  95.6070000  28.3280000
 143.4160000  93.8900000  28.4970000 144.1100000  95.0370000  30.3070000
 143.6330000  94.4410000  31.0950000 144.1530000  96.0390000  30.7520000
 145.6690000  94.5820000  30.2790000 146.1200000  95.2800000  29.6800000
 145.7480000  93.6330000  29.7190000 146.3380000  94.6080000  31.6340000
 147.0490000  93.7390000  31.6650000 145.6640000  94.3950000  32.4870000
 147.0530000  95.9380000  32.0220000 146.4170000  96.7810000  31.8900000
 147.9940000  95.8990000  31.4770000 147.4310000  95.8150000  33.5560000
 146.4730000  95.7900000  34.0590000 148.0240000  96.6390000  33.8790000
 148.3280000  94.5250000  33.8070000 147.6710000  93.6720000  33.9220000
 148.9430000  94.6330000  34.6810000 148.9280000  94.3410000  32.8930000
  14.1250000  67.0160000  36.0080000  14.2540000  65.9180000  36.3050000
  13.8700000  67.0510000  34.9160000  13.2470000  67.4600000  36.5270000
  15.4150000  67.7950000  36.3400000  15.7500000  67.7390000  37.3520000
  16.1910000  67.2990000  35.7940000  15.3740000  69.2540000  35.9440000
  15.0970000  69.3800000  34.9510000  14.7090000  69.8180000  36.5650000
  16.8490000  69.8430000  36.1100000  16.7650000  70.9600000  36.0340000
  17.1900000  69.6790000  37.1730000  17.9570000  69.4180000  35.1620000
  18.9040000  69.8340000  35.3820000  18.0690000  68.3670000  35.2170000
  17.6660000  69.8540000  33.7350000  16.6900000  69.3100000  33.4770000
  17.4600000  70.9010000  33.6080000  18.6840000  69.3050000  32.7280000
  19.7360000  69.6640000  33.0910000  18.7180000  68.2130000  32.8410000
  18.5110000  69.7840000  31.2590000  17.5300000  69.3290000  30.9440000
  18.4290000  70.8750000  31.2190000  19.6890000  69.3980000  30.3260000
  20.5680000  69.8350000  30.7200000  19.7800000  68.3310000  30.3280000
  19.5700000  69.8410000  28.8830000  19.6360000  70.9020000  28.7210000
  20.3930000  69.3750000  28.3750000  18.3110000  69.3130000  28.1870000
  17.9990000  68.3820000  28.6560000  17.5190000  69.9420000  28.5120000
  18.4360000  69.3090000  26.5990000  19.1020000  68.4600000  26.4090000
  17.3860000  69.1410000  26.1950000  19.0600000  70.5730000  25.9970000
  19.9400000  70.8740000  26.5290000  19.3420000  70.4760000  25.0070000
  18.1310000  71.8090000  26.1510000  17.9730000  72.1190000  27.2030000
  18.6040000  72.6610000  25.6900000  16.7100000  71.8010000  25.5000000
  16.0200000  71.0930000  26.0220000  16.3830000  72.8050000  25.7300000
  16.7240000  71.6140000  24.0050000  16.7040000  72.5160000  23.2120000
  16.7740000  70.2850000  23.6820000  16.5620000  69.7940000  22.4150000
  16.4840000  68.6470000  22.5260000  15.6370000  70.1970000  21.9740000
  17.5990000  70.1610000  21.3770000  17.6450000  71.2530000  21.1970000
  17.2430000  69.4190000  20.0970000  16.7860000  68.4390000  20.2430000
  16.4250000  69.9740000  19.6050000  18.3460000  69.2800000  19.1590000
  18.6380000  70.4790000  18.0880000  17.9600000  70.0450000  16.6990000
  18.6940000  69.2760000  15.7850000  18.2810000  69.5170000  14.7550000
  19.6600000  69.6750000  15.7150000  18.6240000  67.7620000  16.1540000
  19.1330000  67.2020000  15.3180000  19.1020000  67.6280000  17.1390000
  17.3310000  67.0840000  16.1320000  17.5330000  65.5700000  16.1260000
  17.5320000  65.2990000  17.1780000  16.5420000  65.1720000  15.6980000
  18.3360000  65.3290000  15.3930000  16.4380000  67.4580000  17.2780000
  17.0030000  67.1700000  18.2030000  16.4070000  68.5850000  17.2520000
  15.4830000  67.0110000  17.1890000  16.5670000  67.2400000  14.8650000
  16.2110000  68.2600000  14.8880000  15.7450000  66.5480000  14.7950000
  17.2250000  67.0820000  14.0280000  17.9390000  71.6740000  18.5670000
  20.0750000  70.6460000  17.9030000  18.8350000  69.5500000  21.8820000
  19.9370000  70.3140000  21.8860000  19.8540000  71.5060000  21.9030000
  21.2090000  69.4320000  22.0210000  21.9220000  69.7610000  21.2890000
  20.9620000  68.3880000  21.7710000  21.7290000  69.4460000  23.5130000
  22.5200000  68.7530000  23.6560000  20.9050000  69.0100000  24.2030000
  22.1990000  70.8370000  24.0820000  21.4300000  71.5740000  23.9520000
  22.9430000  71.1740000  23.3820000  22.7540000  70.8760000  25.4860000
  23.7100000  70.3230000  25.6060000  22.1010000  70.3690000  26.1690000
  22.8470000  72.2970000  26.1100000  21.8650000  72.7320000  25.9150000
  23.6470000  72.8360000  25.5000000  23.0980000  72.2980000  27.6530000
  24.1380000  72.0240000  27.7640000  22.4250000  71.5590000  28.0940000
  22.8510000  73.7420000  28.3050000  23.4610000  74.4630000  27.7170000
  23.2780000  73.6370000  29.2990000  21.3830000  74.0390000  28.4720000
  20.9380000  74.5290000  27.6160000  20.6280000  73.7620000  29.5550000
  19.5740000  74.0380000  29.4220000  20.9300000  73.0180000  30.8030000
  22.0120000  72.9280000  31.0360000  20.4630000  71.9840000  30.7990000
  20.2340000  73.6860000  31.9180000  19.2530000  73.8400000  31.5120000
  20.6840000  74.6750000  32.1920000  20.2330000  72.9210000  33.2270000
  19.6140000  72.0690000  33.0760000  19.6190000  73.5640000  33.8990000
  21.6170000  72.5610000  33.8110000  22.2220000  73.4810000  33.9690000
  22.1120000  71.9950000  33.0330000  21.6400000  71.6700000  35.0700000
  21.0780000  70.7660000  34.9530000  21.0620000  72.2110000  35.8460000
  23.0190000  71.3590000  35.5980000  23.4390000  72.2490000  35.7710000
  23.6290000  70.9280000  34.9230000  23.0580000  70.7050000  36.9730000
  22.2990000  71.1400000  37.5270000  24.0120000  71.0660000  37.5400000
  22.9280000  69.2430000  36.9650000  21.9410000  68.8920000  36.5740000
  22.9670000  68.7750000  37.9180000  23.7120000  68.7900000  36.3320000
  62.9570000 136.9280000  33.1210000  63.0880000 137.9500000  32.8600000
  63.9300000 136.4840000  32.8160000  62.8520000 136.8030000  34.2490000
  61.8840000 136.1420000  32.3300000  61.8450000 135.1890000  32.8500000
  60.9360000 136.6800000  32.3450000  62.1930000 135.6740000  30.9130000
  62.5340000 136.5140000  30.2790000  63.0030000 134.9890000  31.0190000
  60.9830000 135.0030000  30.0900000  60.6510000 134.2130000  30.7700000
  60.0960000 135.7490000  30.0980000  61.3500000 134.4710000  28.5980000
  61.3420000 135.3200000  27.9260000  62.4170000 134.1150000  28.6740000
  60.4930000 133.4080000  27.9370000  59.4370000 133.7590000  27.8890000
  60.8890000 133.2360000  26.9580000  60.6310000 132.0800000  28.6080000
  61.6490000 131.8810000  28.9180000  60.0050000 132.0510000  29.5590000
  60.2760000 130.9700000  27.6020000  61.0170000 130.9810000  26.7220000
  60.3590000 130.0070000  28.1870000  58.9210000 130.9890000  27.0110000
  58.2540000 130.8030000  27.7910000  58.6670000 131.9480000  26.6730000
  58.7000000 129.8510000  25.9930000  59.1610000 128.8960000  26.2920000
  57.6620000 129.6070000  26.0100000  59.1520000 130.1930000  24.5820000
  60.2960000 130.3430000  24.6370000  58.9830000 129.2990000  23.9660000
  58.4000000 131.3510000  23.8710000  57.3660000 131.3260000  24.1200000
  58.7410000 132.3250000  24.2190000  58.7210000 131.2540000  22.4250000
  59.8590000 131.3140000  22.2380000  58.4230000 130.3360000  22.0770000
  58.0270000 132.2750000  21.4990000  58.3250000 133.2260000  21.9360000
  58.4300000 132.3110000  20.4840000  56.5720000 132.1910000  21.5810000
  56.2200000 132.1730000  22.6580000  56.2100000 133.1170000  21.2170000
  55.9180000 131.0780000  20.8990000  56.1380000 130.7810000  19.7320000
  55.0430000 130.4210000  21.6090000  54.3190000 129.1930000  21.1070000
  53.6440000 128.9880000  21.9140000  53.8410000 129.5920000  20.2100000
  55.1760000 127.9900000  20.8900000  56.1400000 128.4280000  20.6150000
  54.7310000 126.9660000  19.7500000  55.1340000 127.2490000  18.7900000
  55.1370000 126.0160000  19.9830000  53.2530000 126.9290000  19.7030000
  52.4060000 125.6850000  19.0650000  51.4060000 125.4120000  20.2440000
  51.7600000 124.6110000  21.3610000  52.8300000 124.3390000  21.3750000
  51.5660000 125.2650000  22.2150000  50.7500000 123.3790000  21.3690000
  50.9680000 122.9210000  22.3810000  49.7720000 123.8590000  21.4140000
  50.7410000 122.3180000  20.3230000  52.0330000 121.6440000  20.2320000
  52.4030000 121.4570000  21.2320000  51.8020000 120.6660000  19.7130000
  52.7060000 122.3250000  19.7800000  49.7340000 121.4060000  20.7900000
  48.8050000 121.9760000  21.0710000  49.5620000 120.6540000  20.0300000
  50.1450000 120.8760000  21.7230000  50.2380000 122.7890000  18.9740000
  49.2790000 123.2880000  19.1830000  50.1470000 121.9020000  18.3590000
  50.9220000 123.5620000  18.5760000  51.5500000 126.1870000  17.9480000
  53.3250000 124.5210000  18.9640000  55.4770000 127.2730000  22.1080000
  56.7250000 126.7820000  22.2140000  57.5910000 126.8100000  21.3200000
  56.9970000 126.2630000  23.5620000  56.3070000 125.4650000  23.6870000
  56.7180000 127.0010000  24.2830000  58.4210000 125.8360000  23.9660000
  59.0580000 126.6510000  23.9750000  58.8510000 125.1220000  23.2450000
  58.3950000 125.0930000  25.2730000  57.9980000 124.0630000  25.1150000
  57.7680000 125.6780000  25.9610000  59.8180000 124.8460000  25.8880000
  60.5510000 124.5360000  25.1380000  59.7320000 123.9820000  26.5680000
  60.3930000 125.9580000  26.6880000  59.9530000 126.8720000  26.2840000
  61.4230000 126.0100000  26.3650000  60.2740000 125.8200000  28.1980000
  61.0650000 125.2080000  28.5680000  59.3370000 125.3000000  28.3590000
  60.3660000 127.1030000  28.9870000  59.5800000 127.8810000  28.8350000
  61.2480000 127.7120000  28.6860000  60.3970000 126.7450000  30.4190000
  60.9070000 125.7900000  30.7390000  59.7220000 127.3050000  31.4550000
  59.8740000 126.9630000  32.4810000  59.0390000 128.6630000  31.4300000
  58.0280000 128.4740000  31.6840000  58.9230000 129.0880000  30.4670000
  59.5440000 129.7310000  32.3620000  59.5840000 129.4680000  33.4100000
  58.8500000 130.6090000  32.3770000  60.9360000 130.1860000  31.8830000
  60.8620000 130.9850000  31.1760000  61.3490000 129.3770000  31.3080000
  61.9360000 130.6440000  32.9540000  62.4100000 129.7720000  33.4510000
  61.2810000 131.2100000  33.6750000  63.1000000 131.4440000  32.3800000
  62.6890000 132.2690000  31.8430000  63.6070000 130.7730000  31.6290000
  63.9770000 131.8460000  33.5630000  64.4280000 130.9740000  34.0490000
  63.2640000 132.3410000  34.2210000  65.1270000 132.7090000  33.1700000
  64.7920000 133.5570000  32.4950000  65.7700000 132.1510000  32.5090000
  65.9950000 133.1460000  34.3460000  65.4860000 133.7810000  35.1170000
  66.9020000 133.6270000  33.9440000  66.3490000 132.2980000  34.9020000
  61.0660000 105.7040000  33.3620000  60.2460000 106.0160000  34.1180000
  61.4450000 106.5820000  32.8910000  61.8530000 105.2470000  33.9730000
  60.5450000 104.6990000  32.2820000  61.3690000 104.5000000  31.6120000
  60.4020000 103.7940000  32.7850000  59.4090000 105.2820000  31.5200000
  58.5480000 105.3900000  32.2120000  59.7130000 106.2720000  31.1560000
  58.8280000 104.4310000  30.3800000  58.5080000 103.5310000  30.8010000
  58.0240000 104.9220000  29.8830000  59.7800000 104.0180000  29.2320000
  60.0210000 104.8790000  28.6110000  60.7040000 103.6520000  29.6630000
  59.0820000 102.9470000  28.3540000  58.6100000 102.2480000  29.0380000
  58.3000000 103.4170000  27.8040000  60.1620000 102.3410000  27.4290000
  61.1210000 102.4500000  28.0450000  59.9550000 101.2970000  27.1850000
  60.3820000 103.1170000  26.1380000  60.4350000 104.1900000  26.3670000
  61.3140000 102.8370000  25.6770000  59.2280000 102.9860000  25.1260000
  59.1510000 102.0290000  24.6130000  58.3340000 103.1410000  25.7520000
  59.2900000 104.1290000  24.0610000  60.3770000 104.2870000  23.7010000
  58.6230000 103.8780000  23.1850000  58.7980000 105.5630000  24.5120000
  59.2580000 105.9110000  25.3830000  59.0120000 106.2790000  23.6490000
  57.2240000 105.5580000  24.7630000  56.7040000 105.5920000  23.8030000
  56.9410000 104.6790000  25.2340000  56.8000000 106.7550000  25.6810000
  57.2440000 106.6720000  26.7000000  57.1330000 107.6120000  25.2390000
  55.2850000 106.8800000  25.7830000  54.8320000 106.0410000  26.2630000
  54.9990000 107.6990000  26.4680000  54.4460000 107.2250000  24.5310000
  55.0890000 107.2410000  23.6350000  53.5510000 106.5590000  24.4210000
  53.9860000 108.7280000  24.6230000  53.0580000 109.0430000  25.3510000
  54.6350000 109.5440000  23.8480000  54.1990000 110.9730000  23.8110000
  53.1160000 111.0860000  23.8460000  54.5340000 111.4420000  24.7490000
  54.7970000 111.6220000  22.6060000  54.6730000 112.6890000  22.4790000
  54.2750000 111.0710000  21.3320000  54.7190000 111.5410000  20.4540000
  54.4230000 110.0160000  21.4390000  52.8720000 111.3840000  21.2220000
  51.9350000 110.3050000  20.4340000  51.9260000 110.7900000  18.9650000
  50.8900000 111.6590000  18.5560000  49.9620000 111.2100000  18.3810000
  50.8200000 112.4400000  19.2850000  51.4770000 112.2180000  17.2800000
  52.4880000 112.5790000  17.3940000  51.5240000 111.4080000  16.5660000
  50.7170000 113.3010000  16.5830000  51.5770000 113.7040000  15.4740000
  51.1910000 114.6570000  15.0940000  52.6210000 113.8510000  15.8720000
  51.5240000 112.8990000  14.7280000  49.3540000 112.9110000  16.1140000
  49.3000000 112.1930000  15.2640000  48.8500000 112.5370000  17.0260000
  48.7960000 113.7990000  15.8230000  50.6190000 114.5080000  17.4640000
  49.9010000 114.2590000  18.2190000  50.3130000 115.3800000  16.9230000
  51.5700000 114.7470000  17.9350000  52.6010000 109.0480000  20.4180000
  50.5390000 110.4220000  20.9940000  56.1970000 111.2960000  22.6840000
  57.0150000 112.1000000  23.3820000  56.5310000 113.0030000  24.0580000
  58.4290000 111.5160000  23.4830000  59.2390000 112.2850000  23.2210000
  58.5910000 110.7030000  22.7610000  58.7230000 110.8130000  24.8170000
  58.1080000 109.8840000  24.9650000  58.5000000 111.5420000  25.7090000
  60.2040000 110.4610000  24.9680000  60.6950000 111.3840000  24.5060000
  60.4360000 109.4750000  24.5360000  60.6240000 110.2820000  26.4870000
  60.2050000 109.3090000  26.8200000  60.0210000 110.9760000  27.0840000
  62.1990000 110.3440000  26.7730000  62.5420000 111.2540000  26.2530000
  62.6650000 109.4420000  26.3300000  62.5020000 110.4520000  28.2920000
  61.7680000 111.1380000  28.7270000  63.5380000 110.8800000  28.2670000
  62.5420000 109.1570000  29.1340000  62.8340000 109.4070000  30.0810000
  63.4400000 108.5870000  28.8310000  61.4240000 108.1590000  29.1100000
  61.6110000 107.3060000  28.4250000  60.2670000 108.3160000  29.7200000
  59.4680000 107.5980000  29.5420000  59.8650000 109.4030000  30.6460000
  60.4650000 110.2800000  30.4510000  59.9770000 109.0820000  31.6760000
  58.3850000 109.7060000  30.3580000  57.7510000 108.8940000  30.5910000
  58.2350000 109.9330000  29.2720000  57.9010000 110.9100000  31.2070000
  58.4020000 111.8180000  30.8250000  58.1630000 110.7380000  32.2840000
  56.3780000 111.2540000  31.2160000  55.7300000 110.4810000  31.6320000
  56.0540000 111.3410000  30.1120000  56.0550000 112.5790000  31.8560000
  55.0820000 112.9130000  31.4830000  56.8870000 113.3000000  31.5450000
  55.8790000 112.4180000  33.3720000  56.7570000 112.0250000  33.7780000
  55.1330000 111.6590000  33.5830000  55.3810000 113.6790000  34.1170000
  54.9700000 113.3090000  35.0240000  54.7350000 114.1490000  33.4890000
  56.4840000 114.6310000  34.4370000  56.1580000 115.4970000  35.0550000
  56.9200000 115.0250000  33.5450000  57.1150000 114.0630000  35.0200000
  46.9590000  34.2640000  34.8810000  47.2470000  34.4270000  35.9530000
  47.7270000  33.8370000  34.2390000  46.1110000  33.5780000  34.9680000
  46.3970000  35.6140000  34.3830000  45.5620000  35.9110000  34.9810000
  47.1870000  36.3110000  34.6400000  46.0980000  35.5300000  32.8050000
  45.4960000  36.4160000  32.5930000  46.9530000  35.4410000  32.1420000
  45.1760000  34.3880000  32.4420000  45.6160000  33.4090000  32.5620000
  44.3540000  34.4120000  33.1090000  44.5510000  34.5330000  31.0060000
  44.1980000  35.5600000  30.8570000  45.3300000  34.5060000  30.2230000
  43.4500000  33.4870000  30.6050000  44.0330000  32.5020000  30.6110000
  42.6780000  33.5150000  31.4060000  42.7160000  33.7560000  29.2680000
  43.4960000  33.7140000  28.4780000  42.0670000  32.8540000  29.1770000
  41.9930000  35.0610000  29.2380000  41.3410000  35.0270000  30.1220000
  42.7440000  35.8780000  29.2750000  41.1000000  35.1690000  28.0170000
  40.4180000  34.2530000  27.9610000  40.3640000  36.0120000  28.1460000
  41.8130000  35.6200000  26.7100000  42.3070000  36.5780000  26.8410000
  42.6650000  34.8610000  26.5110000  40.8270000  35.7590000  25.5520000
  40.3280000  34.8200000  25.3600000  40.0600000  36.5090000  25.8030000
  41.4880000  36.1660000  24.3020000  41.9180000  37.1560000  24.4660000
  42.2210000  35.5090000  24.0730000  40.5460000  36.3370000  23.0550000
  40.2370000  35.3470000  22.6630000  39.6060000  36.9470000  23.2750000
  41.2210000  37.0460000  21.8910000  41.3610000  38.1710000  22.1090000
  42.1300000  36.5820000  21.7720000  40.4310000  36.8760000  20.5260000
  40.5750000  35.8470000  20.1410000  39.3230000  37.1260000  20.5710000
  40.9640000  37.8700000  19.4870000  40.8290000  39.0660000  19.4880000
  41.7840000  37.2210000  18.5960000  42.6390000  37.9760000  17.7760000
  42.9060000  37.3530000  16.8630000  42.2810000  38.9500000  17.3980000
  44.0520000  38.0730000  18.4140000  44.0560000  38.6860000  19.3440000
  45.0780000  38.4740000  17.3800000  46.0800000  38.4890000  17.8750000
  45.1050000  37.7660000  16.5390000  44.6690000  39.7700000  16.7520000
  44.6280000  41.2080000  17.4060000  43.1590000  41.2290000  18.0300000
  42.1670000  41.9410000  17.2510000  42.6220000  42.9280000  17.0910000
  41.9810000  41.4630000  16.2330000  40.8830000  41.8700000  18.0620000
  40.1300000  42.1260000  17.3520000  40.7140000  40.7830000  18.2580000
  40.6810000  42.7550000  19.2530000  41.7810000  42.6550000  20.1300000
  41.6700000  43.4520000  20.7350000  41.6420000  41.7980000  20.7620000
  42.7760000  42.5930000  19.6380000  40.5590000  44.1710000  18.7470000
  41.5160000  44.3490000  18.2450000  39.7010000  44.2180000  18.0960000
  40.4850000  44.8260000  19.6280000  39.4290000  42.3220000  19.9800000
  39.6060000  41.2830000  20.3180000  38.5960000  42.3670000  19.2750000
  39.1620000  43.1310000  20.7510000  45.5820000  41.3140000  18.5420000
  44.6800000  42.1660000  16.3410000  44.3950000  36.7000000  18.7780000
  44.6250000  36.3760000  20.0730000  44.6500000  37.1990000  20.9360000
  44.8140000  34.8990000  20.3100000  45.5070000  34.4920000  19.6080000
  43.9930000  34.2740000  20.0450000  45.3760000  34.6230000  21.7100000
  46.1620000  35.3070000  21.8400000  45.7690000  33.5350000  21.7720000
  44.4550000  34.9200000  22.8680000  43.6060000  34.1630000  22.9060000
  43.9770000  35.8550000  22.6300000  45.0780000  34.8970000  24.2670000
  45.6040000  33.8880000  24.4200000  44.1880000  34.8780000  24.8990000
  46.1290000  35.9750000  24.5700000  45.5810000  36.9150000  24.4000000
  46.9730000  35.8210000  23.8830000  46.6660000  35.8850000  26.0460000
  47.4920000  36.6000000  26.1300000  47.0500000  34.8460000  26.1720000
  45.6010000  36.2060000  27.2160000  46.0790000  35.9550000  28.1790000
  44.8950000  35.3940000  27.2500000  45.0060000  37.5830000  27.1940000
  44.2740000  37.6660000  26.3210000  45.2270000  38.5810000  28.0800000
  44.6520000  39.4820000  28.0790000  46.0830000  38.4590000  29.2860000
  46.1960000  37.4410000  29.6740000  45.5900000  39.1070000  30.0840000
  47.5450000  38.9120000  28.9590000  47.4690000  39.8890000  28.4210000
  48.0290000  38.1830000  28.2760000  48.3710000  39.0050000  30.2520000
  48.2830000  38.1120000  30.8130000  48.0140000  39.8130000  30.9090000
  49.8350000  39.2380000  29.8900000  50.0560000  40.2700000  29.5160000
  50.2710000  38.5760000  29.1190000  50.7790000  38.9370000  31.1680000
  50.9190000  37.8580000  31.1790000  50.2240000  39.2800000  32.0050000
  52.1160000  39.7110000  30.9550000  51.9000000  40.7700000  30.9970000
  52.5610000  39.5120000  29.9690000  53.2730000  39.4790000  31.9570000
  54.2520000  39.6770000  31.5090000  53.2860000  38.4100000  32.1080000
  53.0140000  40.1720000  33.2830000  52.1870000  39.6510000  33.8390000
  52.8390000  41.2070000  33.1230000  53.9570000  40.1150000  33.8410000
  65.3040000  32.3990000  32.1560000  64.9440000  32.1600000  31.0960000
  64.5600000  32.2480000  32.8660000  66.1660000  31.7940000  32.3480000
  65.8060000  33.8810000  32.1420000  66.4310000  34.1580000  33.0740000
  66.3910000  34.0850000  31.2130000  64.6380000  34.9300000  31.9390000
  63.9840000  34.9010000  32.7840000  65.1280000  35.8460000  31.9090000
  63.8150000  34.6660000  30.6640000  64.3450000  34.7180000  29.7220000
  63.5020000  33.6350000  30.6750000  62.6460000  35.6570000  30.6170000
  61.9940000  35.5700000  31.4720000  63.0630000  36.6430000  30.8740000
  61.8050000  35.7870000  29.3390000  62.4910000  35.8480000  28.4730000
  61.1370000  34.8790000  29.2070000  60.9640000  37.0990000  29.3720000
  60.3160000  37.1260000  30.2520000  61.6510000  37.9220000  29.4260000
  60.1130000  37.2910000  28.1640000  59.2150000  36.7510000  28.2020000
  59.7860000  38.3480000  28.1800000  60.7650000  36.9530000  26.8170000
  61.6260000  37.6270000  26.6260000  61.0470000  35.9110000  26.7640000
  59.7670000  37.2870000  25.6990000  58.8030000  36.7770000  25.8800000
  59.4970000  38.3570000  25.8230000  60.2620000  36.9030000  24.3320000
  61.3170000  37.1670000  24.4080000  60.1480000  35.8250000  24.1930000
  59.5350000  37.5530000  23.1610000  58.4760000  37.5480000  23.3170000
  59.8330000  38.5960000  23.1040000  59.9760000  36.8790000  21.8510000
  61.0160000  36.7660000  21.7390000  59.6030000  35.7940000  21.8450000
  59.2760000  37.5160000  20.5850000  58.2840000  37.8770000  20.7720000
  59.7550000  38.5260000  20.2870000  59.2120000  36.6270000  19.3260000
  60.2650000  36.1800000  19.1650000  58.5370000  35.7960000  19.6190000
  58.6190000  37.3460000  18.1400000  59.2630000  37.8000000  17.2470000
  57.2720000  37.4920000  18.2620000  56.5840000  38.2670000  17.2520000
  55.5510000  38.4200000  17.6710000  57.0200000  39.2140000  17.2180000
  56.5650000  37.5740000  15.9100000  57.5580000  37.3470000  15.5530000
  55.7140000  38.4140000  14.7930000  56.3230000  39.1760000  14.2860000
  55.3950000  37.7710000  14.0080000  54.6210000  39.1790000  15.4070000
  53.2250000  38.4810000  15.8670000  52.0900000  39.1530000  15.0400000
  50.6870000  38.8010000  15.1540000  50.0840000  39.2180000  14.3090000
  50.6610000  37.7580000  15.2250000  50.0060000  39.3680000  16.4540000
  48.9330000  39.0680000  16.5540000  50.5890000  38.9930000  17.3290000
  50.0340000  40.8570000  16.5880000  49.4060000  41.1680000  17.8600000
  49.3020000  42.2120000  18.0550000  48.3300000  40.8790000  17.8960000
  49.9910000  40.7650000  18.6740000  51.3990000  41.3900000  16.6260000
  51.3520000  42.5190000  16.9460000  51.9930000  40.6570000  17.2940000
  51.7920000  41.2980000  15.6200000  49.2670000  41.5370000  15.4910000
  48.2670000  41.2290000  15.4660000  49.6810000  41.2390000  14.4750000
  49.4540000  42.5710000  15.7610000  53.2390000  37.0420000  15.5540000
  52.9730000  38.8600000  17.2370000  56.0040000  36.2200000  16.1110000
  56.2630000  35.2650000  15.1690000  56.6800000  35.5140000  14.0270000
  56.0580000  33.8890000  15.7380000  56.3580000  33.1120000  14.9870000
  55.0860000  33.6210000  16.0260000  56.9580000  33.5670000  16.9800000
  56.8190000  34.2510000  17.7900000  57.9710000  33.7650000  16.5670000
  56.8920000  32.0940000  17.5580000  57.0700000  31.3840000  16.6790000
  55.9620000  31.9300000  18.0720000  58.0020000  31.9160000  18.6280000
  57.7030000  32.5230000  19.4770000  58.8580000  32.4170000  18.1690000
  58.3390000  30.4920000  19.0860000  57.7300000  29.8270000  18.4850000
  58.1260000  30.3080000  20.1660000  59.7760000  29.9450000  18.7630000
  60.1770000  30.2450000  17.7820000  59.7990000  28.9030000  18.8020000
  60.7320000  30.4570000  19.8710000  61.6900000  30.0080000  19.7860000
  60.4100000  30.0920000  20.8870000  60.8010000  31.9730000  19.8790000
  60.7510000  32.4440000  18.9240000  60.7700000  32.7940000  20.9100000
  60.8040000  33.8630000  20.8430000  60.8220000  32.3230000  22.3700000
  61.1330000  31.3200000  22.5550000  59.8400000  32.4750000  22.8220000
  61.7650000  33.1020000  23.2530000  61.5450000  34.1590000  23.1420000
  62.8140000  33.0270000  22.9790000  61.6820000  32.7760000  24.8200000
  61.6630000  31.7290000  24.9960000  60.7360000  33.1350000  25.0720000
  62.7200000  33.5130000  25.7500000  62.3410000  33.4810000  26.7790000
  62.8320000  34.5790000  25.4650000  64.1060000  32.8690000  25.7110000
  64.6410000  33.4180000  26.5080000  64.7070000  33.0570000  24.7770000
  64.1540000  31.3850000  26.1880000  65.2100000  31.0380000  26.2460000
  63.7000000  30.7540000  25.3470000  63.4810000  31.2860000  27.6090000
  62.4430000  31.6340000  27.4520000  63.8560000  31.9890000  28.3060000
  63.4320000  29.8770000  28.0970000  62.6470000  29.2820000  27.6540000
  63.1990000  29.9370000  29.1440000  64.2920000  29.2890000  27.8800000
 141.4430000  54.8980000  36.1000000 140.6710000  55.3880000  36.6210000
 142.1000000  55.7050000  35.7820000 142.0870000  54.2460000  36.5990000
 140.8010000  54.1630000  34.9150000 139.9980000  53.6180000  35.3200000
 140.3590000  54.9510000  34.2260000 141.6970000  53.1920000  34.2480000
 142.3600000  53.6420000  33.6260000 142.1830000  52.4250000  34.8620000
 140.7200000  52.5340000  33.2710000 139.8470000  52.0300000  33.6680000
 140.2620000  53.2860000  32.6640000 141.3970000  51.5170000  32.3480000
 142.0690000  51.9270000  31.6930000 142.0950000  50.7890000  32.8400000
 140.3420000  50.5950000  31.6110000 140.8860000  49.6910000  31.2630000
 139.6470000  50.1340000  32.3490000 139.5390000  51.3430000  30.5260000
 138.7630000  51.8210000  31.0510000 140.1800000  52.1480000  30.1690000
 138.9700000  50.4030000  29.4330000 139.7180000  49.8120000  28.9610000
 138.1370000  49.8260000  29.8040000 138.4650000  51.2170000  28.2770000
 137.6900000  51.9090000  28.6310000 139.3250000  51.8000000  27.9320000
 138.0290000  50.3960000  27.0090000 138.8720000  49.8360000  26.6770000
 137.5170000  49.6030000  27.4880000 137.3060000  50.9640000  25.7880000
 138.0250000  51.4540000  25.1110000 136.8020000  50.1450000  25.3460000
 136.2020000  51.9250000  26.1530000 135.3590000  51.2680000  26.4140000
 136.4350000  52.5430000  27.0340000 135.9280000  52.8470000  25.0120000
 136.8260000  53.4620000  24.7630000 135.7600000  52.2960000  24.1140000
 134.7390000  53.8260000  25.3590000 133.8070000  53.2820000  25.5830000
 135.0120000  54.3730000  26.2890000 134.5260000  54.7500000  24.1530000
 134.7250000  54.2970000  23.1840000 133.4510000  55.0320000  24.0480000
 135.4330000  55.9680000  24.2710000 136.0050000  56.3340000  25.2400000
 135.4240000  56.6260000  23.0760000 136.5010000  57.6370000  22.8540000
 136.1530000  58.4150000  22.1760000 136.9080000  58.1020000  23.7720000
 137.7430000  56.9640000  22.1720000 138.4850000  57.7220000  22.0090000
 137.3830000  56.2770000  20.9210000 138.2030000  55.7980000  20.4330000
 136.7120000  55.4610000  21.1720000 136.6120000  57.0550000  19.9350000
 135.8080000  56.5140000  18.7260000 136.9160000  56.0590000  17.6430000
 137.8820000  56.9050000  17.0910000 137.8420000  56.8830000  15.9510000
 137.6540000  57.9570000  17.3120000 139.3110000  56.6620000  17.6370000
 139.9220000  57.5320000  17.3450000 139.2890000  56.6110000  18.8010000
 139.9290000  55.3810000  17.1410000 141.3790000  55.4180000  17.3990000
 141.8200000  54.4480000  17.3440000 141.7470000  56.0860000  16.6220000
 141.5610000  55.8400000  18.3600000 139.3590000  54.2970000  18.0400000
 139.7980000  54.3010000  19.0430000 138.2850000  54.3810000  18.2240000
 139.4810000  53.3300000  17.5700000 139.7780000  55.0760000  15.6980000
 138.7650000  55.2240000  15.3440000 140.0810000  54.0590000  15.6220000
 140.4100000  55.8260000  15.2150000 135.1630000  55.2720000  19.1720000
 135.0270000  57.5700000  18.0270000 138.4170000  55.9700000  23.0130000
 139.7120000  55.7490000  22.9920000 140.4100000  56.3400000  22.2150000
 140.1410000  54.6670000  23.9300000 140.9220000  54.1330000  23.4130000
 139.2710000  53.9200000  24.0350000 140.4840000  55.2400000  25.3200000
 139.7700000  56.0320000  25.6220000 141.4470000  55.7020000  25.4110000
 140.3840000  54.1210000  26.4230000 141.0280000  53.3340000  26.1500000
 139.3480000  53.8350000  26.3030000 140.6480000  54.4810000  27.9060000
 141.4150000  55.2740000  27.8700000 141.1110000  53.5700000  28.4130000
 139.4610000  54.8580000  28.7860000 138.7840000  54.0400000  28.9630000
 139.0300000  55.7540000  28.2670000 139.9410000  55.3450000  30.1550000
 140.7440000  56.0410000  30.0630000 140.3640000  54.5080000  30.6880000
 138.7890000  55.8540000  31.0900000 139.1150000  55.9720000  32.1280000
 137.9620000  55.1650000  31.1080000 138.0530000  57.1000000  30.7250000
 137.4270000  57.1210000  29.8500000 138.1340000  58.1920000  31.4320000
 137.4280000  58.9450000  31.1800000 138.8610000  58.4200000  32.6670000
 138.7870000  57.5250000  33.3580000 138.5370000  59.3100000  33.1540000
 140.3850000  58.7000000  32.3240000 140.4270000  59.7600000  32.0340000
 140.6220000  58.0720000  31.4620000 141.4100000  58.4500000  33.4460000
 142.3590000  58.7200000  32.9310000 141.5000000  57.4300000  33.8110000
 141.1990000  59.4450000  34.5820000 140.3170000  59.1610000  35.1650000
 141.2320000  60.4030000  34.1350000 142.3560000  59.3170000  35.5430000
 143.2590000  59.5130000  35.0320000 142.4000000  58.3080000  36.0210000
 142.2590000  60.5170000  36.5730000 141.8970000  61.4150000  36.1060000
 143.2590000  60.6980000  36.9980000 141.3510000  60.2650000  37.7880000
 140.2450000  60.2850000  37.5530000 141.5450000  61.0170000  38.6150000
 141.5560000  58.8910000  38.5690000 142.4730000  58.8600000  39.1160000
 141.6510000  58.1410000  37.8280000 140.7080000  58.7130000  39.2090000
  97.8550000  87.8410000  31.7630000  97.6250000  88.8290000  31.3600000
  98.0310000  87.9500000  32.8310000  96.9460000  87.1880000  31.6690000
  99.0650000  87.1500000  31.1080000  99.9530000  87.8040000  30.9900000
  99.4300000  86.3330000  31.7850000  98.7660000  86.4130000  29.7680000
  99.7530000  86.0060000  29.4510000  98.0120000  85.5580000  29.7680000
  98.2840000  87.4310000  28.7270000  97.3800000  88.0590000  29.0110000
  99.1130000  88.1270000  28.5360000  97.8450000  86.7010000  27.3910000
  98.7510000  86.1830000  27.0590000  97.0880000  85.9340000  27.5170000
  97.3940000  87.7190000  26.3780000  96.4350000  88.0790000  26.5660000
  98.0180000  88.6040000  26.4190000  97.5340000  87.1780000  24.9550000
  98.5540000  87.0910000  24.7060000  97.1510000  86.1250000  24.8260000
  96.8220000  88.0580000  23.9440000  97.1570000  89.1380000  24.0640000
  97.1600000  87.7470000  22.9360000  95.3050000  87.8870000  23.9380000
  94.9830000  86.9060000  23.7830000  94.8610000  88.1350000  24.9210000
  94.7040000  88.7890000  22.8270000  95.1570000  88.4580000  21.8790000
  93.6130000  88.6250000  22.8210000  94.8850000  90.3080000  23.0540000
  95.9180000  90.5000000  23.3560000  94.5870000  90.8700000  22.1470000
  93.9150000  91.0290000  24.0390000  92.9110000  90.7690000  23.7430000
  94.0520000  90.6460000  25.0360000  94.1760000  92.5700000  24.1420000
  95.2160000  92.6880000  24.4630000  93.9560000  93.0740000  23.2120000
  93.4320000  93.3610000  25.2620000  93.8660000  93.0820000  26.2900000
  93.6560000  94.4450000  25.1910000  91.8610000  93.2510000  25.1630000
  91.6130000  92.1560000  25.2870000  91.4030000  93.6960000  26.0580000
  91.3480000  93.8130000  23.8840000  90.5880000  93.0690000  23.2850000
  92.0660000  94.8570000  23.4400000  91.8460000  95.1760000  22.0260000
  91.8640000  94.1980000  21.5480000  90.8160000  95.5750000  21.8970000
  92.8970000  96.0730000  21.3570000  92.7950000  96.9630000  21.7940000
  92.5880000  96.2450000  19.8870000  91.6790000  96.8260000  19.7610000
  93.3480000  96.8250000  19.3520000  92.2410000  94.9710000  19.3040000
  93.4040000  93.9590000  18.8170000  92.7140000  93.2110000  17.6510000
  91.8950000  92.0660000  17.9230000  91.6880000  91.9650000  18.9830000
  90.9270000  92.3500000  17.4490000  92.4560000  90.7830000  17.2230000
  91.6700000  90.0770000  17.0900000  92.8280000  91.0400000  16.2350000
  93.6340000  90.1070000  17.9250000  93.9680000  88.8590000  17.1990000
  93.1540000  88.1340000  17.2480000  94.0170000  89.0030000  16.0460000
  94.9310000  88.4050000  17.4850000  94.9610000  90.7940000  17.8570000
  95.7150000  90.1000000  18.0320000  95.1430000  91.3910000  16.9680000
  94.8630000  91.5070000  18.6630000  93.3000000  89.8340000  19.3030000
  94.1510000  89.2810000  19.6370000  92.3600000  89.2700000  19.4100000
  93.2420000  90.8620000  19.8250000  94.4990000  94.7490000  18.2650000
  93.5910000  92.9730000  19.8470000  94.1970000  95.5150000  21.5390000
  95.3720000  96.1300000  21.3740000  95.4410000  97.2900000  21.0000000
  96.4290000  95.1450000  21.5190000  97.2640000  95.4050000  20.8670000
  96.0220000  94.2080000  21.0460000  96.8740000  94.9270000  22.9600000
  95.9690000  94.7090000  23.5070000  97.2540000  95.8820000  23.2970000
  97.8250000  93.7430000  23.1230000  98.5540000  93.7510000  22.2750000
  97.2850000  92.8140000  23.1260000  98.6090000  93.7400000  24.4460000
  99.1880000  94.6830000  24.3880000  99.2640000  92.8570000  24.3400000
  97.7580000  93.8810000  25.7200000  96.8200000  93.2920000  25.6570000
  97.4070000  94.9170000  25.8550000  98.5640000  93.4690000  26.9110000
  98.1090000  93.7990000  27.8260000  99.4580000  94.0420000  27.0000000
  98.7590000  91.9050000  27.1140000  99.3610000  91.7400000  27.9740000
  99.2480000  91.4570000  26.2220000  97.4110000  91.2490000  27.3550000
  97.0380000  90.6190000  26.5980000  96.7550000  91.2290000  28.5050000
  95.9490000  90.4950000  28.5940000  97.1410000  92.0110000  29.8320000
  98.0520000  92.4870000  29.5470000  97.1320000  91.3430000  30.7010000
  96.1980000  93.1830000  30.1950000  96.2060000  93.9130000  29.4210000
  96.6780000  93.7130000  31.0490000  94.8020000  92.8480000  30.6610000
  94.6170000  93.4210000  31.5410000  94.7750000  91.7900000  30.8520000
  93.8090000  93.1560000  29.5380000  94.2810000  92.7870000  28.5740000
  93.7160000  94.2850000  29.4560000  92.4010000  92.5970000  29.8600000
  91.7880000  92.9040000  28.9560000  91.9920000  93.0750000  30.7640000
  92.3100000  91.0480000  30.0390000  91.2310000  90.7260000  30.1330000
  92.7070000  90.7730000  30.9980000  92.9550000  90.1920000  28.9030000
  93.7190000  90.8120000  28.3850000  92.2640000  89.9150000  28.0790000
  93.6430000  88.9950000  29.4900000  94.2920000  88.4920000  28.6810000
  92.9350000  88.2270000  29.8020000  94.1780000  89.3530000  30.3260000
  15.7780000  63.4850000  35.1230000  14.9630000  63.0220000  35.6050000
  15.6940000  64.5350000  35.3590000  16.6510000  63.1040000  35.6700000
  15.7660000  63.3230000  33.6120000  14.8270000  63.7790000  33.1970000
  16.5820000  63.9730000  33.2260000  15.9560000  61.8550000  33.1250000
  15.3730000  61.2180000  33.7580000  15.6340000  61.5660000  32.1080000
  17.4910000  61.4180000  33.2640000  18.2660000  62.1010000  32.8900000
  17.7730000  61.2900000  34.3190000  17.7360000  60.0480000  32.5550000
  17.1100000  59.3700000  33.1150000  17.3980000  60.0590000  31.5860000
  19.2040000  59.4910000  32.7360000  19.5180000  59.3490000  33.8390000
  19.2290000  58.4740000  32.3600000  20.4330000  60.2300000  32.1010000
  20.5010000  61.1230000  32.6630000  21.3580000  59.6960000  32.1950000
  20.2570000  60.5900000  30.6580000  19.9600000  59.6940000  30.1590000
  19.5090000  61.3590000  30.4930000  21.5490000  61.1040000  29.9810000
  21.8950000  62.0090000  30.3040000  22.2360000  60.3560000  30.2920000
  21.5000000  61.1480000  28.4520000  21.2220000  60.1260000  28.0720000
  20.7760000  61.8680000  28.1450000  22.8280000  61.5730000  27.7060000
  23.0660000  62.6640000  27.8260000  23.6390000  60.9130000  28.1560000
  22.8310000  61.2510000  26.2150000  21.9310000  61.7290000  25.7890000
  23.6850000  61.7440000  25.8080000  22.6930000  59.8230000  25.7300000
  21.7880000  59.3540000  26.1350000  22.4640000  59.9090000  24.6250000
  23.9520000  58.9740000  26.0240000  24.0470000  58.6620000  27.0520000
  23.7610000  57.9520000  25.6170000  25.2840000  59.5690000  25.5040000
  25.1800000  59.7580000  24.4400000  25.3950000  60.5270000  26.0280000
  26.5180000  58.7470000  25.9420000  27.3560000  59.1490000  26.7250000
  26.5500000  57.5770000  25.3750000  27.5090000  56.6520000  25.7350000
  28.6060000  56.9880000  25.4810000  27.4380000  56.3170000  26.8210000
  27.3490000  55.4120000  24.8140000  28.1210000  54.6720000  25.0610000
  27.4330000  55.8840000  23.2990000  26.6180000  56.6040000  23.0990000
  28.3840000  56.2910000  23.0770000  27.4300000  54.7520000  22.3900000
  28.7730000  54.0250000  21.9510000  28.6680000  52.5360000  22.5950000
  27.6290000  51.6330000  22.2700000  27.4430000  51.6870000  21.1660000
  27.9190000  50.6250000  22.5380000  26.3180000  52.0750000  22.9950000
  26.0750000  51.3010000  23.7350000  26.4830000  53.0280000  23.5290000
  25.0810000  52.2260000  22.1210000  25.2430000  53.3910000  21.1860000
  25.2080000  54.3010000  21.7250000  26.1470000  53.3300000  20.6470000
  24.4010000  53.4350000  20.4890000  24.9550000  51.0140000  21.3550000
  25.2920000  50.1650000  21.9080000  23.8710000  50.8850000  21.1690000
  25.5340000  51.1040000  20.4200000  23.8220000  52.4030000  22.9490000
  23.6560000  51.4220000  23.4570000  22.9640000  52.4880000  22.3150000
  24.0490000  53.1810000  23.6860000  28.5900000  53.9620000  20.5110000
  29.9600000  54.7530000  22.4430000  26.0360000  54.8680000  25.1270000
  26.0510000  53.9770000  26.1620000  27.0220000  53.6160000  26.8160000
  24.6900000  53.3220000  26.4360000  24.4680000  52.5400000  25.7480000
  23.8240000  53.9480000  26.3120000  24.5890000  52.6500000  27.8290000
  24.9890000  53.3510000  28.5380000  25.1720000  51.7040000  27.7550000
  23.1060000  52.4790000  28.2240000  22.6250000  51.8520000  27.4860000
  22.7080000  53.5140000  28.1860000  22.8700000  51.9740000  29.6360000
  23.5220000  52.3200000  30.3170000  23.0130000  50.8950000  29.7500000
  21.5370000  52.4130000  30.2060000  20.7220000  52.2980000  29.4750000
  21.5520000  53.4530000  30.4800000  20.9740000  51.5230000  31.3610000
  21.2660000  50.4130000  31.2680000  19.8830000  51.6470000  31.3440000
  21.6490000  51.9980000  32.6530000  21.4340000  53.0280000  32.8190000
  22.7280000  51.7220000  32.7690000  20.8750000  51.2760000  33.7970000
  21.0690000  50.2050000  33.9050000  19.8930000  51.7460000  34.5170000
  19.3550000  51.0580000  35.2200000  19.2250000  53.0770000  34.4500000
  19.8460000  53.8270000  33.8910000  19.2860000  53.4750000  35.4820000
  17.8380000  52.7960000  33.8730000  17.2780000  52.0320000  34.4640000
  17.7700000  52.3600000  32.8240000  16.9270000  54.1230000  33.7800000
  15.9410000  53.9600000  33.3320000  17.5060000  54.7310000  33.1060000
  16.8700000  54.9390000  35.0290000  17.2670000  55.9140000  34.9620000
  17.4490000  54.4740000  35.7820000  15.4460000  55.0070000  35.6890000
  14.7370000  55.2680000  34.8820000  15.3630000  55.8110000  36.3770000
  14.8660000  53.7790000  36.4580000  15.4880000  53.5010000  37.3010000
  14.8160000  52.8850000  35.8500000  13.5070000  54.0740000  37.0320000
  12.9050000  54.6390000  36.2820000  13.6460000  54.7410000  37.8570000
  12.5900000  52.8560000  37.3740000  12.1430000  52.5800000  36.4520000
  11.8100000  52.9630000  38.1040000  13.0950000  52.0090000  37.7370000
  93.3870000  18.2880000  36.1910000  93.7400000  18.3610000  37.2060000
  93.6150000  19.1970000  35.5870000  93.9480000  17.4240000  35.7350000
  91.8910000  18.0590000  36.2940000  91.7090000  17.5420000  37.2130000
  91.4440000  19.0910000  36.2670000  91.5010000  17.3620000  34.9080000
  91.9390000  16.4270000  34.7310000  90.4420000  17.1660000  34.9130000
  91.7300000  18.2310000  33.7040000  91.3950000  19.2260000  33.9040000
  92.7780000  18.4360000  33.4410000  90.9330000  17.6840000  32.4270000
  91.4950000  18.0040000  31.5710000  91.0310000  16.6250000  32.4750000
  89.5160000  18.2330000  32.1630000  88.8690000  17.9930000  33.0290000
  89.6250000  19.2870000  32.2960000  89.0680000  17.7950000  30.7800000
  89.7330000  18.2790000  30.0810000  89.0840000  16.6560000  30.5910000
  87.6110000  18.2220000  30.4970000  86.9280000  17.8340000  31.2100000
  87.4800000  19.2690000  30.5170000  87.1410000  17.6610000  29.1240000
  87.3120000  16.5470000  29.0300000  86.0590000  17.6830000  29.0550000
  87.6620000  18.5440000  27.9970000  88.6720000  18.3940000  27.9780000
  87.4310000  19.6450000  28.2720000  87.0300000  18.1580000  26.5880000
  87.3020000  17.1330000  26.2810000  85.9470000  18.2260000  26.6710000
  87.5040000  19.0640000  25.3960000  87.4630000  20.1800000  25.6430000
  88.5620000  18.8560000  25.1940000  86.7340000  18.7080000  24.0830000
  86.6120000  17.5540000  23.9600000  85.7670000  19.2070000  24.1290000
  87.5310000  19.1900000  22.8200000  88.4610000  18.5950000  22.7960000
  86.9080000  18.7950000  21.9900000  87.8010000  20.7320000  22.5970000
  88.3990000  21.1950000  23.3820000  88.2940000  20.6450000  21.6480000
  86.5050000  21.4720000  22.4310000  86.1110000  22.1850000  23.3070000
  85.9000000  21.1570000  21.2590000  84.5900000  21.7350000  21.0600000
  83.8640000  21.5010000  21.8480000  84.6350000  22.8710000  20.9580000
  83.9270000  21.2950000  19.7440000  84.5270000  21.6370000  18.9260000
  82.4900000  21.8920000  19.5770000  81.8480000  21.8310000  20.4340000
  82.6740000  22.9340000  19.3360000  81.7340000  21.3130000  18.5210000
  82.1080000  21.4340000  16.9230000  80.7330000  21.2480000  16.2240000
  80.1940000  19.9570000  15.7950000  79.2700000  20.1230000  15.1430000
  80.9890000  19.4120000  15.3110000  79.7140000  19.1280000  16.9510000
  79.4390000  18.0690000  16.6260000  80.4430000  19.0910000  17.7180000
  78.5520000  19.5730000  17.7260000  78.6290000  21.0180000  18.1710000
  77.6840000  21.3180000  18.6060000  79.3800000  21.0900000  18.9740000
  78.8780000  21.7490000  17.3480000  77.2450000  19.3680000  17.0230000
  77.2360000  18.4530000  16.5070000  76.4040000  19.4630000  17.8110000
  77.1980000  20.1640000  16.2990000  78.5400000  18.8890000  19.0390000
  77.7620000  19.3760000  19.6110000  79.4950000  18.8920000  19.5680000
  78.0970000  17.9580000  18.9090000  82.6210000  22.8060000  16.7360000
  83.0200000  20.3310000  16.6320000  83.7080000  19.8420000  19.6360000
  84.5560000  19.0410000  19.0060000  85.6180000  19.4370000  18.5360000
  84.0620000  17.6150000  18.9210000  82.9780000  17.6920000  18.4380000
  83.9220000  17.2760000  19.9340000  85.0130000  16.7030000  18.1760000
  85.2770000  17.1210000  17.2280000  84.4550000  15.8380000  17.9700000
  86.2630000  16.4900000  19.0340000  85.9550000  16.4200000  20.0770000
  86.8870000  17.4060000  19.0260000  87.0470000  15.2250000  18.6030000
  87.3780000  15.2940000  17.5420000  86.4510000  14.2590000  18.8190000
  88.3110000  15.1660000  19.5030000  88.8380000  16.0250000  19.1850000
  88.9630000  14.2920000  19.2450000  88.1820000  15.2240000  20.9800000
  87.5740000  16.0500000  21.2500000  89.1960000  15.3290000  21.3590000
  87.5780000  13.9380000  21.5660000  88.1730000  13.0540000  21.3540000
  86.5220000  13.9270000  21.0870000  87.4180000  14.1100000  23.0860000
  86.4950000  14.5770000  23.4900000  88.2460000  13.5870000  24.0090000
  87.9950000  13.8260000  25.0560000  89.6430000  13.0820000  23.7280000
  90.1210000  13.5450000  22.9670000  89.5000000  12.0430000  23.3640000
  90.4110000  13.2150000  25.1070000  91.4660000  13.0880000  25.0350000
  90.0940000  12.3650000  25.7220000  90.3680000  14.6110000  25.8450000
  91.2350000  14.5610000  26.4810000  89.4620000  14.7160000  26.4600000
  90.4360000  15.8790000  24.9830000  89.3980000  16.0200000  24.6500000
  91.0690000  15.7300000  24.0510000  90.8680000  17.2530000  25.6410000
  90.1420000  17.7400000  26.2010000  91.0320000  17.9220000  24.7920000
  92.1260000  17.1330000  26.4940000  92.0800000  16.1960000  27.0380000
  92.1630000  17.9890000  27.1670000  93.3090000  17.1120000  25.4910000
  93.4510000  18.1480000  25.0490000  93.1940000  16.3990000  24.6810000
  94.6120000  16.8940000  26.2510000  94.6520000  17.6930000  27.0000000
  95.4320000  16.8300000  25.4770000  94.6010000  15.9480000  26.7470000
   4.4930000 101.7790000  37.6100000   4.9300000 100.8630000  38.0050000
   3.4660000 101.6920000  37.7100000   4.8720000 102.6170000  38.2210000
   4.7610000 101.8960000  36.0510000   5.7590000 102.2360000  35.9420000
   4.6590000 100.9910000  35.4580000   4.0300000 103.0540000  35.3270000
   2.9710000 103.0060000  35.4880000   4.4250000 103.9850000  35.7270000
   4.1630000 103.1050000  33.7580000   5.1340000 103.1820000  33.4330000
   3.8460000 102.1740000  33.3550000   3.3640000 104.2440000  33.1460000
   2.3320000 104.1010000  33.4620000   3.7120000 105.1230000  33.6530000
   3.3600000 104.3450000  31.5950000   3.1290000 103.3800000  31.1950000
   2.5610000 105.0200000  31.1970000   4.7130000 104.7120000  31.0320000
   4.9790000 105.5660000  31.6080000   5.5080000 103.9310000  31.1140000
   4.5760000 105.1590000  29.6070000   4.1970000 104.2650000  28.9990000
   3.9120000 106.0190000  29.5520000   5.9270000 105.6870000  29.0750000
   6.1180000 106.5250000  29.7370000   6.6760000 104.9480000  29.2950000
   5.9380000 106.1780000  27.6190000   5.2770000 107.0940000  27.5360000
   6.9690000 106.4250000  27.3940000   5.5550000 105.2040000  26.5020000
   4.5260000 104.8830000  26.5460000   5.6220000 105.7370000  25.5780000
   6.3650000 103.9140000  26.4340000   7.3890000 104.1000000  26.0670000
   6.4200000 103.4690000  27.4090000   5.7800000 102.9600000  25.3560000
   4.7500000 103.3000000  25.1720000   6.2290000 102.9350000  24.3820000
   5.9030000 101.5070000  25.9390000   5.3830000 101.4810000  26.8570000
   5.4020000 100.7030000  25.3790000   7.3070000 101.0580000  26.0910000
   8.0580000 101.7260000  26.5880000   7.2650000 100.1150000  26.5230000
   7.7530000 100.7400000  24.6520000   7.4470000  99.6750000  24.2070000
   8.4540000 101.7070000  24.1340000   8.6290000 101.6800000  22.6720000
   9.7030000 101.9270000  22.3880000   8.6390000 100.6210000  22.3920000
   7.5950000 102.4540000  21.8830000   6.6620000 102.3160000  22.4920000
   7.4670000 101.8710000  20.4310000   6.6490000 101.1690000  20.3700000
   7.1440000 102.6890000  19.8190000   8.7260000 101.2590000  20.0580000
   8.7820000 100.0690000  18.9860000   9.5260000 100.7450000  17.7510000
   9.0020000 101.7950000  16.9630000   9.4210000 101.8720000  15.9550000
   7.9660000 101.8100000  16.9010000   9.3180000 103.1850000  17.7110000
   9.0270000 103.9340000  17.0080000   8.7970000 103.4210000  18.6540000
  10.7540000 103.4480000  18.0120000  10.9600000 104.8810000  17.7270000
  10.4410000 105.4410000  18.4590000  12.0530000 105.0770000  17.6910000
  10.5410000 105.1180000  16.7130000  11.0970000 103.2130000  19.4450000
  10.5630000 103.9860000  19.9580000  10.8580000 102.1810000  19.7260000
  12.1870000 103.4330000  19.6450000  11.7490000 102.7570000  17.0930000
  12.7070000 103.0130000  17.5880000  11.6740000 103.0720000  16.0990000
  11.6830000 101.7070000  17.2230000   9.7960000  99.1310000  19.4790000
   7.4480000  99.5650000  18.7160000   8.0340000 103.8390000  21.8200000
   7.1030000 104.8370000  21.9130000   5.8790000 104.7070000  21.8590000
   7.8800000 106.1270000  22.1520000   7.8770000 106.7000000  21.2490000
   8.9680000 106.0130000  22.4100000   7.2670000 106.7590000  23.3980000
   7.9800000 107.4980000  23.7340000   7.2100000 105.9580000  24.1180000
   5.9340000 107.5580000  23.2090000   5.0330000 106.8520000  23.2750000
   5.9630000 107.9680000  22.1380000   5.6260000 108.6850000  24.2150000
   5.3340000 108.1940000  25.1890000   4.7050000 109.1750000  23.8670000
   6.7240000 109.7610000  24.3700000   6.8670000 110.2480000  23.3670000
   7.6750000 109.2590000  24.5720000   6.4980000 110.7270000  25.4940000
   7.3450000 111.3990000  25.4720000   6.5380000 110.1590000  26.5280000
   5.1380000 111.5250000  25.3310000   4.2760000 110.7940000  25.3560000
   5.2500000 111.9550000  24.3020000   5.0190000 112.6330000  26.3100000
   5.5340000 113.5430000  26.0500000   4.7720000 112.6000000  27.6250000
   4.9290000 113.5430000  28.2250000   3.9390000 111.4720000  28.2500000
   3.6930000 110.6520000  27.5440000   2.9570000 111.7580000  28.5360000
   4.6590000 110.9020000  29.4950000   4.8460000 111.7130000  30.1250000
   5.5520000 110.3530000  29.2060000   3.9010000 109.8120000  30.2360000
   3.9670000 108.8790000  29.5860000   2.8590000 110.0680000  30.4800000
   4.6430000 109.5090000  31.5100000   4.5170000 110.3930000  32.1790000
   5.7230000 109.3700000  31.2960000   4.0060000 108.2580000  32.2110000
   4.1500000 107.3260000  31.6350000   2.9870000 108.5170000  32.3780000
   4.7410000 108.0820000  33.5600000   5.7550000 108.1450000  33.2500000
   4.4930000 107.1340000  34.0460000   4.3580000 109.1810000  34.5580000
   4.6800000 110.1560000  34.1870000   4.8550000 108.9150000  35.4680000
   2.9020000 109.1160000  35.0100000   2.8210000 109.9100000  35.7860000
   2.6240000 108.1860000  35.4710000   2.1740000 109.3490000  34.2200000
 124.4820000 115.5020000  21.8700000 124.5480000 116.5070000  21.4720000
 123.4290000 115.1550000  21.9730000 124.9340000 114.9320000  21.0290000
 125.3640000 115.1040000  23.1320000 125.1070000 114.0560000  23.3810000
 126.3860000 115.2610000  22.9470000 125.0960000 115.9420000  24.4130000
 125.2930000 117.0070000  24.2050000 124.0340000 115.8090000  24.5900000
 125.9940000 115.4980000  25.5990000 125.8470000 116.1800000  26.4380000
 125.7410000 114.5010000  25.8870000 127.5470000 115.4230000  25.2860000
 127.8120000 114.7790000  24.3800000 127.9030000 116.4600000  25.1240000
 128.2370000 114.7240000  26.4780000 128.1720000 115.3400000  27.3520000
 127.8390000 113.7820000  26.8860000 129.7180000 114.4710000  26.2370000
 130.2240000 115.4650000  26.1710000 130.0410000 114.0770000  27.1990000
 130.1320000 113.5500000  24.9900000 129.9910000 114.1610000  24.1380000
 131.2130000 113.2990000  25.0710000 129.2930000 112.2060000  24.9730000
 129.7190000 111.5550000  25.7630000 128.2780000 112.3810000  25.2870000
 129.2970000 111.4280000  23.6360000 130.2730000 111.3620000  23.2260000
 128.9250000 110.4790000  23.8790000 128.3680000 112.0820000  22.5850000
 127.4600000 112.2510000  23.0490000 128.7500000 112.9560000  22.1440000
 127.9610000 111.1910000  21.4360000 128.7140000 110.4760000  21.2520000
 127.1930000 110.5730000  21.8480000 127.1590000 111.8660000  20.2690000
 126.1920000 112.1750000  20.6880000 127.6700000 112.7510000  19.8890000
 126.8190000 110.9280000  19.0870000 126.0840000 110.1640000  19.3070000
 126.2620000 111.4520000  18.3710000 127.9560000 110.1520000  18.3240000
 128.3350000 109.3510000  18.9270000 127.5770000 109.7340000  17.4040000
 129.1420000 110.9140000  17.9480000 129.1450000 112.1130000  17.8250000
 130.2230000 110.1680000  17.6140000 131.4110000 110.8440000  17.0800000
 131.9660000 110.0900000  16.5300000 131.1480000 111.6350000  16.3660000
 132.2530000 111.5400000  18.2130000 131.5740000 112.1530000  18.9390000
 133.1460000 112.6780000  17.5710000 132.6450000 113.6560000  17.5840000
 134.0770000 112.7470000  18.1420000 133.5760000 112.3790000  16.2240000
 134.6070000 113.1950000  15.4130000 135.8790000 112.2800000  15.4110000
 135.9710000 111.1120000  14.5620000 134.9720000 110.6630000  14.4290000
 136.2810000 111.4050000  13.5460000 136.8900000 110.0030000  15.2620000
 137.2960000 109.2880000  14.5290000 137.7200000 110.5920000  15.6180000
 136.4510000 109.3810000  16.4990000 135.9780000 110.2850000  17.5670000
 135.0280000 110.7570000  17.2810000 135.9220000 109.7130000  18.5270000
 136.7210000 111.0730000  17.7010000 135.3270000 108.3900000  16.2780000
 135.1830000 107.9350000  17.2330000 134.4280000 108.9310000  15.9620000
 135.6920000 107.5690000  15.5470000 137.6340000 108.6950000  16.9940000
 138.4520000 109.5310000  16.8800000 137.8480000 107.8350000  16.3320000
 137.5840000 108.3080000  18.0450000 134.1470000 113.1810000  14.0340000
 134.9300000 114.4910000  16.0200000 133.0300000 110.5970000  18.9430000
 132.5250000 110.1660000  20.1210000 131.3760000 110.4380000  20.5530000
 133.5870000 109.3360000  20.8500000 134.3540000 109.9680000  21.2290000
 134.0030000 108.5690000  20.1340000 132.9220000 108.6030000  22.0510000
 132.0650000 108.0950000  21.7030000 132.6890000 109.3220000  22.7960000
 133.7410000 107.5090000  22.7030000 134.6570000 107.9450000  23.0570000
 134.0500000 106.7400000  22.0020000 132.9520000 106.5880000  23.7150000
 132.1230000 106.0920000  23.0900000 132.3710000 107.1700000  24.4280000
 133.8480000 105.5710000  24.4590000 134.1770000 104.7350000  23.7980000
 133.1380000 105.2200000  25.1960000 135.0540000 106.2170000  25.1060000
 135.7750000 106.5460000  24.3900000 135.6080000 105.4830000  25.6900000
 134.6190000 107.3160000  26.1310000 133.7570000 107.0520000  26.7970000
 134.2650000 108.1500000  25.6060000 135.8370000 107.8480000  26.8230000
 136.3450000 107.0640000  27.3850000 136.3190000 109.1090000  26.8860000
 137.2600000 109.2010000  27.4030000 135.7780000 110.3750000  26.2060000
 135.2700000 110.1630000  25.2840000 136.5960000 111.0740000  26.0520000
 134.8150000 111.0240000  27.1870000 134.3510000 111.9190000  26.7020000
 135.3110000 111.4170000  28.0690000 133.6890000 110.1180000  27.6500000
 134.0860000 109.2160000  28.1240000 133.2010000 109.7820000  26.7580000
 132.7720000 110.8910000  28.6620000 132.8190000 111.9170000  28.3670000
 133.1310000 110.7880000  29.7300000 131.3210000 110.5860000  28.6850000
 131.1630000 109.5360000  28.8950000 131.0440000 110.7480000  27.6540000
 130.3900000 111.4840000  29.5890000 130.6910000 112.4620000  29.3330000
 130.5600000 111.3370000  30.6400000 128.9720000 111.3180000  29.0970000
 128.7170000 110.2190000  29.2790000 128.9500000 111.4860000  28.0090000
 127.9820000 112.2600000  29.7820000 126.9740000 112.0230000  29.4260000
 128.1840000 113.2710000  29.5310000 128.0310000 112.2720000  30.8540000
  75.6830000  12.2360000  31.3980000  76.7340000  12.5060000  31.2760000
  75.4220000  12.8840000  32.2530000  75.0630000  12.5950000  30.4860000
  75.5670000  10.7810000  31.8770000  74.6180000  10.3390000  31.7790000
  76.2430000  10.1680000  31.2390000  76.0780000  10.5720000  33.3540000
  76.1260000  11.4690000  33.9920000  75.4490000   9.7860000  33.8790000
  77.5060000   9.9890000  33.5890000  77.5880000   9.5280000  34.6420000
  77.5870000   9.2180000  32.8410000  78.6000000  10.9540000  33.1440000
  78.3290000  11.4040000  32.1510000  78.5960000  11.7820000  33.8340000
  79.9910000  10.3690000  33.0750000  80.1730000  10.0420000  34.0280000
  80.1530000   9.4730000  32.4430000  81.0800000  11.4200000  32.7150000
  81.1740000  12.1800000  33.5290000  81.9610000  10.8260000  32.6380000
  80.8820000  12.2620000  31.4420000  79.8830000  12.6570000  31.3880000
  81.5860000  13.0910000  31.5390000  81.1260000  11.5020000  30.0840000
  82.1290000  11.1320000  30.0940000  80.3680000  10.6660000  29.9990000
  81.0120000  12.4090000  28.8610000  81.5850000  13.4060000  29.0280000
  81.4200000  11.8710000  28.0420000  79.5550000  12.8610000  28.4740000
  79.0670000  13.2310000  29.3530000  79.7140000  13.7310000  27.8020000
  78.7320000  11.8170000  27.7090000  79.3490000  11.4340000  26.9550000
  78.4360000  11.0670000  28.4330000  77.4920000  12.4920000  27.0110000
  76.9750000  13.0210000  27.8780000  77.8700000  13.2350000  26.3710000
  76.6540000  11.4410000  26.3380000  76.5610000  10.5640000  26.9900000
  75.5950000  11.7150000  26.3900000  77.2650000  10.9320000  25.1000000
  78.3340000  10.7770000  25.1770000  76.7780000  10.0090000  24.9080000
  77.0060000  11.8270000  23.9490000  75.9320000  11.8960000  23.3540000
  78.0470000  12.6220000  23.7630000  77.7990000  13.8510000  22.9710000
  76.9040000  13.6880000  22.3970000  77.6300000  14.7030000  23.6370000
  78.9860000  14.2410000  22.0320000  78.9130000  15.2670000  21.6890000
  78.8780000  13.4250000  20.7330000  79.8020000  12.8400000  20.5450000
  78.0450000  12.7150000  20.8070000  78.7350000  14.3670000  19.6360000
  77.2640000  14.8690000  19.1980000  76.8040000  13.7840000  18.1210000
  75.4760000  13.6360000  17.6420000  75.0660000  14.6240000  17.4280000
  75.5030000  13.0990000  16.7560000  74.4990000  12.9770000  18.6840000
  74.3320000  13.5450000  19.5580000  73.4930000  12.9070000  18.1950000
  74.8750000  11.5650000  19.1690000  73.7670000  11.1290000  20.0880000
  73.8120000  10.0680000  20.3950000  73.7900000  11.7980000  20.9400000
  72.8540000  11.3510000  19.4700000  74.9320000  10.6990000  17.9950000
  74.1510000  11.0880000  17.2890000  75.9390000  10.8430000  17.4920000
  74.8080000   9.6200000  18.4190000  76.1410000  11.5360000  19.9160000
  75.9680000  12.1160000  20.7990000  76.8940000  12.0660000  19.3790000
  76.3340000  10.5300000  20.1920000  76.3820000  14.6710000  20.3740000
  77.4210000  16.1670000  18.5610000  80.3210000  13.9330000  22.5680000
  80.7100000  14.7040000  23.6310000  80.0420000  15.5710000  24.0930000
  82.0260000  14.3860000  24.2100000  82.2800000  15.2110000  24.9450000
  82.7330000  14.4020000  23.3470000  82.0340000  13.0070000  24.9140000
  81.6800000  12.1500000  24.3510000  81.3070000  13.0400000  25.7510000
  83.3730000  12.5980000  25.6520000  84.1780000  12.4180000  25.0050000
  83.1420000  11.7640000  26.2290000  83.8150000  13.6710000  26.6450000
  83.0210000  13.9470000  27.3620000  84.2150000  14.4830000  26.0630000
  84.9230000  13.0630000  27.5330000  85.6880000  12.5430000  26.8700000
  84.5110000  12.3370000  28.2030000  85.6760000  14.0700000  28.4680000
  84.9400000  14.4850000  29.2090000  86.0620000  14.8750000  27.8370000
  86.8080000  13.5070000  29.3520000  87.7280000  13.3370000  28.7530000
  86.4750000  12.4890000  29.6310000  87.0110000  14.3940000  30.5670000
  87.7410000  15.2060000  30.3370000  86.2900000  14.3470000  31.7110000
  86.6050000  15.0850000  32.4760000  85.1530000  13.3400000  32.1060000
  84.9730000  12.6970000  31.3110000  84.1960000  13.8370000  32.2460000
  85.2890000  12.6710000  33.4930000  84.6070000  11.8230000  33.3980000
  85.0320000  13.2950000  34.3600000  86.6300000  11.9560000  33.6970000
  87.3120000  12.6950000  34.1960000  86.9490000  11.5630000  32.6920000
  86.5340000  10.7530000  34.7080000  85.6550000  10.1240000  34.4050000
  86.4500000  11.1100000  35.7140000  87.8820000   9.9350000  34.6620000
  88.7610000  10.5230000  34.9580000  88.1460000   9.5750000  33.6780000
  87.7940000   8.6250000  35.5440000  86.8440000   8.2860000  35.7890000
  88.2700000   8.9550000  36.5210000  88.6940000   7.4610000  34.9890000
  89.6760000   7.8430000  34.7990000  88.2600000   7.2490000  34.0110000
  88.7400000   6.2100000  35.8440000  87.7880000   6.0960000  36.3580000
  89.4890000   6.2660000  36.5970000  88.9610000   5.2570000  35.2930000
  20.3300000  17.7300000  33.1950000  19.7460000  16.9420000  33.5930000
  20.8320000  18.2240000  34.0330000  20.9880000  17.1520000  32.6040000
  19.4380000  18.5900000  32.2940000  20.0150000  19.5160000  32.0810000
  19.2870000  18.0680000  31.3990000  18.1140000  18.7980000  32.9750000
  17.5810000  17.8350000  32.8400000  18.2820000  18.9920000  34.0450000
  17.2600000  19.8930000  32.3530000  17.4820000  19.8560000  31.2610000
  16.2440000  19.7000000  32.4590000  17.4970000  21.3450000  32.9480000
  17.0290000  21.4640000  33.8990000  18.5990000  21.4960000  33.1050000
  16.9490000  22.5080000  32.0640000  15.9300000  22.2940000  31.8310000
  16.8050000  23.4800000  32.6340000  17.6420000  22.6240000  30.7080000
  17.2910000  21.8650000  30.0450000  17.2660000  23.5960000  30.3200000
  19.1410000  22.7360000  30.4830000  19.6700000  23.4420000  31.1080000
  19.6080000  21.7100000  30.7100000  19.6480000  23.0080000  29.1070000
  19.1210000  22.3470000  28.4290000  19.4590000  24.0380000  28.8580000
  21.1680000  22.8190000  29.0370000  21.6150000  23.7020000  29.4960000
  21.4820000  22.0670000  29.6620000  21.7310000  22.6350000  27.6070000
  21.2630000  23.4240000  27.0810000  22.7440000  22.8940000  27.6270000
  21.5820000  21.2960000  26.9440000  22.4100000  20.6260000  27.2330000
  20.5920000  20.8860000  27.3190000  21.5590000  21.2960000  25.4560000
  22.5510000  21.5550000  25.1340000  21.3660000  20.3320000  25.0100000
  20.7070000  22.3280000  24.7730000  19.8620000  22.4790000  25.4800000
  21.2800000  23.2850000  24.7310000  20.1400000  21.8260000  23.4490000
  20.8750000  21.5510000  22.7120000  19.3140000  21.0340000  23.6510000
  19.5250000  22.9500000  22.6960000  18.3610000  22.9400000  22.3270000
  20.3810000  23.8460000  22.2390000  19.8420000  24.9470000  21.4490000
  19.3560000  24.5510000  20.5710000  19.0290000  25.4440000  21.9670000
  21.0150000  25.7740000  20.9340000  20.7660000  26.5310000  20.2160000
  22.1910000  24.9120000  20.2490000  22.9880000  25.5900000  20.1800000
  22.4740000  24.0020000  20.8320000  21.8890000  24.5610000  18.8910000
  23.0320000  23.9060000  17.9370000  23.0990000  25.0150000  16.8050000
  23.6220000  26.3820000  16.8890000  24.4840000  26.2610000  17.5480000
  23.9340000  26.7980000  15.9430000  22.6610000  27.3600000  17.6070000
  22.4420000  27.0220000  18.5810000  23.2130000  28.3580000  17.6230000
  21.3350000  27.6030000  16.9340000  20.4310000  26.3520000  16.7990000
  20.4560000  25.8170000  17.7300000  19.4000000  26.7150000  16.5960000
  20.8710000  25.7140000  15.9890000  20.5490000  28.5600000  17.7670000
  21.1990000  29.3760000  18.0050000  19.6730000  29.0050000  17.2780000
  20.3280000  28.0240000  18.6880000  21.4950000  28.2340000  15.5890000
  22.0700000  27.6190000  14.9170000  21.8940000  29.2450000  15.7150000
  20.4270000  28.3190000  15.3300000  24.2790000  24.0580000  18.7030000
  22.4540000  22.5820000  17.4990000  21.5610000  26.4320000  22.0690000
  22.3180000  27.5400000  21.9110000  22.3340000  28.1730000  20.8930000
  22.9280000  28.0040000  23.2780000  23.6400000  28.7480000  22.8580000
  23.5330000  27.2780000  23.8140000  21.8400000  28.5990000  24.1230000
  20.9650000  27.9110000  24.1450000  21.4460000  29.4910000  23.6840000
  22.3810000  28.9600000  25.5010000  23.3270000  29.4290000  25.3810000
  22.5240000  28.0430000  26.1110000  21.3390000  29.7840000  26.2620000
  20.4570000  29.1000000  26.3640000  21.1390000  30.6750000  25.6560000
  21.8870000  30.1050000  27.7170000  22.7560000  30.7120000  27.6560000
  22.2510000  29.0940000  28.0510000  20.8680000  30.6020000  28.7790000
  20.5310000  31.5820000  28.3920000  21.2860000  30.5500000  29.7430000
  19.6380000  29.6950000  28.8640000  19.9070000  28.6470000  28.9180000
  19.0560000  29.7450000  27.8720000  18.8030000  30.1580000  30.0080000
  18.1340000  30.9840000  29.6280000  18.7370000  29.7250000  31.2550000
  18.1410000  30.3430000  31.9560000  19.4550000  28.5050000  31.7890000
  19.6840000  28.7240000  32.8430000  20.3570000  28.2830000  31.3040000
  18.6860000  27.1980000  31.7540000  18.6090000  26.7940000  30.7880000
  17.6630000  27.4400000  32.1490000  19.1810000  26.1490000  32.7440000
  18.4820000  25.3380000  32.6440000  19.0760000  26.5390000  33.7750000
  20.5950000  25.6330000  32.6100000  21.1510000  26.4520000  32.9390000
  20.7710000  25.4190000  31.5490000  20.9570000  24.4000000  33.4810000
  20.2410000  23.6450000  33.2560000  20.8860000  24.6880000  34.5170000
  22.3500000  23.8320000  33.0930000  23.0640000  24.6710000  32.9680000
  22.3190000  23.4600000  32.0890000  22.8920000  22.5940000  33.9900000
  22.8160000  22.7590000  35.0170000  23.9590000  22.3930000  33.8420000
  22.2760000  21.2540000  33.7380000  21.2340000  21.1990000  34.0130000
  22.7940000  20.4510000  34.2410000  22.2780000  21.0200000  32.6350000
 112.7650000  83.1380000  31.8190000 111.9150000  82.7320000  31.3070000
 112.8840000  84.1360000  31.4370000 112.4790000  83.1060000  32.8360000
 114.0180000  82.2170000  31.5760000 113.7600000  81.2100000  31.9390000
 114.0360000  82.0710000  30.4730000 115.4100000  82.6800000  32.1070000
 115.8120000  83.4160000  31.4020000 115.2330000  83.1960000  33.0310000
 116.4280000  81.5710000  32.1720000 117.2920000  82.0290000  32.6280000
 116.0600000  80.8250000  32.8000000 116.7920000  81.0120000  30.7730000
 115.8520000  80.6100000  30.3640000 117.0640000  81.8350000  30.0750000
 117.9400000  79.9370000  30.7580000 118.8510000  80.4900000  31.0980000
 117.5950000  79.1150000  31.4330000 118.3020000  79.3010000  29.4430000
 117.4570000  78.7750000  29.0580000 118.6880000  79.9830000  28.7720000
 119.5090000  78.3430000  29.6300000 120.4590000  78.8380000  30.0120000
 119.4000000  77.4860000  30.2390000 119.7220000  77.8570000  28.1700000
 118.8460000  77.4450000  27.7850000 119.9060000  78.7860000  27.5830000
 120.8610000  76.8740000  27.9100000 121.8000000  77.4190000  28.2360000
 120.7910000  75.8870000  28.4410000 121.0070000  76.6340000  26.4330000
 121.4520000  75.6040000  26.3880000 120.0050000  76.5800000  26.0330000
 121.7300000  77.7200000  25.6000000 121.2940000  78.6830000  25.8360000
 122.7600000  77.6570000  25.9670000 121.7140000  77.6840000  24.0620000
 122.2520000  76.7990000  23.7330000 120.7160000  77.5850000  23.6150000
 122.5310000  78.9230000  23.4900000 122.0180000  79.8860000  23.6450000
 123.5040000  79.0330000  23.9930000 122.7580000  78.7760000  21.9720000
 123.2390000  77.8330000  21.7530000 121.7760000  78.8420000  21.4860000
 123.7000000  79.9050000  21.5150000 124.8790000  79.8260000  21.5570000
 122.9800000  80.9480000  20.9800000 123.7960000  81.9630000  20.2520000
 123.2550000  82.8320000  20.2100000 124.7550000  82.0720000  20.7400000
 124.0110000  81.4340000  18.8270000 124.7240000  80.5810000  18.9590000
 124.7750000  82.3730000  17.8610000 125.8480000  82.2310000  18.1210000
 124.4620000  82.1520000  16.8110000 124.4740000  83.8010000  18.2220000
 123.2040000  84.5660000  17.7420000 121.9050000  83.9950000  18.5030000
 120.7360000  83.6720000  17.6720000 120.5060000  84.4250000  16.9700000
 120.8240000  82.6780000  17.2340000 119.6030000  83.6110000  18.6390000
 118.7190000  83.5720000  17.9940000 119.8480000  82.6830000  19.2150000
 119.3200000  84.8940000  19.4560000 119.6530000  86.1790000  18.6560000
 120.6990000  86.2490000  18.4430000 118.9540000  86.2220000  17.8320000
 119.3750000  87.0510000  19.3280000 117.9070000  85.0460000  19.7680000
 117.7370000  85.9170000  20.4220000 117.3090000  85.1030000  18.9160000
 117.6280000  84.1930000  20.4600000 120.1090000  84.9950000  20.7600000
 120.1320000  85.9970000  21.1620000 121.0940000  84.7060000  20.4470000
 119.7940000  84.2410000  21.4990000 123.3490000  85.9440000  18.2200000
 123.1480000  84.4030000  16.2450000 122.7530000  81.0800000  18.1910000
 122.7430000  79.9670000  17.5020000 123.7040000  79.2260000  17.2560000
 121.3360000  79.5610000  16.9840000 121.4250000  78.8630000  16.1430000
 120.9760000  80.4090000  16.4960000 120.4210000  79.0430000  18.1480000
 120.4370000  79.7940000  18.9940000 120.7840000  78.0640000  18.4640000
 118.8880000  78.8590000  17.7940000 118.6010000  77.9600000  17.2490000
 118.5050000  79.5920000  17.0430000 117.9920000  78.9030000  19.0940000
 118.6470000  78.7580000  19.9110000 117.1770000  78.0390000  19.0470000
 117.1960000  80.1890000  19.3140000 116.5760000  80.3340000  18.3970000
 117.8290000  81.0840000  19.3180000 116.1720000  80.0910000  20.4710000
 115.6160000  79.0860000  20.4320000 115.3740000  80.7860000  20.3090000
 116.7740000  80.2990000  21.9250000 115.9700000  80.7580000  22.4440000
 117.5920000  81.0240000  21.8220000 117.2060000  78.9890000  22.6060000
 117.8710000  78.3910000  22.0500000 116.8540000  78.6240000  23.8640000
 117.2530000  77.7410000  24.3920000 115.8240000  79.3180000  24.7630000
 114.9080000  79.6330000  24.1800000 116.3580000  80.1960000  24.9950000
 115.4760000  78.5070000  26.0050000 116.4430000  78.1260000  26.3940000
 114.9660000  77.6400000  25.5830000 114.5640000  79.1480000  27.0350000
 115.0030000  80.0080000  27.5950000 114.4650000  78.2840000  27.7510000
 113.2650000  79.5510000  26.4520000 112.9700000  78.6680000  25.8100000
 113.3200000  80.5140000  25.8270000 112.1500000  79.7130000  27.4890000
 112.4290000  80.1990000  28.4740000 111.7700000  78.7550000  27.7640000
 111.0080000  80.4730000  26.8070000 110.6340000  79.7460000  26.0730000
 111.3020000  81.4480000  26.3430000 109.8800000  80.8540000  27.8540000
 109.7660000  80.0730000  28.6190000 108.9090000  80.7210000  27.3740000
 110.0110000  82.2310000  28.5650000 110.8300000  82.3480000  29.2770000
 109.0560000  82.3990000  29.1150000 110.1000000  82.9110000  27.7870000
  96.3680000 102.3980000  31.1820000  95.6940000 101.7290000  31.6400000
  97.3210000 102.4240000  31.7390000  96.6590000 102.0700000  30.1870000
  95.5750000 103.6990000  31.0700000  94.9520000 103.6980000  30.1970000
  94.8310000 103.6780000  31.8280000  96.4730000 104.9700000  30.9980000
  95.8020000 105.8680000  31.1330000  97.1860000 104.8700000  31.7950000
  97.2520000 105.1970000  29.7420000  98.2720000 104.8840000  29.8660000
  96.7410000 104.6970000  28.8960000  97.5190000 106.6970000  29.4260000
  96.6530000 107.3530000  29.4740000  98.2250000 107.0680000  30.2040000
  98.2180000 106.7510000  28.0360000  99.1150000 106.2020000  28.1070000
  97.5030000 106.3210000  27.2390000  98.5110000 108.1860000  27.5010000
  97.5880000 108.8050000  27.5050000  99.2440000 108.7470000  28.1440000
  98.8530000 108.3460000  26.0080000  97.9860000 108.2860000  25.4340000
  99.1440000 109.3740000  25.8870000  99.9650000 107.3950000  25.4550000
  99.6500000 106.3160000  25.3600000 100.1730000 107.7340000  24.4500000
 101.3440000 107.5100000  26.1840000 101.1440000 107.2720000  27.2930000
 101.9730000 106.7080000  25.7520000 102.0400000 108.9260000  26.1890000
 101.3440000 109.5450000  26.7890000 102.9760000 108.8040000  26.7120000
 102.4340000 109.3980000  24.8130000 103.2200000 108.7520000  24.5340000
 101.5690000 109.2840000  24.1340000 102.9760000 110.8190000  24.7620000
 103.9480000 110.7970000  25.2950000 103.1520000 111.1030000  23.7410000
 102.0890000 111.9540000  25.3140000 101.9700000 111.8430000  26.4190000
 102.6220000 112.8970000  25.2690000 100.7100000 112.1810000  24.6710000
 100.1490000 111.2850000  24.8000000 100.3450000 113.1390000  25.0990000
 100.8270000 112.2640000  23.1260000 100.9410000 113.3260000  22.5260000
 100.6600000 111.0500000  22.4990000 100.3740000 111.0200000  21.0750000
  99.8770000 110.1430000  20.8100000  99.7180000 111.8770000  20.8430000
 101.6570000 111.1710000  20.2320000 102.3170000 111.9890000  20.7290000
 101.2240000 111.4790000  18.7290000 100.1140000 111.7850000  18.7190000
 101.8380000 112.2860000  18.3730000 101.3390000 110.2980000  17.9450000
 100.5410000 110.0760000  16.5900000  99.6160000 108.8180000  16.8640000
  98.5600000 108.8700000  17.8160000  98.2840000 107.8880000  18.2250000
  98.8310000 109.5340000  18.5530000  97.3410000 109.5090000  17.1330000
  96.5930000 109.7590000  17.9250000  97.7130000 110.4530000  16.7740000
  96.6400000 108.8860000  15.9680000  95.4390000 109.5960000  15.4950000
  95.2060000 109.1270000  14.5550000  94.7310000 109.4110000  16.2730000
  95.5670000 110.7650000  15.4240000  97.5810000 108.8450000  14.8080000
  96.9900000 108.5140000  13.9060000  97.9870000 109.8660000  14.6900000
  98.3990000 108.1390000  14.9590000  96.3020000 107.4330000  16.3210000
  95.8590000 106.9640000  15.4480000  95.5530000 107.5260000  17.1150000
  97.1520000 106.9470000  16.6890000  99.6200000 111.1850000  16.1810000
 101.5280000 109.7470000  15.5780000 102.4850000 109.9810000  20.3880000
 103.7040000 110.0230000  19.8480000 104.2650000 110.9240000  19.2450000
 104.3360000 108.6420000  19.9760000 104.5780000 108.3650000  19.0100000
 103.6580000 107.9510000  20.4980000 105.5380000 108.6400000  20.8990000
 106.1780000 109.4390000  20.5700000 105.9870000 107.6550000  20.5870000
 105.2350000 108.8110000  22.3790000 104.5820000 108.0000000  22.6230000
 104.6180000 109.6320000  22.5450000 106.4690000 108.8170000  23.2670000
 106.8600000 109.7590000  23.1140000 107.2610000 108.1200000  22.8400000
 106.1660000 108.5590000  24.7570000 105.8350000 107.5630000  24.9050000
 105.3610000 109.2070000  25.1250000 107.4680000 108.8050000  25.5860000
 107.7940000 109.8060000  25.3180000 108.3430000 108.2140000  25.3570000
 107.1230000 108.6480000  27.1060000 106.9430000 107.5610000  27.2640000
 106.1530000 109.1210000  27.2590000 108.2260000 109.1570000  28.0570000
 109.1350000 108.6510000  27.8650000 108.1880000 110.0610000  29.0130000
 109.1370000 110.3610000  29.4910000 106.9010000 110.7970000  29.3940000
 106.3120000 110.8240000  28.4330000 107.0160000 111.8480000  29.6910000
 106.1700000 109.8500000  30.4320000 106.9430000 109.4910000  31.1830000
 105.8490000 108.9730000  29.9370000 104.9200000 110.4620000  31.0890000
 104.9080000 111.5260000  31.3450000 104.8650000 109.8490000  31.9520000
 103.7460000 110.1860000  30.1140000 103.5790000 109.0620000  30.1440000
 103.8910000 110.6480000  29.1310000 102.4110000 110.7920000  30.5760000
 101.8890000 110.7960000  29.6100000 102.6930000 111.8200000  30.8580000
 101.7470000 109.9930000  31.7630000 100.7740000 110.5420000  31.8530000
 102.3300000 109.9770000  32.7010000 101.3960000 108.5310000  31.3980000
 102.2870000 107.8830000  31.3790000 100.9200000 108.5030000  30.3640000
 100.3510000 107.9210000  32.4100000 100.3130000 106.8930000  31.9880000
  99.4170000 108.4450000  32.2560000 100.6830000 107.9190000  33.4410000
  69.4120000  80.2480000  33.3390000  69.6700000  81.2040000  32.8040000
  69.1790000  80.4570000  34.4060000  68.5550000  79.8200000  32.9390000
  70.5560000  79.1750000  33.3170000  70.8090000  79.0850000  32.2600000
  71.3660000  79.6070000  33.9490000  70.1750000  77.8290000  33.8590000
  70.9960000  77.1530000  33.5220000  70.3080000  77.7540000  34.9770000
  68.8050000  77.2560000  33.4420000  67.9920000  77.8460000  33.7970000
  68.6050000  77.3230000  32.3420000  68.5860000  75.7840000  33.9060000
  69.3580000  75.1580000  33.3680000  68.8190000  75.8410000  34.9590000
  67.1050000  75.2440000  33.6960000  66.5330000  75.7630000  34.5000000
  66.7840000  75.7160000  32.7680000  67.0630000  73.7030000  33.7640000
  67.7140000  73.3100000  32.9600000  67.5010000  73.3970000  34.7550000
  65.6740000  73.0840000  33.5290000  65.7540000  72.0310000  33.8640000
  64.9650000  73.5650000  34.2520000  65.1730000  73.0700000  32.0770000
  65.1270000  74.0960000  31.6830000  65.9160000  72.4930000  31.5400000
  63.8180000  72.4050000  31.9800000  63.8060000  71.5550000  32.6370000
  63.0130000  73.0440000  32.3230000  63.5660000  72.0140000  30.5050000
  64.4580000  71.4270000  30.1900000  62.6830000  71.4060000  30.3400000
  63.4310000  73.1410000  29.4240000  62.3310000  73.2870000  29.1540000
  63.8600000  74.0690000  29.7760000  64.0450000  72.7470000  28.0420000
  65.0580000  72.3270000  28.2480000  63.3530000  72.0030000  27.6530000
  64.2270000  74.0000000  27.1220000  64.9150000  74.7740000  27.6840000
  64.8120000  73.7880000  26.1970000  62.8750000  74.6740000  26.7530000
  62.0490000  73.9680000  27.0950000  62.7190000  75.6590000  27.2860000
  62.8560000  74.8950000  25.3180000  63.6610000  75.4840000  24.6510000
  61.7500000  74.3150000  24.8300000  61.4080000  74.4110000  23.3650000
  60.3490000  74.1310000  23.0940000  61.6500000  75.4970000  23.1340000
  62.3710000  73.5090000  22.5210000  63.3860000  73.7880000  22.6980000
  62.1380000  73.6870000  21.0500000  63.0670000  73.5790000  20.5350000
  61.5650000  72.8870000  20.5690000  61.6400000  74.9570000  20.7060000
  60.1990000  75.1150000  19.9660000  59.2970000  75.4270000  21.2320000
  58.9040000  76.8250000  21.4980000  58.5260000  76.8760000  22.5410000
  59.7570000  77.5110000  21.3590000  57.7420000  77.2520000  20.5480000
  57.5680000  78.3040000  20.8140000  58.0450000  77.1390000  19.5380000
  56.4050000  76.5330000  20.5920000  56.5480000  75.1520000  20.0400000
  55.6650000  74.8400000  19.4860000  57.4230000  75.1610000  19.3440000
  56.7140000  74.3930000  20.7820000  55.7630000  76.4890000  21.9840000
  56.3650000  75.8060000  22.6060000  55.6260000  77.5340000  22.3530000
  54.7860000  76.0430000  21.7910000  55.4520000  77.2760000  19.7620000
  55.3150000  78.2570000  20.1140000  54.5060000  76.7060000  19.8140000
  55.8030000  77.2890000  18.7560000  60.0360000  76.3090000  19.1460000
  59.7030000  73.8480000  19.4270000  62.1590000  72.0840000  22.7900000
  63.1330000  71.3260000  23.3250000  64.1740000  71.7560000  23.7030000
  62.9080000  69.8080000  23.3730000  62.0220000  69.6180000  22.7200000
  62.6150000  69.6320000  24.4860000  64.1700000  69.0040000  22.9960000
  65.1500000  69.4390000  23.3240000  64.2040000  69.0110000  21.8740000
  64.2320000  67.5580000  23.5310000  64.9170000  66.9870000  22.9190000
  63.2620000  67.1400000  23.4160000  64.5840000  67.4810000  25.0000000
  64.6210000  66.4280000  25.2800000  63.8300000  67.8800000  25.6440000
  66.0030000  67.9510000  25.3790000  66.6480000  67.9320000  24.5190000
  66.5040000  67.3010000  26.1030000  66.0500000  69.3890000  25.9910000
  65.4780000  69.3430000  26.9040000  65.5680000  70.0480000  25.2220000
  67.4710000  69.8980000  26.1960000  67.9080000  69.9780000  25.1350000
  68.0750000  69.2950000  26.8100000  67.4960000  71.3260000  26.6490000
  67.1380000  72.0090000  25.8150000  67.9980000  71.6350000  27.8120000
  67.9550000  72.6780000  28.1930000  68.4160000  70.6760000  28.9530000
  69.5290000  70.7700000  28.9870000  68.1020000  69.6440000  28.7970000
  68.0000000  71.0620000  30.3350000  66.9150000  70.9500000  30.4300000
  68.2330000  72.0710000  30.5490000  68.6750000  70.1940000  31.4030000
  69.0800000  69.2810000  30.9470000  67.8070000  69.8390000  32.0560000
  69.7610000  70.9120000  32.2070000  69.4620000  72.0280000  32.2780000
  70.7220000  70.7550000  31.6470000  70.0350000  70.1390000  33.5060000
  71.0850000  70.3840000  33.7790000  69.9710000  69.0630000  33.3440000
  69.1520000  70.6010000  34.6150000  68.1640000  70.7320000  34.1310000
  69.5780000  71.5010000  35.0230000  69.0340000  69.4660000  35.6740000
  70.0210000  69.0810000  36.1000000  68.5570000  68.6030000  35.2330000
  68.2490000  69.9560000  36.9120000  68.7360000  70.7520000  37.5520000
  68.1270000  69.0880000  37.5730000  67.1880000  70.2080000  36.7180000
 105.3590000  -3.7380000  40.8740000 105.3200000  -4.5230000  41.6320000
 105.4070000  -2.8060000  41.4020000 106.4170000  -3.6920000  40.3760000
 104.2030000  -3.6990000  39.8570000 103.7430000  -4.6820000  39.7910000
 103.4480000  -3.0570000  40.1830000 104.6130000  -3.3740000  38.3480000
 105.3560000  -2.5830000  38.4510000 105.1370000  -4.1780000  37.8700000
 103.4430000  -2.8230000  37.4910000 102.6370000  -3.5420000  37.4570000
 103.0860000  -1.9380000  37.9620000 103.9430000  -2.5040000  36.0420000
 104.5330000  -1.5670000  36.0350000 104.4340000  -3.3450000  35.6600000
 102.8670000  -2.2730000  35.0120000 102.2360000  -3.2080000  34.9600000
 102.2520000  -1.5420000  35.4530000 103.4000000  -1.8630000  33.6080000
 104.0880000  -1.0760000  33.8240000 103.9580000  -2.6700000  33.1830000
 102.2650000  -1.3520000  32.7030000 101.6130000  -2.2400000  32.5470000
 101.7420000  -0.5510000  33.2300000 102.6440000  -0.7230000  31.3650000
 103.4100000   0.1010000  31.5120000 103.1530000  -1.5240000  30.8150000
 101.4530000  -0.2060000  30.5920000 100.6270000  -0.9660000  30.6340000
 101.1070000   0.7680000  31.0980000 101.6400000  -0.0280000  29.0810000
 102.5050000   0.6640000  29.0370000 101.8630000  -0.9850000  28.5800000
 100.4550000   0.6230000  28.3100000 100.0930000   1.5500000  28.8430000
 100.8710000   0.9420000  27.3570000  99.3140000  -0.4110000  28.0350000
  98.9290000  -0.7750000  28.9120000  98.4860000   0.1200000  27.6130000
  99.6020000  -1.5870000  27.1200000 100.6310000  -1.9920000  27.3590000
  98.8500000  -2.3270000  27.3460000  99.6550000  -1.1780000  25.5700000
 100.3320000  -0.2990000  25.3790000 100.1670000  -1.9950000  24.9720000
  98.3460000  -0.8190000  24.9520000  97.2560000  -0.7950000  25.5310000
  98.5180000  -0.5050000  23.6690000  97.3580000   0.1180000  22.9930000
  97.5610000   0.2030000  21.9040000  96.5350000  -0.5820000  23.0420000
  97.0150000   1.4680000  23.3980000  96.9510000   1.3850000  24.4400000
  95.6700000   1.9390000  22.7500000  94.9610000   1.8060000  23.5180000
  95.6400000   3.0330000  22.4600000  95.3900000   1.1580000  21.5070000
  94.1690000   1.6600000  20.5440000  92.8380000   0.8310000  21.1420000
  92.8230000  -0.6360000  21.1190000  93.8770000  -0.9860000  21.0480000
  92.3060000  -0.8700000  22.0370000  91.9720000  -1.0810000  19.9100000
  91.6220000  -2.0720000  20.1760000  91.0370000  -0.4790000  19.8080000
  92.5230000  -1.3370000  18.5940000  93.9810000  -1.6480000  18.5180000
  94.3290000  -1.5700000  17.5290000  94.5070000  -0.9580000  19.1670000
  94.1190000  -2.6610000  18.8900000  91.6310000  -2.3460000  18.0110000
  90.7340000  -1.8070000  17.9110000  91.9560000  -2.7600000  17.0430000
  91.6890000  -3.1400000  18.7000000  92.2250000  -0.1390000  17.7510000
  92.8230000   0.6810000  18.0590000  91.1420000   0.1720000  17.8870000
  92.4950000  -0.3480000  16.7420000  93.9490000   3.0690000  20.8450000
  94.4410000   1.3020000  19.1420000  98.0420000   2.3670000  22.8660000
  99.0870000   2.6540000  23.6410000  99.1440000   2.2920000  24.8080000
 100.2510000   3.3180000  22.9360000 100.0550000   3.3700000  21.8640000
 101.1840000   2.8720000  23.1120000 100.3350000   4.7730000  23.3930000
  99.4570000   5.3130000  23.0500000 101.1410000   5.3290000  22.8740000
 100.5800000   5.0360000  24.8330000  99.6780000   4.7990000  25.4960000
 100.7060000   6.1230000  24.9640000 101.8390000   4.2080000  25.4090000
 102.6480000   4.0440000  24.7090000 101.3630000   3.2750000  25.6910000
 102.5050000   4.7580000  26.7070000 101.7630000   4.9150000  27.4920000
 102.7730000   5.7540000  26.4470000 103.6660000   3.9240000  27.1990000
 104.5170000   4.2170000  26.5960000 103.5100000   2.8630000  27.1270000
 104.0820000   4.2540000  28.6800000 104.8280000   3.6050000  29.0540000
 103.2910000   4.1520000  29.4800000 104.6030000   5.6990000  28.6010000
 103.8700000   6.4360000  28.6630000 105.8590000   6.0990000  28.4430000
 106.1260000   7.1460000  28.4520000 107.1070000   5.1970000  28.3840000
 106.8370000   4.1910000  28.6760000 107.9200000   5.4260000  29.0340000
 107.6790000   5.2020000  26.9390000 108.1640000   6.1590000  26.8270000
 106.8460000   5.2070000  26.2400000 108.7450000   4.1710000  26.5650000
 108.2680000   3.2260000  26.4300000 109.5150000   4.1320000  27.3720000
 109.3860000   4.6430000  25.2110000 109.6910000   5.6840000  25.1950000
 108.6390000   4.6440000  24.4030000 110.6420000   3.7270000  24.7320000
 111.4660000   3.9830000  25.3860000 110.8330000   4.0690000  23.7180000
 110.1560000   2.2290000  24.7830000 109.1660000   2.0400000  24.3010000
 109.9890000   1.9300000  25.8250000 111.2860000   1.3950000  24.1800000
 111.9720000   1.3310000  25.0240000 111.9380000   1.8930000  23.4870000
 110.7960000  -0.0060000  23.7670000 111.6540000  -0.6370000  23.6080000
 110.2240000  -0.1010000  22.7860000 110.1640000  -0.3450000  24.6070000
 105.6260000  39.6680000  30.7740000 105.7340000  40.7020000  31.0390000
 105.3640000  39.1380000  31.6860000 104.8510000  39.6770000  30.0710000
 106.7840000  38.9640000  30.0090000 107.2230000  39.5910000  29.2250000
 107.5350000  38.7320000  30.7810000 106.4370000  37.6550000  29.2530000
 106.0350000  37.7400000  28.2670000 107.3740000  37.1260000  29.1380000
 105.5490000  36.6350000  30.1140000 105.9960000  36.6400000  31.1290000
 104.5480000  36.9950000  30.1140000 105.6110000  35.1910000  29.5620000
 105.2700000  35.0800000  28.5170000 106.6610000  34.9050000  29.4920000
 104.8220000  34.2000000  30.3810000 104.6830000  34.6460000  31.3720000
 103.8050000  34.0360000  30.0180000 105.5250000  32.8400000  30.4170000
 106.4560000  32.9420000  31.0630000 104.8250000  32.1540000  30.9430000
 105.9110000  32.1960000  29.0760000 106.5100000  32.9160000  28.5450000
 106.6550000  31.4480000  29.2920000 104.7380000  31.8440000  28.1450000
 104.2700000  30.9290000  28.6990000 103.9780000  32.6640000  28.0830000
 105.2520000  31.4800000  26.7650000 106.2130000  31.1060000  26.8130000
 104.4600000  30.8020000  26.3580000 105.3120000  32.8040000  25.8960000
 104.2620000  33.1320000  25.6120000 105.6670000  33.5810000  26.4590000
 106.1240000  32.5100000  24.5850000 105.9920000  31.5520000  24.1260000
 105.8660000  33.2690000  23.8870000 107.6770000  32.6710000  24.7590000
 108.0740000  32.1100000  25.5610000 107.9980000  32.3570000  23.7940000
 107.9960000  34.1970000  25.0710000 107.4080000  34.4970000  25.9690000
 109.1070000  34.2230000  25.2490000 107.7760000  35.1180000  23.8320000
 106.7460000  35.1190000  23.5350000 107.8550000  36.0450000  24.3290000
 108.8110000  34.9300000  22.7050000 109.9900000  35.0130000  22.7680000
 108.2070000  34.8980000  21.4670000 109.0370000  34.6950000  20.2130000
 108.5850000  35.3310000  19.4540000 110.0490000  35.0940000  20.4130000
 109.0300000  33.1930000  19.8320000 109.5050000  33.1050000  18.7770000
 107.6240000  32.6090000  19.5470000 107.5060000  31.8000000  20.3060000
 106.8470000  33.2980000  19.8160000 107.5070000  32.1220000  18.1290000
 107.2500000  33.2280000  16.9360000 105.7090000  33.5660000  16.9230000
 104.9430000  33.5540000  15.6960000 103.9870000  34.0750000  15.8750000
 105.4120000  34.0270000  14.8090000 104.6170000  32.1430000  15.1870000
 104.0350000  32.1160000  14.2250000 105.5580000  31.6570000  14.8900000
 103.9610000  31.1300000  16.0660000 104.8840000  30.6580000  17.1000000
 105.0470000  31.5870000  17.7220000 104.5330000  29.8460000  17.7100000
 105.8430000  30.4460000  16.6080000 102.7620000  31.7370000  16.7190000
 101.9680000  32.0170000  16.0490000 102.4120000  30.9080000  17.3050000
 103.1390000  32.6390000  17.2880000 103.4170000  29.9490000  15.3020000
 102.8170000  29.3060000  15.9570000 104.2150000  29.3480000  14.7990000
 102.6750000  30.2240000  14.5320000 107.9940000  34.4180000  17.3100000
 107.5060000  32.6170000  15.5930000 109.7960000  32.3530000  20.6780000
 111.0980000  32.4080000  20.6050000 111.6020000  33.2050000  19.8920000
 111.7580000  31.5550000  21.5630000 112.8300000  31.3920000  21.3720000
 111.2820000  30.6300000  21.4320000 111.5590000  32.1200000  23.0160000
 110.5140000  32.1280000  23.2650000 111.9940000  33.1120000  23.0600000
 112.3060000  31.2410000  24.0370000 113.3190000  31.1260000  23.6380000
 111.9150000  30.1780000  24.0240000 112.3980000  31.6820000  25.5070000
 113.0570000  32.5570000  25.4660000 112.8660000  30.9160000  26.1460000
 111.0710000  32.1060000  26.0410000 110.2890000  31.3380000  25.8560000
 110.6650000  33.0570000  25.6080000 111.0790000  32.4450000  27.5380000
 111.6570000  33.3640000  27.5650000 111.5990000  31.6600000  28.0780000
 109.6560000  32.7550000  28.0380000 109.0930000  31.8060000  27.9740000
 109.1330000  33.5330000  27.4380000 109.4740000  33.0550000  29.5200000
 109.1470000  33.9950000  29.8150000 109.8030000  32.2480000  30.5520000
 109.6800000  32.5090000  31.6290000 110.4190000  30.9390000  30.2790000
 111.5140000  31.0150000  30.4820000 110.3340000  30.6090000  29.3020000
 109.8730000  29.8000000  31.2260000 109.8630000  30.1620000  32.2350000
 110.5080000  28.8990000  31.2100000 108.4930000  29.3460000  30.6610000
 108.6210000  28.9940000  29.6360000 107.7660000  30.1760000  30.5430000
 107.8170000  28.2690000  31.5610000 107.4150000  28.7490000  32.3400000
 108.5160000  27.5280000  32.0700000 106.6590000  27.6470000  30.8450000
 106.0690000  27.2160000  31.6140000 107.0080000  26.9220000  30.1670000
 105.6850000  28.6220000  30.0310000 106.2090000  29.1080000  29.1860000
 105.3830000  29.3450000  30.8440000 104.4130000  27.9190000  29.4280000
 103.7210000  28.6750000  28.9410000 103.8700000  27.4660000  30.2450000
 104.6840000  26.8510000  28.4150000 105.3880000  27.2260000  27.5800000
 103.7260000  26.5030000  28.0650000 105.2230000  26.0880000  28.8570000
  58.6870000 151.6010000  20.6030000  58.8040000 152.1460000  19.6680000
  59.6750000 151.2250000  20.8460000  58.4860000 152.2800000  21.3960000
  57.5920000 150.5090000  20.4880000  56.6880000 151.0610000  20.4060000
  57.7280000 149.8710000  19.5800000  57.4630000 149.6150000  21.7110000
  56.6600000 148.8910000  21.5240000  58.3860000 149.0670000  21.8420000
  57.1030000 150.4250000  22.9750000  58.0190000 150.8950000  23.4150000
  56.3150000 151.1170000  22.8660000  56.6710000 149.4430000  24.1090000
  55.8630000 148.8410000  23.7010000  57.5190000 148.7160000  24.1230000
  56.4170000 150.1100000  25.4640000  55.9480000 151.0900000  25.3600000
  55.6900000 149.5200000  26.0020000  57.6910000 150.1350000  26.2700000
  58.4920000 150.2090000  25.6380000  57.6980000 151.0570000  26.8500000
  58.0960000 148.9360000  27.1860000  58.1410000 147.9910000  26.6250000
  59.1140000 149.1800000  27.5130000  57.1120000 148.7800000  28.3590000
  56.9560000 149.7700000  28.9190000  56.1500000 148.3510000  28.0480000
  57.4160000 147.8020000  29.5070000  58.2040000 148.1020000  30.2800000
  56.5440000 147.5760000  30.1270000  57.8800000 146.4740000  28.9640000
  58.9160000 146.5710000  28.5140000  58.0970000 145.7750000  29.8040000
  56.8420000 145.6930000  28.0810000  55.8080000 145.7040000  28.5270000
  56.9140000 146.2580000  27.0710000  57.1650000 144.2090000  27.6780000
  58.1130000 144.2040000  27.1210000  57.1730000 143.5380000  28.5450000
  56.0700000 143.6570000  26.7110000  55.1260000 143.6080000  27.2550000
  56.0300000 144.3250000  25.8500000  56.2540000 142.2200000  26.2650000
  57.2520000 142.0640000  25.8990000  56.1220000 141.5660000  27.1210000
  55.3820000 141.6980000  25.0920000  54.3940000 142.2620000  24.7490000
  55.8940000 140.6820000  24.4170000  55.2240000 140.1150000  23.1990000
  55.7920000 139.2470000  22.9010000  54.2500000 139.7940000  23.4600000
  55.1270000 141.2050000  22.0150000  54.8950000 142.2590000  22.3150000
  54.0110000 140.7990000  21.0160000  52.9960000 141.0120000  21.5120000
  54.1270000 141.4860000  20.1050000  54.0370000 139.4290000  20.5640000
  53.0690000 138.9490000  19.3660000  51.8220000 138.2140000  20.0840000
  50.4900000 138.7020000  20.0340000  49.9050000 138.1720000  20.8100000
  50.4420000 139.7650000  20.3350000  49.8480000 138.5300000  18.6300000
  48.8450000 138.7770000  18.7230000  50.5440000 139.2160000  18.0080000
  49.8830000 137.1410000  17.9830000  49.4850000 136.0910000  18.8870000
  50.2080000 136.0560000  19.7020000  48.5740000 136.5620000  19.2570000
  49.3860000 135.1290000  18.3440000  48.9030000 137.1850000  16.8730000
  49.1380000 137.9640000  16.1230000  48.8820000 136.2330000  16.3910000
  47.9650000 137.4010000  17.2990000  51.2200000 136.7730000  17.4850000
  51.4160000 135.7150000  17.2530000  51.8260000 137.0630000  18.3060000
  51.5130000 137.4120000  16.6600000  52.5420000 140.1730000  18.7210000
  53.7890000 137.9110000  18.5550000  56.3910000 141.1350000  21.3060000
  57.3650000 141.9030000  21.7900000  57.2000000 142.6630000  22.7200000
  58.6840000 141.7240000  21.1620000  58.8140000 140.8310000  20.5620000
  59.4490000 141.6110000  21.9870000  59.0260000 142.9500000  20.3270000
  58.1790000 143.1750000  19.6860000  59.8960000 142.6270000  19.7430000
  59.4030000 144.2360000  21.0670000  60.1150000 144.0820000  21.8720000
  58.5690000 144.8010000  21.4490000  59.9640000 145.2700000  20.1100000
  59.3340000 145.4170000  19.2510000  60.9590000 145.0450000  19.7840000
  60.0320000 146.6740000  20.7280000  59.0960000 146.7980000  21.1670000
  60.1610000 147.3980000  19.8850000  61.1860000 146.9890000  21.7290000
  62.1290000 146.6760000  21.2540000  61.0350000 146.3500000  22.6670000
  61.1340000 148.4170000  22.1380000  60.2190000 148.4740000  22.8330000
  61.2140000 149.2440000  21.3340000  62.2290000 148.7050000  23.1770000
  62.9210000 147.9230000  23.4280000  62.4590000 149.9230000  23.6790000
  63.3400000 150.0010000  24.3500000  61.5770000 151.1850000  23.6470000
  60.7400000 151.0700000  22.9990000  62.0800000 152.1270000  23.3390000
  61.0410000 151.4680000  25.0490000  61.7420000 151.7670000  25.7870000
  60.4870000 150.5800000  25.3040000  60.0400000 152.7290000  25.0900000
  59.0860000 152.4960000  24.7180000  60.3280000 153.5100000  24.3520000
  59.9480000 153.3500000  26.5050000  60.9430000 153.5360000  26.8210000
  59.5560000 152.5120000  27.0870000  58.9540000 154.5050000  26.7310000
  58.0820000 154.2070000  26.1890000  59.2710000 155.4580000  26.3370000
  58.4510000 154.7740000  28.2070000  57.8610000 155.6920000  28.2400000
  59.2500000 154.9850000  28.9630000  57.4530000 153.6480000  28.6920000
  58.0800000 152.6640000  28.6430000  56.5300000 153.5670000  28.0990000
  57.0740000 153.8960000  30.1880000  56.5000000 154.8060000  30.3250000
  57.9750000 153.9790000  30.7790000  56.5220000 153.1240000  30.6570000
  91.4950000 131.8670000  31.3620000  90.8600000 131.0370000  31.2610000
  91.6010000 132.3240000  32.3320000  92.4970000 131.5310000  31.1200000
  90.9600000 133.0220000  30.4870000  89.8980000 133.1760000  30.7720000
  91.4700000 133.9830000  30.6820000  90.9460000 132.7480000  29.0050000
  91.9890000 132.5190000  28.6220000  90.4190000 131.8600000  28.7660000
  90.3940000 133.8300000  28.0600000  91.0260000 134.7150000  28.1090000
  90.5240000 133.3210000  27.0710000  88.9090000 134.1740000  28.3340000
  88.7290000 134.6900000  29.2890000  88.6610000 134.9830000  27.6060000
  87.8150000 133.1380000  27.9920000  88.0460000 132.1480000  28.4380000
  86.8370000 133.5300000  28.3180000  87.6470000 132.8350000  26.4780000
  87.6060000 133.8550000  26.0480000  88.5550000 132.3520000  26.0620000
  86.4090000 131.9940000  26.3290000  86.4300000 131.0640000  26.8840000
  85.5810000 132.6050000  26.6840000  86.1580000 131.8070000  24.8320000
  86.0970000 132.8430000  24.4710000  87.0010000 131.3810000  24.3290000
  84.8820000 130.9670000  24.2570000  83.9410000 131.3930000  24.6520000
  84.9310000 131.0300000  23.1890000  84.6560000 129.4860000  24.7570000
  84.5880000 129.4140000  25.8800000  83.6830000 129.2100000  24.3980000
  85.5930000 128.4010000  24.1310000  85.6690000 128.4240000  23.0620000
  86.5800000 128.5990000  24.5660000  85.0370000 127.0590000  24.5600000
  84.7660000 127.0110000  25.6260000  84.2160000 126.8210000  23.8580000
  86.0190000 125.9170000  24.3750000  86.7800000 125.9590000  25.2620000
  85.4610000 125.0250000  24.5710000  86.7080000 125.8150000  22.9930000
  87.3990000 126.5480000  22.8390000  87.2390000 124.8600000  22.7680000
  85.8060000 125.9190000  21.7800000  84.7260000 125.3580000  21.6510000
  86.4750000 126.5190000  20.8180000  85.8170000 126.8800000  19.5800000
  86.6260000 126.9700000  18.8070000  85.1560000 126.1150000  19.2100000
  85.1210000 128.2920000  19.6990000  84.7230000 128.5600000  18.6470000
  86.0750000 129.3520000  20.2180000  85.6600000 130.3430000  20.2940000
  86.4810000 129.1840000  21.2270000  87.1180000 129.5000000  19.1290000
  88.6870000 129.1830000  19.3650000  89.3950000 130.6380000  19.3890000
  89.8840000 131.2760000  20.6160000  90.0590000 132.2280000  20.2570000
  89.1270000 131.2010000  21.4260000  91.1140000 130.4960000  21.1760000
  91.4210000 131.0240000  22.0960000  91.0000000 129.4700000  21.4850000
  92.3260000 130.4440000  20.2920000  92.0630000 129.8420000  19.0190000
  91.5950000 128.8880000  19.2260000  91.3680000 130.5630000  18.5560000
  92.9140000 129.7060000  18.3600000  92.8610000 131.8810000  20.0540000
  93.0450000 132.5390000  20.9040000  93.7860000 131.7530000  19.5030000
  92.1820000 132.3560000  19.4210000  93.5180000 129.8240000  21.0750000
  93.8460000 130.6520000  21.6610000  94.3070000 129.3270000  20.3820000
  93.0870000 129.1350000  21.7420000  88.9190000 128.5490000  20.7190000
  89.1730000 128.4080000  18.2080000  84.0350000 128.1810000  20.6490000
  82.7420000 128.4600000  20.3880000  82.2890000 128.6150000  19.2710000
  81.8530000 128.5040000  21.5860000  80.8880000 129.1290000  21.5000000
  82.4370000 129.0350000  22.4070000  81.5350000 127.0560000  22.0620000
  82.5010000 126.4690000  22.1190000  80.8610000 126.6660000  21.2930000
  80.8260000 126.9170000  23.4090000  79.8290000 127.3080000  23.2890000
  81.2970000 127.3520000  24.2240000  80.5510000 125.4160000  23.6770000
  81.5470000 124.9220000  23.6040000  79.9190000 125.0490000  22.9460000
  79.9450000 124.9760000  25.0580000  80.1000000 125.8380000  25.7780000
  80.4760000 124.0750000  25.4580000  78.4220000 124.6910000  24.9550000
  78.1620000 124.0740000  24.0880000  77.9120000 125.6440000  24.8920000
  77.8860000 123.9640000  26.1730000  78.1330000 124.4430000  27.0770000
  78.3410000 122.9940000  26.1160000  76.3370000 123.8510000  26.0810000
  75.9010000 124.1570000  25.1290000  75.5450000 123.5480000  27.1730000
  74.4420000 123.6100000  27.1270000  75.9810000 123.1100000  28.5430000
  77.0090000 123.2730000  28.8080000  75.8430000 122.0470000  28.6270000
  75.0500000 123.6640000  29.6180000  74.0020000 123.5560000  29.2910000
  75.2670000 124.6900000  29.7620000  75.2760000 123.0740000  31.0030000
  75.1750000 121.9690000  30.8810000  74.4900000 123.3970000  31.6610000
  76.6070000 123.4810000  31.6510000  76.3900000 124.2660000  32.3660000
  77.3170000 123.9210000  30.8770000  77.2470000 122.1740000  32.3310000
  77.6640000 121.6550000  31.5280000  76.5560000 121.5150000  32.8560000
  78.4190000 122.6030000  33.0990000  78.0900000 123.0120000  34.0180000
  78.9160000 123.4670000  32.6280000  79.4700000 121.5150000  33.3470000
  80.1020000 121.3620000  32.4790000  78.9540000 120.5850000  33.6750000
  80.4300000 122.0770000  34.4400000  81.0780000 121.1920000  34.6590000
  79.7460000 122.4250000  35.2290000  80.9980000 122.8890000  34.0460000
 109.4470000  25.3360000  27.7570000 109.5400000  24.6780000  26.9150000
 108.4270000  25.6300000  27.8700000 109.7180000  24.7390000  28.6480000
 110.2170000  26.7030000  27.7340000 109.6490000  27.4840000  27.2190000
 110.3460000  27.0250000  28.7770000 111.6130000  26.4860000  27.0640000
 112.2870000  26.0060000  27.7970000 111.4810000  25.8900000  26.1570000
 112.1330000  27.8680000  26.7990000 111.7150000  28.1410000  25.8670000
 111.8490000  28.5950000  27.4730000 113.6840000  27.9590000  26.7050000
 113.9850000  29.0060000  26.7940000 114.0290000  27.3790000  27.5320000
 114.2070000  27.3330000  25.4580000 113.9810000  26.3110000  25.2820000
 113.7520000  27.7770000  24.5740000 115.7460000  27.4410000  25.3440000
 115.9580000  28.4650000  25.6830000 116.3700000  26.8290000  26.0370000
 116.2500000  27.1170000  23.9280000 117.3160000  26.9110000  24.0330000
 115.6870000  26.2330000  23.5790000 116.0630000  28.3180000  22.9900000
 115.0460000  28.5950000  23.0340000 116.7030000  29.1120000  23.2850000
 116.4420000  28.1010000  21.5190000 117.4710000  27.7200000  21.4430000
 115.7690000  27.3950000  21.0980000 116.3810000  29.4090000  20.6790000
 116.9500000  30.2130000  21.2400000 116.9960000  29.2810000  19.7490000
 114.9790000  30.0220000  20.3230000 114.2850000  29.1970000  20.0790000
 114.5630000  30.6760000  21.1210000 115.1170000  31.0190000  19.1170000
 115.4790000  30.3710000  18.2360000 114.1460000  31.4760000  18.8800000
 116.1380000  32.1480000  19.2260000 115.9430000  32.7010000  20.1270000
 117.1160000  31.7770000  19.4690000 116.2390000  33.0880000  17.9870000
 115.4690000  33.8770000  17.9870000 117.1180000  33.6750000  18.1750000
 116.5260000  32.3960000  16.6770000 116.0450000  32.5750000  15.5810000
 117.5520000  31.5270000  16.8050000 118.0930000  30.9250000  15.5620000
 117.4870000  30.1560000  15.2610000 118.0660000  31.7750000  14.8030000
 119.5090000  30.4310000  15.6390000 120.2270000  31.2390000  15.7430000
 119.9320000  29.6550000  14.3930000 120.8860000  28.9790000  14.5750000
 119.0560000  28.9250000  14.3230000 120.0330000  30.4460000  13.1810000
 121.3230000  31.3410000  12.8910000 121.9080000  30.6320000  11.5850000
 123.3000000  30.2610000  11.5890000 123.6490000  30.7460000  10.6480000
 123.8330000  30.6600000  12.4650000 123.4210000  28.7520000  11.3900000
 123.2170000  28.4310000  10.3670000 124.5500000  28.6550000  11.6440000
 122.7410000  27.7990000  12.3120000 121.2700000  27.7830000  12.1070000
 121.0710000  27.2360000  11.1980000 120.8220000  27.2140000  12.9270000
 120.9330000  28.7840000  12.0720000 123.1870000  26.4390000  11.9430000
 124.2610000  26.4260000  12.0900000 122.9850000  25.7430000  12.7530000
 122.9290000  26.1290000  10.9300000 123.0350000  27.9780000  13.8140000
 124.0970000  27.5520000  13.9020000 122.2770000  27.4430000  14.3990000
 122.9240000  29.0490000  14.1350000 120.8320000  32.6870000  12.4920000
 122.2700000  31.1450000  14.0310000 119.6920000  29.4640000  16.7630000
 120.2390000  29.9140000  17.8960000 120.7100000  31.0420000  18.0250000
 120.2830000  28.8470000  19.0110000 120.0130000  27.8910000  18.5350000
 119.5840000  29.0380000  19.7920000 121.6510000  28.8950000  19.6680000
 121.9030000  29.9290000  19.9990000 122.2670000  28.6440000  18.8390000
 121.8500000  27.9220000  20.8370000 122.8930000  28.0020000  21.2070000
 121.6610000  26.9650000  20.4200000 120.8820000  28.2290000  21.9680000
 119.8510000  28.0100000  21.6530000 120.9310000  29.3050000  22.1450000
 121.2130000  27.5900000  23.2730000 120.7480000  28.1610000  24.0950000
 122.3050000  27.5680000  23.3730000 120.8590000  26.0700000  23.3990000
 121.5090000  25.6140000  22.7130000 119.7580000  25.9300000  23.0080000
 121.0810000  25.4930000  24.8230000 120.3850000  25.9460000  25.5200000
 122.0910000  25.6380000  25.2030000 120.8440000  23.9510000  24.7270000
 121.7150000  23.2820000  24.5480000 119.6830000  23.3030000  25.0250000
 119.6980000  22.2470000  25.1130000 118.2950000  23.8780000  25.3860000
 117.6940000  23.8820000  24.5250000 118.4380000  24.9200000  25.7880000
 117.6850000  23.0770000  26.5100000 118.4680000  22.8880000  27.2720000
 117.4620000  22.1100000  26.0680000 116.4020000  23.7820000  26.9690000
 115.7030000  24.0340000  26.1580000 116.6790000  24.7100000  27.4460000
 115.7610000  22.9940000  28.1420000 116.5420000  23.0840000  28.8870000
 115.6550000  21.8900000  27.9130000 114.4450000  23.7030000  28.7010000
 113.5840000  23.2670000  28.1660000 114.5340000  24.7930000  28.5030000
 114.0960000  23.4010000  30.1400000 114.8760000  23.7320000  30.7970000
 113.9510000  22.3550000  30.3330000 112.8190000  24.3180000  30.3960000
 111.9990000  24.0640000  29.7200000 113.0880000  25.3360000  30.1220000
 112.3350000  24.3280000  31.8590000 112.0320000  23.3090000  32.1580000
 111.5440000  25.0240000  32.0910000 113.1480000  24.6070000  32.5050000
  78.3090000   8.5540000  38.9570000  78.2230000   9.5700000  39.2400000
  78.1540000   7.9940000  39.8470000  77.4590000   8.2690000  38.2780000
  79.6900000   8.3400000  38.2770000  80.4000000   8.4770000  39.0050000
  79.7960000   7.2800000  37.8460000  79.8360000   9.4770000  37.1870000
  79.0250000   9.3310000  36.4410000  79.5550000  10.4680000  37.6830000
  81.2530000   9.6060000  36.5800000  81.4800000  10.4940000  36.0120000
  81.9250000   9.8100000  37.4040000  81.8300000   8.3830000  35.8200000
  81.5500000   7.4300000  36.3480000  81.2740000   8.1330000  34.9180000
  83.3400000   8.4130000  35.4250000  83.5050000   9.4100000  35.0180000
  83.9560000   8.3270000  36.3240000  83.7750000   7.2940000  34.4750000
  84.8430000   7.3200000  34.4430000  83.4380000   6.3870000  34.8040000
  83.3060000   7.4270000  33.0700000  82.2270000   7.4930000  33.1210000
  83.7610000   8.3830000  32.6800000  83.7620000   6.3120000  32.1360000
  83.2520000   5.4240000  32.4160000  83.4420000   6.5720000  31.0840000
  85.2930000   6.1190000  32.1400000  85.4020000   5.7350000  33.1080000
  85.5270000   5.3920000  31.3760000  86.2290000   7.3340000  31.9150000
  86.0240000   8.0440000  32.7440000  87.3030000   6.9990000  31.7370000
  85.8070000   8.0510000  30.6230000  85.6720000   7.2740000  29.8210000
  84.8280000   8.5280000  30.6960000  86.7500000   9.1590000  30.1380000
  86.6170000  10.0300000  30.7950000  87.7390000   8.7620000  30.1710000
  86.3940000   9.5490000  28.6990000  85.3750000   9.7580000  28.4520000
  86.9940000  10.4800000  28.6470000  86.9030000   8.6200000  27.6450000
  87.9400000   8.3820000  27.8140000  86.3610000   7.6280000  27.8510000
  86.6820000   9.1310000  26.2630000  86.9580000  10.2640000  25.8520000
  86.3120000   8.1670000  25.4650000  86.1230000   8.3480000  24.0270000
  85.7050000   7.4040000  23.6440000  85.4660000   9.1300000  23.9110000
  87.4310000   8.7320000  23.2480000  87.5790000   9.7830000  23.5350000
  87.2120000   8.7220000  21.7240000  86.5380000   9.4940000  21.3830000
  88.1340000   9.0230000  21.2130000  86.6950000   7.4270000  21.2770000
  87.4600000   6.6890000  20.1090000  88.5240000   5.7580000  20.8950000
  89.9460000   6.0120000  20.7730000  90.1590000   6.8130000  20.1280000
  90.4310000   6.1980000  21.7600000  90.8140000   4.8580000  20.2060000
  91.8240000   5.1870000  20.0570000  90.7510000   4.0150000  20.7960000
  90.5120000   4.4350000  18.8110000  91.6350000   3.5730000  18.2680000
  92.6160000   4.1770000  18.1380000  91.7720000   2.6680000  18.9440000
  91.5330000   3.3360000  17.2280000  89.3470000   3.4600000  18.8250000
  89.6540000   2.5040000  19.2340000  88.6450000   3.8910000  19.5040000
  88.8420000   3.3020000  17.8600000  90.2580000   5.5620000  17.8380000
  89.3420000   6.1520000  18.1300000  89.9190000   5.1890000  16.8900000
  91.2300000   6.0260000  17.6750000  86.5030000   5.7780000  19.3740000
  88.1950000   7.7120000  19.2990000  88.4950000   7.7870000  23.7160000
  89.7640000   8.3040000  23.5580000  90.0940000   9.2180000  22.7840000
  90.7870000   7.6570000  24.4160000  91.8070000   7.7130000  24.0020000
  90.4080000   6.6030000  24.5210000  90.7540000   8.3800000  25.7540000
  89.7200000   8.5260000  26.0840000  91.2070000   9.3740000  25.6870000
  91.3640000   7.5780000  26.9380000  92.4500000   7.5190000  26.7300000
  90.8860000   6.6680000  26.9620000  91.1190000   8.3110000  28.2540000
  90.1560000   8.6180000  28.4610000  91.5800000   9.3390000  28.2350000
  91.6220000   7.4670000  29.4360000  91.1770000   6.4900000  29.5660000
  91.2890000   8.0110000  30.3260000  93.1240000   7.0180000  29.2880000
  93.7630000   7.8680000  28.9800000  93.1780000   6.2680000  28.4560000
  93.6920000   6.3380000  30.5490000  93.6060000   5.2730000  30.5570000
  93.3020000   6.7760000  31.4900000  95.1680000   6.5580000  30.3840000
  95.4320000   6.2330000  29.3360000  96.0840000   6.7870000  31.3350000
  97.1750000   6.7100000  31.0210000  95.7630000   7.0740000  32.8220000
  94.7900000   6.6500000  33.1090000  95.6510000   8.1920000  32.8560000
  96.7910000   6.4930000  33.7640000  97.7580000   7.0040000  33.6950000
  97.0690000   5.4370000  33.5480000  96.3400000   6.6470000  35.2280000
  97.0100000   6.0680000  35.8530000  95.4300000   6.2020000  35.4840000
  96.4950000   8.1090000  35.7020000  95.8130000   8.8510000  35.1900000
  97.4690000   8.4730000  35.4060000  96.1870000   8.1080000  37.2270000
  95.3510000   7.4370000  37.4190000  95.9020000   9.1610000  37.5130000
  97.4470000   7.7030000  38.0940000  98.2420000   8.3180000  37.7090000
  97.6770000   6.6790000  37.7520000  97.2350000   7.7520000  39.6190000
  97.7370000   6.9230000  40.0920000  96.2340000   7.5930000  39.8340000
  97.5370000   9.0830000  40.3330000  98.5400000   9.5190000  40.2910000
  97.3020000   8.9260000  41.3650000  96.8490000   9.8560000  39.9760000
  49.7090000 149.4720000  33.0020000  50.7510000 149.5760000  32.9670000
  49.4990000 148.3870000  32.8600000  49.2420000 149.8540000  33.9410000
  49.2130000 150.2930000  31.7530000  49.4870000 151.3610000  31.9680000
  49.7360000 149.9510000  30.7980000  47.7370000 150.2350000  31.6390000
  47.3220000 149.2470000  31.5460000  47.1900000 150.7810000  32.4380000
  47.4290000 150.9590000  30.3250000  48.0100000 151.8380000  30.2680000
  47.7600000 150.3480000  29.4100000  45.9160000 151.1460000  29.9980000
  45.3090000 150.2700000  29.9380000  45.5260000 151.7650000  30.8440000
  45.7320000 152.0520000  28.7390000  44.7050000 152.3940000  28.7770000
  46.4290000 152.8940000  28.9430000  46.1740000 151.3130000  27.4450000
  46.2670000 152.0230000  26.5880000  47.1710000 150.8830000  27.5060000
  45.2170000 150.1540000  27.0860000  45.4230000 149.2860000  27.7580000
  44.2240000 150.5540000  27.1190000  45.4360000 149.8010000  25.6410000
  45.3660000 150.6760000  25.0030000  46.4440000 149.4260000  25.5530000
  44.3500000 148.8190000  25.1070000  43.3870000 149.3670000  25.0730000
  44.6240000 148.5050000  24.0950000  44.2650000 147.5250000  25.8880000
  45.2890000 147.1310000  26.0820000  43.8780000 147.7200000  26.8210000
  43.4220000 146.4280000  25.2000000  42.4300000 146.8970000  25.0020000
  43.9690000 146.2280000  24.2900000  43.2670000 145.1830000  26.1360000
  42.7790000 145.4920000  27.0710000  42.5220000 144.5120000  25.6090000
  44.5660000 144.3590000  26.3220000  45.2780000 144.9500000  26.9230000
  44.2550000 143.4740000  26.8680000  45.3580000 144.0040000  24.9790000
  45.6900000 144.8810000  24.4770000  46.1000000 143.3640000  25.3360000
  44.5560000 143.2520000  23.9710000  44.1660000 142.1540000  24.2190000
  44.4410000 143.8630000  22.7680000  43.5620000 143.1370000  21.7520000
  43.9100000 143.4420000  20.7900000  43.7910000 142.0790000  21.7540000
  42.1280000 143.3890000  21.8810000  41.7590000 143.0400000  22.8460000
  41.2970000 142.6490000  20.7200000  41.5470000 141.5700000  20.7610000
  40.2000000 142.7660000  20.8180000  41.7980000 143.2750000  19.4720000
  41.1860000 142.9820000  17.9940000  40.1440000 144.2330000  17.7460000
  38.7850000 144.1890000  18.0710000  38.5200000 143.5870000  19.0000000
  38.4270000 145.1650000  18.2580000  38.0580000 143.5300000  16.8830000
  38.2910000 144.0440000  15.9260000  38.5660000 142.5950000  16.6220000
  36.5330000 143.5300000  16.9850000  35.9770000 142.7590000  15.8090000
  36.4820000 143.0720000  14.8940000  36.3840000 141.7880000  15.8630000
  34.8270000 142.7770000  15.8940000  35.9670000 142.8980000  18.2310000
  36.5050000 143.4280000  18.9530000  34.9040000 143.1020000  18.2490000
  36.1920000 141.8490000  18.1050000  36.0980000 144.9790000  17.0130000
  36.6400000 145.5630000  16.2540000  36.2480000 145.3660000  18.0570000
  35.0640000 145.0670000  16.8340000  42.2040000 142.9320000  16.9350000
  40.3600000 141.7420000  18.0770000  41.9500000 144.8220000  21.7490000
  40.8260000 145.4020000  22.2280000  39.8740000 144.8680000  22.7680000
  40.9150000 146.9140000  22.0620000  40.4840000 147.1330000  21.1170000
  41.9080000 147.2360000  21.8850000  40.1890000 147.6960000  23.1820000
  40.6010000 147.4440000  24.1530000  39.1680000 147.3970000  23.1680000
  40.3230000 149.2090000  22.9930000  40.2690000 149.4580000  21.9220000
  41.3530000 149.4620000  23.3190000  39.3320000 150.0710000  23.8540000
  38.3630000 149.7360000  23.6960000  39.4560000 151.1300000  23.5070000
  39.7340000 149.9160000  25.3070000  40.8270000 150.1460000  25.3550000
  39.6420000 148.9290000  25.6540000  38.8220000 150.8310000  26.1250000
  37.7850000 150.5080000  25.9700000  38.9210000 151.8380000  25.8610000
  39.1560000 150.6630000  27.6580000  39.0240000 149.6360000  28.0790000
  38.5720000 151.3690000  28.2210000  40.6620000 150.9010000  27.9290000
  41.1530000 151.6850000  27.3290000  41.3690000 150.2810000  28.8200000
  42.4610000 150.4560000  28.9750000  40.8070000 149.3050000  29.7920000
  39.7640000 149.4680000  29.8020000  41.0990000 149.6680000  30.7790000
  41.3760000 147.8520000  29.5230000  42.4410000 147.9410000  29.4000000
  40.9240000 147.5240000  28.5960000  40.9390000 146.9420000  30.6870000
  40.7820000 145.9100000  30.3160000  39.9740000 147.2350000  31.1170000
  41.9950000 146.9460000  31.8000000  41.5930000 146.6390000  32.7390000
  42.4130000 147.9480000  31.9930000  43.2860000 146.0980000  31.6250000
  43.5020000 146.2500000  30.6060000  43.1540000 144.9400000  31.7740000
  44.5390000 146.5710000  32.3120000  44.9170000 147.4620000  31.9330000
  45.2900000 145.7990000  32.1610000  44.5000000 146.8660000  33.8300000
  43.9830000 147.8130000  34.1460000  45.5850000 147.0830000  34.0990000
  44.1730000 145.5980000  34.6920000  43.1620000 145.2730000  34.4720000
  44.0860000 145.8360000  35.7280000  44.7680000 144.7200000  34.4560000
  12.2110000  80.7730000  36.2800000  12.9410000  80.6810000  35.4540000
  11.6520000  79.8560000  36.3800000  12.7560000  80.9670000  37.1920000
  11.2710000  81.9220000  35.8440000  10.4790000  82.1800000  36.5320000
  11.8810000  82.7890000  35.6850000  10.5870000  81.3930000  34.5120000
  10.8040000  80.3540000  34.3970000   9.4600000  81.5480000  34.6420000
  11.0300000  82.1180000  33.1830000  10.5550000  81.6050000  32.3690000
  10.6140000  83.1570000  33.2910000  12.5220000  82.3600000  33.0000000
  12.9470000  82.9580000  33.8180000  13.0960000  81.4710000  33.0960000
  12.9330000  83.0390000  31.6720000  12.5480000  82.3340000  30.8960000
  12.3750000  83.9800000  31.6200000  14.3950000  83.2970000  31.4880000
  14.7990000  83.6610000  32.4300000  14.8990000  82.3740000  31.0570000
  14.6990000  84.4220000  30.4690000  14.2040000  85.3210000  30.7960000
  15.7460000  84.6430000  30.5560000  14.4230000  84.0880000  28.9460000
  15.0900000  83.2490000  28.6770000  13.4420000  83.6570000  28.8010000
  14.7340000  85.2510000  27.9990000  14.1930000  86.1700000  28.2010000
  15.8000000  85.5070000  27.9300000  14.4450000  85.1240000  26.4940000
  13.3450000  84.9920000  26.4300000  14.7650000  86.0370000  26.0620000
  15.0940000  83.8400000  25.9300000  16.0800000  83.5780000  26.4180000
  14.4730000  83.0370000  26.3290000  14.9610000  83.7320000  24.4600000
  13.8910000  83.7380000  24.2330000  15.4360000  84.5670000  23.9280000
  15.5330000  82.3540000  23.8940000  16.5860000  82.3750000  24.1660000
  15.0940000  81.4720000  24.4090000  15.2760000  82.1730000  22.3630000
  15.7980000  81.2860000  21.9610000  14.1940000  81.8290000  22.2140000
  15.5480000  83.4130000  21.5410000  16.6110000  84.0440000  21.4310000
  14.4390000  83.7250000  20.9240000  14.5520000  84.8710000  20.0140000
  13.6210000  85.5960000  20.0880000  15.4600000  85.3860000  20.1000000
  14.4660000  84.1850000  18.6720000  15.0790000  83.2930000  18.7740000
  14.8980000  85.0380000  17.4990000  16.0080000  85.0720000  17.3490000
  14.4370000  84.7800000  16.5560000  14.6740000  86.4190000  17.7330000
  14.7140000  87.5310000  16.6510000  14.9990000  88.8080000  17.5550000
  13.9910000  89.7560000  17.9930000  12.9620000  89.4470000  17.6480000
  13.9500000  89.7820000  19.1200000  14.4190000  91.2150000  17.4620000
  13.8010000  92.0230000  17.8490000  15.4170000  91.5610000  17.7340000
  14.4080000  91.4530000  16.0620000  14.3680000  92.8990000  15.8980000
  14.5140000  93.0120000  14.8060000  13.3800000  93.3220000  16.1340000
  15.2350000  93.2990000  16.5530000  15.7070000  90.8110000  15.6180000
  15.6410000  89.6960000  15.5480000  15.9980000  91.1730000  14.6160000
  16.4820000  91.0680000  16.3470000  13.2140000  90.8800000  15.3250000
  12.3850000  91.2370000  15.9770000  13.3030000  89.7530000  15.3270000
  13.2400000  91.2910000  14.2590000  15.8090000  87.3580000  15.6080000
  13.3660000  87.6950000  16.1550000  12.9930000  83.8660000  18.5230000
  12.5350000  82.6070000  18.3520000  13.1920000  81.6370000  18.1820000
  11.0020000  82.4870000  18.2570000  10.8540000  82.5360000  17.1820000
  10.5710000  83.3550000  18.5920000  10.4080000  81.2070000  18.9350000
  10.8600000  80.2850000  18.5200000   9.3550000  81.2570000  18.8040000
  10.7530000  81.1620000  20.4260000  11.8640000  80.9130000  20.5670000
  10.2530000  80.2690000  20.7780000  10.4340000  82.3810000  21.3010000
   9.4440000  82.6560000  21.2590000  11.0400000  83.1780000  20.8630000
  10.8760000  82.1130000  22.6960000  11.9270000  82.0340000  22.6320000
  10.4900000  81.2240000  23.0460000  10.4430000  83.1580000  23.7060000
   9.3400000  83.2400000  23.4860000  10.7950000  84.1170000  23.3510000
  10.8380000  82.9380000  25.2140000  10.7800000  83.8850000  25.7130000
  11.9300000  82.6420000  25.1710000  10.0180000  81.8560000  25.9340000
   9.6310000  81.0610000  25.3740000   9.8540000  81.8570000  27.2560000
   9.3270000  81.0610000  27.6900000  10.4400000  82.8770000  28.2920000
  11.0980000  83.5750000  27.8510000  11.1240000  82.3350000  28.9890000
   9.1890000  83.5070000  29.0780000   8.3880000  82.7530000  29.3400000
   8.7810000  84.3400000  28.4210000   9.6940000  84.2500000  30.3190000
  10.6930000  84.4570000  30.1230000   9.7890000  83.4630000  31.1090000
   8.8850000  85.4500000  30.6610000   7.8670000  85.2790000  30.3340000
   9.0960000  86.2520000  30.0400000   8.8090000  85.6240000  32.1620000
   8.3870000  86.6230000  32.3080000   9.8680000  85.6940000  32.4430000
   7.9900000  84.6910000  33.0730000   8.4380000  83.7610000  32.9290000
   6.9490000  84.6700000  32.6420000   7.9130000  84.9010000  34.6270000
   7.4360000  85.8750000  34.8930000   8.9180000  84.9710000  35.0120000
   7.1290000  83.8300000  35.4400000   7.5810000  82.8500000  35.4170000
   6.0900000  83.7540000  35.0600000   7.2280000  84.2420000  36.4110000
  97.7710000 150.6920000  32.4190000  98.7500000 151.2190000  32.3590000
  97.4560000 150.4740000  33.4530000  97.0260000 151.4320000  31.9960000
  97.8700000 149.4530000  31.5250000  98.3130000 149.7480000  30.5350000
  98.4510000 148.7420000  32.1030000  96.3850000 149.1060000  31.2860000
  95.9310000 148.9370000  32.2680000  95.9630000 150.0220000  30.8480000
  96.0950000 147.8630000  30.4110000  96.6160000 146.9330000  30.7660000
  95.0940000 147.5220000  30.6180000  96.4860000 148.0440000  28.9670000
  95.6830000 148.6960000  28.5050000  97.3750000 148.6520000  28.9540000
  96.5430000 146.7890000  28.1670000  97.0960000 145.9990000  28.7170000
  95.5080000 146.3940000  28.0600000  97.2360000 147.0110000  26.8920000
  98.2640000 147.3120000  27.2160000  97.2920000 146.0510000  26.4130000
  96.6360000 148.0310000  25.8520000  96.4030000 148.9470000  26.4630000
  97.3630000 148.2920000  25.1170000  95.3530000 147.5280000  25.2400000
  95.5620000 146.5250000  24.8680000  94.6150000 147.4460000  26.0250000
  94.8230000 148.3270000  24.0440000  95.7040000 148.6170000  23.5630000
  94.2560000 147.7300000  23.3230000  94.0460000 149.5620000  24.3930000
  94.6610000 150.2900000  24.9300000  93.8170000 149.9770000  23.4280000
  92.7650000 149.1830000  25.1560000  92.4460000 148.2090000  24.8170000
  92.9730000 148.9950000  26.2310000  91.6250000 150.1700000  25.0170000
  91.9330000 151.2160000  25.1210000  91.1290000 150.0440000  24.0380000
  90.5210000 149.8660000  26.0670000  90.5450000 148.8290000  26.2360000
  90.7430000 150.3410000  27.0120000  89.0670000 150.2410000  25.6610000
  88.7510000 149.7410000  24.7600000  88.3220000 149.8360000  26.3270000
  88.8590000 151.7180000  25.5550000  89.3120000 152.6190000  26.1780000
  88.2130000 151.9330000  24.3960000  88.0770000 153.2530000  23.8270000
  87.1340000 153.3060000  23.2900000  88.0370000 154.0630000  24.5650000
  89.1680000 153.6160000  22.7810000  88.8290000 154.5470000  22.2610000
  89.2220000 152.5000000  21.7240000  90.1270000 152.6420000  21.1580000
  89.1850000 151.5160000  22.1310000  88.1110000 152.6770000  20.8360000
  87.9100000 151.8230000  19.4160000  87.3550000 150.3920000  19.9130000
  88.2020000 149.4820000  20.5000000  89.2490000 149.6610000  20.2630000
  88.3080000 149.7010000  21.5260000  87.8100000 148.0150000  20.0730000
  88.5980000 147.3230000  20.3700000  86.9110000 147.6370000  20.5020000
  87.5980000 147.6880000  18.6440000  87.8940000 146.2410000  18.5550000
  88.9190000 145.9650000  18.7420000  87.3060000 145.6810000  19.2920000
  87.5630000 145.9010000  17.5670000  86.1960000 147.9420000  18.2200000
  85.8750000 148.9120000  18.5980000  86.1820000 147.8520000  17.1450000
  85.5950000 147.1910000  18.7690000  88.5370000 148.3990000  17.7300000
  88.5250000 147.8590000  16.7970000  89.4380000 148.3740000  18.3520000
  88.1230000 149.4110000  17.6830000  86.8260000 152.4700000  18.6830000
  89.1980000 151.6900000  18.7990000  90.4370000 153.7060000  23.3180000
  90.9440000 154.8700000  23.6920000  90.4000000 155.8980000  23.4310000
  92.2890000 154.8160000  24.4190000  93.0670000 155.3960000  23.8650000
  92.6290000 153.7130000  24.3930000  92.2360000 155.4070000  25.7740000
  91.4430000 154.8700000  26.2920000  91.8880000 156.4560000  25.6890000
  93.5590000 155.3920000  26.6360000  93.3090000 155.9740000  27.5480000
  94.2580000 156.0690000  26.2080000  94.2550000 154.1150000  26.9630000
  95.0470000 154.3960000  27.6530000  94.7300000 153.6820000  25.9880000
  93.4530000 153.1460000  27.7400000  92.5820000 152.8370000  27.2320000
  93.1080000 153.6100000  28.7180000  94.4060000 151.8690000  28.0170000
  95.2080000 152.2060000  28.7260000  94.8250000 151.3930000  27.1550000
  93.7120000 150.8570000  28.9430000  94.3250000 150.0370000  29.1940000
  92.9210000 150.4130000  28.3320000  93.0530000 151.5030000  30.1600000
  93.6000000 152.3350000  30.5790000  91.8190000 151.2950000  30.5710000
  91.5740000 151.7680000  31.5410000  90.7650000 150.3770000  30.0060000
  91.2720000 149.4230000  29.7580000  90.4100000 150.7180000  29.0520000
  89.5400000 150.2090000  30.9040000  88.6130000 150.0300000  30.3440000
  89.4160000 151.1480000  31.4940000  89.5750000 149.0770000  31.9610000
  90.4390000 148.3430000  31.7590000  88.6950000 148.4890000  31.8140000
  89.7700000 149.5020000  33.4060000  89.5840000 148.5820000  33.9850000
  88.8600000 149.9960000  33.7780000  91.0560000 150.3300000  33.7920000
  90.9770000 150.5670000  34.8560000  91.1810000 151.2950000  33.2540000
  92.3530000 149.5180000  33.3990000  93.2140000 150.1940000  33.5280000
  92.2080000 149.3280000  32.3390000  92.4670000 148.1320000  34.0950000
  91.5320000 147.5400000  33.9270000  92.5110000 148.2640000  35.1580000
  93.6170000 147.3600000  33.4270000  93.4370000 146.3230000  33.4840000
  94.6280000 147.6400000  33.8410000  93.6110000 147.6690000  32.3480000
   9.6810000  56.2400000  35.6610000   8.7250000  56.4550000  35.1230000
  10.0380000  57.1550000  36.0980000   9.6020000  55.4610000  36.3810000
  10.6520000  55.7480000  34.5620000  10.7640000  56.6020000  33.9470000
  11.7030000  55.7090000  34.8640000  10.1940000  54.5090000  33.9200000
  10.1080000  53.7510000  34.7140000   9.2340000  54.7700000  33.5620000
  11.0610000  54.0080000  32.6860000  11.0340000  54.8620000  32.0190000
  12.0790000  53.8520000  33.0030000  10.4700000  52.7570000  31.9670000
  10.7420000  51.8070000  32.4510000   9.3890000  52.6970000  31.9760000
  11.0470000  52.6580000  30.5020000  10.8910000  53.6350000  30.0560000
  12.0620000  52.4680000  30.6190000  10.4580000  51.5620000  29.5200000
   9.4260000  51.5210000  29.5850000  10.6830000  51.8870000  28.5510000
  11.0680000  50.1540000  29.6630000  12.1200000  50.1610000  29.3800000
  11.0950000  49.8060000  30.7220000  10.3250000  49.1590000  28.7870000
   9.3860000  49.0020000  29.2580000  10.2110000  49.5430000  27.7150000
  11.0960000  47.8380000  28.6580000  10.9810000  47.2470000  29.6030000
  10.5950000  47.2560000  27.8110000  12.6350000  47.9420000  28.4180000
  13.1620000  48.4770000  29.2770000  13.0750000  46.9440000  28.3670000
  12.8800000  48.7220000  27.1150000  12.2650000  48.2590000  26.4000000
  12.5500000  49.7530000  27.1570000  14.3630000  48.6680000  26.6670000
  15.0090000  48.5950000  27.5730000  14.5200000  47.8470000  26.0000000
  14.8990000  49.9580000  25.9630000  15.1080000  50.7600000  26.7390000
  15.9080000  49.7820000  25.5790000  13.9690000  50.3230000  24.7550000
  12.9430000  50.1200000  24.9000000  14.0350000  51.4210000  24.6830000
  14.4870000  49.8890000  23.4500000  15.2000000  50.5520000  22.7140000
  14.2790000  48.5450000  23.2030000  14.8420000  47.9590000  21.9880000
  14.3580000  47.0980000  21.7270000  14.8290000  48.7230000  21.1970000
  16.2650000  47.5400000  22.3680000  16.8940000  48.4320000  22.5260000
  16.8830000  46.9220000  21.1200000  16.2530000  46.0860000  20.8330000
  16.8670000  47.6140000  20.3210000  18.2600000  46.4900000  21.3200000
  19.0770000  45.6380000  20.2350000  19.3350000  44.2950000  21.1150000
  18.2690000  43.2580000  21.0970000  18.5090000  42.6350000  22.0090000
  17.3160000  43.7750000  21.3250000  18.1730000  42.5160000  19.7520000
  17.1530000  42.2490000  19.5580000  18.5620000  43.2240000  18.9630000
  18.9390000  41.2810000  19.6730000  18.8350000  40.7140000  18.3180000
  19.5330000  41.2460000  17.5930000  19.0790000  39.5920000  18.3110000
  17.8270000  40.9790000  17.9930000  20.4090000  41.3440000  19.8740000
  20.8690000  41.9410000  19.0300000  20.4810000  41.7990000  20.8650000
  20.7610000  40.3290000  19.8850000  18.4710000  40.2840000  20.6300000
  19.1880000  39.4780000  20.5970000  17.5240000  39.8280000  20.3220000
  18.3620000  40.6530000  21.7060000  18.1780000  45.4090000  19.0810000
  20.3550000  46.2980000  19.9640000  16.4110000  46.6550000  23.5630000
  17.4970000  46.8530000  24.3100000  18.1170000  47.8820000  24.2970000
  17.7710000  45.6940000  25.1890000  16.9270000  45.0790000  25.2300000
  17.9770000  46.1130000  26.1550000  18.9370000  44.8520000  24.7180000
  19.7290000  45.4600000  24.4240000  18.5120000  44.2710000  23.8450000
  19.4260000  43.8720000  25.8070000  20.1450000  43.2080000  25.3450000
  18.5730000  43.1910000  26.0100000  19.9680000  44.6100000  27.1290000
  19.3740000  45.4100000  27.4450000  20.9640000  45.0380000  26.9520000
  20.0340000  43.6570000  28.3400000  20.8590000  42.9640000  28.2330000
  19.2040000  43.0430000  28.4810000  20.3530000  44.6090000  29.5370000
  19.6870000  45.4500000  29.5300000  21.2750000  45.0770000  29.2980000
  20.4320000  43.8500000  30.9390000  21.1770000  43.0750000  30.7550000
  19.5000000  43.3570000  31.1600000  20.8540000  44.7920000  32.0480000
  21.6200000  45.5200000  31.7760000  20.2120000  45.0120000  33.1600000
  20.5730000  45.8350000  33.7840000  19.0160000  44.3070000  33.7520000
  19.4920000  43.7270000  34.5230000  18.6180000  43.6090000  33.0330000
  17.9320000  45.2140000  34.3340000  18.3940000  45.9070000  34.9610000
  17.2300000  44.7090000  34.8490000  17.2080000  45.9630000  33.2530000
  18.0090000  46.3320000  32.5780000  16.5470000  46.7100000  33.6280000
  16.2720000  45.1400000  32.3710000  15.5050000  44.6160000  32.9520000
  16.8510000  44.3570000  31.8320000  15.3720000  45.8960000  31.3700000
  15.9730000  46.5170000  30.6760000  14.8140000  46.5490000  32.0130000
  14.4910000  44.8660000  30.5890000  13.8920000  45.4710000  29.9590000
  13.8410000  44.3850000  31.2750000  15.1240000  43.7810000  29.7460000
  14.3010000  43.2800000  29.2730000  15.6970000  43.1150000  30.4090000
  16.0690000  44.2640000  28.6380000  15.5940000  44.9610000  28.0420000
  16.3890000  43.4340000  27.9940000  16.9440000  44.8070000  29.1260000
  81.4640000 128.4430000  33.8970000  82.0930000 129.3400000  33.9150000
  81.4050000 128.0760000  34.9200000  80.4580000 128.7490000  33.4530000
  82.1840000 127.4220000  32.9520000  83.1410000 127.2270000  33.3370000
  81.6840000 126.4440000  33.0770000  82.2460000 127.8650000  31.4890000
  81.2890000 128.1950000  31.1670000  82.9040000 128.7620000  31.3950000
  82.5830000 126.7870000  30.4060000  83.6020000 126.5040000  30.5950000
  82.0140000 125.9500000  30.6910000  82.2990000 126.9750000  28.9370000
  81.2650000 127.2190000  28.7840000  82.8840000 127.7870000  28.5930000
  82.6190000 125.7590000  28.0590000  82.1570000 125.8410000  27.0930000
  83.7620000 125.7360000  27.8240000  82.2960000 124.3470000  28.5240000
  82.6200000 123.6260000  27.8820000  82.8510000 124.3920000  29.4830000
  80.8080000 124.2310000  28.8210000  80.3090000 125.1200000  29.2290000
  80.1810000 123.9960000  27.9380000  80.4200000 123.2050000  29.7920000
  81.0720000 123.3290000  30.7100000  79.3580000 123.3660000  30.0670000
  80.6930000 121.7630000  29.2840000  81.7870000 121.7440000  29.0880000
  80.5030000 120.9950000  30.0770000  79.8270000 121.3920000  28.1460000
  78.7590000 121.2950000  28.4550000  79.9930000 122.0690000  27.3130000
  80.1880000 119.9920000  27.5290000  81.1470000 120.0830000  26.9740000
  80.3660000 119.2370000  28.2890000  79.2770000 119.3380000  26.4290000
  78.5420000 118.6960000  26.9100000  78.6510000 119.9920000  25.8710000
  80.0050000 118.4360000  25.4500000  80.4280000 117.5580000  26.0320000
  79.2670000 117.9140000  24.8700000  81.0040000 119.1000000  24.4780000
  81.9330000 119.1590000  24.9970000  80.9810000 118.5880000  23.4820000
  80.4890000 120.4340000  24.0000000  81.0970000 121.4290000  24.3730000
  79.2950000 120.4230000  23.2880000  78.7130000 121.7390000  23.1420000
  78.2390000 121.8770000  24.1320000  79.4080000 122.5950000  22.9190000
  77.6630000 121.8070000  22.0110000  76.9800000 120.8690000  22.1220000
  78.2210000 121.9140000  20.6270000  78.8300000 121.0380000  20.4090000
  77.4050000 121.8510000  19.9280000  79.1440000 122.9990000  20.3890000
  78.8480000 124.1910000  19.4470000  78.7130000 125.4080000  20.3900000
  77.5670000 126.3680000  20.3210000  76.6460000 125.9140000  19.8190000
  77.3260000 126.5290000  21.3590000  78.0840000 127.7340000  19.6630000
  77.3360000 128.5040000  19.6050000  78.9820000 128.1140000  20.1210000
  78.3850000 127.7180000  18.2510000  78.4090000 129.1020000  17.6280000
  77.3950000 129.3920000  17.9500000  79.1340000 129.7760000  18.1260000
  78.5140000 129.0190000  16.5370000  79.6550000 127.1740000  17.9050000
  79.6200000 126.7350000  16.8580000  80.2570000 128.0550000  17.9650000
  79.8630000 126.3990000  18.5970000  77.2960000 126.8900000  17.4290000
  76.3510000 127.2850000  17.7730000  77.2760000 125.7900000  17.7390000
  77.4340000 127.0240000  16.3890000  80.0140000 124.3810000  18.6240000
  77.4960000 123.9490000  18.8520000  76.8120000 122.9390000  22.3220000
  75.5400000 122.8520000  21.8670000  75.0660000 121.9690000  21.2050000
  74.8350000 124.1730000  22.2370000  74.7630000 124.8880000  21.4030000
  75.4650000 124.7820000  22.9780000  73.4330000 123.9320000  22.8660000
  73.5400000 123.4240000  23.8410000  72.8530000 123.2600000  22.1980000
  72.5620000 125.1970000  23.0480000  71.5620000 124.9280000  23.4140000
  72.4360000 125.6010000  22.0480000  73.2010000 126.4230000  23.8350000
  72.7570000 127.4000000  23.5490000  74.2410000 126.4830000  23.4880000
  73.2410000 126.2770000  25.3170000  73.8180000 127.2040000  25.7020000
  73.8240000 125.4540000  25.6100000  71.8180000 126.2430000  26.0350000
  70.9250000 126.0130000  25.3780000  71.6180000 127.2090000  26.5300000
  71.7550000 125.2300000  27.2760000  72.4080000 125.6470000  28.0260000
  71.9250000 124.1980000  27.0420000  70.2480000 125.1410000  27.6730000
  69.4830000 125.1700000  26.9330000  69.8220000 125.0990000  28.9480000
  68.7820000 124.9790000  29.0780000  70.5420000 125.0210000  30.2450000
  71.5630000 124.9410000  30.0120000  70.1990000 124.0700000  30.7040000
  70.2170000 126.1430000  31.2530000  69.2050000 126.2850000  31.4090000
  70.5320000 127.0710000  30.7620000  70.8830000 125.9100000  32.6860000
  70.6180000 126.8050000  33.2840000  71.9310000 126.0300000  32.4830000
  70.5910000 124.6230000  33.4830000  70.6080000 123.6980000  32.8620000
  69.5860000 124.5840000  33.8730000  71.4550000 124.4820000  34.6720000
  70.9560000 123.7720000  35.3640000  71.4850000 125.4620000  35.1480000
  72.8510000 123.9720000  34.1910000  73.2360000 124.6060000  33.4240000
  72.6390000 123.0310000  33.5950000  73.8300000 123.8020000  35.4600000
  73.2940000 123.2610000  36.2310000  73.8830000 124.8540000  35.6890000
  75.2570000 123.0960000  35.2490000  75.1660000 122.0080000  35.0970000
  76.0020000 123.3390000  36.0580000  75.6930000 123.6670000  34.4060000
 106.5030000  87.5400000  35.3950000 106.0060000  86.5960000  35.1350000
 106.2100000  88.3790000  34.7870000 106.2410000  87.6770000  36.4520000
 108.0540000  87.5000000  35.1750000 108.4090000  88.4950000  34.9940000
 108.6150000  87.0770000  36.0000000 108.4680000  86.6700000  33.9220000
 108.4390000  85.6210000  34.1370000 107.6510000  86.8170000  33.2560000
 109.8430000  87.1090000  33.3670000 109.7990000  88.1760000  33.2360000
 110.6710000  87.0220000  34.0110000 110.0770000  86.4500000  31.9600000
 110.1630000  85.3350000  32.0770000 109.2650000  86.6700000  31.2910000
 111.3370000  86.9260000  31.2090000 111.3950000  88.0480000  31.0970000
 112.1800000  86.6030000  31.8240000 111.4080000  86.1730000  29.8370000
 111.2390000  85.1400000  30.0420000 110.5820000  86.5560000  29.1750000
 112.7920000  86.4320000  29.1510000 112.9440000  87.4800000  29.1180000
 113.5860000  86.1020000  29.7680000 112.8950000  85.8600000  27.6390000
 111.9400000  86.1660000  27.1190000 113.7770000  86.3580000  27.1770000
 112.9380000  84.3460000  27.4750000 112.0830000  83.8410000  28.0470000
 112.9030000  84.1770000  26.4090000 114.2380000  83.6540000  28.0270000
 114.3890000  83.9920000  29.0460000 114.1710000  82.5370000  28.0930000
 115.4360000  83.8860000  27.1490000 115.6760000  84.9820000  27.1560000
 116.2260000  83.3810000  27.6630000 115.2500000  83.3820000  25.7320000
 114.5460000  82.5070000  25.7320000 114.6880000  84.1840000  25.2150000
 116.6380000  83.1420000  25.1190000 117.1070000  82.4450000  25.8050000
 116.5090000  82.5770000  24.1750000 117.5270000  84.4750000  25.0450000
 117.4520000  85.1000000  25.8990000 118.6160000  84.0700000  24.9990000
 117.3100000  85.2630000  23.8310000 118.1310000  85.2670000  22.8930000
 116.2210000  86.0820000  23.9180000 116.1020000  87.1700000  22.9000000
 115.5390000  88.0200000  23.3990000 117.1200000  87.5230000  22.7080000
 115.2320000  86.7760000  21.6830000 115.7510000  86.1830000  20.9940000
 114.7740000  88.0760000  21.0100000 114.0960000  87.7340000  20.1990000
 114.3440000  88.7780000  21.7580000 115.9280000  88.6870000  20.4370000
 116.4050000  88.4210000  18.8710000 115.4590000  89.3150000  17.9820000
 115.4930000  90.6970000  17.9080000 114.6490000  91.1000000  17.2980000
 115.4580000  91.1100000  18.9460000 116.7290000  91.0240000  17.0620000
 117.0620000  92.0490000  17.1170000 117.6410000  90.4460000  17.3500000
 116.5730000  90.7470000  15.5630000 117.7330000  91.3590000  14.8950000
 117.6340000  92.3690000  15.2130000 118.6350000  90.8370000  15.2380000
 117.7340000  91.2230000  13.7780000 116.7000000  89.2900000  15.1770000
 116.7610000  89.2170000  14.0970000 117.5490000  88.9610000  15.7580000
 115.7840000  88.8620000  15.6510000 115.3730000  91.2700000  14.8720000
 115.1980000  92.2810000  15.0860000 114.6230000  90.5840000  15.2460000
 115.5660000  91.0590000  13.8220000 117.8360000  88.6920000  18.5980000
 115.9250000  87.0350000  18.7470000 114.0510000  86.0940000  22.2450000
 114.1270000  84.7350000  22.2510000 115.0010000  83.9920000  21.8310000
 112.9420000  84.2840000  23.0650000 112.0800000  84.8390000  22.8520000
 113.1410000  84.4190000  24.1080000 112.6790000  82.8100000  22.9350000
 113.3970000  82.2200000  23.5050000 112.6910000  82.5240000  21.8480000
 111.2670000  82.5060000  23.5360000 111.2040000  82.8580000  24.5510000
 111.2370000  81.3310000  23.5560000 110.0980000  83.0550000  22.7070000
 109.9220000  82.4540000  21.8350000 110.3450000  84.0220000  22.3090000
 108.7380000  83.1610000  23.3810000 108.8170000  83.8040000  24.2280000
 108.4650000  82.2100000  23.7330000 107.7010000  83.8580000  22.5210000
 107.2970000  83.3700000  21.6480000 108.3030000  84.6960000  22.1080000
 106.4840000  84.3150000  23.4770000 105.6970000  84.7590000  22.9410000
 106.8760000  85.1560000  24.0700000 105.9500000  83.1710000  24.3700000
 105.5090000  82.3190000  23.8410000 105.7510000  83.2740000  25.6710000
 105.2520000  82.4530000  26.1410000 106.3190000  84.4370000  26.5180000
 105.5450000  85.0380000  26.9230000 106.9600000  85.0120000  25.9510000
 107.2340000  83.8030000  27.5900000 108.0140000  83.2550000  27.0760000
 106.6100000  83.0810000  28.1420000 107.7830000  84.8730000  28.4950000
 108.3350000  85.6180000  27.8160000 108.4540000  84.4100000  29.0810000
 106.7850000  85.5230000  29.4730000 105.8970000  85.9410000  28.9710000
 107.1710000  86.4430000  29.8070000 106.4140000  84.8430000  30.7830000
 107.0420000  85.1320000  31.6290000 106.5350000  83.7480000  30.7590000
 104.9100000  85.0940000  31.0930000 104.2030000  85.0750000  30.1600000
 104.7300000  86.1040000  31.4230000 104.2720000  84.1170000  32.1810000
 104.6460000  84.4680000  33.1800000 104.5410000  83.0600000  32.0090000
 102.7080000  84.1370000  32.0440000 102.2420000  83.4360000  32.7300000
 102.4900000  83.8040000  31.0250000 102.3510000  85.1210000  32.2300000
 108.8690000 104.5270000  27.6990000 108.8640000 105.5120000  28.1710000
 107.9530000 104.4700000  27.0640000 109.6760000 104.3130000  27.0080000
 108.7670000 103.4420000  28.7610000 108.5790000 102.5740000  28.2310000
 109.6490000 103.4280000  29.3840000 107.5740000 103.7090000  29.6840000
 107.6750000 104.6070000  30.2790000 106.7400000 103.9330000  29.1010000
 107.3560000 102.5830000  30.7140000 108.3340000 102.3840000  31.2350000
 106.6280000 102.9370000  31.5610000 106.7630000 101.3140000  30.0290000
 105.7780000 101.5890000  29.6670000 107.3680000 100.9860000  29.2040000
 106.5650000 100.0750000  30.8680000 105.6470000 100.2050000  31.4340000
 106.3950000  99.3280000  30.1190000 107.8150000  99.5830000  31.6690000
 107.9910000 100.2590000  32.4960000 107.6400000  98.6470000  32.1730000
 109.1110000  99.3790000  30.9410000 109.3380000 100.3110000  30.4940000
 109.8900000  99.2180000  31.6840000 109.1900000  98.2690000  29.8650000
 109.2600000  97.3500000  30.3580000 108.2760000  98.3820000  29.2820000
 110.4510000  98.3570000  28.9330000 111.3480000  98.2400000  29.5580000
 110.4060000  97.4310000  28.3790000 110.4890000  99.5680000  27.9490000
 110.5190000 100.5340000  28.5060000 111.3880000  99.4490000  27.4710000
 109.4460000  99.6240000  26.8660000 109.4680000  98.6990000  26.2280000
 108.4310000  99.6840000  27.2890000 109.6170000 100.8790000  25.9380000
 109.7450000 101.7230000  26.6050000 110.5210000 100.8460000  25.2820000
 108.4040000 101.2750000  25.0350000 107.6500000 101.4390000  25.8300000
 108.4550000 102.1570000  24.4720000 107.8100000 100.0790000  24.1470000
 107.7950000  99.1620000  24.7250000 106.7950000 100.2470000  23.8500000
 108.5700000 100.0690000  22.8740000 108.2160000 100.7230000  21.9110000
 109.6780000  99.2800000  22.8580000 110.6220000  99.5040000  21.7720000
 111.2950000  98.6990000  21.7920000 109.9830000  99.3680000  20.8380000
 111.4900000 100.8280000  21.7500000 110.7610000 101.6320000  21.4930000
 112.5160000 100.6180000  20.6310000 112.0270000 100.2850000  19.6630000
 113.0610000 101.5300000  20.4660000 113.4820000  99.6400000  21.0500000
 114.8150000  99.4710000  20.2900000 114.7200000  98.0120000  19.6880000
 115.7120000  96.9570000  20.0450000 116.1710000  97.2240000  21.0140000
 115.2250000  95.9610000  20.2000000 116.8050000  96.7030000  18.9550000
 117.5420000  96.2190000  19.4900000 116.4860000  96.0730000  18.1170000
 117.5370000  97.9200000  18.3430000 118.8020000  97.4090000  17.7420000
 119.4140000  98.2440000  17.2910000 119.5020000  97.0080000  18.4490000
 118.5330000  96.5990000  16.9930000 116.7840000  98.7340000  17.3900000
 116.4310000  98.1620000  16.5360000 116.0840000  99.3500000  17.8990000
 117.4890000  99.4910000  16.9550000 118.1090000  98.8710000  19.3350000
 118.5580000  98.2600000  20.0800000 117.2450000  99.4110000  19.8190000
 118.8370000  99.5360000  18.8900000 114.8020000 100.3820000  19.1450000
 115.9320000  99.5430000  21.2680000 112.1490000 101.1090000  22.9450000
 112.4790000 102.3950000  23.2510000 112.2190000 103.3400000  22.5030000
 113.1680000 102.4650000  24.5880000 114.2000000 102.2700000  24.3890000
 112.8510000 101.6240000  25.2560000 112.9880000 103.7260000  25.3830000
 111.9540000 103.9090000  25.6900000 113.2710000 104.5840000  24.7320000
 113.8370000 103.6800000  26.6300000 113.9310000 104.6800000  27.0690000
 114.8450000 103.3750000  26.3440000 113.1300000 102.8280000  27.6920000
 112.8990000 101.9060000  27.1580000 112.1430000 103.2850000  27.8730000
 113.8040000 102.7020000  29.0630000 113.9940000 103.6110000  29.5540000
 114.6750000 102.0410000  28.9390000 112.7790000 101.9050000  29.8890000
 112.6360000 100.9760000  29.3000000 111.8500000 102.4920000  29.8960000
 113.2780000 101.5240000  31.3010000 113.5650000 102.4320000  31.8050000
 114.1830000 100.9240000  31.1640000 112.2500000 100.7750000  32.0180000
 112.0030000  99.7730000  31.5820000 111.4550000 101.2970000  32.9650000
 110.5850000 100.7330000  33.3180000 111.7360000 102.6990000  33.5450000
 110.8910000 103.1560000  34.1170000 112.0550000 103.4930000  32.9180000
 112.7740000 102.4880000  34.6540000 113.7670000 102.2430000  34.2560000
 112.4920000 101.6740000  35.3500000 113.1180000 103.7490000  35.4780000
 112.1520000 104.1090000  35.8950000 113.4770000 104.5070000  34.8350000
 114.1780000 103.5180000  36.5300000 115.1270000 103.2490000  36.0160000
 113.7270000 102.6200000  37.0130000 114.3660000 104.8110000  37.3800000
 113.3640000 105.2520000  37.4810000 114.9490000 105.4340000  36.7560000
 115.1190000 104.5370000  38.7090000 115.9660000 103.9210000  38.6090000
 114.5090000 104.0330000  39.4750000 115.5780000 105.7630000  39.3830000
 114.7530000 106.3150000  39.7760000 116.1320000 106.4730000  38.6750000
 116.5650000 105.4830000  40.5600000 117.1340000 106.3720000  40.8520000
 117.2220000 104.7680000  40.1640000 116.0070000 105.1340000  41.4650000
  83.3190000 104.5030000  32.9660000  84.2220000 104.3040000  33.5090000
  83.1960000 103.5800000  32.3790000  82.4270000 104.5750000  33.5730000
  83.3920000 105.8080000  32.1280000  84.2970000 105.7830000  31.5160000
  82.5430000 105.7120000  31.4270000  83.3330000 107.0670000  33.0260000
  82.3700000 107.2170000  33.5860000  84.0750000 106.8890000  33.7930000
  83.6200000 108.3950000  32.3280000  83.6090000 109.3020000  33.0000000
  84.5870000 108.4540000  31.8690000  82.6830000 108.6430000  31.1520000
  82.9660000 108.1280000  30.2870000  81.7160000 108.2850000  31.5470000
  82.5010000 110.1480000  30.8020000  81.6850000 110.2240000  30.0560000
  82.1510000 110.6870000  31.7140000  83.7800000 110.7350000  30.1330000
  84.5530000 110.4500000  30.8390000  84.0350000 110.2900000  29.1650000
  83.5370000 112.2710000  30.1290000  83.0780000 112.6110000  31.0940000
  84.4220000 112.8450000  29.9780000  82.6370000 112.8370000  29.0370000
  83.0350000 112.5560000  28.0710000  81.6850000 112.3310000  29.0330000
  82.3410000 114.3680000  29.1200000  81.9660000 114.6380000  30.1260000
  83.2770000 114.9200000  29.0090000  81.4140000 114.9320000  28.0810000
  80.4160000 114.6570000  28.2620000  81.5060000 115.9850000  28.2460000
  81.6420000 114.6500000  26.5970000  81.5040000 113.5680000  26.3220000
  80.9500000 115.1380000  25.9390000  83.0330000 115.1420000  26.0880000
  83.1480000 116.1210000  26.6390000  83.9680000 114.5880000  26.3760000
  83.0650000 115.4410000  24.5560000  82.7360000 114.5010000  24.0210000
  82.4880000 116.2020000  24.2430000  84.4570000 115.8370000  24.0260000
  85.2420000 115.5410000  24.7820000  84.7580000 115.2090000  23.1910000
  84.7360000 117.3220000  23.6350000  84.1570000 118.3580000  24.0220000
  85.7490000 117.4300000  22.7680000  86.0740000 118.7020000  22.2360000
  86.5660000 118.5160000  21.2600000  85.0840000 119.1940000  22.0820000
  86.9620000 119.4620000  23.2150000  86.4610000 119.3140000  24.1900000
  87.0130000 120.9980000  22.8700000  86.0840000 121.4260000  22.6280000
  87.3470000 121.5530000  23.7100000  87.9950000 121.3480000  21.8070000
  87.5980000 121.2600000  20.2730000  88.3660000 120.0380000  19.5760000
  89.8240000 120.0390000  19.6740000  90.2180000 120.1160000  18.6220000
  90.2570000 120.9480000  20.2200000  90.2390000 118.7950000  20.4660000
  91.3490000 118.7760000  20.7560000  89.6290000 118.7960000  21.3920000
  90.0140000 117.4500000  19.9040000  90.8080000 116.3590000  20.4960000
  90.4540000 116.1490000  21.5400000  90.6270000 115.4630000  19.8760000
  91.8380000 116.6960000  20.4070000  88.5390000 117.1040000  19.9230000
  88.1090000 117.2150000  20.8750000  88.2020000 117.8590000  19.2810000
  88.4390000 116.0750000  19.5940000  90.3660000 117.3610000  18.4380000
  91.4380000 117.4150000  18.2880000  89.8320000 118.2130000  17.9950000
  89.9600000 116.3420000  18.2440000  86.1970000 120.8770000  20.2690000
  88.0680000 122.4750000  19.6450000  88.2340000 118.8550000  23.1620000
  89.0670000 119.1170000  24.1970000  88.6870000 119.7700000  25.1340000
  90.4270000 118.4540000  24.0490000  90.8780000 118.4200000  23.0140000
  90.3960000 117.3840000  24.3370000  91.5170000 118.9760000  24.9610000
  91.1900000 119.1590000  25.9370000  91.7970000 119.9020000  24.6160000
  92.7020000 117.9960000  25.0630000  92.8230000 117.3560000  24.2100000
  92.4280000 117.1870000  25.8050000  94.0550000 118.6870000  25.3610000
  94.3490000 119.3100000  24.4610000  94.8090000 117.9300000  25.4320000
  93.9780000 119.5410000  26.6350000  93.2900000 120.3270000  26.5910000
  94.8860000 120.0260000  26.8860000  93.6960000 118.7270000  27.8690000
  94.5240000 118.0690000  28.0320000  92.8280000 118.1000000  27.8170000
  93.6510000 119.6120000  29.1410000  94.6340000 120.1150000  29.2370000
  93.6550000 119.0080000  29.9880000  92.5150000 120.6700000  29.0060000
  92.8100000 121.6080000  28.5260000  91.2610000 120.5820000  29.4310000
  90.5630000 121.4000000  29.2940000  90.6840000 119.3620000  30.0580000
  91.2480000 119.0540000  30.9740000  90.7760000 118.4880000  29.4460000
  89.2500000 119.6110000  30.4270000  88.8690000 118.6650000  30.8750000
  88.8230000 119.7720000  29.4430000  89.0200000 120.8840000  31.2190000
  89.1830000 121.7850000  30.5810000  89.5080000 120.7710000  32.2270000
  87.5630000 121.0990000  31.4640000  87.0350000 121.0830000  30.5400000
  87.4410000 122.0380000  31.9160000  86.9990000 119.9800000  32.4890000
  87.6890000 119.8300000  33.3080000  86.8120000 119.0200000  32.0060000
  85.6630000 120.5640000  33.0170000  85.1170000 120.8300000  32.1210000
  85.8370000 121.5360000  33.5830000  84.8220000 119.5810000  33.8580000
  83.9930000 120.2360000  34.1110000  85.2820000 119.2250000  34.7700000
  84.3090000 118.3700000  33.0340000  83.5010000 117.8420000  33.5480000
  85.0770000 117.6990000  32.6920000  83.7910000 118.7310000  32.1580000
 110.5560000  41.0930000  31.8140000 110.3390000  40.3560000  32.6180000
 109.9360000  41.9680000  31.8780000 111.5720000  41.3820000  32.0320000
 110.2980000  40.3890000  30.4910000 110.7890000  39.4240000  30.5420000
 109.1700000  40.2710000  30.2630000 110.6890000  41.2500000  29.2840000
 110.0500000  42.1070000  29.1840000 111.6590000  41.6890000  29.3660000
 110.6240000  40.6120000  27.8730000 110.7960000  41.3680000  27.1280000
 111.3730000  39.7830000  27.6870000 109.2330000  40.0570000  27.5040000
 109.1020000  39.0790000  28.0080000 108.5190000  40.7640000  27.8820000
 109.0180000  39.7360000  26.0340000 109.3360000  40.5760000  25.4740000
 109.6370000  38.7870000  25.8630000 107.4800000  39.6100000  25.7580000
 106.9900000  38.9220000  26.4660000 107.0440000  40.6080000  25.8300000
 107.1880000  39.2390000  24.2940000 107.9240000  38.4600000  24.0080000
 106.2280000  38.7880000  24.3160000 107.2050000  40.4130000  23.2190000
 106.6750000  41.2460000  23.7160000 108.3090000  40.5910000  23.0380000
 106.4730000  39.9360000  21.9330000 105.4430000  39.8030000  22.2430000
 106.4040000  40.7380000  21.2130000 106.9310000  38.6130000  21.2950000
 106.7050000  37.7650000  21.8710000 106.4030000  38.5230000  20.3280000
 108.4380000  38.5380000  20.8260000 109.1050000  38.4150000  21.6860000
 108.6520000  37.6450000  20.2360000 108.8250000  39.7370000  20.0520000
 108.0590000  39.9420000  19.2760000 108.7650000  40.6300000  20.6760000
 110.2320000  39.6990000  19.4080000 110.9440000  39.4110000  20.1970000
 110.2800000  38.8700000  18.6240000 110.5700000  41.1160000  18.8600000
 109.7240000  41.4360000  18.2500000 110.5700000  41.7710000  19.7530000
 111.8410000  41.1850000  17.9990000 111.8560000  41.8400000  16.9760000
 112.8460000  40.4840000  18.3440000 113.8380000  40.2070000  17.2970000
 113.4000000  39.6690000  16.4750000 114.2820000  41.0760000  16.9090000
 114.9350000  39.3030000  17.8640000 115.3580000  39.9460000  18.5920000
 116.0350000  38.9620000  16.7810000 116.5610000  39.9440000  16.5800000
 116.7710000  38.2880000  17.1530000 115.3640000  38.4380000  15.6060000
 114.9030000  36.8860000  15.5170000 113.3410000  36.9580000  16.0780000
 112.1990000  36.9210000  15.2870000 111.3580000  37.4520000  15.7840000
 112.3530000  37.4430000  14.3770000 111.8640000  35.4850000  14.9690000
 110.9660000  35.4920000  14.3110000 112.7210000  35.0720000  14.4350000
 111.6730000  34.5780000  16.1830000 112.9900000  33.9600000  16.5060000
 113.7690000  34.6980000  16.6950000 112.9160000  33.3550000  17.4250000
 113.3470000  33.2950000  15.7950000 111.0900000  35.3060000  17.4410000
 111.8220000  36.1010000  17.6270000 110.0530000  35.5940000  17.2030000
 111.1440000  34.6920000  18.3250000 110.7960000  33.3970000  15.8950000
 109.7930000  33.7720000  15.7330000 110.7130000  32.7840000  16.8000000
 111.1780000  32.8990000  15.0150000 114.9830000  36.3470000  14.0990000
 115.6500000  36.0120000  16.5160000 114.4190000  38.0620000  18.4570000
 115.2810000  37.4740000  19.3700000 116.2760000  37.9990000  19.7310000
 114.8660000  36.0790000  19.7260000 115.6700000  35.3620000  19.5960000
 113.9530000  35.7880000  19.2760000 114.6020000  36.1390000  21.2600000
 113.9560000  36.9730000  21.5560000 115.5970000  36.2380000  21.7410000
 114.0020000  34.7800000  21.6070000 114.2070000  34.0700000  20.8320000
 112.8820000  34.9770000  21.6210000 114.4680000  34.3780000  23.0460000
 115.5270000  34.1440000  23.0210000 114.1150000  33.3600000  23.1470000
 114.1030000  35.3240000  24.2730000 114.6210000  36.2360000  24.2220000
 114.5060000  34.9020000  25.2260000 112.6220000  35.5120000  24.4580000
 112.0760000  34.5370000  24.4780000 112.1770000  35.9620000  23.6430000
 112.3400000  36.4350000  25.7130000 112.7630000  37.4310000  25.5110000
 112.9140000  36.0400000  26.5850000 110.8630000  36.4320000  26.0330000
 110.2190000  36.6300000  25.2240000 110.2970000  36.2220000  27.2730000
 109.2270000  36.2910000  27.3690000 111.1110000  36.1680000  28.5210000
 112.0010000  36.7350000  28.4530000 111.2660000  35.0910000  28.7310000
 110.2940000  36.7790000  29.7210000 109.3750000  36.2240000  29.9130000
 110.0870000  37.7800000  29.5320000 111.0680000  36.7590000  31.0490000
 111.8840000  37.5520000  30.9910000 111.6930000  35.7670000  31.1760000
 110.1200000  37.0560000  32.3090000 109.5800000  38.0030000  32.1380000
 110.6870000  37.2170000  33.2090000 109.0210000  36.0420000  32.6280000
 109.4360000  35.0770000  32.8740000 108.3730000  35.9680000  31.7190000
 108.2530000  36.3960000  33.9000000 107.6360000  37.2070000  33.5710000
 108.9150000  36.7310000  34.7490000 107.3570000  35.1610000  34.3240000
 107.9270000  34.2590000  34.6210000 106.6990000  34.9240000  33.4780000
 106.2930000  35.5090000  35.3500000 105.5740000  34.6350000  35.5390000
 105.6670000  36.3820000  35.0800000 106.6630000  35.7590000  36.3240000
  39.4570000  97.6120000  37.2520000  39.8740000  98.5130000  36.8560000
  39.1350000  97.0360000  36.4130000  40.2360000  97.0420000  37.8230000
  38.2330000  97.8220000  38.0880000  37.7550000  96.8940000  38.4160000
  38.4580000  98.3490000  38.9760000  37.1680000  98.5460000  37.2080000
  37.4510000  99.5440000  36.7980000  37.0640000  97.9490000  36.2900000
  35.6960000  98.6140000  37.8610000  35.2910000  97.6410000  37.9400000
  35.6890000  99.0000000  38.8830000  34.7960000  99.5350000  37.0380000
  33.8360000  99.5820000  37.5490000  35.2240000 100.5800000  36.9190000
  34.4020000  99.0380000  35.6160000  35.3590000  98.9390000  35.0780000
  33.8620000  98.1370000  35.7670000  33.6000000 100.1690000  34.9420000
  32.6050000 100.2960000  35.4200000  34.1630000 101.0920000  35.0650000
  33.3240000  99.6740000  33.4650000  34.1800000  99.9350000  32.9200000
  33.2990000  98.5930000  33.4070000  32.1260000 100.3160000  32.7860000
  31.2080000 100.0370000  33.2600000  32.2660000 101.3890000  32.8680000
  32.1770000 100.0660000  31.2420000  33.0080000 100.6200000  30.7560000
  32.3020000  99.0450000  31.0180000  30.9580000 100.5530000  30.4870000
  30.0430000 100.1060000  30.9410000  30.8930000 101.6390000  30.5140000
  30.9320000 100.0910000  29.0210000  31.9730000  99.9050000  28.6060000
  30.4680000  99.1150000  29.1750000  30.2230000 100.9200000  27.9410000
  29.1230000 100.7900000  28.0270000  30.3620000 101.9520000  28.1790000
  30.5060000 100.6340000  26.4590000  30.2320000 101.5050000  25.9700000
  31.5720000 100.6390000  26.3370000  29.7810000  99.3750000  25.8450000
  29.7300000  98.5100000  26.5110000  28.8330000  99.7670000  25.4630000
  30.5790000  98.9150000  24.6080000  31.6570000  99.3430000  24.2480000
  29.9660000  98.0000000  23.8330000  30.7950000  97.5080000  22.7540000
  30.9100000  98.2430000  21.9800000  31.8300000  97.2530000  23.0100000
  30.1440000  96.1860000  22.2330000  30.8630000  95.6210000  21.6040000
  28.8780000  96.4270000  21.3730000  28.5890000  95.4650000  20.8290000
  28.1250000  96.7300000  22.0360000  29.0770000  97.5090000  20.3710000
  29.7420000  97.3770000  18.9410000  28.5130000  97.6090000  17.9940000
  27.4480000  96.5750000  17.8890000  26.9840000  96.5130000  16.8740000
  27.8320000  95.5430000  18.0220000  26.3920000  97.0180000  18.9400000
  25.7190000  96.2120000  19.1860000  26.8710000  97.3250000  19.8530000
  25.4930000  98.0600000  18.5150000  24.5560000  98.5050000  19.6370000
  23.9300000  99.2810000  19.2090000  23.9020000  97.6200000  19.7980000
  25.0770000  98.7720000  20.5000000  26.1420000  99.3020000  18.2930000
  25.4440000  99.9720000  17.7680000  26.6100000  99.7810000  19.1820000
  26.9980000  99.1340000  17.5920000  24.6030000  97.7800000  17.4170000
  23.9100000  97.0430000  17.8930000  25.0810000  97.3310000  16.5730000
  24.0530000  98.6800000  17.0990000  30.6600000  98.5280000  18.7670000
  30.2520000  96.0280000  18.7960000  29.6680000  95.4120000  23.3440000
  30.5580000  94.8490000  24.1920000  31.7140000  94.7590000  23.9580000
  29.7900000  94.4130000  25.4080000  29.0650000  93.6110000  25.0820000
  29.2570000  95.3200000  25.7560000  30.6870000  93.7340000  26.5390000
  31.5590000  94.3830000  26.8250000  31.0360000  92.7790000  26.0570000
  29.8070000  93.4140000  27.7370000  30.1670000  92.5170000  28.0950000
  28.7160000  93.2590000  27.5780000  29.8470000  94.4390000  28.9440000
  29.6110000  95.4060000  28.4770000  30.8410000  94.4490000  29.3870000
  28.7940000  93.9870000  30.0040000  29.3060000  93.4440000  30.8080000
  28.0200000  93.3800000  29.5370000  28.0870000  95.2470000  30.6120000
  27.0440000  95.0180000  30.8540000  27.9230000  96.0250000  29.8320000
  28.9460000  95.9220000  31.7840000  29.0220000  95.1920000  32.5700000
  28.4550000  96.7850000  32.2270000  30.3130000  96.3560000  31.4420000
  30.2930000  96.9390000  30.5700000  31.4770000  96.1340000  32.0610000
  32.4020000  96.4830000  31.6600000  31.5470000  95.2980000  33.2830000
  31.5880000  94.2790000  32.9470000  30.7350000  95.3720000  34.0560000
  32.7960000  95.7010000  34.1110000  32.6530000  96.6150000  34.7530000
  33.6110000  95.8580000  33.3490000  33.1590000  94.5660000  35.0890000
  33.2570000  93.5970000  34.5210000  32.3160000  94.5490000  35.8360000
  34.4970000  94.9590000  35.8750000  34.3810000  95.9650000  36.3270000
  35.3810000  95.0000000  35.2060000  34.8030000  93.9650000  37.0450000
  34.8620000  93.0020000  36.5380000  33.9680000  93.9570000  37.6890000
  35.9930000  94.4790000  37.9440000  35.6900000  95.3810000  38.5240000
  36.8920000  94.6240000  37.3720000  36.1880000  93.3850000  39.1040000
  35.7400000  92.4060000  38.8010000  35.5790000  93.6270000  39.9470000
  37.7150000  93.2560000  39.4380000  38.2800000  94.1750000  39.5350000
  38.3110000  92.7160000  38.7290000  37.9340000  92.7320000  40.3170000
 124.8710000   1.8580000  32.7440000 123.9530000   1.3080000  33.1160000
 125.4830000   2.0310000  33.5800000 125.3570000   1.2740000  31.9760000
 124.4360000   3.2680000  32.2480000 125.2510000   3.7360000  31.7130000
 123.6580000   3.1840000  31.5220000 123.9530000   4.1370000  33.4700000
 123.3140000   3.6550000  34.1490000 124.8920000   4.2910000  34.0310000
 123.3450000   5.5650000  33.1510000 123.0000000   6.0180000  34.0890000
 124.2220000   6.1940000  32.8260000 122.1790000   5.7220000  32.1400000
 121.7720000   4.7100000  32.0160000 121.4380000   6.4320000  32.4440000
 122.7160000   6.1740000  30.7950000 123.4590000   6.9680000  30.9050000
 123.1570000   5.2920000  30.3260000 121.5340000   6.6100000  29.8340000
 121.0620000   7.4910000  30.3620000 121.9800000   7.0430000  28.9160000
 120.4130000   5.6310000  29.6160000 120.0220000   5.2850000  30.6050000
 119.5980000   6.2410000  29.1170000 120.8270000   4.4290000  28.7420000
 121.5750000   3.8150000  29.2410000 119.9250000   3.7400000  28.7370000
 121.2890000   4.8050000  27.2860000 120.7940000   5.7050000  26.8970000
 122.3030000   5.0370000  27.2940000 121.1220000   3.6390000  26.3150000
 120.0420000   3.3300000  26.3780000 121.5270000   4.0050000  25.3290000
 121.8470000   2.3250000  26.6920000 122.8660000   2.6640000  26.9640000
 121.5750000   1.8750000  27.6320000 121.8610000   1.3560000  25.4420000
 121.9400000   1.8380000  24.4790000 122.7670000   0.7220000  25.3390000
 120.6310000   0.4130000  25.4820000 120.5660000  -0.0080000  26.4640000
 119.6980000   0.9840000  25.5290000 120.5620000  -0.5640000  24.3560000
 121.6010000  -0.9280000  24.1600000 119.9610000  -1.4370000  24.6420000
 119.9710000   0.0770000  23.1270000 120.6490000   0.5130000  22.1820000
 118.6470000   0.2280000  23.1870000 117.9860000   1.0110000  22.1470000
 118.6640000   1.8210000  21.9390000 117.8090000   0.4600000  21.2370000
 116.5800000   1.5640000  22.6490000 116.0000000   1.9860000  21.8680000
 116.7060000   2.6230000  23.7420000 115.7480000   2.4770000  24.2090000
 117.5340000   2.3930000  24.5080000 116.7090000   3.9890000  23.0890000
 118.0720000   4.6780000  22.7550000 118.5290000   4.1570000  21.3280000
 119.0950000   5.0300000  20.3320000 118.9000000   4.4660000  19.3500000
 118.3870000   5.9000000  20.2330000 120.6260000   5.3240000  20.4520000
 120.9260000   5.9490000  19.5880000 120.7350000   6.0010000  21.2630000
 121.5450000   4.1660000  20.6400000 121.3710000   3.3020000  21.8020000
 121.5000000   3.9570000  22.7080000 120.4380000   2.7650000  21.7010000
 122.1450000   2.5350000  21.7960000 121.4990000   3.3100000  19.4090000
 122.3790000   2.6370000  19.5080000 120.5670000   2.7420000  19.4250000
 121.6280000   4.0420000  18.5520000 122.9420000   4.6250000  20.7890000
 123.5350000   3.6960000  21.0020000 122.9990000   5.3770000  21.5630000
 123.2980000   5.0830000  19.8510000 117.9520000   6.1580000  22.6720000
 119.1080000   4.0850000  23.6330000 115.7890000   0.4970000  23.1590000
 115.5320000  -0.6440000  22.5770000 115.9810000  -0.9220000  21.4980000
 114.8010000  -1.6590000  23.4100000 115.2600000  -2.6220000  23.1210000
 113.7710000  -1.5700000  23.0780000 114.9360000  -1.3980000  24.9110000
 114.3210000  -2.2250000  25.2990000 114.4810000  -0.4150000  25.2270000
 116.3750000  -1.4870000  25.4360000 116.8990000  -0.6920000  24.9890000
 116.7850000  -2.3830000  24.9580000 116.6190000  -1.4530000  26.9010000
 117.6920000  -1.5090000  27.1900000 116.2230000  -2.4050000  27.1510000
 116.0350000  -0.1920000  27.6290000 116.2240000  -0.2680000  28.7070000
 114.9420000  -0.1700000  27.4620000 116.5360000   1.1760000  27.1320000
 115.6150000   1.7360000  27.1320000 117.1460000   1.1560000  26.1840000
 117.3060000   1.8400000  28.2640000 117.7790000   2.7380000  27.8160000
 118.1520000   1.1320000  28.5800000 116.4330000   2.0900000  29.5160000
 115.5210000   2.6610000  29.3710000 116.7900000   1.8470000  30.7670000
 116.0600000   2.1270000  31.4580000 118.0520000   1.2790000  31.3140000
 118.8600000   1.6190000  30.7190000 118.0120000   0.1760000  31.2530000
 118.2350000   1.7600000  32.7120000 117.7250000   1.1290000  33.4060000
 117.8930000   2.8360000  32.8130000 119.7800000   1.6630000  33.0350000
 119.9860000   2.1430000  34.0230000 120.3740000   2.3730000  32.3890000
 120.4300000   0.2550000  32.9880000 121.5480000   0.3050000  33.1500000
 120.1240000  -0.1470000  32.0210000 119.8770000  -0.6610000  34.1710000
 120.2930000  -1.6260000  34.0480000 118.7690000  -0.7550000  34.1730000
 120.2830000  -0.1450000  35.6120000 119.9300000   0.8600000  35.7940000
 121.3640000  -0.1750000  35.7660000 119.6860000  -1.0530000  36.7240000
 120.0120000  -2.0850000  36.6750000 118.6000000  -0.9600000  36.7440000
 120.0270000  -0.4880000  38.0690000 119.5750000   0.5010000  38.1470000
 121.0690000  -0.3260000  38.2760000 119.6040000  -1.1790000  38.9030000
  25.5830000  73.7700000  33.9980000  26.3740000  73.0330000  34.2250000
  24.7210000  73.3730000  34.4670000  25.9200000  74.6940000  34.2670000
  25.2980000  73.7240000  32.5010000  25.1850000  72.6330000  32.2110000
  24.3710000  74.2410000  32.2700000  26.5380000  74.2090000  31.6220000
  26.6550000  75.3340000  31.7430000  27.4670000  73.8920000  32.0460000
  26.4610000  73.8940000  30.1490000  26.1550000  72.8570000  30.0370000
  25.5720000  74.4440000  29.7420000  27.8040000  74.3560000  29.5040000
  27.8950000  75.3610000  29.7530000  28.5970000  73.7910000  30.0480000
  27.9240000  74.1170000  28.0190000  27.2070000  74.7750000  27.4080000
  28.9780000  74.4080000  27.8100000  27.7980000  72.6590000  27.5790000
  28.3600000  71.9800000  28.1810000  26.6900000  72.4130000  27.7260000
  28.1950000  72.4680000  26.0560000  29.1960000  72.9540000  25.8690000
  28.2900000  71.3900000  25.8580000  27.2200000  73.1340000  25.0430000
  26.2200000  72.8160000  25.3270000  27.2200000  74.2560000  25.1280000
  27.3300000  72.6140000  23.5830000  28.3430000  72.6780000  23.1950000
  26.9540000  71.6240000  23.5150000  26.5150000  73.3880000  22.5710000
  26.8090000  74.4080000  22.5910000  26.6960000  73.1000000  21.5360000
  25.0440000  73.1160000  22.8190000  24.8420000  72.1680000  22.3510000
  24.9450000  73.0550000  23.9260000  24.0280000  74.1720000  22.3310000
  24.3790000  74.6000000  21.3360000  23.1310000  73.6240000  22.1360000
  23.7680000  75.3560000  23.4000000  23.5040000  74.8950000  24.3590000
  24.6320000  75.9800000  23.6180000  22.5390000  76.2790000  23.0370000
  22.6970000  77.2740000  23.4250000  22.2990000  76.3380000  21.9570000
  21.2560000  75.7680000  23.7020000  21.1970000  75.7900000  24.9120000
  20.2880000  75.1130000  22.9040000  19.1930000  74.3530000  23.4210000
  18.8800000  73.5280000  22.7260000  19.4480000  74.0450000  24.4720000
  17.9910000  75.3640000  23.4120000  17.2770000  74.8480000  24.0420000
  17.3170000  75.7140000  22.0750000  17.0220000  74.7500000  21.6490000
  16.4390000  76.2580000  22.3760000  18.1080000  76.5370000  21.1540000
  17.3920000  77.0820000  19.8320000  17.9690000  76.1490000  18.7160000
  19.2260000  76.4530000  18.0930000  19.2750000  76.2800000  16.9600000
  19.2940000  77.5250000  18.1730000  20.4000000  75.7790000  18.8450000
  21.2960000  76.1040000  18.4280000  20.3240000  76.2610000  19.8110000
  20.3570000  74.2590000  19.0580000  21.6800000  73.9200000  19.7230000
  21.7710000  72.7720000  19.8220000  22.4230000  74.2840000  19.0870000
  21.6690000  74.4750000  20.6980000  19.1630000  73.9380000  19.8500000
  18.2930000  74.2140000  19.2630000  19.0660000  72.8500000  19.9830000
  19.1810000  74.5320000  20.7840000  20.2980000  73.5290000  17.7770000
  20.5090000  72.5040000  18.0770000  21.0750000  73.9050000  17.0820000
  19.2140000  73.6280000  17.5380000  15.9590000  76.7870000  20.0220000
  17.7180000  78.4660000  19.5880000  18.2780000  76.6880000  24.0820000
  17.6380000  76.9820000  25.2600000  16.7230000  76.2370000  25.6660000
  18.0300000  78.3550000  25.8940000  17.4860000  79.1800000  25.3650000
  19.0940000  78.4880000  25.7250000  17.6540000  78.5390000  27.3800000
  16.5570000  78.3200000  27.4650000  17.6630000  79.6760000  27.5930000
  18.5230000  77.7840000  28.3500000  18.3030000  76.7130000  28.1620000
  18.0910000  77.9760000  29.3750000  20.0170000  78.0540000  28.2170000
  20.1410000  79.0920000  28.3680000  20.5220000  77.6090000  27.3290000
  20.7500000  77.5790000  29.5780000  20.3710000  76.5550000  29.8110000
  20.4270000  78.2810000  30.4120000  22.2740000  77.5180000  29.5630000
  22.6680000  78.4020000  29.0790000  22.6420000  76.7390000  28.8300000
  22.8370000  77.2410000  31.0110000  22.5240000  76.2370000  31.2210000
  22.4420000  77.8860000  31.7950000  24.3880000  77.4160000  30.9960000
  24.8420000  76.8440000  30.2060000  25.1040000  78.1690000  31.8480000
  26.1610000  78.0870000  31.7600000  24.4410000  78.9820000  33.0180000
  23.3700000  79.3280000  32.8360000  25.0590000  79.8540000  33.1870000
  24.5080000  78.1430000  34.3080000  24.0600000  77.1450000  34.1890000
  23.8550000  78.6220000  34.9960000  25.9850000  77.9620000  34.7280000
  26.3290000  78.9880000  34.8640000  26.5370000  77.4800000  33.8450000
  26.2020000  77.2250000  36.0430000  27.3140000  77.1700000  36.1510000
  25.8040000  76.1960000  35.7940000  25.5860000  77.6390000  37.3820000
  25.6870000  76.7740000  38.1410000  24.5790000  77.8700000  37.2310000
  26.2670000  78.9660000  37.9080000  25.9760000  79.8130000  37.2400000
  27.3140000  78.9760000  37.5680000  26.2810000  79.2410000  39.3940000
  26.8560000  80.1500000  39.4910000  26.8960000  78.3740000  39.8680000
  24.8830000  79.2130000  39.9270000  24.3970000  80.1290000  39.5490000
  24.8460000  79.1210000  41.0380000  24.4280000  78.2980000  39.6250000
  36.8580000  80.8090000  36.4850000  37.6550000  81.2110000  35.7990000
  37.2480000  80.3310000  37.3700000  36.2360000  81.6700000  36.8450000
  35.9650000  79.8140000  35.7120000  35.0910000  79.5160000  36.3260000
  35.5500000  80.4140000  34.8610000  36.7840000  78.5500000  35.2840000
  37.6890000  78.7790000  34.6980000  37.2330000  78.0340000  36.0980000
  35.8770000  77.5760000  34.4530000  35.0580000  77.3560000  35.1640000
  35.3020000  78.0760000  33.6820000  36.4990000  76.2460000  33.9880000
  37.1140000  76.3610000  33.0880000  37.2500000  75.9620000  34.8060000
  35.6260000  74.9620000  33.7700000  36.2450000  74.1250000  33.9430000
  34.8340000  74.9570000  34.4820000  35.0750000  75.0070000  32.3150000
  34.2980000  75.6920000  32.4290000  35.8330000  75.4490000  31.7000000
  34.6370000  73.6690000  31.6260000  35.4420000  72.9510000  31.5580000
  33.7990000  73.1210000  32.1310000  34.1750000  74.1460000  30.2510000
  33.3660000  74.8940000  30.5060000  35.0240000  74.6170000  29.7110000
  33.5670000  73.0860000  29.4190000  32.5130000  73.0120000  29.7920000
  33.4620000  73.4600000  28.4030000  34.1770000  71.6010000  29.3310000
  34.0980000  71.1710000  30.2710000  33.5580000  71.0620000  28.6420000
  35.5930000  71.6590000  28.9640000  35.4980000  72.3780000  28.0720000
  36.3020000  72.0070000  29.6990000  36.2620000  70.3620000  28.4160000
  35.8870000  69.5790000  29.0810000  35.9600000  70.0540000  27.3800000
  37.7960000  70.4110000  28.2990000  38.2900000  70.4920000  29.3320000
  38.1250000  69.4680000  27.8530000  38.3950000  71.5040000  27.4230000
  38.0460000  72.4280000  27.7570000  39.5140000  71.4750000  27.4550000
  37.9660000  71.2950000  25.9690000  38.1690000  70.3110000  25.2820000
  37.5130000  72.4220000  25.4960000  37.0710000  72.6390000  24.1540000
  37.1300000  73.7070000  23.9110000  37.8100000  72.0980000  23.5680000
  35.6430000  72.0190000  23.9320000  35.5040000  71.0450000  24.3190000
  35.1980000  71.9370000  22.5220000  35.8510000  71.2630000  21.9450000
  34.1880000  71.5840000  22.5000000  35.2700000  73.2140000  21.9620000
  34.5230000  73.6520000  20.6140000  33.1640000  74.0270000  21.2590000
  31.9770000  73.9370000  20.4520000  32.2390000  73.7440000  19.4520000
  31.3610000  73.1730000  20.8500000  31.2350000  75.2870000  20.5710000
  30.3240000  75.3070000  20.0790000  31.1180000  75.5850000  21.6430000
  31.9480000  76.5370000  20.0860000  30.9630000  77.6350000  20.0940000
  30.1280000  77.4140000  19.4010000  30.5820000  77.6740000  21.1070000
  31.5170000  78.4780000  19.7520000  33.0070000  76.8580000  21.1080000
  33.6460000  75.9750000  21.1870000  33.6690000  77.7640000  20.8390000
  32.4910000  77.0950000  22.0550000  32.4900000  76.3570000  18.7280000
  32.9720000  77.2700000  18.4230000  31.7070000  76.0590000  18.0040000
  33.2040000  75.5480000  18.7240000  35.1880000  74.8910000  20.1710000
  34.3120000  72.5110000  19.7370000  34.8130000  72.8980000  24.6290000
  33.5210000  72.5710000  24.9990000  32.9600000  71.5580000  24.6650000
  32.8050000  73.7370000  25.6840000  33.4830000  74.5230000  25.9420000
  32.3180000  73.3150000  26.5820000  31.9290000  74.3260000  24.4920000
  31.2120000  73.6720000  24.1760000  32.5640000  74.4640000  23.6200000
  31.2460000  75.7000000  24.9510000  30.5500000  75.9400000  24.1460000
  31.8840000  76.5460000  24.9740000  30.6220000  75.6780000  26.3480000
  30.5080000  74.6380000  26.6090000  29.6510000  76.1970000  26.2490000
  31.4650000  76.3500000  27.4450000  31.5220000  77.4300000  27.3150000
  32.5390000  75.9940000  27.5880000  30.7820000  76.1150000  28.8080000
  30.7930000  75.0370000  29.1040000  29.6940000  76.3760000  28.7080000
  31.3210000  77.0830000  29.8490000  31.4900000  78.0320000  29.4120000
  32.3400000  76.7140000  30.1120000  30.2900000  77.2410000  31.0270000
  29.2880000  76.8790000  30.9030000  30.6610000  77.7030000  32.2140000
  29.8020000  77.8410000  32.8940000  32.0310000  78.2490000  32.5810000
  32.2640000  79.0080000  31.8160000  32.7640000  77.5510000  32.6060000
  31.8880000  78.9630000  33.8950000  31.1360000  79.7050000  33.7860000
  32.7420000  79.5850000  34.1900000  31.6200000  77.9910000  35.0600000
  32.2810000  77.0350000  35.1290000  30.5880000  77.6860000  34.9040000
  31.5360000  78.7440000  36.4350000  32.6080000  79.1390000  36.5100000
  31.5680000  78.1380000  37.3510000  30.5500000  79.9090000  36.4820000
  29.5540000  79.6080000  36.2340000  30.8860000  80.7220000  35.8280000
  30.3490000  80.5300000  37.8840000  29.9420000  79.7570000  38.5230000
  29.6630000  81.3340000  37.7900000  31.6170000  81.2450000  38.4330000
  31.8240000  82.2010000  37.9700000  32.5500000  80.7260000  38.2590000
  31.4580000  81.3510000  40.0180000  30.4050000  81.5980000  40.1900000
  31.9950000  82.1380000  40.4960000  31.6710000  80.3970000  40.4920000
  46.1420000  45.7070000  28.0110000  46.3500000  45.8210000  29.0880000
  45.4740000  46.4750000  27.6140000  47.1090000  45.8720000  27.3650000
  45.5300000  44.3640000  27.6700000  44.5480000  44.0990000  28.0880000
  45.4340000  44.3660000  26.5900000  46.3680000  43.0680000  28.0630000
  45.8490000  42.2080000  27.6160000  47.3500000  43.1130000  27.5080000
  46.6650000  42.8750000  29.6140000  47.5720000  42.2820000  29.7700000
  46.8970000  43.8030000  30.1010000  45.5270000  42.2750000  30.4230000
  45.2010000  41.3930000  29.9420000  45.9020000  42.0410000  31.3810000
  44.2950000  43.1420000  30.6750000  44.6370000  44.1720000  30.9190000
  43.7210000  43.2010000  29.7780000  43.4100000  42.7540000  31.8710000
  43.8170000  42.7430000  32.9380000  42.6190000  43.4960000  31.9680000
  42.6880000  41.3640000  31.5660000  43.4420000  40.7050000  31.1490000
  42.4620000  40.8580000  32.5170000  41.5290000  41.5900000  30.5470000
  41.0330000  42.5010000  30.9280000  41.9500000  41.8810000  29.5540000
  40.5770000  40.3670000  30.3840000  40.2720000  40.0830000  31.3710000
  39.6940000  40.7530000  29.8880000  41.2190000  39.1450000  29.6300000
  41.9530000  38.7720000  30.2840000  40.5260000  38.3450000  29.4580000
  41.7940000  39.5400000  28.3100000  42.6220000  40.2500000  28.5330000
  42.1300000  38.6150000  27.7780000  40.6910000  40.1630000  27.4180000
  39.6980000  39.6060000  27.6690000  40.4930000  41.2110000  27.7400000
  41.1330000  40.1540000  25.9110000  41.3250000  39.0830000  25.5490000
  40.2300000  40.4330000  25.3750000  42.2950000  41.1130000  25.5060000
  43.0890000  40.9510000  26.2140000  42.6660000  40.7860000  24.5350000
  41.8670000  42.4740000  25.4430000  41.9920000  43.1530000  26.4060000
  41.7830000  42.8700000  24.1620000  41.8260000  44.2640000  23.7790000
  41.2460000  44.3220000  22.8890000  41.3670000  44.8200000  24.5920000
  43.3190000  44.7160000  23.6400000  43.9870000  44.6390000  24.5790000
  43.5300000  46.1770000  23.1010000  43.8370000  46.7990000  23.9630000
  44.3740000  46.1590000  22.4250000  42.4270000  46.7580000  22.3450000
  42.4930000  46.7180000  20.7600000  41.0640000  47.2380000  20.3320000
  40.8940000  48.5430000  19.7500000  41.4220000  49.1620000  20.4890000
  41.4670000  48.6700000  18.8100000  39.3960000  48.8130000  19.5250000
  39.3510000  49.7100000  18.9110000  38.9600000  48.0380000  18.9690000
  38.5240000  48.9830000  20.7410000  38.6970000  47.9470000  21.8010000
  38.0080000  48.1850000  22.6630000  38.5970000  46.9620000  21.2860000
  39.7240000  48.1050000  22.0070000  38.6330000  50.2910000  21.3730000
  39.6990000  50.3420000  21.6650000  38.4280000  51.0150000  20.6300000
  38.0080000  50.4070000  22.2630000  37.0860000  48.8230000  20.3410000
  36.7180000  49.6050000  19.7540000  36.3800000  48.6570000  21.1340000
  37.1250000  47.9690000  19.6720000  43.4880000  47.6440000  20.2550000
  42.5600000  45.3260000  20.3300000  43.9560000  43.7770000  22.6970000
  44.9240000  42.9700000  23.1310000  45.5490000  43.0360000  24.2000000
  45.1720000  41.8780000  22.0790000  45.4260000  42.3670000  21.1710000
  44.2310000  41.3250000  21.9360000  46.3450000  40.8800000  22.4060000
  47.2760000  41.4230000  22.3800000  46.5320000  40.2250000  21.5600000
  46.0550000  39.9780000  23.7090000  45.2920000  39.2930000  23.4010000
  45.6160000  40.7370000  24.4480000  47.2110000  39.2010000  24.3030000
  47.4540000  38.4720000  23.5250000  46.9310000  38.6200000  25.1250000
  48.4480000  40.0610000  24.6440000  48.2460000  40.7770000  25.3960000
  48.7840000  40.6330000  23.7660000  49.5770000  39.1230000  25.0530000
  49.7710000  38.5830000  24.1230000  49.1790000  38.3500000  25.7320000
  50.8490000  39.8120000  25.5090000  51.4480000  39.0000000  25.9860000
  50.4980000  40.4580000  26.2620000  51.6730000  40.4700000  24.4210000
  51.6230000  40.0360000  23.4580000  52.4050000  41.5380000  24.5360000
  52.7870000  41.8310000  23.6200000  52.5040000  42.4340000  25.7150000
  53.4720000  42.4290000  26.2280000  51.6920000  42.1710000  26.4330000
  52.3580000  43.8380000  25.2040000  51.3580000  43.8860000  24.7610000
  53.0960000  44.0350000  24.4140000  52.4020000  44.8220000  26.3590000
  52.4280000  45.8290000  25.9500000  53.3440000  44.7130000  26.8560000
  51.1130000  44.7340000  27.2660000  50.9410000  43.7400000  27.5410000
  50.2260000  45.0700000  26.6710000  51.1170000  45.5880000  28.5620000
  50.1930000  46.1030000  28.8640000  51.8400000  46.4670000  28.4260000
  51.5700000  44.7530000  29.7910000  50.8570000  43.9530000  30.0010000
  51.6880000  45.5330000  30.5510000  52.9750000  44.1300000  29.6380000
  53.6900000  44.8800000  29.3590000  52.9490000  43.3890000  28.9070000
  53.4510000  43.5930000  30.9780000  53.2500000  44.4000000  31.6380000
  54.4760000  43.3290000  30.8820000  52.8210000  42.7390000  31.2660000
 124.2020000 119.5420000  29.7870000 124.0100000 118.7450000  30.4520000
 123.3250000 119.6350000  29.1170000 124.2990000 120.3590000  30.4730000
 125.5090000 119.3750000  28.9370000 125.5300000 118.3830000  28.4610000
 125.4020000 120.0850000  28.1210000 126.7550000 119.6740000  29.7510000
 126.7410000 120.6810000  30.0920000 126.7570000 119.1000000  30.6570000
 128.0350000 119.5080000  28.9310000 128.8460000 119.6890000  29.6050000
 128.1580000 118.4620000  28.6920000 128.2170000 120.2750000  27.5860000
 127.6950000 121.1770000  27.5870000 129.2650000 120.5240000  27.4750000
 127.8520000 119.6170000  26.1820000 128.5260000 118.7850000  25.9270000
 126.8980000 119.0800000  26.3110000 127.8750000 120.6460000  25.0730000
 127.0030000 121.2470000  25.2240000 128.7070000 121.3540000  25.1450000
 127.9350000 120.1030000  23.6280000 127.2730000 119.2700000  23.5290000
 127.6160000 120.9050000  22.9660000 129.3490000 119.6310000  23.0500000
 129.9360000 120.4780000  22.6380000 129.9050000 119.1730000  23.7790000
 129.3090000 118.6780000  21.8680000 128.6610000 119.0800000  21.0560000
 130.2320000 118.5710000  21.3610000 128.7080000 117.2430000  22.1660000
 129.2420000 116.7440000  22.9910000 127.7180000 117.2950000  22.5670000
 128.9080000 116.3130000  20.9530000 129.8280000 116.6100000  20.4460000
 129.0280000 115.2690000  21.1720000 127.7460000 116.4550000  19.9820000
 126.8200000 115.9820000  20.3970000 127.5790000 117.5330000  19.8410000
 128.1280000 115.7300000  18.6110000 128.3360000 114.6760000  18.7780000
 127.1620000 115.6900000  18.0390000 129.2830000 116.3310000  17.7410000
 130.2650000 116.4570000  18.2490000 129.4610000 115.6240000  16.9630000
 128.8660000 117.6580000  17.1550000 128.5030000 117.7890000  16.0020000
 128.9670000 118.6210000  18.0570000 128.8540000 119.9310000  17.5970000
 129.3410000 120.5220000  18.3460000 129.2800000 120.0450000  16.5830000
 127.3080000 120.4070000  17.4870000 126.8120000 119.6620000  16.8750000
 127.0470000 121.8540000  16.8920000 127.5050000 121.8820000  15.9100000
 125.9630000 122.0800000  16.7470000 127.6690000 122.8980000  17.5420000
 127.0100000 123.9220000  18.5050000 128.2650000 124.4330000  19.4280000
 128.6730000 123.6430000  20.5640000 129.2050000 124.3380000  21.0890000
 127.7730000 123.2760000  21.1590000 129.7070000 122.5710000  20.1150000
 130.1460000 122.1310000  21.0310000 129.2260000 121.7740000  19.5260000
 130.9260000 123.0090000  19.3190000 131.5120000 124.1790000  19.9980000
 131.5630000 123.9670000  21.0660000 132.4930000 124.5040000  19.5870000
 130.8080000 124.9700000  19.8640000 131.9410000 121.9470000  19.4030000
 132.7880000 122.2010000  18.7430000 132.1470000 121.7820000  20.4160000
 131.6190000 121.0150000  18.9320000 130.6240000 123.3610000  17.9020000
 129.8150000 124.0560000  17.9700000 130.3680000 122.4470000  17.2910000
 131.5530000 123.7820000  17.4730000 126.6270000 125.0630000  17.7170000
 126.0450000 123.2280000  19.3720000 126.6630000 120.1920000  18.7740000
 125.3340000 120.3100000  18.9680000 124.5810000 120.5020000  18.0250000
 125.0020000 120.2420000  20.4590000 125.2090000 121.1380000  21.0300000
 125.7010000 119.4620000  20.8740000 123.5150000 119.9720000  20.6520000
 123.3300000 119.1270000  19.9670000 122.9290000 120.8660000  20.2570000
 122.8960000 119.5500000  22.0770000 122.8080000 120.4420000  22.7470000
 123.5790000 118.9260000  22.5680000 121.4840000 118.9070000  21.9730000
 121.6640000 117.9760000  21.3750000 120.8100000 119.6490000  21.4410000
 120.8710000 118.6540000  23.3880000 119.8190000 118.3410000  23.1490000
 120.7360000 119.6040000  23.8920000 121.6240000 117.6610000  24.2610000
 122.6990000 117.8540000  24.3270000 121.5380000 116.5710000  23.8750000
 121.1530000 117.7930000  25.7340000 120.0370000 117.5000000  25.7530000
 121.2870000 118.7810000  26.0530000 122.0830000 116.9900000  26.6700000
 123.0690000 116.9180000  26.2380000 121.8030000 116.4970000  27.8690000
 122.6680000 116.0920000  28.3790000 120.4150000 116.3280000  28.5160000
 119.6970000 116.2580000  27.6950000 120.2380000 117.1250000  29.2170000
 120.4390000 115.0190000  29.3330000 121.2360000 115.0800000  30.0380000
 120.6250000 114.2090000  28.6700000 119.1870000 114.6490000  30.1260000
 118.4690000 114.3780000  29.3490000 118.7760000 115.5610000  30.4810000
 119.2830000 113.5450000  31.1620000 119.4590000 112.5420000  30.6300000
 118.3080000 113.5010000  31.6180000 120.3140000 113.7110000  32.2430000
 121.2430000 113.9810000  31.7520000 120.5730000 112.8210000  32.7990000
 119.9080000 114.8560000  33.1470000 118.9410000 114.6390000  33.6340000
 119.6620000 115.7340000  32.4700000 121.0260000 115.2260000  34.1250000
 121.4420000 114.3090000  34.4890000 120.4290000 115.6420000  34.9290000
 122.1570000 116.2380000  33.5990000 122.7440000 116.4360000  34.4490000
 121.7920000 117.1650000  33.3060000 122.7860000 115.7530000  32.7570000
  20.7580000  31.5450000  33.6680000  21.3440000  30.6480000  33.7870000
  19.6880000  31.2170000  33.5180000  20.7530000  32.0930000  34.6440000
  21.2900000  32.4010000  32.5220000  22.3490000  32.5560000  32.7280000
  21.2990000  31.8070000  31.6090000  20.6020000  33.7950000  32.3170000
  19.5280000  33.7360000  32.4780000  21.0420000  34.6140000  32.9250000
  20.6880000  34.1960000  30.7850000  21.7050000  34.6160000  30.5310000
  20.5640000  33.3450000  30.1860000  19.7370000  35.3930000  30.3850000
  19.9150000  36.2860000  31.0670000  19.8980000  35.7280000  29.4060000
  18.2690000  35.1820000  30.4190000  17.8910000  35.0260000  31.4580000
  17.7760000  36.0690000  30.0420000  17.6930000  34.0480000  29.5880000
  18.0380000  33.1450000  30.0910000  16.6250000  34.1200000  29.4850000
  18.2770000  33.9610000  28.1620000  18.0650000  34.9880000  27.7890000
  19.3590000  33.9340000  28.2080000  17.6550000  32.7930000  27.3800000
  17.7280000  31.8830000  27.9550000  16.5590000  32.9890000  27.2390000
  18.3260000  32.4200000  26.1050000  18.8750000  33.3180000  25.7910000
  18.9860000  31.6040000  26.3170000  17.4230000  32.2060000  24.8830000
  16.5080000  31.6450000  25.2690000  17.0500000  33.1680000  24.5600000
  18.1880000  31.3740000  23.9010000  19.1050000  31.9450000  23.5180000
  18.4520000  30.4040000  24.3950000  17.2780000  31.0240000  22.7310000
  16.2040000  30.9280000  23.0380000  17.3970000  31.7650000  21.9320000
  17.5350000  29.7000000  21.9790000  17.4380000  28.8410000  22.6270000
  16.8290000  29.6140000  21.2280000  18.8620000  29.6250000  21.2230000
  19.6700000  29.5970000  21.9610000  18.8010000  28.7390000  20.6160000
  18.9210000  30.7150000  20.2010000  17.9910000  30.9850000  19.4790000
  20.0550000  31.3260000  20.2640000  20.2310000  32.4750000  19.3890000
  21.2300000  32.8840000  19.6320000  20.3320000  32.1070000  18.3980000
  19.1790000  33.6340000  19.7770000  18.1550000  33.2090000  19.7550000
  19.3970000  34.7820000  18.8880000  19.6380000  34.3350000  17.9620000
  18.4620000  35.3810000  18.7900000  20.4410000  35.7640000  19.2600000
  20.2820000  37.2860000  18.7750000  21.2760000  37.4030000  17.5440000
  22.6580000  37.7540000  17.7200000  23.0670000  37.8880000  16.7440000
  22.7170000  38.6660000  18.2970000  23.4380000  36.6480000  18.3880000
  24.4630000  37.0640000  18.7060000  22.8270000  36.3810000  19.3150000
  23.7660000  35.3550000  17.6910000  22.5660000  34.5870000  17.4140000
  22.1590000  34.2760000  18.3950000  21.9540000  35.3170000  16.8820000
  22.6950000  33.6880000  16.9120000  24.6510000  35.5320000  16.5240000
  25.6190000  36.0430000  16.6740000  24.9070000  34.4930000  16.1520000
  24.1270000  36.0700000  15.7570000  24.5480000  34.5010000  18.5940000
  25.3390000  35.2400000  18.9360000  25.0830000  33.6210000  18.0810000
  23.9520000  34.1000000  19.4390000  18.9780000  37.5290000  18.1530000
  20.7580000  38.1960000  19.8110000  19.4500000  34.0920000  21.0980000
  18.8000000  35.1550000  21.5760000  17.6190000  35.3770000  21.3790000
  19.7280000  35.8940000  22.5590000  20.5510000  36.2460000  21.9370000
  20.1040000  35.1620000  23.2810000  19.0190000  37.0510000  23.3290000
  18.5700000  37.6260000  22.5580000  19.7530000  37.6670000  23.8510000
  17.8960000  36.7040000  24.2600000  18.2520000  36.0410000  25.0480000
  17.1380000  36.1100000  23.9000000  17.1920000  37.9420000  24.8240000
  16.5090000  38.3900000  24.0370000  17.9240000  38.7860000  25.0750000
  16.4390000  37.6350000  26.1530000  15.9950000  38.5750000  26.6130000
  17.1120000  37.1890000  26.8250000  15.2400000  36.7350000  26.0090000
  15.4580000  35.8080000  25.4440000  14.5550000  37.1450000  25.1740000
  14.5180000  36.2530000  27.2140000  14.2180000  37.1970000  27.7640000
  15.2110000  35.7390000  27.8640000  13.2920000  35.4250000  26.8350000
  13.3480000  34.6270000  26.0830000  12.0490000  35.6620000  27.2020000
  11.2120000  35.1330000  26.7990000  11.6520000  36.5730000  28.3170000
  11.4160000  37.5310000  27.8910000  12.4260000  36.6650000  29.0930000
  10.3990000  36.1360000  29.0890000  10.7090000  35.2370000  29.5870000
   9.6780000  35.8660000  28.3810000   9.8870000  37.2290000  30.1230000
  10.0070000  38.2270000  29.7150000  10.4730000  37.2760000  31.0080000
   8.3480000  37.1120000  30.5130000   8.0810000  36.1210000  30.8150000
   7.7880000  37.4390000  29.5870000   8.0180000  38.0220000  31.7470000
   8.6570000  37.8110000  32.6120000   6.9970000  37.8110000  32.1180000
   8.2190000  39.4840000  31.3370000   7.6850000  39.6710000  30.4450000
   9.2660000  39.7860000  31.2200000   7.5810000  40.4050000  32.4450000
   6.5070000  40.2640000  32.6130000   7.6580000  41.4130000  32.0100000
   8.2580000  40.2380000  33.8690000   8.0010000  41.1300000  34.4130000
   9.3450000  40.1440000  33.8870000   7.8670000  39.3710000  34.3600000
 114.0050000  62.2870000  29.9260000 114.5080000  61.3230000  30.0270000
 114.6830000  63.0360000  30.4780000 113.9200000  62.5660000  28.8160000
 112.5920000  62.1640000  30.5200000 112.7050000  61.7200000  31.4700000
 112.2120000  63.1660000  30.6240000 111.6590000  61.2400000  29.6660000
 112.2690000  60.4300000  29.5100000 110.7310000  61.0000000  30.3010000
 111.2150000  61.9850000  28.3430000 110.7420000  62.9050000  28.6570000
 112.0980000  62.1560000  27.7360000 110.3170000  61.0310000  27.4360000
 110.9180000  60.2700000  27.0690000 109.5320000  60.6200000  28.0920000
 109.6820000  61.7470000  26.2540000 109.0050000  62.5180000  26.6910000
 110.5180000  62.0880000  25.7030000 108.7560000  60.8870000  25.3180000
 107.8310000  60.6970000  25.8100000 108.5350000  61.4600000  24.4680000
 109.2420000  59.5290000  24.7790000 109.3360000  58.9200000  25.6660000
 108.4690000  59.0080000  24.1370000 110.5590000  59.7270000  23.9600000
 110.2710000  60.5520000  23.3020000 111.3980000  60.0250000  24.5260000
 110.9260000  58.4090000  23.1680000 110.0100000  58.1490000  22.6040000
 111.6330000  58.6230000  22.3510000 111.3790000  57.2530000  23.9500000
 110.9900000  57.2960000  24.9840000 111.1910000  56.2800000  23.5480000
 112.8680000  57.3570000  24.1330000 113.2530000  58.3510000  24.1400000
 113.0410000  56.7760000  25.0560000 113.6820000  56.6600000  22.9950000
 113.3420000  55.6520000  22.9910000 113.4130000  56.9620000  21.9620000
 115.2280000  56.7840000  23.0680000 115.4840000  56.7410000  24.1010000
 115.8000000  55.9540000  22.6150000 115.6480000  58.2220000  22.7470000
 115.0500000  58.9510000  23.3280000 116.7210000  58.3640000  22.9240000
 115.3710000  58.5100000  21.3430000 116.1100000  58.0580000  20.4670000
 114.2380000  59.2270000  21.0990000 113.8890000  59.4270000  19.7090000
 113.1740000  60.2080000  19.6840000 114.7440000  59.7360000  19.0770000
 113.2390000  58.1520000  19.1100000 114.0470000  57.3780000  18.9770000
 112.6510000  58.4800000  17.6690000 113.4610000  58.5810000  16.9060000
 112.1530000  57.5990000  17.2310000 111.7110000  59.6170000  17.7230000
 110.2890000  59.5240000  16.9150000 110.3770000  60.7340000  15.8390000
 109.9300000  62.0570000  16.0800000 109.3170000  62.3520000  15.3100000
 109.3420000  62.0730000  17.0650000 111.1470000  62.9170000  16.1990000
 111.5920000  62.5820000  17.1220000 111.9540000  62.6560000  15.5130000
 110.9950000  64.4560000  16.1880000 110.1130000  64.8740000  17.3440000
 109.8570000  65.9060000  17.3110000 109.1680000  64.3220000  17.5080000
 110.7160000  64.7490000  18.2130000 112.3890000  65.0330000  16.3330000
 112.8340000  64.4880000  17.1940000 112.9780000  64.7250000  15.4550000
 112.2830000  66.1040000  16.5350000 110.2470000  64.8310000  14.9610000
 109.2130000  64.4500000  15.0110000 110.8640000  64.4280000  14.1920000
 110.2210000  65.9000000  14.8060000 110.2560000  58.2890000  16.1150000
 109.2250000  59.8760000  17.8500000 112.1090000  57.6260000  19.8620000
 111.8040000  56.3430000  19.6370000 112.3150000  55.6540000  18.7990000
 110.6270000  55.7880000  20.3600000 110.8570000  56.0250000  21.3960000
 110.5580000  54.7720000  20.1910000 109.2920000  56.3510000  19.8500000
 109.3620000  56.3410000  18.8010000 109.1540000  57.3890000  20.1170000
 108.1610000  55.4660000  20.3490000 108.4030000  54.4960000  19.9600000
 107.3320000  55.8540000  19.7750000 108.0190000  55.4790000  21.9080000
 107.9270000  56.5100000  22.2230000 108.8470000  55.0210000  22.4310000
 106.7550000  54.6570000  22.3130000 105.8900000  55.1070000  21.8660000
 106.6410000  54.6870000  23.3290000 106.7810000  53.1460000  21.9710000
 107.7450000  52.8270000  22.1180000 106.5230000  53.0030000  20.8960000
 105.8350000  52.2420000  22.8610000 105.5600000  51.3020000  22.3810000
 104.8490000  52.7540000  22.9380000 106.3790000  52.1620000  24.2950000
 107.2780000  51.6360000  24.4180000 105.8950000  52.8530000  25.3720000
 106.5100000  52.7140000  26.3020000 104.7710000  53.9230000  25.3610000
 103.8120000  53.5740000  25.7800000 104.6650000  54.3640000  24.3980000
 105.0360000  55.1170000  26.2930000 104.1010000  55.7360000  26.1820000
 105.8550000  55.7270000  25.9400000 105.2270000  54.6310000  27.7910000
 106.2550000  54.3810000  27.8570000 104.7490000  53.6980000  27.9290000
 104.8800000  55.7090000  28.7800000 105.4430000  56.6750000  28.6490000
 105.2520000  55.4120000  29.7360000 103.4040000  55.9070000  28.9510000
 102.7630000  54.9740000  28.8550000 103.1030000  56.5200000  28.1060000
 103.1320000  56.6470000  30.2990000 102.4600000  57.4770000  30.1680000
 103.9470000  57.1940000  30.7090000 102.5030000  55.7360000  31.3750000
 103.2480000  54.9910000  31.5410000 101.5370000  55.2640000  31.1400000
 102.3450000  56.4360000  32.7110000 101.7380000  57.3390000  32.5490000
 103.2590000  56.8110000  33.2100000 101.8280000  55.7980000  33.4240000
 134.7930000 140.0330000  37.0980000 134.0140000 140.7180000  36.8210000
 135.3230000 140.7500000  37.7520000 134.3300000 139.1370000  37.5980000
 135.6200000 139.6670000  35.8030000 135.0790000 139.0030000  35.1110000
 135.7660000 140.6670000  35.3940000 136.9390000 138.9930000  36.1930000
 136.8120000 138.1580000  36.9680000 137.3970000 138.5410000  35.3350000
 137.9580000 140.0210000  36.7420000 137.4700000 140.4790000  37.5540000
 138.8940000 139.5580000  37.1410000 138.2980000 141.1210000  35.6910000
 137.4100000 141.7410000  35.5100000 138.9340000 141.9300000  36.1310000
 138.9050000 140.5620000  34.3600000 138.1530000 140.0270000  33.7920000
 139.0540000 141.4190000  33.6460000 140.1740000 139.7900000  34.6280000
 140.7320000 140.1420000  35.4890000 139.9040000 138.6730000  34.6540000
 141.0130000 139.8850000  33.3370000 140.3600000 139.7310000  32.5200000
 141.3150000 140.8850000  33.2460000 142.1920000 138.8960000  33.2350000
 142.7380000 139.0400000  34.1760000 141.8610000 137.8610000  33.3320000
 143.1490000 139.0920000  32.0040000 143.6760000 140.1020000  32.1270000
 143.9520000 138.2780000  32.0210000 142.4750000 138.9800000  30.6590000
 141.8790000 139.8340000  30.5260000 143.2660000 138.9910000  29.9320000
 141.6020000 137.8140000  30.4800000 142.0790000 136.9210000  30.8180000
 140.7250000 137.8000000  31.2020000 141.2350000 137.5650000  28.9620000
 140.9100000 138.4370000  28.3750000 142.1390000 137.2410000  28.4000000
 140.0670000 136.5570000  28.8340000 140.2680000 135.7190000  29.5020000
 139.1550000 136.9890000  29.2070000 139.7530000 136.0310000  27.3980000
 140.6300000 135.7580000  26.8740000 139.1830000 135.1330000  27.4810000
 139.1120000 137.1100000  26.5170000 137.9710000 137.4590000  26.4870000
 140.0380000 137.5730000  25.6240000 139.6920000 138.5590000  24.5990000
 140.6120000 138.7370000  23.9920000 138.9360000 138.1060000  23.8520000
 139.1480000 139.8410000  25.1500000 138.3100000 139.5630000  25.7520000
 138.6680000 140.6490000  23.9080000 139.1130000 141.6440000  23.8890000
 138.9290000 140.2400000  22.9040000 137.2660000 140.8560000  23.9480000
 136.5560000 141.6700000  22.8070000 136.5530000 143.2850000  23.2640000
 137.1540000 143.8060000  24.4720000 136.5360000 144.6390000  24.8370000
 137.1840000 143.0290000  25.2600000 138.5830000 144.3520000  24.2490000
 138.9530000 144.8540000  25.1120000 139.2840000 143.5800000  24.0520000
 138.7500000 145.2660000  23.0130000 137.6300000 146.2270000  22.7630000
 137.5640000 146.9690000  23.5380000 137.8510000 146.9140000  21.8660000
 136.6930000 145.6710000  22.7700000 140.0410000 146.0090000  23.0810000
 140.0260000 146.6900000  22.2600000 140.1230000 146.4580000  24.0160000
 140.8640000 145.2680000  22.9930000 138.7870000 144.4380000  21.8260000
 139.5500000 143.6910000  21.9320000 139.3320000 144.9990000  21.0190000
 137.8310000 144.0210000  21.6290000 137.2830000 141.6340000  21.5470000
 135.2200000 141.0590000  22.8020000 140.1420000 140.5530000  25.8940000
 139.6980000 141.5190000  26.7400000 138.6230000 142.0190000  26.8680000
 140.8560000 141.8880000  27.6370000 141.7260000 141.5880000  27.1260000
 140.7930000 141.2850000  28.5370000 140.9040000 143.3880000  27.9820000
 140.2410000 143.4450000  28.8050000 140.4980000 144.0560000  27.2040000
 142.2810000 143.8610000  28.5090000 142.2600000 144.9460000  28.7330000
 142.9670000 143.9060000  27.6350000 142.8740000 143.0670000  29.7450000
 143.8870000 143.3280000  29.9250000 142.8810000 141.9330000  29.6900000
 142.0580000 143.3750000  30.9770000 141.2160000 142.7480000  31.0650000
 141.5550000 144.3440000  31.0090000 142.8630000 143.2170000  32.3960000
 143.8710000 143.6660000  32.3890000 143.1420000 142.1370000  32.4970000
 142.0390000 143.6400000  33.6600000 142.6470000 143.3420000  34.5360000
 141.1000000 143.0150000  33.6100000 141.7950000 145.1230000  33.6540000
 142.6610000 145.6710000  33.8450000 140.6320000 145.7090000  33.8040000
 140.5580000 146.7270000  34.1200000 139.3170000 145.0930000  33.5650000
 139.2510000 144.0600000  33.8590000 139.0600000 145.1500000  32.5000000
 138.3000000 145.7960000  34.4250000 138.3280000 146.8540000  34.1370000
 138.4550000 145.8080000  35.4900000 136.9250000 145.1690000  34.2180000
 136.3370000 145.3680000  35.0930000 137.0670000 144.0670000  34.2320000
 136.1220000 145.5580000  32.9350000 136.5650000 144.9370000  32.1380000
 136.3580000 146.6010000  32.7120000 134.6110000 145.2820000  33.1080000
 134.1940000 145.9870000  33.8890000 134.3730000 144.3620000  33.5920000
 133.8750000 145.4290000  31.7960000 134.2710000 144.7610000  31.0190000
 133.9430000 146.4190000  31.3950000 132.4320000 145.0040000  32.1850000
 132.2740000 145.0780000  33.2670000 132.1880000 143.8970000  31.9100000
 131.3500000 145.7780000  31.4680000 130.3980000 145.2120000  31.5870000
 131.5460000 145.8940000  30.4210000 131.2940000 146.7380000  31.9900000
  39.5590000 144.9020000  26.8370000  40.3830000 144.5940000  27.4720000
  39.8960000 145.7790000  26.2770000  39.5390000 144.1300000  26.0460000
  38.1500000 145.0790000  27.4140000  37.6500000 145.9110000  26.9100000
  37.6370000 144.2070000  27.0780000  38.0650000 145.3320000  28.9520000
  38.3890000 146.3870000  29.2350000  36.9830000 145.3090000  29.1290000
  38.9280000 144.2320000  29.6990000  40.0250000 144.1760000  29.5190000
  38.7690000 144.5080000  30.6870000  38.2960000 142.8430000  29.4630000
  37.1900000 142.7720000  29.7170000  38.2590000 142.5240000  28.4510000
  38.9800000 141.8200000  30.3770000  40.0270000 141.6010000  30.1100000
  39.0440000 142.1560000  31.4110000  38.2810000 140.4630000  30.4180000
  38.7280000 139.8450000  31.2650000  37.2260000 140.6720000  30.7010000
  38.1100000 139.5930000  29.1660000  39.0500000 139.3520000  28.6720000
  37.7390000 138.6130000  29.5580000  37.0380000 139.9850000  28.1480000
  36.1580000 140.3100000  28.6120000  37.4070000 140.7750000  27.5170000
  36.6910000 138.7690000  27.2650000  36.3030000 137.9600000  27.7760000
  35.9400000 139.0810000  26.4890000  37.9030000 138.1910000  26.4750000
  38.6210000 137.7870000  27.2320000  37.6290000 137.3770000  25.8160000
  38.4900000 139.2580000  25.5960000  37.7110000 139.7480000  25.0980000
  38.8820000 140.0720000  26.1550000  39.4790000 138.8780000  24.4950000
  40.3400000 138.3970000  24.9670000  39.0250000 138.1310000  23.8580000
  40.0180000 140.1570000  23.7620000  40.8100000 140.6240000  24.3930000
  40.6080000 139.8730000  22.8950000  38.9230000 141.1510000  23.2620000
  38.1850000 141.3520000  24.0380000  39.3470000 142.0990000  22.9300000
  38.1850000 140.5340000  22.1200000  37.1070000 140.0440000  22.2740000
  38.8910000 140.6920000  21.0120000  38.3190000 140.3810000  19.6980000
  37.2580000 140.0760000  19.8540000  38.2370000 141.2540000  19.0510000
  39.0900000 139.2660000  18.9560000  40.1290000 139.6730000  18.8940000
  38.5970000 138.8780000  17.5280000  38.3270000 139.7920000  16.8910000
  39.4020000 138.2960000  16.9860000  37.4360000 137.9290000  17.5900000
  35.8790000 138.4530000  17.5590000  35.5560000 138.6740000  19.1060000
  34.4350000 138.1100000  19.7670000  34.2830000 138.6540000  20.7190000
  33.6270000 138.4570000  19.0930000  34.3930000 136.5900000  20.0010000
  33.4770000 136.2100000  20.5120000  34.2330000 136.1730000  18.9730000
  35.5650000 135.9700000  20.6410000  36.6300000 135.7620000  19.6820000
  37.3200000 135.1360000  20.2490000  36.3040000 135.1590000  18.7460000
  37.0090000 136.7730000  19.4390000  36.1570000 136.8290000  21.7410000
  35.3900000 137.1870000  22.4840000  36.8240000 136.1250000  22.2750000
  36.8070000 137.5390000  21.2600000  35.1280000 134.5990000  21.2020000
  34.5650000 134.1130000  20.3800000  34.4750000 134.6870000  22.1330000
  36.0590000 134.0010000  21.3270000  35.6760000 139.7380000  16.9520000
  34.9660000 137.3710000  17.1600000  39.1150000 138.0830000  19.8720000
  40.1440000 137.2770000  19.6820000  41.1910000 137.6740000  19.1650000
  39.9770000 135.8630000  20.2490000  39.8520000 135.2140000  19.3520000
  39.0370000 135.9060000  20.8080000  41.2310000 135.3730000  21.0620000
  42.0730000 135.3920000  20.4540000  41.0870000 134.3800000  21.4540000
  41.5050000 136.2050000  22.3020000  40.5800000 136.2530000  23.0210000
  41.6800000 137.2240000  21.9180000  42.7330000 135.6190000  23.1010000
  43.6090000 135.7460000  22.5260000  42.6300000 134.5860000  23.2890000
  42.9610000 136.1750000  24.5290000  43.6590000 135.4860000  24.9950000
  42.0090000 136.1460000  24.9850000  43.3310000 137.6090000  24.5670000
  42.5000000 138.2780000  24.1940000  44.2050000 137.7790000  23.8950000
  43.7710000 137.9930000  25.9720000  44.2250000 139.0180000  25.9490000
  44.4820000 137.3060000  26.3740000  42.4930000 137.9830000  26.8780000
  41.8640000 137.1760000  26.6660000  42.0460000 138.9550000  27.5540000
  40.9920000 138.9350000  27.9650000  42.5480000 140.3300000  27.6990000
  41.7330000 141.1320000  27.5420000  43.4200000 140.4740000  27.0240000
  42.9630000 140.5330000  29.1930000  43.6080000 139.6930000  29.5550000
  42.0100000 140.4590000  29.7110000  43.6540000 141.8440000  29.5590000
  43.0950000 142.6030000  29.0260000  44.7370000 141.8130000  29.2900000
  43.3990000 142.0600000  31.1250000  42.3230000 142.3420000  31.2710000
  43.9170000 142.9280000  31.4440000  43.8460000 140.9130000  32.0810000
  44.8760000 140.5760000  31.7930000  43.2820000 140.0270000  31.9640000
  43.7890000 141.3040000  33.5540000  44.4390000 142.1420000  33.7740000
  44.1330000 140.5810000  34.2550000  42.3070000 141.7730000  33.9300000
  41.6330000 141.0070000  33.7480000  41.8910000 142.6280000  33.4300000
  42.1290000 142.1030000  35.4800000  42.6870000 142.9780000  35.8440000
  42.4400000 141.1940000  36.0340000  41.0760000 142.3650000  35.7320000
  24.9240000  40.0600000  29.8280000  23.8860000  39.7020000  29.9530000
  25.2140000  40.5830000  30.7270000  25.5590000  39.1680000  29.6890000
  25.0240000  40.8890000  28.5390000  26.0880000  41.1190000  28.5300000
  24.6810000  40.4430000  27.6170000  24.1810000  42.1510000  28.8050000
  23.0860000  41.8440000  28.7840000  24.4140000  42.6120000  29.8100000
  24.4920000  43.2660000  27.7460000  24.0900000  44.1640000  28.1110000
  25.5940000  43.2550000  27.6410000  24.0730000  43.0010000  26.3760000
  24.6920000  42.1940000  25.9900000  23.0020000  42.8660000  26.3400000
  24.5360000  44.2520000  25.4810000  23.9280000  45.1130000  25.7140000
  25.5810000  44.4600000  25.6400000  24.2330000  43.9470000  23.9970000
  23.1980000  43.6360000  24.0220000  24.4870000  44.7990000  23.4320000
  25.1040000  42.8330000  23.3860000  25.0060000  41.9350000  24.0590000
  24.7040000  42.5260000  22.3950000  26.6070000  43.2510000  23.2700000
  26.8030000  44.1610000  22.7260000  26.9600000  43.5380000  24.2780000
  27.4820000  42.1630000  22.5790000  27.4310000  42.2290000  21.4950000
  28.5300000  42.4630000  22.8330000  27.2200000  40.7420000  23.0800000
  26.1840000  40.5850000  23.1010000  27.6760000  40.0360000  22.3610000
  27.7360000  40.4200000  24.4500000  28.7540000  40.3750000  24.5000000
  27.4510000  41.2190000  25.1800000  27.1560000  39.1070000  24.8640000
  26.1180000  39.3040000  24.9850000  27.2790000  38.4790000  23.9880000
  27.5130000  38.5120000  26.2110000  28.6050000  38.2970000  26.2690000
  27.2910000  39.2310000  26.9920000  26.8800000  37.1060000  26.4540000
  27.2580000  36.7480000  27.4520000  25.7560000  37.2220000  26.5440000
  27.1700000  36.1160000  25.3100000  28.2480000  35.6890000  24.9890000
  26.0210000  35.7990000  24.6750000  26.0840000  34.8240000  23.5600000
  26.8670000  34.1040000  23.6510000  25.1840000  34.2600000  23.4480000
  26.3840000  35.5870000  22.2600000  25.9310000  34.9660000  21.4140000
  27.8320000  35.8910000  21.8340000  28.4470000  36.2260000  22.6510000
  28.3120000  34.9220000  21.5100000  27.9670000  36.8350000  20.7340000
  27.7570000  36.2900000  19.2300000  29.0680000  36.6560000  18.4590000
  28.9700000  37.2320000  17.1310000  29.9960000  37.1770000  16.6000000
  28.2070000  36.5950000  16.6410000  28.4470000  38.6970000  17.0470000
  28.5860000  38.9600000  15.9760000  27.3890000  38.7720000  17.3860000
  29.1050000  39.7440000  17.8940000  28.7310000  39.7950000  19.2990000
  29.5090000  40.3120000  19.9330000  27.7760000  40.3240000  19.3490000
  28.5120000  38.8110000  19.6630000  30.6150000  39.7060000  17.8190000
  30.9340000  38.9350000  18.5610000  31.0810000  39.5130000  16.8950000
  30.8070000  40.6570000  18.3030000  28.7980000  41.0190000  17.1940000
  27.8220000  41.3660000  17.5210000  28.7550000  40.7920000  16.0470000
  29.5890000  41.7600000  17.3290000  27.5710000  34.8650000  19.1830000
  26.6310000  37.1280000  18.6710000  25.6550000  36.8000000  22.2630000
  24.3830000  36.8390000  21.9310000  23.7840000  35.8490000  21.4610000
  23.9090000  38.3010000  22.1210000  23.3520000  38.7350000  21.2900000
  24.7750000  38.9150000  22.3100000  23.0190000  38.4260000  23.3480000
  23.3780000  37.6660000  24.1050000  21.9850000  38.0550000  23.1210000
  22.9850000  39.8580000  23.9400000  22.9540000  40.5080000  23.0580000
  23.8770000  40.0860000  24.4580000  21.9390000  40.1340000  25.0530000
  20.9600000  39.9480000  24.5610000  21.9670000  41.1600000  25.3350000
  22.0010000  39.2190000  26.3420000  22.9290000  39.2500000  26.9010000
  22.0950000  38.1600000  26.1030000  20.7060000  39.4000000  27.1440000
  19.8670000  38.9460000  26.5570000  20.4970000  40.4140000  27.1410000
  20.4930000  38.6710000  28.4980000  21.1450000  39.1750000  29.1530000
  20.8100000  37.6540000  28.4650000  19.0230000  38.6440000  28.9190000
  18.4250000  37.8460000  28.5340000  18.4590000  39.5530000  29.7360000
  17.4130000  39.3740000  29.9630000  19.0430000  40.7780000  30.3310000
  18.3940000  41.6580000  30.1440000  20.0510000  41.1010000  29.9520000
  19.2620000  40.5430000  31.8340000  18.3980000  40.0780000  32.2830000
  19.2280000  41.5010000  32.3790000  20.5140000  39.6370000  32.1150000
  21.3900000  40.0630000  31.7140000  20.3500000  38.6190000  31.7510000
  20.7070000  39.7230000  33.6220000  19.9370000  39.1200000  34.0950000
  20.5530000  40.7730000  34.0120000  22.0430000  39.1490000  34.1290000
  22.8030000  39.6380000  33.5570000  22.0000000  38.1120000  33.9300000
  22.3120000  39.3620000  35.6240000  21.4300000  38.9680000  36.1410000
  22.4030000  40.4590000  35.8700000  23.5260000  38.5540000  36.2000000
  24.4450000  39.0590000  35.7750000  23.4640000  37.5950000  35.7280000
  23.5770000  38.2790000  37.6690000  22.6390000  38.0390000  38.1020000
  23.8810000  39.1870000  38.1660000  24.2910000  37.5460000  37.8810000
 144.7970000  65.8680000  28.3740000 143.9360000  66.0200000  29.0420000
 145.6430000  66.3730000  28.7070000 145.0080000  64.7990000  28.3940000
 144.6240000  66.2950000  26.8920000 145.6260000  66.2240000  26.3690000
 143.8380000  65.6170000  26.4170000 144.1980000  67.7620000  26.7780000
 143.2220000  67.9090000  27.3790000 144.8420000  68.4500000  27.2640000
 144.0240000  68.0310000  25.2510000 144.9640000  67.7900000  24.7690000
 143.3270000  67.2210000  24.8370000 143.4650000  69.5180000  25.0180000
 143.5960000  69.6290000  23.9500000 143.9360000  70.3510000  25.5380000
 141.9220000  69.5780000  25.2690000 141.3300000  68.8280000  24.7620000
 141.7190000  69.2720000  26.3080000 141.4830000  70.9700000  24.8060000
 141.8020000  71.6720000  25.5110000 141.9660000  71.1700000  23.9160000
 139.9630000  71.1560000  24.4590000 139.2770000  71.2400000  25.2910000
 139.8900000  72.1190000  23.8960000 139.2740000  70.2140000  23.5260000
 140.0550000  69.6730000  22.9040000 138.9810000  69.3530000  24.2120000
 138.2550000  70.7820000  22.5450000 138.8710000  70.9710000  21.6340000
 137.6380000  69.9930000  22.1600000 137.3290000  71.9770000  22.9710000
 138.0130000  72.7830000  23.3880000 136.9510000  72.4140000  22.0700000
 136.3170000  71.5750000  24.0270000 136.8430000  71.3490000  24.9320000
 135.7160000  72.4020000  24.1540000 135.4960000  70.4110000  23.5480000
 135.2790000  70.7530000  22.5310000 136.1540000  69.4960000  23.5250000
 134.2400000  69.9960000  24.3000000 134.5050000  69.5490000  25.2530000
 133.6040000  70.8130000  24.5060000 133.4250000  68.8780000  23.5450000
 134.0120000  68.1310000  22.9290000 132.9140000  68.3320000  24.3660000
 132.4050000  69.5340000  22.6040000 131.5330000  70.3110000  23.0060000
 132.6600000  69.3610000  21.2720000 132.1420000  70.2870000  20.2710000
 132.2510000  69.7750000  19.3350000 131.1620000  70.6020000  20.5800000
 133.0620000  71.5360000  20.1340000 133.1220000  72.1410000  21.0230000
 132.5970000  72.3960000  18.9610000 133.3840000  73.0150000  18.5980000
 132.4190000  71.7040000  18.1920000 131.5060000  73.2080000  19.3950000
 130.8100000  74.1440000  18.3850000 131.7630000  75.5130000  18.2550000
 131.4210000  76.5740000  19.2100000 130.7850000  77.3990000  18.7670000
 130.8100000  76.1390000  20.0690000 132.7260000  77.1620000  19.7530000
 132.4670000  77.9020000  20.4640000 133.3220000  76.3630000  20.2760000
 133.6970000  77.7180000  18.6920000 134.7340000  78.5500000  19.3780000
 134.2740000  79.5240000  19.6700000 135.0470000  77.9780000  20.2500000
 135.5660000  78.7530000  18.7090000 134.4170000  76.6640000  17.8880000
 135.0720000  77.2590000  17.2920000 134.9850000  76.1040000  18.5580000
 133.6800000  75.9150000  17.4900000 132.9050000  78.6970000  17.8300000
 132.3130000  78.1170000  17.1090000 133.5630000  79.4170000  17.3370000
 132.1370000  79.1540000  18.5400000 130.7760000  73.4380000  17.1300000
 129.5400000  74.4760000  18.9190000 134.4490000  71.0720000  19.8490000
 135.4090000  71.9540000  19.8120000 135.2430000  73.1220000  20.0840000
 136.7660000  71.4520000  19.3010000 136.4890000  70.9570000  18.3220000
 136.9850000  70.6130000  19.9020000 137.9140000  72.4690000  19.1410000
 138.2290000  72.7560000  20.1310000 137.5030000  73.3610000  18.7590000
 139.1370000  71.9530000  18.3630000 138.8390000  71.8770000  17.2990000
 139.3330000  70.8800000  18.6950000 140.4170000  72.7830000  18.4050000
 140.1930000  73.7770000  18.2290000 141.0120000  72.5360000  17.5310000
 141.1560000  72.6510000  19.6610000 141.6180000  71.6670000  19.6480000
 140.4410000  72.6610000  20.4460000 142.3480000  73.6680000  19.7330000
 142.1680000  74.7010000  19.5020000 143.0130000  73.3920000  18.8710000
 143.3190000  73.5930000  20.9330000 143.9940000  74.4000000  20.8690000
 144.0510000  72.7830000  20.8050000 142.5480000  73.5640000  22.2500000
 141.4780000  73.6410000  22.2050000 143.1550000  73.4670000  23.4190000
 142.7280000  73.3240000  24.3350000 144.6970000  73.4920000  23.5210000
 145.0340000  74.4690000  23.0650000 145.1780000  72.7480000  22.9300000
 145.1300000  73.4200000  24.9740000 144.6820000  72.4800000  25.3680000
 144.6050000  74.1150000  25.6210000 146.6440000  73.5280000  25.2030000
 146.9340000  74.5050000  24.7660000 147.2470000  72.8590000  24.5730000
 146.9810000  73.4240000  26.7140000 146.3220000  74.1430000  27.2440000
 148.0230000  73.7880000  26.7990000 146.9000000  72.0590000  27.4080000
 145.9600000  71.5870000  27.1480000 146.9480000  72.2110000  28.5120000
 148.0330000  71.1270000  26.9930000 148.9770000  71.5630000  27.4030000
 148.1360000  71.2280000  25.9430000 147.9990000  69.6420000  27.3570000
 147.2020000  69.1250000  26.7790000 147.8670000  69.4310000  28.4610000
 149.3260000  68.9790000  27.0260000 150.1480000  69.5540000  27.4100000
 149.4380000  68.8600000  25.9670000 149.3070000  67.9810000  27.4890000
 111.7970000  60.6690000  34.9570000 111.5500000  60.8680000  33.9470000
 111.6120000  61.6140000  35.5460000 111.1030000  59.9510000  35.2870000
 113.1960000  60.0880000  35.0910000 113.2710000  59.9580000  36.2020000
 113.3860000  59.1810000  34.4900000 114.2130000  61.0980000  34.6650000
 115.1620000  60.5490000  34.6840000 114.0970000  61.3730000  33.6010000
 114.2680000  62.4430000  35.4870000 113.4900000  63.2060000  35.1710000
 114.0800000  62.1930000  36.5250000 115.6200000  63.1100000  35.4810000
 115.7010000  63.9080000  36.1820000 116.3750000  62.4060000  35.8070000
 115.9860000  63.7670000  34.1310000 116.1630000  62.9960000  33.3820000
 115.1100000  64.3310000  33.8200000 117.1650000  64.7080000  34.3000000
 116.9560000  65.4230000  35.0910000 118.0060000  64.2040000  34.6610000
 117.5950000  65.6010000  33.1030000 116.7040000  66.1310000  32.8210000
 118.4730000  66.1620000  33.5520000 118.0700000  64.8710000  31.8960000
 118.8250000  64.1530000  32.1660000 117.2360000  64.2610000  31.5510000
 118.7740000  65.7940000  30.8340000 119.6440000  66.3020000  31.3070000
 118.9250000  65.1790000  29.9540000 117.8650000  66.8380000  30.2300000
 117.5290000  67.4630000  31.0260000 118.5070000  67.4550000  29.6020000
 116.6900000  66.1280000  29.4030000 117.1240000  65.4360000  28.7000000
 116.1220000  65.6290000  30.2290000 115.8550000  67.1600000  28.6420000
 115.1630000  67.6040000  29.3620000 116.5430000  68.0140000  28.1930000
 115.1220000  66.5740000  27.4470000 114.4420000  65.8540000  27.7600000
 114.5030000  67.2180000  26.9070000 115.9870000  65.9420000  26.3400000
 116.6590000  66.6600000  25.8320000 116.6120000  65.1420000  26.6910000
 115.0240000  65.2830000  25.3590000 114.2720000  64.4100000  25.6950000
 115.1180000  65.7420000  24.0850000 114.1440000  65.4500000  23.0560000
 114.5910000  65.6490000  22.1040000 114.0350000  64.3910000  23.0360000
 112.9200000  66.2500000  23.1460000 112.4210000  65.8800000  24.1700000
 112.0010000  66.0960000  21.8850000 112.6060000  65.8470000  21.0830000
 111.3850000  65.2260000  21.9230000 111.1340000  67.2320000  21.6910000
 110.0100000  67.2910000  20.5730000 110.8610000  67.5470000  19.1930000
 111.9100000  68.5850000  19.2450000 111.8920000  69.1430000  18.2510000
 111.7120000  69.2950000  20.0560000 113.3160000  67.9580000  19.2110000
 113.4080000  67.1540000  19.9940000 113.6120000  67.4570000  18.2850000
 114.4090000  68.8710000  19.4560000 114.3670000  70.0240000  18.5180000
 115.3760000  70.5050000  18.4810000 114.1400000  69.6620000  17.5340000
 113.6380000  70.7320000  18.8000000 114.3960000  69.4330000  20.8840000
 113.7580000  70.2400000  20.9290000 114.0520000  68.6130000  21.4620000
 115.4480000  69.6330000  21.2250000 115.6410000  68.1420000  19.1780000
 115.6260000  68.0950000  18.0670000 115.6480000  67.1740000  19.7110000
 116.5110000  68.7530000  19.5250000 109.4960000  65.8860000  20.4580000
 109.1170000  68.4510000  20.7910000 113.3920000  67.5690000  23.2790000
 112.8660000  68.3730000  24.2090000 111.9500000  68.0830000  24.8950000
 113.5940000  69.6920000  24.2780000 113.5230000  70.2660000  23.3940000
 114.6530000  69.3690000  24.1670000 113.1870000  70.6840000  25.4200000
 112.0900000  70.6290000  25.6610000 113.3460000  71.7720000  25.1820000
 113.9050000  70.3460000  26.7780000 114.9780000  70.3340000  26.5900000
 113.6430000  69.3470000  26.9670000 113.6280000  71.3430000  27.9560000
 112.5650000  71.3310000  28.2510000 113.7990000  72.3140000  27.5830000
 114.6410000  71.0340000  29.0700000 115.5720000  71.4390000  28.8420000
 114.8380000  69.9780000  29.1550000 114.0760000  71.6690000  30.4130000
 113.1710000  71.1630000  30.8440000 113.7220000  72.6470000  30.2070000
 115.1660000  71.6440000  31.5290000 114.6890000  72.0360000  32.4230000
 115.9420000  72.4110000  31.1980000 115.6490000  70.2600000  31.7900000
 115.8280000  69.6230000  30.9370000 116.0660000  69.7110000  33.0050000
 116.4800000  68.6640000  32.9700000 116.1110000  70.3290000  34.3530000
 115.7070000  69.6340000  35.0940000 115.3470000  71.1900000  34.4760000
 117.5690000  70.7350000  34.6450000 117.8520000  71.5060000  33.9470000
 118.1700000  69.8060000  34.5930000 117.8140000  71.3260000  36.0520000
 117.2460000  72.2570000  36.1510000 118.8040000  71.6050000  35.9300000
 117.7320000  70.3700000  37.2550000 116.7140000  70.0880000  37.4580000
 118.0510000  70.9500000  38.1480000 118.5940000  69.0550000  37.2610000
 118.2850000  68.4970000  36.4090000 118.4110000  68.5160000  38.1700000
 120.1890000  69.1160000  37.1570000 120.4590000  69.3910000  36.1120000
 120.4480000  68.0480000  37.1380000 120.8720000  69.8600000  38.3030000
 120.5040000  69.5850000  39.3290000 120.7550000  70.9400000  38.1150000
 122.4070000  69.5420000  38.2220000 122.9370000  70.1090000  39.0230000
 122.8770000  69.9610000  37.2900000 122.6740000  68.5020000  38.3190000
 111.5640000 147.3460000  30.7950000 110.7170000 148.0300000  30.4760000
 111.3670000 146.3310000  30.5990000 112.5630000 147.5740000  30.3350000
 111.6490000 147.4450000  32.3490000 110.8870000 146.8030000  32.6810000
 112.4860000 147.0590000  32.7960000 111.1750000 148.7310000  33.1230000
 110.0870000 148.5900000  33.2940000 111.5040000 148.7730000  34.1590000
 111.5490000 150.0430000  32.4040000 111.0650000 150.0490000  31.3910000
 110.9930000 150.8190000  32.9560000 113.0400000 150.4920000  32.1930000
 113.6520000 149.7340000  31.7170000 112.9790000 151.4350000  31.5760000
 113.7520000 150.8140000  33.5150000 113.1640000 151.5590000  34.0080000
 113.7680000 149.8440000  34.0290000 115.2440000 151.3470000  33.3510000
 115.1920000 152.2790000  32.8120000 115.6520000 151.5340000  34.3400000
 116.2620000 150.3570000  32.6990000 115.9600000 150.2750000  31.6730000
 117.2360000 150.8420000  32.6960000 116.3960000 148.9730000  33.2690000
 116.7370000 149.1110000  34.3180000 115.3980000 148.5510000  33.1320000
 117.5000000 148.1350000  32.5880000 118.5020000 148.6210000  32.5630000
 117.7070000 147.2740000  33.1760000 117.1590000 147.7690000  31.1440000
 117.1600000 148.6500000  30.4450000 117.9870000 147.1840000  30.7890000
 115.8510000 146.9860000  30.8450000 114.9850000 147.3850000  31.3710000
 115.6250000 147.1260000  29.8030000 115.8840000 145.5930000  31.1870000
 116.4780000 145.1410000  30.4450000 116.3940000 145.4810000  32.0850000
 114.4670000 144.9220000  31.1600000 113.9230000 145.1370000  32.0490000
 113.8940000 145.4120000  30.3280000 114.4210000 143.3170000  31.0530000
 115.4300000 142.9790000  31.4140000 113.6160000 142.8940000  31.6160000
 114.2530000 142.9910000  29.6500000 113.2510000 142.9890000  29.0120000
 115.4500000 142.6390000  29.1360000 115.6610000 142.4640000  27.7350000
 116.5550000 141.9170000  27.4760000 114.8350000 141.8080000  27.3710000
 115.5640000 143.8270000  26.9460000 114.7250000 144.3980000  27.2340000
 115.2500000 143.4910000  25.4240000 114.3290000 142.8190000  25.5360000
 114.9840000 144.4320000  24.9470000 116.3470000 142.7600000  24.7110000
 116.1160000 142.3320000  23.1580000 115.6750000 140.8300000  23.3730000
 116.4590000 139.9080000  24.1000000 117.5030000 140.2310000  24.0440000
 116.1260000 139.9740000  25.1100000 116.2750000 138.4810000  23.5060000
 116.6200000 137.7590000  24.1740000 115.1940000 138.3250000  23.4370000
 116.8860000 138.2550000  22.1820000 116.7370000 136.8540000  21.9450000
 115.6860000 136.6820000  21.9320000 117.1530000 136.4830000  20.9720000
 117.2510000 136.3390000  22.7670000 116.2380000 139.0500000  21.0840000
 115.1410000 138.7320000  21.0300000 116.3550000 140.0610000  21.3330000
 116.7120000 138.7520000  20.1390000 118.4070000 138.5940000  22.2680000
 118.5580000 139.5660000  22.5740000 118.8620000 138.4470000  21.3490000
 118.8270000 137.7780000  22.8820000 114.9990000 143.1420000  22.5710000
 117.4260000 142.3060000  22.4620000 116.8510000 144.5480000  27.0810000
 116.9000000 145.8930000  26.8120000 115.9380000 146.3880000  26.2590000
 118.1140000 146.5830000  27.3100000 118.7820000 145.9090000  27.8310000
 117.8850000 147.3670000  27.9550000 118.8390000 147.1350000  26.0600000
 118.2610000 148.0300000  25.6960000 118.9560000 146.3600000  25.3030000
 120.3390000 147.5400000  26.3100000 120.6210000 148.0010000  25.3970000
 120.9810000 146.6510000  26.4700000 120.5280000 148.4940000  27.4910000
 120.1340000 148.0120000  28.3880000 119.8600000 149.3080000  27.3130000
 121.9020000 149.0930000  27.8170000 122.2110000 149.5900000  26.9390000
 122.6080000 148.2320000  28.0400000 121.9160000 150.1160000  28.9280000
 121.4780000 149.7060000  29.8500000 121.2950000 150.9760000  28.5900000
 123.3300000 150.3900000  29.2250000 123.8350000 150.8310000  28.2960000
 123.9260000 149.4340000  29.4260000 123.4310000 151.1970000  30.4870000
 123.2450000 152.2440000  30.3080000 123.7200000 150.7740000  31.7050000
 123.7440000 151.5140000  32.5900000 123.7920000 149.3070000  32.1220000
 124.6920000 149.1810000  32.7300000 123.8300000 148.5890000  31.3090000
 122.4490000 148.9920000  32.7890000 121.6680000 149.0580000  32.0660000
 122.3110000 149.7280000  33.6270000 122.4410000 147.5850000  33.4380000
 123.1390000 147.5410000  34.2650000 122.8640000 146.8340000  32.6980000
 120.9550000 147.1900000  33.9620000 120.8550000 146.1520000  33.8910000
 120.0830000 147.5930000  33.3460000 120.8440000 147.5540000  35.4410000
 121.3870000 148.5570000  35.5820000 121.4290000 146.8810000  36.0890000
 119.4040000 147.6390000  35.9380000 118.8150000 148.3130000  35.2820000
 119.3420000 148.0270000  36.9650000 118.7460000 146.2540000  36.0330000
 119.3210000 145.4840000  36.6570000 118.7150000 145.7840000  35.0910000
 117.2980000 146.4230000  36.5320000 117.3600000 147.1960000  37.2480000
 116.9050000 145.4850000  36.9690000 116.6690000 146.8330000  35.6670000
  16.0970000  41.9750000  23.9550000  15.6890000  40.9700000  23.7010000
  16.8200000  41.8570000  24.8300000  16.7480000  42.0080000  23.0970000
  15.0830000  43.0690000  23.8950000  15.5670000  44.0250000  23.7640000
  14.5430000  42.8750000  22.9930000  14.3160000  43.0750000  25.2560000
  13.7140000  42.2290000  25.2280000  15.0280000  42.9870000  26.1180000
  13.5760000  44.3780000  25.3670000  14.3460000  45.1550000  25.4340000
  12.9260000  44.6250000  24.5170000  12.5660000  44.4310000  26.4910000
  13.0900000  44.3080000  27.3980000  12.1100000  45.4180000  26.6110000
  11.4410000  43.3940000  26.2870000  10.9840000  43.6100000  25.3340000
  11.9650000  42.3760000  26.2500000  10.4360000  43.4270000  27.4330000
  10.9540000  43.6120000  28.4190000   9.7940000  44.2780000  27.2960000
   9.5170000  42.1930000  27.4980000  10.1160000  41.2790000  27.4620000
   9.0270000  42.2210000  28.4840000   8.3110000  42.2480000  26.4390000
   7.7240000  43.0990000  26.6570000   8.7040000  42.4790000  25.4280000
   7.3240000  41.0260000  26.2490000   6.7970000  40.8190000  27.2120000
   6.5340000  41.3470000  25.5290000   7.8840000  39.6260000  25.9510000
   8.4460000  39.2430000  26.7760000   7.1740000  38.8180000  25.8070000
   8.8220000  39.7270000  24.8120000   8.3000000  40.2390000  23.9530000
   9.7440000  40.3630000  25.0110000   9.1580000  38.3630000  24.2470000
   8.3130000  37.6710000  24.1010000   9.5950000  38.5390000  23.2710000
  10.1890000  37.5880000  25.0730000   9.9260000  37.5420000  26.1560000
  10.1850000  36.5310000  24.6810000  11.6210000  38.1840000  24.8840000
  11.6690000  39.1260000  25.4790000  12.3590000  37.4760000  25.1990000
  12.0020000  38.6140000  23.5010000  12.0540000  37.8630000  22.5340000
  12.4530000  39.9350000  23.4650000  12.8850000  40.3620000  22.1680000
  13.2350000  41.3910000  22.2660000  13.8250000  39.7620000  21.8880000
  11.8380000  40.2700000  21.0390000  11.8030000  39.2190000  20.7500000
  12.3090000  41.0700000  19.8240000  11.4990000  41.1780000  19.1350000
  12.6410000  42.1060000  20.2410000  13.4190000  40.4600000  19.0740000
  14.9600000  40.7270000  19.4710000  15.4110000  39.2640000  19.7920000
  15.8350000  38.3570000  18.7760000  15.1140000  38.4140000  17.9290000
  16.7770000  38.6220000  18.2970000  15.9640000  36.9170000  19.3390000
  16.1730000  36.3730000  18.4430000  16.8000000  36.8500000  20.0380000
  14.7130000  36.2980000  19.9520000  14.5510000  36.9080000  21.3400000
  14.3570000  37.9840000  21.2120000  13.7830000  36.4360000  21.9620000
  15.5570000  36.8330000  21.7270000  13.4740000  36.6180000  19.1190000
  13.5390000  36.0970000  18.1590000  12.6260000  36.2680000  19.6870000
  13.4730000  37.6560000  19.0190000  14.8580000  34.8070000  20.1590000
  14.5840000  34.3540000  19.1960000  14.0270000  34.4630000  20.8910000
  15.8110000  34.5470000  20.3710000  15.6540000  41.0800000  18.2580000
  15.1060000  41.6890000  20.5730000  10.5600000  40.6410000  21.5270000
   9.5500000  40.2780000  20.7840000   9.6270000  39.4860000  19.8690000
   8.2330000  40.9610000  21.1210000   8.4060000  41.7190000  21.9260000
   7.4950000  40.3210000  21.4440000   7.6600000  41.6390000  19.8170000
   7.5220000  40.8430000  19.0990000   8.4460000  42.2780000  19.3760000
   6.4010000  42.5060000  20.0860000   6.6520000  43.3690000  20.7750000
   5.6510000  41.9260000  20.4990000   5.9220000  43.2080000  18.8460000
   5.4320000  42.5350000  18.1280000   6.6390000  43.7340000  18.2610000
   4.7580000  44.1900000  19.1830000   4.7140000  44.9470000  18.3490000
   5.1220000  44.7880000  19.9900000   3.4300000  43.5150000  19.5210000
   3.6160000  42.8210000  20.3100000   3.1280000  42.8850000  18.6960000
   2.2670000  44.4080000  19.6380000   2.3880000  45.1470000  18.8260000
   2.3290000  44.9240000  20.5370000   0.9730000  43.7380000  19.5510000
   0.6260000  43.6790000  18.5440000   0.1810000  43.4470000  20.5580000
  -0.8340000  43.1890000  20.4840000   0.5630000  43.6970000  22.0150000
   1.6750000  43.6920000  22.2240000  -0.0240000  43.0240000  22.6930000
  -0.0320000  45.0650000  22.4730000  -1.0150000  45.2040000  22.1220000
   0.4440000  45.8860000  21.9380000  -0.1620000  45.2940000  23.9970000
  -0.8030000  44.5420000  24.3680000  -0.7910000  46.2470000  24.1180000
   1.2330000  45.1930000  24.7340000   1.7870000  44.3940000  24.2790000
   0.9610000  44.9960000  25.8420000   1.9250000  46.5830000  24.8020000
   2.4780000  46.6890000  25.7060000   1.2160000  47.4220000  24.8570000
   2.9330000  46.9130000  23.6440000   3.4480000  47.8900000  23.8690000
   2.3730000  47.0730000  22.7570000   4.0130000  45.8120000  23.4650000
   3.6080000  44.9380000  22.9910000   4.3100000  45.5670000  24.4990000
   5.1800000  46.3380000  22.7240000   5.7580000  45.3730000  22.7020000
   5.7680000  47.1100000  23.2330000   4.9070000  46.5350000  21.6390000
 141.3010000 132.3100000  37.0820000 140.3690000 131.7600000  37.1860000
 141.1820000 133.1930000  37.6370000 142.1580000 131.7470000  37.4670000
 141.4520000 132.6660000  35.5970000 141.4010000 131.6810000  35.1250000
 140.5110000 133.2540000  35.3560000 142.6730000 133.4320000  35.2000000
 142.8400000 134.2750000  35.8620000 143.5270000 132.7580000  35.2490000
 142.6640000 133.9720000  33.7500000 142.3430000 133.1300000  33.1620000
 141.8520000 134.7080000  33.8250000 144.0610000 134.5460000  33.4220000
 144.3210000 135.2920000  34.1380000 144.8170000 133.8120000  33.5130000
 144.2590000 135.0050000  31.9520000 143.5150000 135.6420000  31.5920000
 145.2060000 135.5610000  31.9860000 144.3930000 133.7680000  31.0360000
 145.4530000 133.4060000  31.0540000 143.8170000 132.9680000  31.4830000
 143.7570000 133.9990000  29.6020000 144.1370000 134.8720000  29.1400000
 144.0810000 133.2150000  28.9160000 142.2390000 133.9930000  29.5510000
 141.8340000 134.5330000  30.4260000 142.0330000 134.3840000  28.5370000
 141.6070000 132.6280000  29.5340000 141.9600000 132.1360000  28.5710000
 141.9850000 131.9040000  30.2610000 140.0430000 132.5130000  29.5350000
 139.6190000 132.9930000  30.4800000 139.6250000 133.1760000  28.6960000
 139.5140000 131.1180000  29.3460000 140.0130000 130.6860000  28.4650000
 139.7500000 130.3060000  30.0960000 138.0180000 131.2990000  29.0030000
 137.4990000 131.6480000  29.9250000 137.8860000 132.0290000  28.2230000
 137.2720000 130.0280000  28.5700000 137.5630000 129.2770000  29.3450000
 136.1730000 130.1960000  28.6760000 137.5340000 129.5520000  27.1720000
 138.5360000 129.7780000  26.9700000 137.4190000 128.4530000  27.1780000
 136.6420000 130.0420000  26.0820000 135.7150000 129.3790000  25.6130000
 136.9970000 131.2980000  25.6590000 136.2270000 131.9570000  24.5720000
 136.7900000 132.8010000  24.2090000 136.1430000 131.2000000  23.7360000
 134.8560000 132.5450000  25.0260000 134.3080000 131.8310000  25.6850000
 133.9740000 133.0420000  23.7920000 133.3300000 132.2220000  23.3750000
 133.2230000 133.8060000  24.1070000 134.7450000 133.7910000  22.9100000
 134.2190000 134.0060000  21.4000000 134.7820000 135.3710000  21.0870000
 134.0380000 136.6150000  21.3270000 134.5200000 137.2650000  20.6060000
 132.9940000 136.6070000  21.0430000 134.2810000 137.0920000  22.7900000
 133.7530000 138.0270000  22.9980000 133.9020000 136.2760000  23.4560000
 135.6380000 137.4360000  23.2670000 135.5550000 138.3400000  24.4360000
 135.1390000 139.2680000  24.1410000 134.8790000 137.8850000  25.2330000
 136.5760000 138.4520000  24.8460000 136.3940000 136.2330000  23.6720000
 137.3630000 136.4690000  24.1650000 135.8520000 135.5400000  24.2190000
 136.5980000 135.8230000  22.7270000 136.4930000 138.2140000  22.2160000
 135.9390000 139.1020000  21.9970000 136.5170000 137.5560000  21.3170000
 137.5130000 138.3710000  22.6290000 134.9390000 132.9790000  20.5800000
 132.7470000 134.0900000  21.2760000 135.2390000 133.7190000  25.7680000
 135.3870000 133.6460000  27.0890000 135.0160000 132.7520000  27.7960000
 136.0850000 134.9120000  27.6660000 136.6220000 135.3110000  26.8810000
 136.8350000 134.4280000  28.3420000 135.2290000 135.8770000  28.4940000
 135.7790000 136.8360000  28.5440000 135.1250000 135.5450000  29.5320000
 133.7710000 136.1110000  28.0160000 133.3460000 135.0560000  27.9040000
 133.7780000 136.6050000  27.0470000 132.9130000 136.9630000  28.9620000
 132.0190000 137.3380000  28.4580000 133.5010000 137.8110000  29.2590000
 132.6080000 136.2770000  30.2710000 133.5300000 136.0880000  30.8680000
 132.3170000 135.2250000  30.0660000 131.5820000 136.9220000  31.1910000
 130.5650000 136.8690000  30.7620000 131.6070000 138.0140000  31.4300000
 131.3660000 136.1140000  32.5130000 130.5920000 136.6530000  33.0850000
 132.3410000 135.9940000  33.1110000 130.7160000 134.7660000  32.3310000
 129.6360000 134.8150000  32.2490000 131.2500000 133.5090000  32.2870000
 130.6560000 132.5940000  32.3350000 132.7520000 133.2330000  32.2410000
 133.2290000 134.1370000  32.6050000 133.0710000 133.1190000  31.2720000
 133.1820000 132.0040000  33.0250000 132.6140000 131.1120000  32.7250000
 132.8710000 132.1190000  34.0910000 134.7000000 131.7760000  32.9500000
 134.9370000 131.5680000  31.8900000 134.9430000 130.9420000  33.6200000
 135.5480000 132.9880000  33.5000000 135.4460000 133.1180000  34.5600000
 135.3090000 133.9130000  32.9670000 137.0630000 132.7270000  33.2230000
 137.2690000 132.3790000  32.2040000 137.4680000 132.0000000  33.9110000
 137.9080000 134.0270000  33.4710000 138.9280000 133.6070000  33.1390000
 137.9770000 134.2140000  34.5440000 137.5580000 135.2500000  32.5680000
 136.7180000 135.8220000  32.9440000 137.3200000 134.9270000  31.5490000
 138.7700000 136.2120000  32.4460000 139.7150000 135.6990000  32.4320000
 138.7670000 136.9230000  33.2980000 138.6650000 136.8530000  31.5360000
   1.3320000  73.1290000  36.7300000   0.8240000  73.8590000  37.4050000
   2.2110000  73.5460000  36.3220000   1.6000000  72.2610000  37.2790000
   0.3260000  72.6920000  35.6690000   0.9170000  72.3260000  34.7800000
  -0.2290000  71.8870000  36.0990000  -0.7200000  73.7050000  35.1660000
  -1.2460000  73.3320000  34.3270000  -1.4440000  73.8660000  35.9150000
  -0.1630000  75.0690000  34.7610000  -1.0260000  75.7900000  34.7470000
   0.3810000  75.4830000  35.5600000   0.5270000  75.2090000  33.4440000
   1.3010000  74.4640000  33.3770000  -0.2330000  75.1120000  32.6550000
   1.1680000  76.5660000  33.3890000   0.7360000  77.2510000  34.1480000
   2.2170000  76.4380000  33.6380000   1.1860000  77.4070000  32.1190000
   0.1630000  77.8400000  31.9870000   1.7230000  78.2940000  32.2950000
   1.6530000  76.7230000  30.8300000   0.9010000  76.0410000  30.4370000
   1.6760000  77.5040000  30.0540000   3.0550000  76.1630000  30.8860000
   3.6910000  76.7160000  31.5400000   3.0030000  75.1430000  31.2090000
   3.7440000  76.3530000  29.4980000   3.4870000  77.3080000  28.9840000
   4.8220000  76.3110000  29.5940000   3.3780000  75.1910000  28.5510000
   3.7800000  74.2720000  28.9530000   2.3100000  75.2420000  28.4420000
   4.0610000  75.1380000  27.1440000   3.9290000  76.1020000  26.6580000
   5.0960000  75.0130000  27.1990000   3.4370000  74.1080000  26.2270000
   3.1910000  73.1600000  26.7190000   2.4140000  74.4510000  25.9230000
   4.2300000  73.8780000  24.8410000   5.2650000  73.5350000  24.9960000
   3.7290000  73.0520000  24.2870000   4.3240000  75.0260000  23.8120000
   4.7870000  75.8840000  24.2750000   5.0340000  74.7510000  23.1010000
   3.1110000  75.5060000  23.0590000   2.0520000  74.9180000  23.0610000
   3.3110000  76.6430000  22.3310000   2.3790000  77.1530000  21.3250000
   2.9200000  77.9400000  20.7910000   2.0400000  76.2810000  20.7450000
   1.1350000  77.7020000  22.0130000   0.6290000  76.9330000  22.6430000
   0.1480000  78.3920000  21.1230000   0.0600000  77.7890000  20.2610000
  -0.8020000  78.5300000  21.6900000   0.6160000  79.7480000  20.6250000
  -0.3910000  80.9640000  20.3690000   0.5410000  82.2720000  20.5050000
   1.2520000  82.8250000  19.4250000   1.3510000  82.2500000  18.5210000
   0.6790000  83.7260000  19.1580000   2.7090000  82.9580000  19.8520000
   3.2850000  83.5990000  19.1950000   2.7880000  83.4720000  20.7970000
   3.5990000  81.7630000  20.0580000   3.3150000  81.1210000  21.3480000
   2.2360000  81.0160000  21.3960000   3.9040000  80.1600000  21.4150000
   3.6320000  81.8530000  22.1690000   3.4370000  80.7390000  19.0000000
   4.0590000  79.9070000  19.3720000   2.3940000  80.6230000  18.8660000
   3.9930000  81.0410000  18.0740000   5.0610000  82.0680000  20.0640000
   5.3150000  82.5240000  19.0380000   5.5360000  81.1410000  20.3140000
   5.2550000  82.7690000  20.9210000  -1.0200000  80.8520000  19.0150000
  -1.1930000  81.0570000  21.5640000   1.5430000  78.7890000  22.8020000
   1.6720000  78.7880000  24.1200000   1.5730000  77.8140000  24.8640000
   2.1690000  80.1150000  24.6700000   2.6420000  80.7490000  23.9160000
   2.9060000  80.0170000  25.4510000   1.0430000  80.9540000  25.2660000
   0.5720000  80.3290000  26.0170000   0.4410000  81.2380000  24.4450000
   1.6470000  82.1970000  26.0000000   2.0730000  82.9560000  25.3670000
   2.4860000  81.7980000  26.4790000   0.7600000  82.8400000  27.0860000
  -0.2060000  83.1100000  26.7140000   1.2380000  83.7950000  27.4620000
   0.6540000  81.9050000  28.2650000   1.6350000  81.4270000  28.5280000
  -0.0220000  81.0810000  27.9770000  -0.0010000  82.5790000  29.5160000
  -1.0790000  82.7900000  29.3960000   0.4880000  83.5490000  29.6550000
   0.1610000  81.7120000  30.8250000  -0.0260000  82.3520000  31.6780000
   1.1590000  81.2480000  30.9110000  -0.9330000  80.6220000  30.8260000
  -1.1910000  80.1870000  29.8870000  -1.5480000  80.1810000  31.9050000
  -2.3170000  79.3720000  31.8250000  -1.1830000  80.6500000  33.2880000
  -0.3310000  81.2570000  33.2300000  -0.9830000  79.7330000  33.9680000
  -2.2050000  81.6230000  33.9790000  -3.2210000  81.1450000  34.0280000
  -2.3540000  82.4440000  33.2910000  -1.7830000  82.1120000  35.4280000
  -1.5840000  81.2390000  36.0450000  -2.6610000  82.4720000  35.8810000
  -0.5140000  82.9710000  35.5110000  -0.7970000  83.9520000  35.0340000
   0.2770000  82.5150000  34.9760000  -0.0720000  83.3090000  36.9370000
  -0.9830000  83.7230000  37.4290000   0.6610000  84.1020000  36.9530000
   0.4440000  82.0870000  37.6950000   1.2380000  81.7640000  37.0610000
  -0.4150000  81.3920000  37.7240000   0.9600000  82.5060000  39.0670000
   0.0340000  82.9940000  39.6520000   1.8290000  83.1580000  38.8620000
   1.4330000  81.2790000  39.8530000   0.7300000  80.5700000  40.1220000
   1.7900000  81.5520000  40.8610000   2.1980000  80.8100000  39.2760000
 117.5220000  95.4230000  28.2660000 117.5470000  96.5090000  28.3110000
 116.9240000  95.0870000  27.4570000 118.5180000  95.0850000  28.1190000
 117.0560000  95.0320000  29.6240000 116.8560000  93.9550000  29.5230000
 117.8560000  95.2100000  30.3940000 115.6960000  95.7490000  30.0680000
 115.1500000  95.6980000  29.1840000 115.1490000  95.1710000  30.8530000
 116.0250000  97.1480000  30.6520000 115.7330000  97.1110000  31.7000000
 117.1220000  97.2660000  30.6790000 115.4550000  98.4080000  29.9070000
 114.3750000  98.2860000  29.7460000 115.5520000  99.2980000  30.5410000
 116.1340000  98.7750000  28.5960000 116.1100000  98.0560000  27.8150000
 115.5230000  99.6750000  28.2030000 117.5380000  99.4240000  28.6020000
 117.4290000 100.3780000  29.1650000 118.2150000  98.8190000  29.1550000
 118.0430000  99.6640000  27.1220000 119.1380000  99.6560000  27.1730000
 117.8260000  98.7910000  26.5410000 117.5700000 100.9650000  26.5070000
 116.4510000 101.0370000  26.5360000 118.0330000 101.7500000  27.0720000
 118.1280000 101.2120000  25.0190000 119.2190000 101.0590000  24.9210000
 117.6340000 100.4560000  24.3300000 117.7330000 102.5970000  24.4440000
 116.6600000 102.6620000  24.2910000 118.0060000 103.3400000  25.2550000
 118.4760000 102.8960000  23.1450000 119.5550000 102.9670000  23.2310000
 118.2470000 102.0370000  22.5050000 118.0440000 104.2110000  22.5050000
 117.1150000 104.4370000  23.0050000 118.7120000 105.0750000  22.7390000
 117.8720000 104.1570000  20.9680000 117.6400000 105.1810000  20.6930000
 118.8440000 103.8000000  20.5960000 116.6970000 103.3770000  20.3490000
 116.7420000 102.3580000  20.7370000 115.7320000 103.8070000  20.5620000
 116.9000000 103.3690000  18.7940000 117.9790000 103.1610000  18.3590000
 115.7750000 103.5780000  18.1100000 115.8930000 103.4280000  16.6450000
 115.0780000 104.0210000  16.3240000 116.8280000 103.8090000  16.3370000
 115.6510000 101.9720000  16.2840000 115.9150000 101.4350000  17.1710000
 116.5560000 101.4660000  15.1980000 116.4800000 100.3990000  14.9830000
 116.3190000 101.9480000  14.2570000 117.9600000 101.8010000  15.5020000
 119.1870000 100.9170000  14.8320000 120.4920000 101.8620000  14.9300000
 121.1610000 102.1210000  16.0910000 120.9690000 101.2800000  16.7710000
 122.2580000 102.3470000  15.9960000 120.5580000 103.4370000  16.6300000
 120.5990000 104.1140000  15.8760000 119.4960000 103.2280000  16.8230000
 121.2010000 104.1240000  17.8440000 120.4080000 105.3520000  18.2070000
 119.4580000 105.0250000  18.6160000 120.9280000 105.9100000  18.9840000
 120.2200000 105.9250000  17.2220000 121.2010000 103.2780000  19.0310000
 120.1850000 102.8660000  19.1170000 121.8070000 102.4240000  18.7260000
 121.6360000 103.7710000  19.9280000 122.5400000 104.6330000  17.5590000
 122.5710000 105.2630000  16.6690000 123.1380000 103.7650000  17.4530000
 122.8770000 105.1630000  18.4740000 119.3890000  99.7700000  15.6540000
 118.9320000 100.7520000  13.3670000 114.2090000 101.7530000  16.0270000
 113.7520000 100.4970000  16.0610000 114.5210000  99.5520000  15.9230000
 112.2620000 100.4460000  16.0840000 111.8080000 100.5460000  15.1440000
 111.8410000 101.2990000  16.6550000 111.8970000  99.1510000  16.8380000
 112.7090000  98.8780000  17.5260000 111.8650000  98.2880000  16.1560000
 110.5730000  99.2210000  17.6220000 109.8340000  99.3930000  16.8610000
 110.6910000 100.0460000  18.2260000 110.4540000  97.8820000  18.4230000
 111.1220000  97.9450000  19.2520000 110.7000000  97.0940000  17.7510000
 109.0410000  97.6160000  18.9720000 108.3680000  97.3980000  18.1770000
 108.6960000  98.5320000  19.4000000 108.9360000  96.4110000  20.0230000
 109.6790000  96.7270000  20.7450000 109.3750000  95.4190000  19.5390000
 107.5120000  96.1780000  20.6890000 106.7890000  96.0940000  19.9320000
 107.1410000  97.0510000  21.3160000 107.4040000  94.9090000  21.5020000
 107.4300000  93.9800000  20.9670000 107.2970000  94.8850000  22.8080000
 107.3210000  93.8800000  23.1960000 107.1590000  96.1550000  23.7950000
 106.1720000  96.3110000  24.2600000 107.4190000  97.0570000  23.3290000
 108.1360000  95.8920000  24.9900000 108.0680000  94.9490000  25.4200000
 107.9000000  96.6900000  25.6590000 109.6480000  96.0070000  24.5480000
 109.8170000  96.9820000  24.0840000 109.9890000  95.3310000  23.7480000
 110.5910000  95.6890000  25.7350000 110.2160000  94.7730000  26.1480000
 110.5150000  96.3750000  26.5300000 112.1030000  95.3450000  25.4420000
 112.2480000  94.4100000  24.9620000 112.4170000  95.1970000  26.4540000
 112.9810000  96.3400000  24.7450000 112.7320000  96.6330000  23.7490000
 113.9650000  95.9860000  24.6410000 113.1750000  97.6310000  25.5650000
 113.9260000  97.3560000  26.3330000 112.2210000  97.9570000  25.9350000
 113.8700000  98.6970000  24.6970000 114.6580000  98.2970000  24.0390000
 114.3500000  99.4820000  25.2170000 113.1130000  99.2590000  24.0530000
  16.7230000 114.6610000  26.4900000  15.9960000 115.2640000  25.9350000
  16.9910000 115.1620000  27.3460000  16.2680000 113.7170000  26.5710000
  18.0030000 114.5430000  25.6050000  17.7800000 114.0480000  24.5910000
  18.3560000 115.5230000  25.3460000  19.0380000 113.6130000  26.1900000
  19.8480000 113.4760000  25.4540000  19.5540000 114.0380000  27.0430000
  18.5480000 112.1810000  26.4860000  17.8450000 112.0520000  27.3450000
  18.0250000 111.8110000  25.5630000  19.6840000 111.1990000  26.7410000
  20.2390000 111.0690000  25.7900000  20.3870000 111.5530000  27.5040000
  19.2360000 109.8020000  27.3070000  18.4850000 109.3310000  26.6810000
  20.1000000 109.0870000  27.3330000  18.5940000 109.9420000  28.7110000
  17.7170000 110.6040000  28.7320000  18.1270000 109.0200000  28.9680000
  19.5390000 110.3520000  29.8710000  20.0520000 111.2740000  29.5790000
  19.0250000 110.5710000  30.7560000  20.5980000 109.2500000  30.0760000
  20.0830000 108.3490000  30.4950000  21.0830000 108.9110000  29.1470000
  21.6060000 109.6580000  31.1910000  21.0370000 110.2570000  31.8800000
  21.9870000 108.7480000  31.6800000  22.8030000 110.4020000  30.6060000
  22.4260000 111.2990000  30.1990000  23.3650000 110.7220000  31.4250000
  23.7030000 109.8170000  29.4290000  23.0870000 109.6750000  28.5060000
  24.4040000 110.4740000  29.0180000  24.4650000 108.5260000  29.7530000
  25.4280000 108.5660000  29.2770000  24.6750000 108.4440000  30.7860000
  23.6390000 107.2110000  29.4750000  23.7900000 106.4690000  30.2700000
  22.6260000 107.4830000  29.2890000  23.9630000 106.5740000  28.0900000
  25.0390000 106.3310000  28.0880000  23.5010000 105.6380000  28.2180000
  23.5130000 107.2910000  26.8670000  22.5190000 107.9640000  26.8330000
  24.2090000 106.8800000  25.7180000  23.8300000 107.3740000  24.3960000
  23.7050000 106.5440000  23.7630000  22.8800000 107.8490000  24.5450000
  24.9220000 108.3290000  23.8640000  24.5410000 108.7670000  23.0110000
  26.2050000 107.5620000  23.6430000  26.7410000 107.6310000  24.6110000
  26.0200000 106.4850000  23.3920000  27.0770000 108.2640000  22.7090000
  27.2030000 107.7510000  21.1420000  28.8180000 107.8870000  20.8350000
  29.4180000 109.1530000  20.4240000  30.2560000 108.8270000  19.8160000
  28.6210000 109.7070000  19.8790000  29.9410000 109.7680000  21.7270000
  30.4340000 110.7270000  21.5130000  29.0230000 110.1180000  22.2800000
  30.7920000 108.9770000  22.6640000  31.8730000 108.1450000  22.1520000
  32.6670000 108.8140000  21.7280000  32.3070000 107.4740000  22.8600000
  31.3810000 107.4710000  21.4310000  31.3180000 109.9380000  23.6900000
  30.5180000 110.4590000  24.2060000  31.7680000 109.2480000  24.4660000
  32.1470000 110.5860000  23.2780000  29.9770000 107.9750000  23.4270000
  29.6440000 107.3040000  22.6650000  29.1770000 108.4350000  24.0180000
  30.5730000 107.2930000  24.0730000  26.7740000 106.3240000  21.1290000
  26.5800000 108.7960000  20.2220000  25.1980000 109.3920000  24.8920000
  24.3640000 110.3970000  24.9110000  23.4230000 110.6460000  24.1080000
  24.7200000 111.4630000  26.0240000  25.4010000 112.1360000  25.5220000
  25.1810000 110.9160000  26.8160000  23.5210000 112.2330000  26.6820000
  22.6640000 111.5660000  27.0230000  23.0930000 112.8420000  25.8920000
  24.1220000 113.2450000  27.7230000  24.9380000 113.9090000  27.3910000
  24.5590000 112.7040000  28.5880000  23.0380000 114.1560000  28.2740000
  22.1350000 113.5770000  28.4480000  22.7740000 114.8640000  27.5660000
  23.4100000 114.8230000  29.6180000  24.1150000 115.6610000  29.4680000
  23.9040000 114.1190000  30.2370000  22.1750000 115.4100000  30.2540000
  21.5280000 115.9760000  29.4820000  22.4480000 116.1260000  30.9930000
  21.2420000 114.3330000  30.8700000  21.7330000 113.9150000  31.7850000
  21.0990000 113.5380000  30.1300000  19.9820000 115.0730000  31.2670000
  19.2020000 115.0320000  30.4790000  19.8220000 115.7050000  32.4280000
  18.8520000 116.1780000  32.5740000  20.8150000 115.8070000  33.5300000
  20.8020000 116.8170000  33.9390000  21.8630000 115.7530000  33.0780000
  20.7240000 114.7780000  34.6420000  20.5870000 113.7720000  34.2210000
  19.9240000 115.0290000  35.3200000  22.1060000 114.6010000  35.4040000
  22.9070000 114.5170000  34.6780000  22.0950000 113.5980000  35.8700000
  22.4410000 115.5770000  36.5060000  21.9910000 115.2340000  37.4330000
  22.1180000 116.6150000  36.2150000  23.9200000 115.6300000  36.7160000
  24.1250000 116.3340000  37.4980000  24.2970000 116.1650000  35.8450000
  24.7000000 114.3930000  36.9720000  24.5150000 113.6930000  36.1160000
  24.5100000 113.8820000  37.9490000  26.2250000 114.6560000  37.0350000
  26.5720000 115.1290000  37.9200000  26.5330000 115.2960000  36.2300000
  26.8430000 113.2020000  36.9110000  27.8880000 113.2100000  37.0860000
  26.6220000 112.7610000  35.8940000  26.5000000 112.4930000  37.6180000
 128.7000000  96.7350000  29.1400000 129.0960000  96.1340000  28.2990000
 129.5770000  97.1330000  29.6890000 128.0340000  97.4830000  28.7710000
 127.9060000  95.7740000  30.0500000 127.7370000  96.2250000  31.0040000
 126.9450000  95.4690000  29.5530000 128.7140000  94.5050000  30.2670000
 128.7640000  93.8950000  29.3600000 129.7850000  94.7020000  30.5330000
 128.1570000  93.7260000  31.4670000 128.7110000  92.7630000  31.7390000
 128.0310000  94.3270000  32.3190000 126.7420000  93.2820000  31.2050000
 126.3470000  92.9230000  32.1110000 126.0250000  94.0500000  30.8790000
 126.6910000  92.0670000  30.2220000 127.3390000  92.2680000  29.3590000
 127.0180000  91.1900000  30.7670000 125.3100000  91.7480000  29.6210000
 125.3120000  90.6880000  29.3910000 124.4450000  91.7200000  30.2780000
 125.0330000  92.5120000  28.2880000 125.9070000  92.4510000  27.6590000
 124.2360000  92.0690000  27.7390000 124.7040000  93.9510000  28.3940000
 123.8020000  94.1240000  29.0640000 125.5170000  94.4710000  28.8680000
 124.5020000  94.7120000  27.0180000 123.5680000  94.2200000  26.6640000
 124.0350000  95.6650000  27.2620000 125.7640000  94.8230000  26.1650000
 126.4340000  95.4870000  26.6150000 126.3030000  93.8310000  26.1840000
 125.4390000  95.4430000  24.7500000 124.6290000  94.8410000  24.3430000
 124.8670000  96.4190000  24.9150000 126.6190000  95.7460000  23.8070000
 127.1540000  94.7660000  23.5320000 126.2290000  96.2410000  22.9480000
 127.7160000  96.6370000  24.4260000 128.0510000  96.1970000  25.2740000
 128.5520000  96.6370000  23.7130000 127.3650000  98.1100000  24.6340000
 126.5270000  98.1680000  25.3250000 128.2240000  98.5740000  25.1150000
 126.9520000  98.8030000  23.3640000 125.7770000  99.0210000  23.1320000
 127.9770000  99.1370000  22.5920000 127.7560000  99.6530000  21.2750000
 126.7350000  99.4250000  20.8040000 127.8440000 100.7030000  21.4000000
 128.8240000  99.2190000  20.2200000 128.8090000  99.9950000  19.3880000
 128.5670000  97.8230000  19.5810000 127.8080000  97.9190000  18.9070000
 129.4320000  97.5020000  19.0100000 128.2730000  96.8640000  20.6430000
 128.2740000  95.3150000  20.3590000 126.6960000  95.0350000  20.1020000
 126.1000000  95.4690000  18.9200000 125.0960000  95.7040000  18.9580000
 126.5820000  96.3350000  18.5140000 126.3000000  94.3360000  17.8380000
 125.8590000  94.6030000  16.8410000 127.3280000  94.3130000  17.5540000
 125.7640000  92.9710000  17.9760000 124.3120000  92.9370000  18.3920000
 124.3220000  93.4010000  19.3550000 123.8630000  93.4620000  17.5620000
 123.9160000  91.9350000  18.3840000 125.9530000  92.1620000  16.7500000
 125.2680000  91.2920000  16.6430000 125.6960000  92.7830000  15.8770000
 126.9870000  91.8250000  16.4990000 126.5970000  92.3970000  19.0270000
 126.5190000  91.3020000  19.0590000 126.3380000  92.8330000  19.9380000
 127.5870000  92.7680000  18.7850000 129.0790000  95.0000000  19.1550000
 128.5730000  94.5960000  21.5870000 130.1710000  99.3280000  20.7980000
 131.2220000  99.2580000  19.9950000 131.1870000  99.0050000  18.8170000
 132.5160000  99.2350000  20.8070000 132.3630000  99.8620000  21.6480000
 133.3160000  99.6980000  20.2640000 132.8560000  97.7900000  21.3970000
 133.8520000  97.8700000  21.8770000 132.7060000  97.0690000  20.6120000
 131.8340000  97.3360000  22.5370000 130.8290000  97.2120000  22.1280000
 131.7040000  98.0490000  23.3700000 132.3270000  96.0670000  23.0590000
 133.2590000  96.1120000  23.5570000 132.4400000  95.3140000  22.1530000
 131.2780000  95.4330000  23.9630000 131.3610000  94.3210000  23.9190000
 130.2680000  95.6060000  23.5710000 131.3560000  95.6900000  25.4960000
 132.3340000  95.2270000  25.8980000 130.6300000  95.0660000  25.9430000
 131.2000000  97.1200000  26.0870000 130.8420000  96.9420000  27.0890000
 130.4600000  97.5970000  25.4420000 132.4860000  97.9220000  26.1360000
 132.9600000  98.0700000  25.1900000 132.9330000  98.5480000  27.1860000
 133.8860000  99.0540000  27.1090000 132.3590000  98.5360000  28.5960000
 131.2200000  98.4720000  28.6010000 132.7110000  99.3180000  29.1700000
 132.8960000  97.2610000  29.3710000 133.9590000  97.2750000  29.3990000
 132.5650000  96.3350000  28.7950000 132.4210000  97.0040000  30.8660000
 132.7080000  96.0020000  31.0740000 131.3280000  97.1020000  30.8890000
 132.9900000  97.8540000  32.0320000 132.2190000  98.5010000  32.2900000
 133.8150000  98.5040000  31.6420000 133.3040000  97.0200000  33.3350000
 132.4570000  96.2790000  33.4930000 133.2930000  97.7070000  34.1900000
 134.6490000  96.3230000  33.3720000 135.4210000  97.0500000  33.4510000
 134.7190000  95.7470000  32.4760000 134.8820000  95.3960000  34.5770000
 133.9360000  94.8880000  34.7870000 135.1500000  95.9570000  35.3980000
 136.0120000  94.3900000  34.2470000 135.8650000  93.7690000  33.3550000
 136.3180000  93.7820000  35.1520000 136.8790000  94.9940000  33.9630000
 128.9560000 114.1140000  36.3060000 128.2550000 113.8180000  37.0700000
 128.4790000 114.6810000  35.4750000 129.7280000 114.7770000  36.7010000
 129.6300000 112.8410000  35.7590000 129.4580000 111.9960000  36.2960000
 129.1510000 112.7280000  34.7500000 131.2320000 112.8920000  35.7340000
 131.5110000 113.0400000  36.7720000 131.7090000 111.9540000  35.5080000
 131.9260000 114.0590000  35.0240000 131.5290000 115.0160000  35.4570000
 132.9880000 114.0010000  35.2190000 131.7480000 114.1230000  33.4660000
 132.6640000 114.3710000  32.9610000 131.5340000 113.1260000  33.0810000
 130.6670000 115.2080000  33.0170000 129.8060000 115.2170000  33.6620000
 130.9740000 116.2680000  33.0840000 130.1950000 114.9460000  31.5660000
 129.6730000 114.0130000  31.4240000 129.4160000 115.6900000  31.4350000
 131.3370000 115.0000000  30.4570000 131.9430000 114.1620000  30.6670000
 130.9040000 114.8220000  29.4530000 132.3940000 116.2250000  30.5160000
 133.0080000 116.1950000  31.3460000 133.1360000 116.1270000  29.6870000
 131.5670000 117.5210000  30.3720000 130.8360000 117.5840000  31.0910000
 132.2210000 118.3180000  30.7060000 130.8710000 117.6850000  29.0450000
 130.0620000 116.9910000  28.9820000 130.4110000 118.7060000  28.9700000
 131.8040000 117.5310000  27.7790000 132.7950000 118.0460000  27.9610000
 132.0150000 116.4920000  27.5990000 131.2800000 118.1080000  26.4620000
 130.2860000 117.6600000  26.3830000 131.2040000 119.1810000  26.4090000
 132.0560000 117.5550000  25.2530000 132.7610000 116.7830000  25.6350000
 131.5010000 116.8690000  24.6080000 132.7230000 118.6280000  24.2760000
 131.9740000 119.3090000  23.8540000 133.5230000 119.1440000  24.7630000
 133.4910000 117.9000000  23.1730000 133.6510000 116.7000000  23.2380000
 134.0360000 118.6600000  22.1900000 134.5910000 117.8400000  21.0590000
 135.2310000 118.6440000  20.6040000 135.2310000 117.0470000  21.4120000
 133.4960000 117.5240000  20.0670000 133.9440000 117.0440000  19.2110000
 132.8450000 118.8030000  19.4860000 131.7960000 118.8060000  19.1340000
 132.8180000 119.6350000  20.2340000 133.5800000 119.2340000  18.2720000
 132.8700000 119.2700000  16.8250000 132.1290000 117.9590000  16.8770000
 132.8100000 116.6960000  16.7900000 133.9260000 116.8600000  16.7760000
 132.5760000 116.0580000  17.6190000 132.2820000 115.9620000  15.5400000
 132.9130000 115.0780000  15.4460000 131.1810000 115.6700000  15.6640000
 132.4510000 116.5220000  14.1570000 132.0010000 115.4940000  13.2400000
 130.9570000 115.4800000  13.4540000 132.3470000 115.7760000  12.2380000
 132.5640000 114.6040000  13.4720000 131.6070000 117.7600000  13.9020000
 132.0750000 118.2490000  13.0890000 130.6280000 117.3930000  13.6490000
 131.5280000 118.3830000  14.8590000 133.9090000 116.7850000  13.8480000
 134.3760000 115.8550000  14.2380000 134.2450000 117.5690000  14.4880000
 134.0530000 116.8820000  12.8080000 131.8750000 120.3180000  16.9140000
 133.8720000 119.3600000  15.7700000 132.4650000 116.7160000  20.6160000
 132.6130000 115.4010000  20.6890000 133.3670000 114.7750000  19.9760000
 131.6830000 114.6660000  21.5390000 130.8300000 114.3670000  20.9570000
 131.3050000 115.3240000  22.2850000 132.1850000 113.3750000  22.0220000
 132.5460000 112.7950000  21.2130000 131.3780000 112.7710000  22.4120000
 133.2980000 113.3810000  23.1060000 133.2590000 112.4160000  23.5380000
 132.9430000 114.0680000  23.9230000 134.7840000 113.6920000  22.7570000
 134.9220000 114.6810000  22.2470000 135.1040000 112.9780000  22.0040000
 135.8450000 113.5680000  23.8520000 136.7820000 113.4730000  23.2600000
 135.7780000 112.7630000  24.5560000 136.0840000 114.8800000  24.6050000
 135.2350000 115.1090000  25.2250000 136.2840000 115.6260000  23.8790000
 137.1660000 114.7320000  25.6900000 136.7260000 113.9880000  26.4740000
 137.2230000 115.6850000  26.2440000 138.5100000 114.3420000  25.1250000
 138.5380000 113.7820000  24.2190000 139.6830000 114.5910000  25.7480000
 140.6220000 114.3060000  25.3610000 139.8910000 115.2980000  27.0570000
 139.0580000 115.9750000  27.1910000 140.7440000 115.9790000  26.8590000
 140.0760000 114.3350000  28.2110000 140.3330000 114.9060000  29.1620000
 140.9200000 113.5620000  28.1280000 138.8410000 113.4770000  28.6190000
 138.8240000 112.6860000  27.8470000 138.0230000 114.1460000  28.4700000
 138.8830000 112.9410000  30.0800000 139.0030000 113.8480000  30.6640000
 139.6920000 112.2390000  30.2700000 137.4870000 112.2730000  30.5110000
 137.3680000 111.5430000  29.7240000 136.5910000 112.9460000  30.4720000
 137.5390000 111.6410000  31.8840000 137.4080000 112.3500000  32.7780000
 138.5140000 111.1820000  32.0880000 136.3870000 110.6650000  32.1400000
 135.4120000 111.1630000  32.0310000 136.3940000 110.4500000  33.2140000
 136.5950000 109.3410000  31.3770000 135.7530000 108.6080000  31.6080000
 137.5610000 108.9930000  31.6260000 136.4500000 109.5270000  30.3460000
  66.0170000   4.8010000  31.0720000  65.7210000   3.8130000  30.8650000
  65.5380000   5.5690000  30.4130000  65.8660000   5.1280000  32.1190000
  67.5160000   4.8040000  30.8240000  68.0080000   3.9830000  31.3290000
  67.6640000   4.6830000  29.7880000  68.0960000   6.1080000  31.2230000
  67.7310000   6.4730000  32.1370000  69.1500000   5.8470000  31.3990000
  68.0380000   7.3190000  30.3550000  68.6030000   8.1030000  30.8340000
  68.5420000   7.1020000  29.4230000  66.5960000   7.9140000  30.2530000
  66.1250000   7.3700000  29.4430000  66.0350000   7.7370000  31.1670000
  66.6570000   9.3660000  29.8930000  66.9070000   9.9270000  30.7500000
  67.5270000   9.5400000  29.2140000  65.3880000  10.0230000  29.3090000
  64.5680000  10.1280000  30.0600000  65.5470000  11.1220000  29.1050000
  64.7930000   9.4690000  27.9810000  64.3020000   8.5150000  28.1840000
  63.9760000  10.1440000  27.6730000  65.9000000   9.5380000  26.8260000
  65.9220000  10.5670000  26.4200000  66.8750000   9.4200000  27.2240000
  65.6980000   8.7740000  25.5050000  64.6540000   8.9650000  25.0640000
  66.3200000   9.0340000  24.6960000  65.9040000   7.1940000  25.6180000
  65.4350000   6.8200000  26.5130000  65.4280000   6.7020000  24.7690000
  67.3770000   6.7490000  25.6160000  67.7570000   6.6660000  24.6400000
  67.8820000   7.4680000  26.2120000  67.6240000   5.3510000  26.2730000
  67.1930000   5.4750000  27.2060000  67.3340000   4.4930000  25.6550000
  69.1610000   5.2370000  26.5940000  69.4220000   6.0840000  27.3470000
  69.3440000   4.2810000  27.0760000  70.2080000   5.2610000  25.4950000
  70.2530000   6.1900000  24.9880000  71.1720000   5.0800000  25.9240000
  70.0920000   4.2090000  24.4030000  70.4930000   3.0480000  24.5560000
  69.7830000   4.8100000  23.1870000  69.8480000   3.9630000  22.0180000
  69.8870000   4.5450000  21.1020000  70.7660000   3.4160000  22.1180000
  68.7810000   2.8660000  22.1060000  69.2640000   2.1920000  22.7250000
  68.5000000   2.2110000  20.7150000  69.4350000   1.6970000  20.3320000
  67.7470000   1.3840000  20.8050000  67.9890000   3.2110000  19.7450000
  66.4650000   3.2970000  19.2440000  66.3950000   4.4310000  18.1420000
  65.2080000   4.6270000  17.3370000  65.4030000   5.1560000  16.4100000
  64.7620000   3.6360000  17.1520000  64.1280000   5.4160000  18.1250000
  63.1760000   5.5640000  17.6020000  63.9430000   4.8160000  19.0240000
  64.5560000   6.7790000  18.4910000  65.7490000   6.7920000  19.4420000
  65.6850000   5.9930000  20.1860000  66.5800000   6.3670000  18.8540000
  65.9500000   7.8440000  19.6970000  64.7310000   7.6010000  17.3640000
  65.7240000   7.3600000  16.9490000  63.8640000   7.4210000  16.6810000
  64.7660000   8.6210000  17.6320000  63.4790000   7.2860000  19.3070000
  63.1750000   6.5460000  20.0420000  62.6670000   7.5600000  18.6570000
  63.8700000   8.1750000  19.7480000  66.1380000   2.0070000  18.5800000
  65.5930000   3.7500000  20.2980000  67.6020000   3.4600000  22.6410000
  66.5540000   2.6950000  23.0260000  66.5550000   1.4580000  22.9700000
  65.4030000   3.5790000  23.5340000  64.9350000   3.9040000  22.5910000
  65.6850000   4.4510000  24.1110000  64.4900000   2.8480000  24.5380000
  64.0010000   1.9460000  24.1380000  63.6430000   3.4850000  24.8870000
  65.4120000   2.4270000  25.7730000  65.4200000   3.3140000  26.4160000
  66.4290000   2.1260000  25.5050000  64.6780000   1.2990000  26.4910000
  64.4890000   0.4950000  25.8380000  63.6810000   1.7380000  26.7420000
  65.3510000   0.8860000  27.8230000  64.5880000   0.3690000  28.3180000
  65.5780000   1.7440000  28.4570000  66.6380000   0.0780000  27.6820000
  67.1890000   0.5430000  26.9150000  66.5250000  -0.9330000  27.3310000
  67.4750000  -0.0810000  29.0190000  68.2280000  -0.7390000  28.8780000
  66.7460000  -0.5240000  29.8210000  68.0900000   1.2440000  29.4210000
  68.2260000   1.9930000  28.6090000  68.5470000   1.4630000  30.6150000
  69.1630000   2.3670000  30.7640000  68.3620000   0.6700000  31.9080000
  69.3530000   0.5190000  32.3010000  67.8600000  -0.2530000  31.8000000
  67.6020000   1.5970000  32.8120000  66.5470000   1.7380000  32.4150000
  67.9560000   2.6360000  32.8850000  67.5450000   0.9980000  34.2450000
  68.5440000   0.8900000  34.6870000  67.1970000   0.0070000  34.1670000
  66.6660000   1.7950000  35.1900000  66.8110000   1.2050000  36.1320000
  65.6250000   1.5430000  34.9840000  66.9640000   3.2840000  35.4360000
  66.3940000   3.5740000  36.3570000  66.6380000   3.8740000  34.5770000
  68.4540000   3.5520000  35.7690000  69.0190000   3.1450000  34.8990000
  68.7490000   2.8940000  36.6300000  68.9190000   4.9970000  36.0400000
  69.9710000   4.8420000  36.3670000  68.3950000   5.5080000  36.9090000
  69.0440000   5.9410000  34.8150000  69.7880000   6.6880000  34.8590000
  68.0670000   6.4010000  34.5990000  69.3330000   5.4510000  33.8590000
 106.3380000  96.6600000  28.7900000 106.5840000  97.2820000  29.6370000
 107.1960000  96.1560000  28.3590000 105.6960000  95.9430000  29.2580000
 105.8700000  97.4020000  27.5510000 106.7300000  98.0900000  27.2520000
 105.7730000  96.7270000  26.6670000 104.5680000  98.2030000  27.8440000
 103.7400000  97.5890000  27.9750000 104.6180000  98.6680000  28.7860000
 104.2420000  99.2060000  26.6740000 103.2790000  99.8120000  26.7850000
 105.0680000  99.8760000  26.6870000 103.9590000  98.6890000  25.2220000
 104.6530000  97.8450000  24.9990000 102.9310000  98.3620000  25.2500000
 104.0740000  99.8390000  24.2030000 103.0780000 100.3430000  24.0910000
 104.7970000 100.5480000  24.6100000 104.2890000  99.2660000  22.8110000
 105.2170000  98.7340000  22.6740000 103.5290000  98.5020000  22.7050000
 104.1270000 100.4530000  21.8240000 103.1590000 100.9470000  21.8580000
 104.9190000 101.2250000  22.1440000 104.2910000  99.9080000  20.3470000
 105.1840000  99.2940000  20.2640000 103.3860000  99.2540000  20.0790000
 104.4620000 101.0530000  19.3300000 105.4250000 101.6030000  19.4380000
 104.5800000 100.5510000  18.3730000 103.2830000 102.0920000  19.2730000
 102.4750000 101.5910000  18.7640000 102.8110000 102.2760000  20.2780000
 103.6370000 103.4030000  18.5150000 104.3090000 104.0150000  19.1190000
 104.0590000 103.0490000  17.5790000 102.3490000 104.1820000  18.1440000
 101.8270000 103.5950000  17.3920000 101.7460000 104.2000000  19.0690000
 102.6630000 105.5920000  17.7000000 103.2880000 106.0760000  18.4640000
 103.3090000 105.5920000  16.8240000 101.4240000 106.4530000  17.3950000
 100.9520000 106.6950000  18.4070000 101.9790000 107.3230000  16.9570000
 100.3620000 105.8470000  16.5070000 100.5840000 105.5570000  15.3620000
  99.2300000 105.5260000  17.1310000  98.3580000 104.6150000  16.4310000
  97.4170000 104.5770000  16.9800000  98.1630000 104.8940000  15.4540000
  98.8890000 103.1920000  16.4560000  99.9140000 103.2700000  16.1260000
  98.1560000 102.3070000  15.4540000  98.6710000 102.5220000  14.4890000
  98.3370000 101.2350000  15.7480000  96.7390000 102.5930000  15.3950000
  95.5740000 101.9200000  16.3040000  95.1440000 100.6190000  15.6290000
  96.0590000  99.5640000  15.2200000  95.5820000  98.8940000  14.5210000
  96.9410000  99.9020000  14.7860000  96.4470000  98.7560000  16.4200000
  97.3000000  98.1370000  16.1940000  96.8740000  99.4920000  17.1230000
  95.4260000  98.0260000  17.1880000  96.2000000  97.2780000  18.2320000
  95.4960000  96.7960000  18.8990000  96.6720000  96.4850000  17.6860000
  96.8210000  97.9830000  18.7220000  94.4190000  98.9640000  17.7180000
  93.9110000  98.2900000  18.4830000  94.9820000  99.7860000  18.0550000
  93.6830000  99.2510000  16.9770000  94.7010000  96.9860000  16.3850000
  95.4210000  96.2810000  16.0620000  94.1700000  97.4580000  15.5710000
  94.0090000  96.6090000  17.1240000  96.1660000 101.5690000  17.5620000
  94.4060000 102.8670000  16.2020000  98.7800000 102.8140000  17.8980000
  99.4030000 101.7430000  18.3000000 100.1400000 101.0460000  17.5730000
  99.1440000 101.3010000  19.6770000  98.1300000 101.4740000  19.8480000
  99.8060000 101.8220000  20.3360000  99.4660000  99.7920000  19.9090000
 100.5150000  99.5210000  19.6260000  98.7750000  99.1920000  19.2290000
  99.1250000  99.3090000  21.3170000  98.1330000  99.6220000  21.5930000
  99.7100000  99.9400000  22.0010000  99.3460000  97.8180000  21.5250000
  98.7920000  97.2740000  20.7870000  98.7890000  97.5510000  22.4700000
 100.9070000  97.4240000  21.5710000 101.5400000  97.9680000  22.3490000
 101.2890000  97.5390000  20.5750000 100.9640000  95.9280000  22.0460000
 100.0630000  95.4940000  21.4950000 100.7360000  95.7770000  23.0680000
 102.2670000  95.1840000  21.7010000 103.0730000  95.7000000  22.2890000
 102.4440000  95.3170000  20.6010000 101.9840000  93.7060000  22.0210000
 101.3720000  93.1510000  21.2890000 102.4570000  93.1250000  23.1290000
 102.2770000  92.0650000  23.2430000 103.1530000  93.8050000  24.3010000
 103.0360000  94.9440000  24.2290000 104.2550000  93.5230000  24.3090000
 102.4440000  93.2300000  25.5730000 102.5700000  92.0760000  25.6900000
 101.4080000  93.4320000  25.3900000 103.0370000  93.8310000  26.8040000
 102.7950000  94.8530000  26.8340000 104.1220000  93.6960000  26.7950000
 102.6460000  93.1940000  28.1690000 103.3860000  92.3460000  28.2030000
 101.6090000  92.9680000  28.2670000 103.1360000  93.9210000  29.4300000
 102.6410000  94.8730000  29.5820000 104.2150000  94.0480000  29.1640000
 103.1940000  93.0710000  30.7600000 103.7560000  92.1210000  30.6120000
 102.1440000  92.8290000  31.0490000 103.9080000  93.9290000  31.8300000
 103.3880000  94.8340000  31.9040000 104.8510000  94.2430000  31.3790000
 104.0310000  93.3190000  33.2080000 104.8910000  92.6950000  33.2100000
 103.0740000  92.8030000  33.4650000 104.2520000  94.1460000  33.9380000
  56.5030000 127.2750000  28.6750000  55.5600000 127.8580000  28.9180000
  57.1090000 127.6540000  27.8240000  57.1970000 127.4460000  29.5710000
  56.2080000 125.7830000  28.5600000  55.4920000 125.4830000  27.7520000
  57.1180000 125.1700000  28.4060000  55.5230000 125.2680000  29.8360000
  55.2940000 124.1970000  29.6210000  56.2500000 125.2960000  30.6900000
  54.1450000 125.9390000  30.2250000  54.2760000 126.8520000  30.6630000
  53.6430000 126.1820000  29.2860000  53.1800000 125.0880000  31.1390000
  53.4500000 125.0070000  32.1570000  52.2180000 125.5120000  31.1800000
  52.8840000 123.6220000  30.6460000  52.6930000 123.6360000  29.5930000
  53.7850000 123.0230000  30.5660000  51.7650000 122.7820000  31.4550000
  52.0730000 122.6850000  32.5150000  50.9240000 123.4260000  31.4420000
  51.4170000 121.4510000  30.8430000  52.2830000 121.0220000  30.3420000
  51.0350000 120.7530000  31.6820000  50.3710000 121.7170000  29.6710000
  49.6450000 122.5710000  29.9020000  51.0330000 121.9730000  28.8240000
  49.5470000 120.4290000  29.3760000  49.0180000 120.0560000  30.2830000
  48.7290000 120.6670000  28.7710000  50.4030000 119.2460000  28.8470000
  51.4090000 119.1740000  29.4390000  49.8510000 118.4010000  29.1170000
  50.5890000 119.2980000  27.3000000  49.5880000 119.4580000  26.8010000
  51.2260000 120.0880000  27.0980000  51.2960000 118.0330000  26.7050000
  52.1970000 117.8400000  27.2330000  50.5790000 117.1970000  26.7400000
  51.7100000 118.2610000  25.1970000  52.2400000 119.2460000  25.1990000
  52.4920000 117.4660000  24.9000000  50.5080000 118.2980000  24.2250000
  49.7500000 117.5270000  24.4730000  50.0590000 119.2580000  24.3750000
  50.9590000 118.3930000  22.7970000  52.1540000 118.3940000  22.4260000
  49.8480000 118.2780000  21.9940000  50.1590000 117.8440000  20.6360000
  49.6510000 118.4800000  19.8330000  51.2360000 117.9460000  20.4100000
  49.6380000 116.4030000  20.2790000  50.0660000 116.2170000  19.2550000
  48.1390000 116.3660000  20.1680000  47.7000000 116.7110000  21.0840000
  47.7660000 117.0900000  19.4320000  47.6980000 114.9820000  19.8120000
  47.1600000 114.6000000  18.3930000  45.6400000 115.0250000  18.4750000
  45.2180000 116.3720000  18.5670000  45.4410000 116.6050000  19.5600000
  45.7240000 117.0430000  17.7930000  43.7100000 116.2870000  18.1390000
  43.2640000 117.1860000  17.8740000  43.6350000 115.6510000  17.2780000
  42.7220000 115.7220000  19.0990000  42.8110000 116.4300000  20.3750000
  41.8700000 116.4320000  20.9250000  43.6890000 115.9380000  20.8490000
  43.0900000 117.4190000  20.1090000  41.2630000 115.8190000  18.7010000
  40.9020000 116.8570000  18.7990000  41.1800000 115.5220000  17.6210000
  40.6760000 115.1490000  19.2970000  42.8560000 114.2280000  19.2560000
  42.1420000 113.9170000  20.0460000  43.8660000 113.9820000  19.5810000
  42.6740000 113.7760000  18.3060000  47.8720000 115.3020000  17.2730000
  47.0690000 113.0790000  18.3490000  50.1380000 115.5280000  21.3170000
  51.3990000 115.1600000  21.2250000  51.9660000 115.1070000  20.1510000
  52.0190000 114.6760000  22.4660000  52.1120000 115.5040000  23.1590000
  53.0200000 114.2490000  22.2530000  51.3540000 113.6410000  23.3190000
  52.0120000 112.7310000  23.1030000  50.2990000 113.4900000  22.9710000
  51.4510000 114.0050000  24.7860000  50.8890000 113.0810000  25.2550000
  50.7650000 114.7830000  25.1150000  52.9740000 114.2490000  25.2920000
  53.1480000 115.2640000  24.8780000  53.5980000 113.4960000  24.7580000
  53.2170000 114.2100000  26.8040000  52.9870000 113.1610000  27.0170000
  52.5470000 114.8430000  27.4290000  54.7290000 114.5030000  26.9940000
  54.9510000 115.4390000  26.5440000  55.4070000 113.8120000  26.4380000
  55.1220000 114.4500000  28.4440000  54.9390000 113.4930000  28.8660000
  54.4610000 115.0930000  29.0140000  56.4910000 115.0340000  28.5050000
  57.2290000 114.5780000  27.7360000  56.8670000 115.9950000  29.3670000
  57.8970000 116.3350000  29.2730000  55.9270000 116.6140000  30.4100000
  56.5380000 116.9100000  31.2630000  55.2060000 115.8670000  30.7140000
  55.1560000 117.7710000  29.7960000  54.7380000 117.4780000  28.8370000
  55.8490000 118.6280000  29.6180000  54.0800000 118.3070000  30.8030000
  53.3030000 117.5980000  31.0490000  53.6520000 119.0870000  30.2830000
  54.7080000 118.6810000  32.1460000  55.6600000 119.1830000  31.8550000
  54.9230000 117.7990000  32.7900000  53.8330000 119.7130000  32.8810000
  52.8290000 119.2790000  32.9570000  53.8120000 120.6030000  32.3320000
  54.3110000 120.0060000  34.3070000  54.5590000 119.0570000  34.7980000
  53.4120000 120.3400000  34.9140000  55.5230000 121.0390000  34.3900000
  56.4020000 120.4750000  34.0870000  55.7730000 121.3550000  35.4450000
  55.4150000 122.3090000  33.5180000  54.5630000 122.9330000  33.6980000
  55.5930000 122.0350000  32.4460000  56.3130000 122.8690000  33.7480000
 148.1570000 130.4580000  32.5060000 147.1990000 130.5440000  33.0700000
 148.7740000 131.2420000  33.0510000 148.5860000 129.4940000  32.5500000
 147.9260000 130.9930000  31.0880000 147.9240000 132.0720000  31.1060000
 148.6520000 130.6680000  30.3950000 146.4960000 130.5010000  30.6660000
 146.4860000 129.3910000  30.6970000 145.7510000 130.9400000  31.3420000
 146.1670000 131.0170000  29.2750000 145.1730000 130.5530000  29.1280000
 145.8940000 132.1180000  29.1460000 147.2220000 130.5820000  28.1770000
 146.7510000 130.6110000  27.1700000 148.0100000 131.4220000  28.2340000
 147.7810000 129.1550000  28.1250000 148.3630000 128.9580000  29.0190000
 146.9000000 128.4950000  28.1590000 148.7180000 128.9060000  26.8650000
 149.6180000 129.4610000  27.0410000 149.1260000 127.8560000  26.8630000
 148.2100000 129.2510000  25.4650000 148.0600000 130.3830000  25.4440000
 148.9020000 129.0170000  24.6220000 146.8580000 128.6580000  25.1060000
 146.8840000 127.6100000  25.0670000 146.1200000 128.8010000  25.8660000
 146.2420000 129.2360000  23.7420000 146.9730000 129.0280000  23.0020000
 145.2990000 128.7650000  23.5550000 146.1170000 130.8310000  23.6460000
 147.0640000 131.3680000  23.6470000 145.7600000 131.1500000  22.6740000
 145.2640000 131.4650000  24.7300000 145.4550000 130.9800000  25.7240000
 145.4080000 132.5460000  24.8390000 143.7110000 131.2460000  24.5100000
 143.3260000 131.8030000  23.5930000 143.4710000 130.1830000  24.2670000
 142.8230000 131.7010000  25.7320000 143.0120000 131.0740000  26.6200000
 143.0910000 132.7480000  25.9680000 141.2960000 131.6770000  25.5760000
 140.8760000 130.6990000  25.3120000 140.8870000 132.1630000  26.4650000
 140.8840000 132.5830000  24.4840000 140.4890000 132.1100000  23.4540000
 141.1390000 133.8830000  24.7020000 140.8390000 134.7630000  23.5430000
 140.5080000 134.1630000  22.6570000 139.9710000 135.3830000  23.8290000
 142.1340000 135.4440000  23.2070000 142.6640000 135.8460000  24.1010000
 141.9150000 136.4960000  22.0740000 141.4710000 137.3670000  22.5320000
 142.8740000 136.8710000  21.7460000 141.1610000 136.0700000  20.9040000
 139.6660000 136.3330000  20.6660000 138.9460000 134.9510000  20.9220000
 137.6550000 134.7060000  20.3300000 137.0500000 134.2160000  21.0410000
 137.1780000 135.6180000  20.0400000 137.6970000 133.6470000  19.1970000
 136.6220000 133.5070000  18.9470000 138.2160000 133.9970000  18.3340000
 138.1960000 132.3190000  19.5970000 139.7370000 132.2740000  19.4180000
 140.1010000 131.1950000  19.5620000 139.9880000 132.6470000  18.4300000
 140.1200000 133.0700000  20.1370000 137.9760000 131.9080000  20.9890000
 138.3000000 130.8780000  21.0830000 138.6650000 132.5620000  21.5540000
 136.9230000 132.0530000  21.2000000 137.6400000 131.2290000  18.7940000
 136.5550000 131.1830000  19.0450000 138.0520000 130.2980000  19.0710000
 137.8010000 131.4170000  17.7100000 139.2150000 137.2600000  21.7170000
 139.4800000 136.7860000  19.2840000 142.9770000 134.4070000  22.6340000
 144.3050000 134.7820000  22.5010000 144.8060000 135.7750000  22.9790000
 145.2200000 133.7640000  21.8460000 144.7750000 132.7810000  21.9340000
 146.2100000 133.7590000  22.3730000 145.3700000 133.9690000  20.3480000
 146.1170000 133.2190000  19.9870000 145.7640000 134.9470000  20.0360000
 144.0870000 133.7060000  19.4410000 144.3460000 133.8390000  18.4540000
 143.4290000 134.5950000  19.5730000 143.4210000 132.3150000  19.5630000
 142.8060000 132.3220000  18.6690000 142.6940000 132.1430000  20.4010000
 144.2840000 131.0670000  19.3700000 144.6400000 130.6610000  20.2480000
 145.1170000 131.2690000  18.7070000 143.5060000 129.9110000  18.7160000
 143.1200000 130.2370000  17.7810000 142.7670000 129.6680000  19.5110000
 144.1130000 128.5560000  18.3500000 144.9180000 128.6240000  17.6440000
 143.2970000 127.8860000  18.0660000 144.6310000 127.9760000  19.6700000
 143.8860000 127.7980000  20.4300000 145.8980000 127.6210000  19.8670000
 146.1320000 127.2300000  20.8650000 147.0680000 127.8020000  18.8700000
 146.7230000 128.3820000  17.9810000 147.4480000 126.8130000  18.5280000
 148.2320000 128.4760000  19.6370000 149.1860000 128.1860000  19.1070000
 148.1810000 128.0710000  20.6210000 147.9670000 129.9540000  19.8110000
 147.1980000 130.2160000  20.4890000 147.6700000 130.3730000  18.8360000
 149.1910000 130.8180000  20.1890000 149.7800000 130.2440000  20.9810000
 148.8680000 131.8590000  20.6830000 150.2100000 131.0140000  19.0950000
 149.6210000 131.5010000  18.2870000 150.5790000 129.9860000  18.7750000
 151.3960000 131.8180000  19.5300000 152.0220000 131.2810000  20.2450000
 150.9780000 132.6820000  20.1120000 152.1440000 132.1670000  18.2250000
 151.5230000 132.6030000  17.4190000 152.5520000 131.2350000  17.7620000
 153.3600000 133.0860000  18.4410000 153.8260000 133.4210000  17.5110000
 154.1580000 132.5690000  18.9490000 153.0140000 133.9940000  18.9660000
  99.0060000 143.1820000  28.5140000  99.0560000 144.2720000  28.4090000
  98.1590000 142.9750000  29.1050000  98.7880000 142.7290000  27.5830000
 100.3430000 142.5940000  29.0710000 100.4700000 143.0160000  30.0440000
 100.3430000 141.5290000  29.2890000 101.6110000 143.0480000  28.3320000
 101.5520000 142.8680000  27.2340000 101.7000000 144.1210000  28.5550000
 102.9410000 142.4280000  28.7760000 103.6780000 142.7110000  28.0920000
 103.2910000 142.7850000  29.7510000 103.1190000 140.8970000  28.7720000
 104.0820000 140.6540000  29.1520000 102.2850000 140.4730000  29.3900000
 103.0960000 140.2340000  27.4090000 103.1060000 139.1270000  27.6570000
 102.1920000 140.2750000  26.8660000 104.3820000 140.3610000  26.5100000
 105.2560000 140.3640000  27.0590000 104.3600000 139.4040000  25.9610000
 104.3640000 141.5320000  25.4770000 104.4610000 142.4320000  26.0580000
 105.3370000 141.4190000  24.9590000 103.2130000 141.4940000  24.4620000
 103.2490000 140.5790000  23.9470000 102.2810000 141.5040000  24.9820000
 103.2130000 142.6220000  23.3880000 104.2860000 142.7510000  23.0500000
 102.7530000 142.2780000  22.4780000 102.5030000 143.8300000  23.9660000
 102.9310000 143.9790000  24.9890000 102.8890000 144.7410000  23.4770000
 101.0080000 143.8800000  23.9580000 100.7410000 143.0270000  24.5890000
 100.7610000 144.8380000  24.3950000 100.3020000 143.7770000  22.5990000
 100.6600000 144.5960000  21.9570000 100.6220000 142.9660000  21.9320000
  98.7720000 143.5990000  22.7970000  98.4710000 144.2460000  23.5900000
  98.1480000 143.8270000  21.8750000  98.3390000 142.1180000  23.2070000
  98.8170000 141.8280000  24.1260000  97.2790000 142.0050000  23.3030000
  98.6560000 141.2010000  22.0570000  98.0190000 141.1440000  21.0080000
  99.7610000 140.4240000  22.3210000 100.1920000 139.3720000  21.3020000
 101.0230000 138.8340000  21.7730000  99.4140000 138.6410000  21.1240000
 100.8100000 139.9890000  19.9860000 100.0960000 140.6610000  19.5640000
 101.1290000 138.8880000  18.8570000 100.6940000 139.0020000  17.8460000
 102.1900000 138.9180000  18.6370000 100.7810000 137.5490000  19.3350000
 101.4300000 136.2010000  18.7110000 102.7550000 136.0000000  19.5770000
 103.9130000 136.8880000  19.4780000 104.7850000 136.3100000  19.5500000
 104.0210000 137.3870000  18.5060000 103.9260000 137.8680000  20.6940000
 104.7620000 138.4730000  20.4580000 103.0700000 138.5910000  20.7110000
 104.2580000 137.3700000  22.1420000 104.3640000 138.4730000  23.0140000
 104.6060000 138.2610000  24.0670000 105.1180000 139.2260000  22.6330000
 103.4390000 138.9520000  22.8970000 103.0370000 136.4820000  22.4550000
 103.0710000 135.5710000  21.8040000 102.9610000 136.1240000  23.4510000
 102.1070000 136.9830000  22.3220000 105.5080000 136.5750000  22.0930000
 105.7040000 136.1730000  23.0680000 106.3320000 137.2710000  21.9370000
 105.4420000 135.8380000  21.4050000 100.4990000 135.1070000  18.9800000
 101.8420000 136.5210000  17.3060000 101.9980000 140.7530000  20.1680000
 102.2680000 141.8450000  19.4430000 101.5080000 142.2270000  18.5820000
 103.5520000 142.5880000  19.7940000 104.2220000 142.3300000  19.0020000
 103.9750000 142.2520000  20.7130000 103.4280000 144.1370000  20.0310000
 102.8450000 144.2590000  20.8920000 102.9750000 144.6520000  19.1660000
 104.8320000 144.8670000  20.3560000 105.5360000 144.5030000  19.5750000
 105.2120000 144.4610000  21.2760000 104.7420000 146.3890000  20.5040000
 104.1560000 146.8540000  19.6280000 105.7360000 146.8560000  20.3430000
 104.2410000 146.9310000  21.9010000 104.9340000 146.5770000  22.6980000
 103.3230000 146.4370000  22.1170000 103.7740000 148.4220000  21.8770000
 103.0610000 148.5490000  21.0620000 104.6470000 149.0150000  21.6550000
 103.0730000 149.0120000  23.1440000 102.9480000 150.1490000  23.0090000
 103.7240000 148.8040000  23.9870000 101.7440000 148.2680000  23.4230000
 101.0220000 148.4970000  22.6540000 101.4640000 147.3640000  24.3690000
 100.4630000 146.9930000  24.4300000 102.2790000 147.1180000  25.6450000
 102.8790000 148.0090000  25.7640000 102.9640000 146.2690000  25.5380000
 101.2390000 146.8520000  26.7550000 100.8220000 145.8310000  26.7450000
 100.5760000 147.7190000  26.7470000 101.9130000 146.9630000  28.1570000
 102.6150000 147.7800000  28.1850000 102.5010000 146.0290000  28.3750000
 100.8500000 147.0810000  29.2920000 100.2870000 146.2070000  29.3350000
 100.1650000 147.9680000  29.1820000 101.5980000 147.2750000  30.6160000
 101.0020000 147.7670000  31.3410000 102.4430000 147.9460000  30.4320000
 102.2070000 145.8750000  31.1420000 102.6740000 145.4010000  30.2730000
 101.3430000 145.2630000  31.4690000 103.2460000 146.0630000  32.3050000
 102.8060000 146.7160000  33.0060000 104.2120000 146.5050000  31.8960000
 103.5930000 144.7520000  33.0640000 103.6230000 143.9710000  32.2950000
 102.8110000 144.4060000  33.6990000 104.5100000 144.6770000  33.6530000
  77.4990000   1.4100000  32.0380000  78.2270000   1.6760000  31.3020000
  77.9970000   1.0020000  32.9120000  77.0860000   2.3840000  32.3450000
  76.3440000   0.5040000  31.5330000  76.7690000  -0.4380000  31.2560000
  75.8110000   0.4130000  32.4650000  75.5370000   1.1170000  30.3940000
  74.6270000   0.5020000  30.3410000  75.3120000   2.1030000  30.7560000
  76.2610000   1.1300000  29.0180000  75.8030000   1.8900000  28.3760000
  77.3160000   1.4880000  29.2100000  76.2030000  -0.2320000  28.3620000
  76.7300000  -1.0480000  28.8660000  75.2100000  -0.5720000  28.4460000
  76.4600000  -0.2890000  26.8400000  76.0890000  -1.1940000  26.4830000
  75.9940000   0.5730000  26.3520000  77.9820000  -0.3300000  26.4960000
  78.4010000  -1.1250000  27.0990000  78.0530000  -0.5660000  25.4570000
  78.8450000   0.9240000  26.6690000  78.9540000   0.8800000  27.7680000
  79.7890000   0.7570000  26.2290000  78.1370000   2.1990000  26.1600000
  77.7780000   2.0780000  25.1270000  77.2960000   2.4450000  26.8310000
  79.0820000   3.4440000  26.2260000  80.0810000   3.1650000  25.9130000
  78.8300000   4.2400000  25.5800000  79.2020000   4.1350000  27.6010000
  79.3790000   3.2930000  28.3270000  80.1220000   4.7340000  27.5400000
  77.9500000   5.0640000  27.8420000  77.0940000   4.5280000  27.5720000
  77.9050000   5.2230000  28.9450000  78.0990000   6.3770000  27.0710000
  79.1200000   6.7070000  27.0070000  77.7600000   6.0990000  26.0430000
  77.1350000   7.6240000  27.4060000  77.2350000   7.8150000  28.4950000
  77.4280000   8.5490000  26.7810000  75.6760000   7.2060000  27.1300000
  75.6140000   6.1240000  27.0500000  75.0290000   7.6910000  27.9300000
  75.1940000   7.6570000  25.7580000  74.7110000   8.7950000  25.4780000
  75.2770000   6.7140000  24.8720000  74.7480000   6.8360000  23.5090000
  74.6930000   5.8120000  23.0020000  73.7030000   7.1580000  23.5050000
  75.6210000   7.7760000  22.6710000  75.8220000   8.6600000  23.1230000
  74.9870000   8.0790000  21.2940000  74.1640000   8.7610000  21.5170000
  75.6600000   8.5810000  20.6010000  74.3130000   6.9460000  20.7180000
  73.2070000   7.0300000  19.5530000  73.8840000   6.1630000  18.4530000
  73.7230000   4.7580000  18.5010000  73.3830000   4.4200000  19.5530000
  72.8610000   4.6300000  17.8330000  74.8800000   3.8780000  17.9990000
  74.6760000   2.8440000  17.9750000  75.0780000   3.9620000  17.0050000
  76.2190000   4.1290000  18.7170000  76.7580000   5.5150000  18.4730000
  76.0440000   6.1680000  18.9870000  77.7320000   5.4650000  18.8940000
  76.7850000   5.7160000  17.4530000  75.9810000   3.9880000  20.1860000
  76.8970000   3.9160000  20.6650000  75.3420000   4.8990000  20.4620000
  75.3790000   3.0910000  20.3770000  77.2510000   3.0750000  18.3070000
  76.8170000   2.0410000  18.4960000  78.1410000   3.1740000  18.8190000
  77.4600000   3.1470000  17.2790000  71.9520000   6.3340000  19.9960000
  73.0880000   8.4040000  19.0870000  76.9290000   7.1610000  22.4610000
  78.0560000   7.8800000  22.4500000  78.0830000   9.0920000  22.1960000
  79.2840000   7.0410000  22.5180000  79.7090000   7.0220000  21.5170000
  78.9120000   6.0570000  22.6870000  80.3980000   7.3910000  23.5230000
  81.1050000   6.6510000  23.5180000  79.8750000   7.4410000  24.5020000
  81.0880000   8.8520000  23.3900000  80.2450000   9.4850000  23.6520000
  81.3820000   9.0450000  22.3290000  82.2620000   9.0570000  24.3790000
  82.5520000  10.1440000  24.3710000  83.1360000   8.4190000  24.0420000
  81.9780000   8.5060000  25.8370000  81.7690000   7.4970000  25.7000000
  81.0510000   8.9980000  26.2200000  83.0330000   8.5850000  26.8770000
  83.2320000   9.6140000  26.9970000  83.8820000   8.1650000  26.4770000
  82.6250000   7.9250000  28.1830000  83.3850000   8.2020000  28.8860000
  82.5420000   6.8550000  28.0020000  81.3590000   8.5560000  28.6580000
  81.2870000   9.6070000  28.3670000  80.3330000   7.9900000  29.3140000
  79.4500000   8.6330000  29.5660000  80.3670000   6.5590000  29.8440000
  81.3820000   6.1160000  29.9860000  79.7240000   5.9240000  29.3240000
  79.7040000   6.5160000  31.2700000  78.6430000   7.0130000  31.2870000
  80.2300000   7.1950000  31.9180000  79.6190000   5.1610000  32.0240000
  80.5690000   4.6740000  31.7280000  78.7810000   4.5110000  31.7100000
  79.5640000   5.4030000  33.5760000  78.7010000   6.0620000  33.7970000
  80.5440000   5.7710000  33.9140000  79.3380000   4.0960000  34.3390000
  78.5030000   3.5440000  33.9470000  79.2070000   4.3100000  35.4110000
  80.5880000   3.1180000  34.1910000  81.5470000   3.7380000  34.2590000
  80.4800000   2.6990000  33.1790000  80.6400000   2.0940000  35.3540000
  81.3910000   1.3220000  35.0600000  79.6120000   1.5950000  35.3800000
  81.0700000   2.6620000  36.7680000  82.0530000   3.1160000  36.8340000
  81.0980000   1.8370000  37.4850000  80.4950000   3.4820000  37.1630000
  36.1710000  -1.0890000  34.3170000  36.8380000  -0.5910000  35.0800000
  36.7990000  -1.5990000  33.5660000  35.6710000  -1.9090000  34.7920000
  35.0760000  -0.0940000  33.8320000  34.4820000   0.2450000  34.7310000
  35.4200000   0.8220000  33.3610000  33.9870000  -0.7160000  32.9230000
  34.4910000  -1.1740000  32.1160000  33.3880000  -1.4500000  33.5460000
  32.9690000   0.1640000  32.2160000  32.5820000   0.9080000  32.9220000
  33.5050000   0.5940000  31.3700000  31.8700000  -0.6410000  31.5420000
  32.2300000  -1.3190000  30.8670000  31.3950000  -1.2680000  32.3140000
  30.8440000   0.2990000  30.8320000  31.3570000   1.0840000  30.3110000
  30.3280000  -0.3130000  30.0480000  29.8450000   0.9130000  31.7640000
  29.3890000   0.2020000  32.4420000  30.3550000   1.5590000  32.4640000
  28.7380000   1.8230000  31.1250000  27.8740000   1.1430000  30.8640000
  28.2790000   2.4260000  31.9450000  29.1140000   2.7970000  29.9660000
  28.5180000   3.7250000  30.0040000  30.1140000   3.1600000  30.1400000
  29.1470000   2.0970000  28.6000000  29.7070000   1.1880000  28.7190000
  28.0960000   1.9020000  28.2820000  29.8190000   3.0320000  27.5940000
  29.4230000   3.9750000  27.7670000  30.8470000   3.1980000  27.9110000
  29.5650000   2.6150000  26.1280000  28.3880000   2.6420000  26.0500000
  30.0310000   3.3020000  25.4350000  30.0260000   1.2320000  25.6600000
  29.6140000   0.4680000  26.3310000  29.4420000   0.9890000  24.7200000
  31.5110000   0.9610000  25.5000000  32.0520000   0.9560000  26.3630000
  31.6290000  -0.1090000  25.2350000  32.1510000   1.8550000  24.4350000
  32.2360000   2.8890000  24.7040000  33.2000000   1.4520000  24.2010000
  31.4340000   1.8590000  23.1090000  31.4990000   0.9830000  22.2810000
  30.6190000   2.9300000  22.8890000  29.8280000   2.9520000  21.6660000
  29.5440000   4.0290000  21.3940000  30.4330000   2.4940000  20.8310000
  28.5650000   2.0040000  21.8640000  28.9650000   0.9390000  22.0600000
  27.8410000   1.9600000  20.4530000  28.5800000   1.5540000  19.7480000
  26.9760000   1.3580000  20.3250000  27.4790000   3.3250000  20.0380000
  27.6530000   3.7490000  18.5360000  29.2440000   3.9670000  18.5220000
  30.0160000   3.5990000  17.4370000  31.0310000   3.8420000  17.8740000
  29.9690000   2.5040000  17.3250000  29.7530000   4.4130000  16.1380000
  30.3620000   3.8920000  15.3390000  28.6310000   4.2190000  15.8980000
  29.9810000   5.8950000  15.9970000  29.2660000   6.3220000  14.7660000
  29.5070000   7.3650000  14.5810000  28.1610000   6.1510000  14.8500000
  29.8010000   5.9350000  13.9350000  29.3550000   6.5040000  17.1520000
  29.5530000   7.6050000  17.1330000  28.3410000   6.1590000  17.2410000
  30.0160000   6.1870000  17.9350000  31.3960000   6.2320000  15.9440000
  31.4780000   7.2860000  15.9530000  32.0340000   5.7430000  15.2050000
  31.8490000   6.0440000  16.9530000  27.2470000   2.7540000  17.5310000
  27.0390000   5.0980000  18.4950000  27.6890000   2.4710000  22.9710000
  26.7660000   1.5970000  23.3380000  26.6870000   0.4470000  22.8810000
  25.8080000   2.0640000  24.3940000  24.9160000   2.4190000  23.8550000
  26.1990000   2.9400000  24.7840000  25.4630000   1.1180000  25.5290000
  24.5320000   0.6440000  25.3460000  25.2650000   1.7010000  26.4270000
  26.4870000   0.0470000  25.8650000  27.4580000   0.6190000  25.8990000
  26.6860000  -0.5840000  25.0120000  26.2000000  -0.8220000  27.0980000
  25.1910000  -1.2060000  26.8400000  26.1450000  -0.1490000  27.9070000
  27.1970000  -2.0050000  27.1860000  28.2060000  -1.5910000  27.3990000
  27.2110000  -2.4810000  26.1950000  26.7200000  -3.0170000  28.3210000
  27.1860000  -3.8710000  28.1250000  25.6290000  -3.1430000  28.2630000
  27.2340000  -2.7060000  29.6870000  27.0190000  -1.6850000  29.8400000
  28.2760000  -2.9200000  29.5570000  26.7480000  -3.6240000  30.7640000
  26.3750000  -4.5340000  30.3550000  26.5280000  -3.3420000  32.0370000
  26.0760000  -4.0540000  32.6890000  27.1190000  -2.0200000  32.6320000
  27.1280000  -1.1580000  31.8730000  28.2110000  -2.2130000  32.9530000
  26.4420000  -1.7150000  33.9420000  26.8100000  -2.5500000  34.5270000
  25.3370000  -1.8110000  33.7940000  26.8220000  -0.3640000  34.5990000
  27.9630000  -0.3850000  34.6630000  26.4440000  -0.4370000  35.5710000
  26.3050000   0.8180000  33.8230000  25.2300000   0.9120000  34.0350000
  26.4420000   0.7140000  32.7790000  26.7750000   2.2010000  34.2880000
  27.8390000   2.1490000  34.0810000  26.6590000   2.4590000  35.3470000
  26.1860000   3.3740000  33.5260000  25.7780000   3.0210000  32.5480000
  26.9930000   4.1250000  33.3700000  25.0670000   3.9900000  34.2990000
  25.2680000   4.2420000  35.3810000  24.4000000   3.1520000  34.3300000
  24.4340000   5.1660000  33.5880000  23.4920000   5.5700000  34.0320000
  24.2350000   4.9610000  32.5950000  25.1110000   6.0570000  33.5810000
  86.1200000 125.5360000  31.5170000  86.9630000 125.5170000  32.1900000
  85.4050000 125.1820000  32.2430000  85.8670000 126.5570000  31.2840000
  86.2170000 124.5500000  30.3350000  86.6380000 123.5670000  30.7150000
  85.2210000 124.4470000  29.9170000  87.1410000 124.9310000  29.1860000
  86.8090000 125.8510000  28.7080000  88.1570000 125.1080000  29.4880000
  87.2570000 123.8580000  28.0670000  88.0320000 124.2410000  27.3200000
  87.6970000 122.9260000  28.4310000  85.9630000 123.5860000  27.2880000
  85.1410000 123.2550000  27.9280000  85.6550000 124.4650000  26.6990000
  86.3630000 122.5600000  26.2240000  87.0510000 122.9480000  25.4230000
  86.9730000 121.8920000  26.7670000  85.1720000 121.9880000  25.4610000
  84.7480000 122.7660000  24.9070000  85.5300000 121.2050000  24.7320000
  84.1050000 121.2750000  26.3130000  83.5870000 122.0030000  26.9650000
  83.2750000 120.9010000  25.6940000  84.7070000 120.0660000  27.1040000
  85.0830000 119.4960000  26.3100000  85.5670000 120.4560000  27.5930000
  83.7620000 119.3000000  28.1210000  83.1690000 120.0550000  28.6710000
  83.0170000 118.6360000  27.6760000  84.4860000 118.4320000  29.1380000
  84.9910000 119.0790000  29.7890000  83.6990000 117.8970000  29.6670000
  85.3540000 117.3120000  28.5380000  84.7830000 116.4080000  28.5850000
  85.4660000 117.5490000  27.4580000  86.7200000 116.9950000  29.2850000
  87.1390000 117.9130000  29.6510000  86.5310000 116.3010000  30.0530000
  87.6500000 116.2060000  28.3260000  88.4820000 115.8410000  28.8870000
  87.0140000 115.4050000  27.9380000  88.1300000 117.0240000  27.0710000
  87.3140000 117.5460000  26.6320000  88.9120000 117.7110000  27.3880000
  88.6610000 116.1020000  25.9290000  89.7870000 115.6340000  25.9410000
  87.7450000 115.9410000  24.9370000  88.1720000 115.2560000  23.7310000
  87.4120000 115.1550000  22.9340000  89.0090000 115.8950000  23.3300000
  88.5640000 113.7250000  23.8830000  89.0820000 113.4700000  24.8660000
  89.6430000 113.3670000  22.7960000  90.5850000 113.7270000  23.2020000
  89.7960000 112.2830000  22.6170000  89.5240000 114.0200000  21.4640000
  88.7440000 113.3760000  20.2540000  87.2550000 113.8020000  20.5220000
  86.2830000 112.7620000  20.7630000  86.3200000 112.0840000  19.8310000
  86.5140000 112.1620000  21.6740000  84.7930000 113.2070000  20.9680000
  84.1040000 112.3000000  20.9220000  84.6690000 113.6630000  21.9290000
  84.2770000 114.1280000  19.8620000  84.8250000 113.7940000  18.5270000
  85.8540000 113.8830000  18.5200000  84.4180000 112.8020000  18.1180000
  84.3840000 114.4890000  17.8060000  82.8100000 113.9230000  19.7720000
  82.2810000 114.1040000  20.6790000  82.4970000 114.5970000  18.9580000
  82.6730000 112.8780000  19.4300000  84.6550000 115.5490000  20.2060000
  84.0750000 116.1210000  19.4980000  85.7800000 115.7710000  20.2310000
  84.2000000 115.7270000  21.1620000  89.1400000 114.0550000  18.9760000
  88.9030000 111.8980000  20.3500000  87.3930000 112.7710000  23.8700000
  86.4040000 112.6730000  24.7920000  86.4680000 113.3540000  25.7960000
  85.2270000 111.7370000  24.4530000  85.6470000 110.7780000  24.2350000
  84.7270000 112.0980000  23.4830000  84.1940000 111.4540000  25.5410000
  83.7470000 112.3440000  25.8720000  84.7770000 111.1470000  26.4040000
  83.2020000 110.4390000  25.0390000  83.7930000 109.5240000  24.8200000
  82.8200000 110.7740000  24.1940000  82.1070000 109.9970000  26.0070000
  81.7210000 110.9830000  26.3240000  82.6820000 109.6130000  26.8270000
  81.0270000 108.9420000  25.4820000  81.5190000 108.0730000  25.1290000
  80.5280000 109.5270000  24.6400000  80.0640000 108.6380000  26.5750000
  80.5260000 108.2390000  27.4240000  79.3230000 107.9120000  26.2860000
  79.3010000 109.9510000  26.8650000  78.9220000 110.4120000  25.8940000
  79.9490000 110.5790000  27.4410000  78.1600000 109.5870000  27.8080000
  77.6700000 108.6530000  27.5240000  77.9020000 110.2350000  28.9620000
  77.2000000 109.7050000  29.6700000  78.4840000 111.5030000  29.6140000
  77.7030000 112.2400000  29.6260000  79.2980000 111.9650000  29.0380000
  78.9900000 111.4530000  31.0290000  79.6430000 110.5720000  31.1580000
  78.1370000 111.3280000  31.6310000  79.7590000 112.6780000  31.5270000
  79.1410000 113.5630000  31.4880000  80.6250000 112.8870000  30.9310000
  80.2680000 112.5700000  32.9780000  80.9240000 111.6860000  32.9340000
  79.4770000 112.4630000  33.7070000  81.0580000 113.8870000  33.3600000
  80.2990000 114.6040000  33.6040000  81.6450000 114.2780000  32.4970000
  81.9000000 113.6930000  34.6840000  81.1900000 113.4310000  35.4420000
  82.2550000 114.6880000  34.9950000  83.0550000 112.6970000  34.6880000
  83.6690000 112.9070000  33.8740000  82.6330000 111.6940000  34.4570000
  83.9350000 112.5900000  36.0100000  84.9300000 112.0580000  35.8830000
  83.3570000 112.0290000  36.7490000  84.0720000 113.6000000  36.3130000
  21.7460000  76.6110000  37.7310000  20.7260000  76.5410000  38.1180000
  21.8920000  77.6400000  37.7570000  22.4260000  76.2480000  38.5340000
  22.0920000  76.0780000  36.2750000  23.0940000  76.3310000  36.1340000
  21.9850000  74.9700000  36.2330000  21.2900000  76.8010000  35.1500000
  21.3440000  77.8260000  35.3910000  21.6970000  76.6110000  34.1700000
  19.7930000  76.4390000  35.2240000  19.8100000  75.3430000  35.1240000
  19.3660000  76.6320000  36.1810000  18.9260000  77.1720000  34.1930000
  19.2940000  76.9210000  33.2290000  17.9200000  76.7890000  34.2170000
  18.8050000  78.7330000  34.3400000  18.6770000  79.1290000  35.3680000
  19.6360000  79.1910000  33.8970000  17.4790000  79.2480000  33.7010000
  16.5620000  78.7670000  34.1110000  17.3140000  80.3050000  33.9860000
  17.4170000  79.1890000  32.1160000  17.6430000  78.1770000  31.8260000
  16.3190000  79.3740000  31.9010000  18.2440000  80.2140000  31.2720000
  19.3050000  80.1230000  31.4230000  18.0080000  79.9940000  30.1940000
  17.8260000  81.6180000  31.8380000  16.7110000  81.5760000  31.9520000
  18.3460000  81.8080000  32.8320000  17.9890000  82.7730000  30.8760000
  17.0950000  82.8240000  30.1760000  17.9090000  83.6320000  31.4900000
  19.3290000  82.8890000  30.1340000  20.1140000  83.2180000  30.8310000
  19.6770000  81.9660000  29.6750000  19.4130000  83.9940000  29.1530000
  18.9000000  84.8980000  29.6260000  20.4220000  84.2470000  28.8340000
  18.7220000  83.6430000  27.7850000  19.1610000  82.7340000  27.3980000
  17.6610000  83.4350000  28.0490000  18.9480000  84.8040000  26.7720000
  18.1000000  85.4880000  26.9750000  19.8550000  85.3780000  26.9470000
  18.8960000  84.3610000  25.3660000  19.3230000  83.2530000  25.0600000
  18.3530000  85.3240000  24.6040000  18.5120000  85.1090000  23.2030000
  18.3820000  84.0630000  22.9100000  17.7730000  85.7730000  22.7150000
  19.8330000  85.6840000  22.6580000  19.6290000  86.7360000  22.3940000
  20.3650000  84.8530000  21.5110000  20.8990000  84.0020000  21.9450000
  19.5390000  84.4710000  21.0290000  21.2330000  85.5030000  20.6740000
  20.8170000  86.5450000  19.5790000  20.2350000  85.7420000  18.2920000
  18.8680000  85.6140000  18.0770000  18.6620000  84.9410000  17.2380000
  18.3180000  85.2050000  18.9950000  18.4100000  86.9200000  17.5350000
  17.4100000  86.8060000  17.3210000  18.5430000  87.6530000  18.2910000
  19.0320000  87.5040000  16.2780000  20.5580000  87.8350000  16.4410000
  21.2380000  86.9850000  16.3720000  20.7890000  88.5790000  15.6870000
  20.6860000  88.1210000  17.4920000  18.8290000  86.6670000  15.0540000
  17.7150000  86.3020000  15.1120000  18.8170000  87.3460000  14.2420000
  19.5780000  85.8440000  14.9580000  18.3790000  88.8690000  16.0510000
  18.4580000  89.4450000  16.9800000  17.3530000  88.7290000  15.6990000
  18.9460000  89.3280000  15.2590000  19.6880000  87.2990000  20.1630000
  21.9900000  87.3170000  19.0830000  20.9280000  85.6970000  23.6290000
  21.2940000  86.7930000  24.3310000  20.6900000  87.8710000  24.2400000
  22.4760000  86.5980000  25.2120000  23.4120000  86.8190000  24.6210000
  22.5040000  85.5820000  25.5140000  22.3840000  87.4520000  26.4560000
  21.3640000  87.4120000  26.8440000  22.5620000  88.4760000  26.0930000
  23.3970000  86.9960000  27.6120000  24.4310000  87.1670000  27.3160000
  23.3140000  85.9180000  27.7540000  23.1340000  87.7380000  28.9340000
  23.1500000  88.7880000  28.8120000  23.9360000  87.4300000  29.5800000
  21.8170000  87.2060000  29.5160000  21.8020000  86.0880000  29.5590000
  21.0060000  87.5900000  28.9470000  21.6000000  87.8240000  30.9290000
  21.2350000  88.8330000  31.0200000  22.5350000  87.8640000  31.4830000
  20.6360000  86.8810000  31.7650000  20.6480000  87.3750000  32.8260000
  21.0440000  85.8540000  31.8160000  19.1930000  86.8940000  31.2950000
  19.0100000  87.2360000  30.2940000  18.1950000  86.7960000  32.1410000
  17.1990000  87.1270000  31.7830000  18.1750000  86.4150000  33.6290000
  18.2680000  87.2850000  34.2790000  18.8710000  85.5870000  33.8870000
  16.8620000  85.6170000  33.8020000  16.8510000  84.7570000  33.1170000
  16.1170000  86.2520000  33.4440000  16.6800000  85.1750000  35.2630000
  16.6740000  86.0790000  35.8490000  17.4420000  84.5050000  35.5940000
  15.3450000  84.3170000  35.5230000  14.5780000  84.7030000  34.8320000
  14.9050000  84.5520000  36.4690000  15.4050000  82.7760000  35.2630000
  15.7600000  82.6390000  34.2560000  14.4320000  82.3450000  35.3340000
  16.1390000  82.0040000  36.3590000  17.1950000  82.1990000  36.3210000
  15.9720000  80.9440000  36.2010000  15.7660000  82.1930000  37.8210000
  14.7280000  82.2500000  37.9760000  16.1050000  83.0880000  38.2560000
  16.2740000  81.0130000  38.6200000  16.2210000  81.2330000  39.6130000
  17.3770000  80.7600000  38.5410000  15.7090000  80.1000000  38.3260000
  93.1190000 106.1360000  30.9390000  93.3400000 107.1740000  31.1540000
  93.7450000 105.5170000  31.5980000  92.0210000 106.0220000  31.1350000
  93.4970000 105.9650000  29.4380000  94.5330000 106.3420000  29.3760000
  93.4430000 104.9080000  29.3000000  92.6560000 106.8200000  28.3920000
  92.9190000 106.4400000  27.3820000  91.5850000 106.5970000  28.5840000
  93.0100000 108.3150000  28.4520000  93.1410000 108.6020000  29.5300000
  93.9280000 108.4260000  27.9560000  91.9270000 109.2050000  27.7690000
  91.0290000 109.0020000  28.2160000  92.2230000 110.2580000  27.7370000
  91.6000000 108.9230000  26.2870000  92.5390000 109.1450000  25.7820000
  91.4450000 107.8190000  26.2970000  90.4620000 109.6880000  25.6220000
  90.6500000 110.7320000  25.8260000  90.3830000 109.6060000  24.5310000
  89.0560000 109.5540000  26.2040000  89.1450000 109.8290000  27.2630000
  88.4010000 110.2300000  25.6010000  88.4630000 108.1360000  26.2780000
  88.2280000 107.8860000  25.2310000  89.2760000 107.4200000  26.6610000
  87.0810000 108.0220000  27.0260000  87.2390000 108.2150000  28.0660000
  86.3580000 108.6180000  26.5980000  86.5340000 106.5320000  27.0350000
  87.3130000 105.7770000  27.4490000  85.7510000 106.4330000  27.7740000
  86.2070000 106.1210000  25.5680000  87.1670000 106.1230000  25.0340000
  85.8520000 105.0580000  25.6470000  85.0370000 107.0030000  24.9350000
  84.2300000 107.0020000  25.6170000  85.3520000 108.0140000  24.9350000
  84.6300000 106.5030000  23.5820000  84.2340000 105.5520000  23.8340000
  83.8550000 107.2060000  23.2210000  85.7020000 106.3940000  22.4270000
  85.9380000 107.4250000  22.1390000  86.5930000 105.9850000  22.7320000
  85.1310000 105.5860000  21.2900000  84.6040000 104.4940000  21.3800000
  85.1680000 106.2050000  20.0840000  84.4190000 105.7150000  18.9420000
  84.9530000 105.9940000  18.0990000  84.4150000 104.6090000  18.9430000
  82.9910000 106.3200000  18.9190000  82.4500000 106.0000000  18.0150000
  82.8870000 107.8810000  18.9230000  83.2460000 108.2200000  17.9660000
  81.8520000 108.1420000  18.9890000  83.5370000 108.3950000  20.0420000
  84.3210000 109.7740000  20.0270000  85.6230000 109.4500000  19.1610000
  86.8340000 109.2510000  19.8500000  87.3500000 110.2040000  19.8520000
  86.6930000 108.9870000  20.9390000  87.6240000 108.2170000  19.0180000
  87.2610000 107.2090000  19.3180000  87.3940000 108.2750000  17.9420000
  89.1320000 108.1180000  19.2500000  89.5830000 108.2730000  20.6090000
  89.0540000 109.1970000  20.8730000  89.1710000 107.4550000  21.1930000
  90.6950000 108.3610000  20.6780000  89.5190000 106.7700000  18.8590000
  90.5970000 106.8380000  18.7810000  89.1480000 106.1370000  19.6810000
  89.0440000 106.6840000  17.8390000  89.7890000 109.0980000  18.4280000
  89.4180000 110.0750000  18.8000000  89.3850000 108.9010000  17.4980000
  90.8520000 109.1060000  18.5600000  83.5020000 110.7840000  19.3000000
  84.6460000 110.1690000  21.4020000  82.2470000 105.8580000  20.0380000
  81.6180000 104.6630000  20.0100000  81.6880000 103.8300000  19.1200000
  80.8600000 104.4980000  21.3210000  79.7880000 104.4240000  21.1450000
  81.0360000 105.3750000  21.9010000  81.2450000 103.3790000  22.2830000
  82.2030000 103.4750000  22.6270000  81.0750000 102.4810000  21.7680000
  80.4180000 103.4190000  23.6040000  80.4320000 102.5410000  24.1150000
  79.3000000 103.6250000  23.4350000  81.0090000 104.6480000  24.4420000
  80.5090000 105.5800000  24.1560000  82.0820000 104.6740000  24.2720000
  80.9590000 104.4280000  25.9820000  80.0030000 104.5440000  26.3830000
  81.5050000 105.3150000  26.4310000  81.6840000 103.2040000  26.5870000
  81.0010000 102.3360000  26.2800000  81.6220000 103.2640000  27.6070000
  83.1700000 102.9950000  26.1640000  83.6470000 103.8690000  26.4590000
  83.3270000 102.9490000  25.0850000  83.7780000 101.7400000  26.6630000
  83.6250000 100.9270000  25.9290000  84.6300000 101.6960000  27.6810000
  85.1900000 100.7990000  27.8860000  84.7460000 102.7830000  28.7720000
  84.3080000 102.5060000  29.6930000  84.2740000 103.6730000  28.4680000
  86.2850000 103.0690000  29.0230000  86.6630000 103.4380000  28.0580000
  86.8280000 102.1840000  29.2880000  86.5760000 104.2080000  30.0200000
  85.9530000 103.9950000  30.8480000  86.1810000 105.0640000  29.4800000
  88.0240000 104.5280000  30.3560000  88.4950000 105.0430000  29.5550000
  88.5380000 103.5710000  30.6060000  88.0670000 105.4940000  31.5670000
  87.5870000 104.9980000  32.4130000  87.4870000 106.4290000  31.3380000
  89.5540000 105.8960000  31.8250000  89.9030000 106.3360000  30.9730000
  90.0680000 104.9810000  32.1030000  89.7780000 106.8820000  32.9480000
  89.6740000 107.9230000  32.5120000  90.8200000 106.7930000  33.2500000
  88.8990000 106.6590000  34.1930000  87.8910000 106.4830000  33.9740000
  89.0240000 107.5280000  34.9410000  89.2470000 105.8000000  34.6570000
  15.6500000  65.9800000  24.2730000  14.6120000  66.0970000  24.3730000
  15.6860000  66.1400000  23.2550000  16.1330000  66.8270000  24.7930000
  16.1170000  64.5860000  24.7190000  15.5910000  63.8460000  24.1090000
  17.2180000  64.4480000  24.6160000  15.7850000  64.3680000  26.2480000
  16.2670000  65.1850000  26.8720000  14.7520000  64.5540000  26.4550000
  16.2480000  63.0330000  26.9220000  16.9160000  63.2240000  27.7640000
  15.2990000  62.6260000  27.4560000  16.7170000  61.9580000  25.9200000
  16.0220000  61.9260000  25.0710000  17.6650000  62.3220000  25.4580000
  16.8730000  60.5540000  26.4490000  16.6400000  60.6290000  27.4860000
  16.1070000  59.9730000  25.9180000  18.2360000  59.8500000  26.2250000
  18.8840000  59.9880000  27.0880000  18.1240000  58.8120000  26.3460000
  19.0160000  60.1780000  25.0020000  19.3630000  61.1900000  25.2550000
  19.8860000  59.5290000  24.9150000  18.3780000  60.3180000  23.5700000
  17.7220000  59.4940000  23.4290000  17.7460000  61.2320000  23.5940000
  19.5010000  60.5370000  22.4770000  20.2780000  59.7610000  22.6210000
  19.0960000  60.2950000  21.4650000  20.2780000  61.8380000  22.5500000
  20.9470000  61.7420000  23.3830000  20.8770000  61.9030000  21.6850000
  19.4990000  63.1000000  22.5840000  18.8190000  63.1970000  21.7640000
  18.8460000  63.1350000  23.4700000  20.2770000  64.3790000  22.6710000
  20.9320000  64.2080000  23.5510000  20.9310000  64.4650000  21.8230000
  19.4300000  65.6140000  23.0080000  18.9710000  65.3220000  23.9800000
  20.0080000  66.4230000  23.2820000  18.3230000  66.0150000  22.0400000
  17.5610000  65.2580000  22.0320000  17.8350000  66.9370000  22.3490000
  18.8610000  66.1660000  20.6460000  18.2200000  65.8830000  19.6780000
  20.0820000  66.6160000  20.4560000  20.4920000  66.7990000  19.0730000
  20.4300000  65.8220000  18.4950000  19.8690000  67.5880000  18.6160000
  21.9770000  67.2020000  18.9430000  22.1460000  68.2470000  19.2870000
  22.5570000  67.2570000  17.5610000  21.8190000  67.7170000  16.8840000
  23.5260000  67.7360000  17.5300000  22.9360000  65.9610000  16.9950000
  21.8980000  64.9340000  16.2360000  21.8570000  63.7660000  17.3460000
  22.9740000  62.8690000  17.5330000  23.8800000  63.5150000  17.3900000
  22.8470000  62.4620000  18.5320000  22.9260000  61.7200000  16.4720000
  22.3230000  60.8900000  16.8190000  22.5080000  62.0100000  15.5510000
  24.2990000  61.1910000  16.1620000  25.0430000  60.7300000  17.3110000
  25.1730000  61.4820000  18.1120000  24.5260000  59.8700000  17.7070000
  26.0400000  60.5440000  16.8990000  24.0720000  60.1260000  15.1090000
  23.4200000  60.5740000  14.3390000  25.0160000  59.6900000  14.7370000
  23.4200000  59.4040000  15.6420000  25.0540000  62.3230000  15.5180000
  25.4790000  63.0540000  16.2960000  24.3760000  62.8330000  14.9100000
  25.9700000  61.9810000  15.0750000  20.5780000  65.5690000  16.1340000
  22.5340000  64.2880000  15.0760000  22.8310000  66.2450000  19.6770000
  23.7160000  66.6250000  20.5930000  23.9100000  67.8140000  20.7780000
  24.5940000  65.4970000  21.2910000  25.5530000  65.4120000  20.8980000
  24.0520000  64.5290000  21.2880000  24.7360000  65.8600000  22.7840000
  25.1340000  66.8740000  22.8810000  25.5650000  65.2570000  23.1960000
  23.4990000  65.6560000  23.6620000  23.3420000  64.5760000  23.9100000
  22.7040000  65.9740000  22.9910000  23.4710000  66.4100000  25.0700000
  23.7240000  67.4030000  24.8720000  24.2800000  65.9040000  25.6820000
  22.1120000  66.3610000  25.8360000  21.3180000  66.6850000  25.2100000
  22.2550000  67.0040000  26.6630000  21.9560000  65.0280000  26.4850000
  22.5920000  65.0220000  27.3850000  22.4460000  64.3360000  25.8530000
  20.5180000  64.5950000  26.6570000  20.4910000  63.6390000  27.1880000
  19.9350000  64.4160000  25.7120000  19.8580000  65.6200000  27.4620000
  19.2920000  66.3170000  26.7730000  19.8570000  65.6830000  28.7960000
  19.2950000  66.5260000  29.1520000  20.5000000  64.7700000  29.7860000
  21.0880000  64.0480000  29.2500000  19.6810000  64.0750000  30.0430000
  21.0830000  65.4490000  31.0180000  20.2760000  65.8440000  31.6400000
  21.6450000  66.3290000  30.7620000  21.9180000  64.4930000  31.8980000
  22.7750000  64.0890000  31.2970000  21.1920000  63.7190000  32.1370000
  22.4510000  65.1850000  33.2220000  23.1660000  65.9420000  32.9610000
  22.9860000  64.4370000  33.8150000  21.3600000  65.7690000  34.1510000
  20.9740000  66.7400000  33.7340000  21.7880000  66.1530000  35.0900000
  20.2180000  64.8690000  34.5080000  19.6250000  64.7450000  33.6610000
  19.6250000  65.3870000  35.2700000  20.4730000  63.4700000  35.1410000
  21.0380000  62.8300000  34.5280000  19.4340000  63.0830000  35.2890000
  21.0240000  63.5140000  36.5670000  21.4240000  62.5120000  36.8130000
  20.2570000  63.7510000  37.2880000  21.8290000  64.2810000  36.6300000
 107.7430000  29.0680000  24.4760000 107.6550000  29.4030000  23.4170000
 108.5330000  29.6350000  24.8830000 106.8480000  29.2910000  25.0920000
 107.9320000  27.6160000  24.4070000 107.8850000  27.1740000  25.4370000
 107.1480000  27.2390000  23.8420000 109.2560000  27.2560000  23.7050000
 109.2940000  27.7140000  22.6980000 110.0170000  27.6490000  24.3570000
 109.4340000  25.7030000  23.5640000 110.3560000  25.4740000  23.0060000
 109.5100000  25.2320000  24.5820000 108.3650000  25.0640000  22.6260000
 107.3740000  25.2370000  22.9760000 108.4830000  25.5410000  21.6390000
 108.5970000  23.5990000  22.4040000 109.5140000  23.4400000  21.7890000
 108.7440000  23.1530000  23.4330000 107.5020000  22.8470000  21.7720000
 107.0880000  23.5330000  21.0590000 107.7380000  21.9000000  21.2340000
 106.2850000  22.4090000  22.6750000 105.8280000  21.5540000  22.1730000
 106.6290000  22.0330000  23.6430000 105.2130000  23.4960000  22.8580000
 105.4320000  24.2820000  22.1580000 104.2380000  23.1650000  22.6970000
 105.1870000  24.0620000  24.2830000 104.7970000  23.2620000  24.9250000
 106.1970000  24.3110000  24.6980000 104.4490000  25.4230000  24.3770000
 104.5010000  25.7420000  25.4240000 105.0120000  26.1270000  23.7340000
 102.9900000  25.4330000  23.8450000 102.8000000  24.9260000  22.8990000
 102.4610000  24.7840000  24.5660000 102.2910000  26.7550000  23.9070000
 102.8080000  27.3280000  23.1750000 101.2650000  26.6830000  23.5840000
 102.2200000  27.4510000  25.2450000 101.7070000  26.8250000  25.9500000
 103.2430000  27.3760000  25.6670000 101.6310000  28.9390000  25.2230000
 100.6070000  29.0330000  25.0850000 101.8410000  29.2730000  26.2490000
 102.2960000  29.7370000  24.1550000 103.5590000  29.9120000  24.0970000
 101.4310000  30.3120000  23.3800000 101.8760000  31.0430000  22.2210000
 101.1130000  31.7450000  21.8370000 102.7950000  31.6280000  22.4960000
 102.1810000  30.1270000  20.9960000 101.9920000  30.7470000  20.1560000
 101.2700000  28.9300000  20.6950000 101.7080000  27.9560000  20.8630000
 100.4170000  28.9810000  21.3200000 100.6120000  29.0370000  19.3740000
 101.2490000  28.2980000  18.0270000 100.4510000  26.9360000  17.7850000
 100.2070000  26.0120000  18.8150000  99.9560000  26.4400000  19.7830000
  99.2860000  25.4540000  18.6020000 101.4230000  25.1230000  18.8310000
 101.5400000  24.8650000  17.7200000 102.2150000  25.6510000  19.3350000
 101.1950000  23.6780000  19.3910000 100.3940000  22.8370000  18.4470000
 100.9170000  22.6540000  17.5510000 100.0790000  21.9020000  18.8910000
  99.4450000  23.4110000  18.2280000 102.4740000  23.0380000  19.6840000
 102.2210000  22.2330000  20.3330000 102.9990000  22.6490000  18.8060000
 103.1760000  23.7230000  20.1640000 100.4850000  23.8440000  20.6620000
 100.2860000  22.8280000  21.0200000  99.5600000  24.2880000  20.4620000
 100.9240000  24.3830000  21.4780000 100.9420000  29.1590000  16.9240000
 102.7030000  27.8860000  18.2910000 103.4740000  29.5170000  21.1320000
 104.5660000  30.1700000  20.6370000 104.5340000  31.2460000  20.1190000
 105.9070000  29.5270000  20.8860000 105.7440000  28.6720000  21.5010000
 106.6500000  30.1890000  21.3200000 106.5370000  28.8730000  19.5960000
 106.6660000  29.6530000  18.8590000 105.7360000  28.2610000  19.1790000
 107.7690000  28.0830000  19.9700000 107.5810000  26.9970000  19.7530000
 108.0810000  28.3330000  20.9780000 108.8910000  28.4500000  19.0340000
 109.3250000  29.4250000  19.3530000 108.3830000  28.5450000  18.0350000
 109.9890000  27.3900000  18.8010000 110.7000000  27.6850000  18.0170000
 109.4950000  26.4580000  18.4600000 110.8250000  27.0520000  20.1010000
 110.2010000  26.4660000  20.6510000 111.0480000  27.9620000  20.6060000
 112.1260000  26.3320000  19.8410000 112.7190000  26.8130000  19.0640000
 111.9050000  25.2820000  19.5800000 112.9530000  26.4650000  21.1320000
 113.1540000  27.4640000  21.4350000 113.5730000  25.4640000  21.8030000
 114.1110000  25.7740000  22.6770000 113.2620000  23.9300000  21.5840000
 114.0370000  23.5670000  20.9780000 112.4050000  23.8050000  20.9340000
 113.2030000  23.0880000  22.8630000 114.1160000  23.2020000  23.4550000
 113.0060000  21.9850000  22.7260000 112.3120000  23.4520000  24.0380000
 111.2410000  23.3460000  23.7330000 112.3480000  24.4980000  24.3120000
 112.3330000  22.7480000  25.4070000 111.7080000  23.2310000  26.1420000
 113.3690000  22.7450000  25.7850000 111.7350000  21.3060000  25.4220000
 111.7670000  20.8720000  26.4460000 112.3390000  20.6730000  24.7340000
 110.3220000  21.2270000  24.8880000 110.4000000  21.3380000  23.8090000
 109.7060000  22.0780000  25.2440000 109.5530000  19.9150000  25.1430000
 110.0590000  19.0720000  24.7070000 108.5860000  20.0270000  24.6190000
 109.3480000  19.6080000  26.6140000 108.9670000  20.5980000  27.0900000
 110.2950000  19.4480000  27.0350000 108.8270000  18.7580000  26.8560000
  98.6710000 146.6050000  35.5080000  99.7810000 146.6250000  35.5440000
  98.4010000 145.9140000  36.2990000  98.2070000 147.5440000  35.7090000
  98.0640000 146.0100000  34.3090000  97.0190000 145.8590000  34.5410000
  98.1540000 146.6790000  33.4110000  98.7070000 144.5920000  34.0520000
  99.7550000 144.6710000  34.1770000  98.3920000 143.9580000  34.8520000
  98.4760000 143.8770000  32.6710000  97.4890000 143.5140000  32.5210000
  98.7020000 144.6830000  31.9850000  99.3410000 142.6810000  32.5240000
  99.2910000 142.3500000  31.4520000 100.3790000 143.0340000  32.6230000
  99.0030000 141.5130000  33.4910000  98.8260000 141.8280000  34.5200000
  98.0380000 141.1480000  33.1480000  99.9790000 140.3340000  33.4700000
 100.9590000 140.7360000  33.7690000  99.6670000 139.6150000  34.3020000
 100.0730000 139.6510000  32.1270000 100.5050000 140.2870000  31.3460000
 100.7620000 138.8790000  32.1790000  98.7440000 138.9400000  31.6820000
  98.2330000 138.5570000  32.5430000  98.1000000 139.7600000  31.3320000
  98.7950000 137.8560000  30.6070000  99.3220000 136.9940000  31.0720000
  97.8680000 137.4430000  30.5030000  99.5600000 138.0510000  29.2690000
 100.5830000 138.4400000  29.5230000  99.6700000 137.0380000  28.8510000
  98.9580000 139.0680000  28.3620000  99.0600000 140.0280000  28.8530000
  99.4620000 139.0050000  27.4080000  97.5020000 138.7360000  28.0520000
  97.2810000 137.6920000  27.7190000  96.7260000 139.0560000  28.7910000
  97.3460000 139.5530000  26.8110000  97.7210000 140.5560000  27.1280000
  98.0250000 139.1340000  25.9820000  95.9310000 139.7410000  26.2800000
  95.1610000 139.3620000  26.9430000  95.8360000 140.7740000  26.2230000
  95.6130000 139.1870000  24.9210000  95.6560000 139.9500000  23.9390000
  95.4020000 137.8220000  24.9170000  95.3640000 137.1030000  23.6280000
  95.0530000 136.0840000  23.8660000  94.6820000 137.6270000  22.9000000
  96.8530000 137.0020000  23.0020000  97.1710000 138.0830000  22.7090000
  96.8400000 135.9770000  21.8490000  96.2510000 136.4130000  21.0110000
  97.8530000 135.7720000  21.5060000  96.2000000 134.7440000  22.1500000
  96.4100000 133.4730000  21.2310000  97.7930000 132.8260000  21.6650000
  99.0050000 133.5580000  21.4100000  98.7780000 134.1540000  20.5230000
  99.2540000 134.1940000  22.2330000 100.2410000 132.5570000  21.0860000
 101.0070000 133.1690000  20.7750000 100.4900000 132.0150000  21.9840000
 100.0350000 131.4890000  20.0430000 101.3690000 130.7910000  19.9120000
 102.0420000 131.5330000  19.3430000 101.7160000 130.6720000  20.8660000
 101.2400000 129.8810000  19.2740000  98.9430000 130.5300000  20.3980000
  99.1910000 130.0440000  21.3240000  98.0770000 131.1640000  20.5020000
  98.8560000 129.8030000  19.6510000  99.5700000 132.1260000  18.7430000
  99.7230000 131.4050000  17.8880000 100.1790000 133.0590000  18.6080000
  98.5330000 132.2570000  18.9030000  95.2820000 132.5220000  21.4750000
  96.5920000 133.9480000  19.8240000  97.7500000 136.5310000  24.1060000
  99.0350000 136.5400000  23.9790000  99.7150000 136.9960000  23.0740000
  99.6260000 135.9170000  25.2280000  98.9540000 136.1110000  26.0560000
 100.6250000 136.3340000  25.4400000  99.8080000 134.4490000  25.0670000
 100.3570000 134.0500000  25.8470000 100.3720000 134.3080000  24.1610000
  98.5600000 133.5880000  24.9840000  98.0610000 133.8320000  24.0660000
  97.9310000 133.9620000  25.8020000  98.8970000 132.0320000  25.0930000
  99.4170000 131.8070000  24.1460000  97.9090000 131.5450000  24.9730000
  99.6940000 131.4830000  26.2120000 100.7900000 131.6440000  26.1690000
  99.5410000 130.3840000  26.2600000  99.2430000 131.9660000  27.5970000
  98.2010000 131.7490000  27.7440000  99.3660000 133.0100000  27.5880000
 100.0680000 131.4570000  28.7690000  99.8020000 132.1590000  29.5800000
 101.0750000 131.6260000  28.3880000  99.7290000 130.0320000  29.1840000
  99.2020000 129.4640000  28.4790000  99.9500000 129.5270000  30.3340000
  99.6690000 128.4740000  30.4570000 100.7690000 130.2190000  31.4320000
 100.6290000 131.2760000  31.4320000 101.8530000 130.0390000  31.3770000
 100.3340000 129.6440000  32.7440000 100.5540000 128.5400000  32.9110000
  99.2880000 129.7370000  32.8100000 100.9080000 130.3650000  33.9760000
 100.6350000 131.4680000  34.0100000 102.0080000 130.3250000  33.9900000
 100.4320000 129.8330000  35.3370000 100.8750000 128.8800000  35.6210000
  99.3740000 129.6990000  35.4080000 100.8240000 130.8390000  36.4470000
 100.0630000 131.6750000  36.3830000 101.8110000 131.1370000  36.1870000
 100.8610000 130.0700000  37.8350000 101.9150000 129.8610000  37.9820000
 100.2530000 129.1370000  37.7690000 100.4660000 130.9460000  39.0100000
 100.3510000 130.1740000  39.7820000  99.5140000 131.3660000  38.8170000
 101.5370000 131.9890000  39.3670000 101.1940000 132.6970000  40.1340000
 101.7570000 132.4730000  38.3960000 102.4560000 131.5350000  39.7230000
  56.2490000  -0.3070000  34.8790000  57.0410000   0.2600000  35.2960000
  56.1470000  -0.0670000  33.8470000  56.4920000  -1.3470000  34.8980000
  54.9670000  -0.0880000  35.6970000  54.8710000  -0.7490000  36.4370000
  54.7420000   0.8620000  36.0430000  53.7370000  -0.3590000  34.8290000
  53.6950000  -1.4060000  34.5710000  52.9160000  -0.1440000  35.4930000
  53.5740000   0.6620000  33.7490000  53.5200000   1.6210000  34.2370000
  54.4370000   0.8080000  33.0950000  52.3130000   0.4040000  32.8860000
  52.1480000  -0.6680000  32.7650000  51.4200000   0.9180000  33.3050000
  52.4020000   0.9510000  31.4370000  53.1170000   0.3090000  30.9340000
  51.4650000   0.7130000  30.9300000  52.7010000   2.3820000  31.4560000
  51.9620000   2.8350000  32.0590000  53.6900000   2.5340000  31.8820000
  52.7920000   2.9760000  29.9980000  53.5030000   2.4040000  29.4570000
  51.8260000   2.8880000  29.4800000  53.3070000   4.4140000  30.0140000
  52.6890000   5.1410000  30.5800000  54.2210000   4.3940000  30.6850000
  53.6420000   4.9420000  28.6020000  52.7870000   4.8150000  27.9600000
  53.8080000   6.0380000  28.7560000  54.8580000   4.1860000  27.9010000
  55.6970000   4.1340000  28.5250000  54.5380000   3.2210000  27.6530000
  55.4210000   4.8250000  26.5300000  55.6270000   5.8020000  26.7530000
  56.3090000   4.2900000  26.2780000  54.3440000   4.9020000  25.4600000
  53.9150000   3.8620000  25.2180000  53.5210000   5.5230000  25.7460000
  54.8680000   5.5410000  24.1460000  55.7180000   4.9220000  23.8230000
  54.0080000   5.3880000  23.4400000  55.2240000   7.0100000  24.3160000
  54.3010000   7.4100000  24.6800000  55.9820000   7.2130000  25.0200000
  55.6530000   7.6650000  22.9920000  56.3500000   7.0730000  22.1740000
  55.2150000   8.9480000  22.8040000  55.9090000   9.6940000  21.7570000
  56.8700000  10.0370000  22.1960000  56.0760000   9.0530000  20.8620000
  55.0660000  10.9490000  21.5020000  54.0640000  10.5790000  21.0880000
  55.8200000  11.9620000  20.6820000  55.1600000  12.7320000  20.3540000
  56.6210000  12.4510000  21.3020000  56.4640000  11.4840000  19.5190000
  55.7290000  11.1940000  18.1340000  55.6150000   9.6100000  18.1940000
  56.8240000   8.8330000  18.0480000  57.7530000   9.4220000  17.8970000
  56.9140000   8.2990000  19.0290000  56.6300000   7.7970000  16.8800000
  57.3650000   6.9850000  17.0180000  55.7220000   7.2130000  17.0160000
  56.5740000   8.3650000  15.4580000  57.7230000   9.3160000  15.2250000
  57.5850000  10.1470000  15.8010000  58.6300000   8.8510000  15.4810000
  57.7720000   9.5700000  14.1510000  56.6770000   7.3250000  14.3740000
  57.0120000   7.7920000  13.4460000  57.3030000   6.5380000  14.6830000
  55.6450000   6.9830000  14.2950000  55.3700000   9.1750000  15.0870000
  55.3380000   9.9940000  15.8220000  54.4350000   8.4730000  15.1940000
  55.4780000   9.6310000  14.0390000  54.3620000  11.7830000  18.2050000
  56.5860000  11.5600000  17.0420000  54.7530000  11.5690000  22.7280000
  53.7290000  12.4600000  22.8680000  53.0070000  12.8250000  21.9630000
  53.7070000  12.8310000  24.3740000  52.9630000  13.6360000  24.5040000
  54.6840000  13.2060000  24.7210000  53.3620000  11.6260000  25.2200000
  54.0830000  10.8360000  24.8940000  52.4240000  11.2270000  24.9620000
  53.2480000  11.9990000  26.7350000  52.3940000  12.6970000  26.7130000
  54.1650000  12.5110000  26.8850000  52.9200000  10.8450000  27.6960000
  52.4270000  10.0850000  27.1030000  52.1550000  11.2960000  28.3520000
  54.1380000  10.3610000  28.3800000  54.5810000  11.1870000  28.8690000
  54.7980000  10.0100000  27.6750000  53.6900000   9.2720000  29.3660000
  53.1500000   8.4070000  28.8960000  53.1620000   9.6260000  30.2210000
  54.9840000   8.7110000  30.0190000  55.6800000   9.5430000  30.2740000
  55.5220000   8.1470000  29.1770000  54.7130000   7.6590000  31.0570000
  54.3250000   6.6840000  30.7810000  54.8140000   7.8940000  32.3400000
  54.4600000   7.2160000  33.1360000  55.3600000   9.1250000  32.9960000
  54.5520000   9.7440000  33.4540000  55.8520000   9.8270000  32.3320000
  56.4570000   8.7480000  34.0490000  57.3600000   8.6210000  33.4720000
  56.1650000   7.8290000  34.5460000  56.7410000   9.8760000  35.0220000
  55.8590000  10.2890000  35.4350000  57.2390000  10.6930000  34.5280000
  57.6470000   9.3310000  36.1930000  58.5710000   8.8670000  35.9100000
  57.0850000   8.4810000  36.6780000  57.9280000  10.1910000  37.4580000
  58.4860000  11.0890000  37.2050000  58.4760000   9.5880000  38.1890000
  56.6340000  10.4310000  38.3160000  56.1660000   9.4900000  38.5070000
  55.9260000  10.9430000  37.6790000  56.8560000  11.1670000  39.6360000
  57.4970000  10.5550000  40.2380000  55.8930000  11.1640000  40.0950000
  57.3250000  12.6080000  39.4840000  56.5930000  13.2220000  38.9060000
  58.2020000  12.7380000  38.9760000  57.4930000  13.0450000  40.4700000
  11.7670000  34.0140000  34.5510000  11.6730000  34.4000000  35.5920000
  12.3890000  33.1270000  34.6580000  10.7310000  33.7790000  34.1540000
  12.4810000  35.1340000  33.6150000  11.9850000  36.0770000  33.9590000
  13.5620000  35.1290000  33.8700000  12.1760000  34.9640000  32.1150000
  11.1220000  35.1860000  31.9240000  12.7800000  35.7730000  31.6890000
  12.7130000  33.5760000  31.5520000  12.1530000  32.7760000  31.8450000
  12.5660000  33.6850000  30.5020000  14.2250000  33.1810000  31.9030000
  14.7760000  34.0750000  31.7520000  14.2250000  32.9230000  32.9330000
  14.7360000  32.0360000  31.0450000  14.8140000  32.3780000  30.0450000
  15.7610000  31.8720000  31.2250000  13.7740000  30.7410000  31.0710000
  13.8250000  30.2830000  32.0770000  12.7160000  30.9040000  30.8170000
  14.1730000  29.6510000  30.1030000  15.1940000  29.4990000  30.3640000
  13.7050000  28.6330000  30.2730000  14.0000000  29.9750000  28.6500000
  13.0130000  29.6760000  28.2610000  14.0120000  31.0850000  28.5320000
  15.0140000  29.3190000  27.7640000  14.9500000  29.5800000  26.7470000
  15.9490000  29.6270000  28.1480000  14.9550000  27.7800000  27.9100000
  15.1420000  27.5610000  28.9130000  13.9540000  27.3710000  27.7050000
  16.0250000  27.1030000  26.9140000  15.7490000  27.3300000  25.8330000
  17.0550000  27.4420000  27.1070000  15.9850000  25.5630000  27.2030000
  15.8160000  25.5220000  28.3030000  15.1440000  25.0330000  26.7110000
  17.3540000  24.8660000  26.9080000  18.0370000  25.5140000  27.5090000
  17.3130000  23.8120000  27.2230000  17.8730000  24.8250000  25.4570000
  18.2470000  25.8460000  25.1980000  18.6800000  24.1440000  25.4490000
  16.7940000  24.2550000  24.5870000  16.3240000  23.1880000  24.8750000
  16.5980000  25.0400000  23.5530000  15.4980000  24.8300000  22.7500000
  15.8370000  23.9590000  22.1410000  14.5630000  24.5730000  23.3620000
  15.2930000  26.0330000  21.8030000  14.4020000  25.8310000  21.2420000
  16.4070000  26.4590000  20.8140000  16.2260000  27.5330000  20.5570000
  17.3830000  26.3390000  21.2410000  16.3670000  25.7320000  19.6360000
  16.9510000  26.3240000  18.2480000  15.7700000  27.3390000  17.7540000
  14.4300000  26.7940000  17.5940000  13.9940000  27.3130000  16.7360000
  14.4630000  25.6740000  17.4410000  13.5980000  27.2400000  18.7610000
  12.7000000  26.6060000  18.8300000  14.1060000  26.9300000  19.6290000
  13.2190000  28.6750000  19.0460000  14.4480000  29.4580000  19.5720000
  15.3500000  29.2820000  18.9820000  14.3460000  30.5720000  19.4820000
  14.5310000  29.0250000  20.6180000  12.5880000  29.3870000  17.7900000
  11.7000000  28.8040000  17.5100000  12.2230000  30.3620000  18.1940000
  13.3030000  29.5000000  16.9870000  12.1960000  28.8260000  20.1580000
  11.3580000  28.2590000  19.7990000  12.0270000  29.8490000  20.2250000
  12.7170000  28.4190000  21.0400000  18.1190000  27.1090000  18.6300000
  17.1320000  25.1520000  17.2990000  14.9510000  27.3090000  22.5200000
  13.8230000  27.3900000  23.2350000  12.8890000  26.5700000  23.1760000
  13.7170000  28.6070000  24.1720000  14.7230000  28.8220000  24.4670000
  13.1330000  28.2860000  25.0370000  13.0240000  29.8180000  23.4460000
  12.0570000  29.5840000  23.0770000  13.5970000  30.1010000  22.5840000
  12.8040000  31.0450000  24.3240000  12.6030000  31.8930000  23.6370000
  13.7350000  31.1540000  24.9130000  11.5010000  30.8770000  25.2410000
  11.6310000  30.0270000  25.8830000  10.6660000  30.5980000  24.5670000
  10.9400000  32.0840000  25.9040000  10.9830000  32.9120000  25.1950000
  11.7040000  32.3340000  26.6200000   9.6420000  31.8360000  26.5760000
   8.9530000  31.6800000  25.7570000   9.8270000  30.9080000  27.2750000
   9.1210000  33.0670000  27.3070000   9.0100000  33.8850000  26.6120000
   9.8750000  33.3530000  28.0490000   7.8930000  32.9200000  28.0720000
   6.9840000  33.2450000  27.5310000   7.8380000  32.8540000  29.4360000
   6.8980000  32.8850000  29.8790000   8.9310000  32.4310000  30.2350000
   9.3220000  33.4160000  30.6310000   9.6480000  31.9980000  29.6160000
   8.5340000  31.4940000  31.4120000   9.4210000  31.0590000  31.8610000
   7.8320000  30.7130000  31.0640000   7.7010000  32.3510000  32.4580000
   6.8690000  32.8900000  31.9700000   8.3330000  33.1830000  32.8220000
   7.2130000  31.6250000  33.7130000   8.0650000  31.2410000  34.2130000
   6.3950000  30.9020000  33.4650000   6.6840000  32.6880000  34.7020000
   5.9520000  33.2850000  34.2230000   7.4690000  33.3780000  34.9510000
   6.0630000  32.0540000  35.9750000   5.5050000  31.1680000  35.6050000
   5.4490000  32.7810000  36.4070000   7.0910000  31.5320000  37.0150000
   7.6340000  32.3790000  37.3520000   7.8240000  30.9980000  36.3840000
   6.2710000  30.8980000  38.1110000   5.8210000  31.6250000  38.8700000
   6.9310000  30.4060000  38.8120000   5.4560000  30.2650000  37.7360000
  77.8760000  38.1250000  34.5340000  76.9560000  38.6380000  34.8030000
  78.7300000  38.6080000  34.9860000  77.7660000  37.0680000  34.9010000
  78.0090000  38.1850000  32.9610000  77.9320000  39.1580000  32.5220000
  79.0140000  37.8070000  32.6410000  77.0210000  37.2610000  32.2270000
  77.1980000  36.1790000  32.5230000  76.0210000  37.6600000  32.3610000
  77.1170000  37.2020000  30.6260000  76.9230000  38.2020000  30.1480000
  78.1160000  36.8700000  30.3830000  76.1210000  36.1570000  30.0730000
  76.5600000  35.1660000  30.0940000  75.2450000  36.0820000  30.6770000
  75.7790000  36.4470000  28.6230000  75.2880000  35.5700000  28.3170000
  75.1360000  37.3110000  28.5280000  76.9390000  36.6530000  27.5890000
  77.3760000  37.6760000  27.8420000  77.7360000  35.9620000  27.7380000
  76.5830000  36.6860000  26.1080000  75.8110000  37.4670000  25.9010000
  77.5720000  36.7230000  25.5980000  75.8210000  35.4000000  25.7570000
  76.1900000  34.4780000  26.2400000  74.7960000  35.4160000  26.1940000
  75.7750000  35.1780000  24.2120000  76.8090000  35.0580000  23.8550000
  75.3180000  34.1960000  24.0110000  75.0700000  36.2860000  23.4120000
  75.6530000  37.1320000  23.3280000  74.8830000  35.9850000  22.3930000
  73.6530000  36.5630000  23.8760000  73.0700000  35.6380000  24.0450000
  73.8310000  37.1000000  24.7900000  72.9650000  37.4100000  22.7650000
  73.6400000  38.3550000  22.6800000  72.8830000  36.8720000  21.7210000
  71.6460000  37.9460000  23.3420000  71.9600000  38.4140000  24.2870000
  71.2830000  38.6750000  22.6750000  70.5510000  36.8780000  23.3890000
  70.8190000  35.9910000  23.9350000  69.7580000  37.3980000  23.8640000
  69.9030000  36.5960000  22.0650000  68.8460000  37.0570000  21.6880000
  70.5930000  35.6310000  21.4440000  70.0310000  34.8710000  20.3420000
  70.7180000  34.0550000  20.2480000  69.0910000  34.4160000  20.7330000
  69.9470000  35.7120000  19.0110000  69.2500000  36.4260000  19.3780000
  69.4090000  34.8860000  17.7840000  68.5240000  34.3450000  18.1680000
  69.0410000  35.4800000  17.0000000  70.4250000  33.9970000  17.2030000
  70.7950000  32.5030000  17.8610000  72.1870000  32.7760000  18.5840000
  73.4270000  32.7750000  17.8340000  73.8980000  31.8000000  17.8050000
  73.2080000  32.9730000  16.8070000  74.3690000  33.9300000  18.3640000
  75.3070000  33.8570000  17.8930000  73.9370000  34.8720000  18.0270000
  74.6450000  34.2110000  19.8010000  73.3110000  34.4090000  20.5660000
  73.6200000  34.8040000  21.5390000  72.7490000  35.2120000  20.0410000
  72.7820000  33.4520000  20.6300000  75.2030000  33.1670000  20.5770000
  75.1890000  33.4810000  21.6580000  74.7400000  32.2250000  20.3180000
  76.2670000  33.0060000  20.3150000  75.4930000  35.4270000  19.8400000
  76.4260000  35.2880000  19.2800000  75.9000000  35.6350000  20.8460000
  74.9160000  36.2470000  19.4530000  69.8030000  32.1770000  18.9250000
  71.0730000  31.5350000  16.7330000  71.2410000  36.3190000  18.7200000
  71.1590000  37.4070000  17.8990000  70.1640000  37.9290000  17.4740000
  72.5250000  37.9050000  17.5910000  72.8910000  37.5140000  16.6080000
  73.2500000  37.4850000  18.2990000  72.6570000  39.4670000  17.6090000
  72.0360000  39.8180000  16.7560000  73.7060000  39.7400000  17.4620000
  72.0560000  40.2050000  18.8240000  72.7930000  40.2130000  19.6530000
  71.1380000  39.7250000  19.1860000  71.7460000  41.6770000  18.3850000
  71.3370000  41.6490000  17.4090000  72.7520000  42.1060000  18.2010000
  71.0220000  42.6160000  19.3960000  70.1270000  42.0890000  19.5490000
  70.7800000  43.5630000  18.8370000  71.7870000  42.8410000  20.6730000
  72.5820000  43.5100000  20.5630000  72.1550000  41.9860000  21.1130000
  70.8530000  43.4300000  21.7950000  69.9930000  42.8180000  22.0450000
  70.4940000  44.3790000  21.3630000  71.5070000  43.7740000  23.1710000
  72.1440000  44.6450000  23.2060000  71.5060000  42.9140000  24.2300000
  72.0630000  43.1620000  25.1370000  70.6060000  41.7540000  24.5320000
  71.1460000  40.7970000  24.4400000  69.9510000  41.6560000  23.6890000
  69.8490000  41.8620000  25.9030000  70.3970000  42.5950000  26.4730000
  69.7580000  40.8830000  26.4060000  68.4040000  42.4060000  25.6880000
  67.8630000  41.5900000  25.2030000  68.3370000  43.2040000  24.9370000
  67.6070000  42.7830000  26.9970000  67.6030000  41.9610000  27.6840000
  66.5950000  42.7370000  26.7360000  67.9630000  44.0830000  27.7230000
  68.9630000  44.0050000  28.1300000  67.2790000  44.1440000  28.5730000
  67.8560000  45.3490000  26.8550000  68.4260000  45.2650000  25.8800000
  68.2080000  46.1720000  27.3480000  66.3970000  45.6360000  26.4990000
  65.6720000  45.4940000  27.3170000  66.0120000  45.0440000  25.6470000
  66.3900000  47.1560000  26.1130000  65.3890000  47.4370000  25.7280000
  67.0640000  47.3880000  25.2750000  66.5020000  47.8270000  26.9760000
 107.0180000  74.7830000  32.9730000 107.7970000  75.4900000  33.1860000
 106.3290000  74.9190000  33.8190000 106.5160000  75.0310000  32.0350000
 107.5200000  73.3310000  32.9680000 107.8440000  73.0590000  33.9860000
 106.7230000  72.6050000  32.6350000 108.7240000  73.2610000  32.0110000
 109.5170000  73.9150000  32.4400000 109.0310000  72.2520000  32.0020000
 108.3620000  73.6990000  30.5370000 107.3660000  73.2680000  30.2060000
 108.2100000  74.7600000  30.6160000 109.3370000  73.3790000  29.4730000
 110.2650000  73.8910000  29.7550000 109.5210000  72.2650000  29.4660000
 108.9650000  74.0030000  28.0950000 107.9300000  73.7310000  27.8780000
 108.8220000  75.1000000  28.1720000 109.8390000  73.5400000  26.8170000
 110.0210000  72.4430000  26.8410000 109.2350000  73.6590000  25.9390000
 111.1920000  74.1230000  26.6870000 111.5790000  74.3430000  27.6650000
 111.9740000  73.4640000  26.1640000 111.2200000  75.5010000  25.9900000
 110.2870000  76.0310000  26.1840000 111.9460000  76.1260000  26.3570000
 111.3950000  75.3760000  24.4500000 112.3130000  74.8540000  24.3580000
 110.7240000  74.6480000  24.1310000 111.3180000  76.7990000  23.7480000
 110.5240000  77.3350000  24.1240000 112.1610000  77.4220000  24.2480000
 111.3010000  76.7660000  22.1830000 110.3510000  76.3840000  21.8330000
 111.2800000  77.8090000  21.8160000 112.4850000  76.0340000  21.6350000
 112.9990000  75.5050000  22.3860000 112.1610000  75.3140000  20.8710000
 113.5690000  76.8970000  20.9590000 113.7370000  77.7020000  21.6700000
 114.6040000  76.4130000  20.7880000 113.1740000  77.4220000  19.5670000
 112.3490000  78.1260000  19.6370000 113.9740000  77.9030000  19.0430000
 112.8580000  76.2410000  18.7420000 113.6740000  75.5280000  18.1540000
 111.5090000  75.9660000  18.7360000 110.9400000  74.9480000  17.8820000
 109.8780000  75.1200000  18.0100000 111.2470000  75.1320000  16.8030000
 111.2200000  73.5440000  18.3830000 112.2850000  73.4040000  18.5060000
 110.8470000  72.4410000  17.3560000 110.5170000  72.8470000  16.3680000
 111.6700000  71.7600000  17.2540000 109.7100000  71.6960000  18.0090000
 108.1620000  72.1000000  17.5450000 107.8860000  73.5320000  18.2090000
 107.3440000  73.6380000  19.5990000 107.5380000  72.7250000  20.1490000
 107.9500000  74.3860000  20.0400000 105.9010000  74.1000000  19.6010000
 105.6390000  74.5290000  20.5780000 105.7340000  75.0330000  18.9380000
 104.7170000  73.2860000  19.2240000 104.5980000  73.0790000  17.7100000
 103.5490000  72.7730000  17.5520000 104.8520000  74.0680000  17.2600000
 105.2900000  72.3590000  17.3360000 104.7370000  71.9750000  19.9520000
 103.9060000  71.3680000  19.5650000 105.6580000  71.5450000  19.7040000
 104.6690000  72.2010000  20.9930000 103.3490000  73.9210000  19.5920000
 103.0550000  74.6610000  18.7960000 103.4120000  74.4650000  20.6110000
 102.6080000  73.1730000  19.6000000 108.0690000  72.3270000  16.0640000
 107.1990000  71.1960000  18.2450000 110.6650000  73.2940000  19.7040000
 111.1190000  72.1860000  20.3090000 112.2240000  71.7530000  20.1170000
 110.2450000  71.6460000  21.4230000 110.7090000  70.7610000  21.9960000
 109.3570000  71.2780000  20.9530000 109.8580000  72.7170000  22.4570000
 109.9570000  73.6740000  21.9260000 110.5930000  72.7610000  23.2310000
 108.4590000  72.5480000  23.1220000 107.7060000  72.7290000  22.3370000
 108.3040000  73.2440000  23.9490000 108.2510000  71.1460000  23.6740000
 109.0940000  70.8160000  24.3320000 108.1570000  70.3370000  22.8800000
 106.9660000  71.0740000  24.4530000 106.1060000  71.3340000  23.8800000
 107.0200000  71.9000000  25.1580000 106.8370000  69.7420000  25.1960000
 107.8700000  69.4990000  25.5760000 106.6030000  68.9690000  24.4350000
 105.8410000  69.7790000  26.3920000 105.7140000  68.7010000  26.8110000
 104.9120000  70.1230000  26.0660000 106.3190000  70.8280000  27.3870000
 105.9970000  71.8020000  27.1330000 107.1030000  70.6150000  28.4560000
 107.3860000  71.4540000  29.0100000 107.7270000  69.3140000  28.7110000
 108.8350000  69.5630000  28.6560000 107.6640000  68.6710000  27.8780000
 107.3880000  68.6850000  30.0390000 107.9600000  67.7880000  30.1060000
 106.3980000  68.4780000  30.0900000 107.7530000  69.5830000  31.3310000
 107.3620000  70.5300000  31.2550000 108.7970000  69.7380000  31.2500000
 107.3560000  68.9770000  32.7430000 107.7380000  67.8790000  32.9200000
 106.2660000  68.9840000  32.7040000 107.6940000  69.8910000  33.9750000
 107.1180000  70.8030000  33.9060000 108.7420000  70.1530000  33.9190000
 107.3080000  69.2550000  35.2370000 108.0360000  68.4030000  35.2370000
 106.3320000  68.8940000  35.1550000 107.4990000  70.1710000  36.4330000
 108.3670000  70.8580000  36.3330000 107.6740000  69.5700000  37.3210000
 106.3520000  71.0350000  36.8420000 106.0320000  71.6920000  36.0760000
 106.6460000  71.5970000  37.6410000 105.5660000  70.3830000  37.2130000
 139.5860000 106.8870000  34.4170000 139.9850000 107.4090000  35.2550000
 139.4400000 105.8850000  34.7390000 138.5960000 107.4230000  34.2240000
 140.5660000 106.9770000  33.2960000 140.5970000 107.9560000  32.8880000
 141.5010000 106.7020000  33.6800000 140.2700000 105.9470000  32.1910000
 140.9720000 106.1020000  31.4210000 140.2140000 104.8670000  32.5020000
 138.9910000 105.9700000  31.4510000 138.1220000 105.7310000  32.0500000
 138.7210000 107.0580000  31.2240000 138.9360000 105.0690000  30.2150000
 139.8270000 105.3120000  29.5960000 139.0190000 104.0700000  30.6480000
 137.6990000 105.2630000  29.3310000 136.8450000 105.4740000  30.0470000
 137.8740000 106.2050000  28.8030000 137.3710000 104.0420000  28.4330000
 137.3510000 103.1820000  29.1250000 136.4880000 104.1300000  27.8470000
 138.4810000 103.8550000  27.4300000 139.4410000 103.6040000  27.9040000
 138.1440000 102.9770000  26.8850000 138.7640000 104.8990000  26.3910000
 137.8060000 105.2340000  26.0310000 139.4580000 105.7170000  26.7680000
 139.4910000 104.1400000  25.2930000 140.4500000 103.7450000  25.6770000
 138.9210000 103.3990000  24.8270000 139.8850000 105.1040000  24.1610000
 140.5780000 105.7950000  24.6270000 140.4770000 104.5100000  23.4250000
 138.7470000 105.8850000  23.4700000 138.6460000 105.6190000  22.4120000
 137.8450000 105.5770000  23.9660000 139.0260000 107.4230000  23.7380000
 139.2280000 107.6720000  24.7560000 139.9130000 107.6750000  23.1170000
 137.9340000 108.4370000  23.3380000 137.1590000 108.2180000  24.0570000
 138.3470000 109.4680000  23.4970000 137.3430000 108.2480000  21.9360000
 136.9100000 107.2120000  21.7720000 136.5170000 108.9750000  21.8740000
 138.1440000 108.5010000  20.6780000 138.1240000 109.5690000  20.1100000
 139.0400000 107.5340000  20.4900000 140.0500000 107.6490000  19.4490000
 140.2540000 106.6650000  19.0490000 139.6750000 108.3080000  18.6380000
 141.3920000 108.2440000  20.0460000 141.1360000 109.1360000  20.6510000
 142.3540000 108.6740000  18.9580000 141.8530000 109.4540000  18.3360000
 143.3100000 109.0340000  19.3950000 142.6690000 107.5710000  18.0790000
 144.1520000 107.1230000  17.9160000 143.9830000 105.7350000  17.1830000
 143.9830000 104.5270000  17.9610000 144.0290000 103.7290000  17.2220000
 144.7650000 104.3760000  18.6250000 142.6650000 104.3710000  18.6900000
 142.7920000 103.6200000  19.4960000 142.3920000 105.3730000  19.1230000
 141.4710000 103.8460000  17.9060000 140.2500000 103.7710000  18.7990000
 139.4600000 103.2890000  18.2460000 140.5290000 103.1150000  19.6680000
 139.9160000 104.7230000  19.0580000 141.1130000 104.7440000  16.7310000
 140.9400000 105.7290000  17.1670000 141.9600000 104.7470000  16.0340000
 140.1430000 104.3420000  16.2310000 141.5570000 102.4560000  17.3800000
 142.3110000 102.5340000  16.5190000 140.5710000 102.1940000  17.2370000
 141.9990000 101.7600000  18.0960000 144.9520000 107.9910000  17.1090000
 144.7860000 106.8320000  19.2210000 141.9870000 107.2950000  20.9600000
 142.7300000 107.8350000  21.9380000 143.0270000 109.0190000  22.0980000
 143.3320000 106.7690000  22.8330000 144.4360000 106.6950000  22.5080000
 142.8820000 105.8520000  22.6070000 143.2500000 107.2130000  24.2990000
 142.1720000 107.4560000  24.4210000 143.8270000 108.1040000  24.5140000
 143.7450000 106.1640000  25.3240000 143.3700000 106.5640000  26.3350000
 144.7810000 106.2680000  25.3370000 143.3040000 104.6420000  25.0940000
 143.9040000 104.3460000  24.2280000 142.2290000 104.5150000  24.8660000
 143.6480000 103.7320000  26.3400000 144.7630000 103.7070000  26.5760000
 143.4610000 102.7000000  26.0190000 142.6940000 104.0490000  27.5020000
 141.7320000 104.3510000  27.0980000 143.1150000 104.9160000  28.0910000
 142.4500000 102.7300000  28.2760000 143.3110000 102.1250000  28.3720000
 141.7230000 102.2100000  27.6590000 141.7770000 102.9600000  29.6070000
 140.7130000 102.8300000  29.5690000 142.4370000 103.3990000  30.6920000
 141.8560000 103.7710000  31.4670000 143.9330000 103.3650000  30.9850000
 144.4850000 104.1880000  30.3880000 144.2980000 102.4800000  30.5420000
 144.1740000 103.4360000  32.5140000 144.9830000 102.7070000  32.6420000
 143.2280000 103.1080000  32.9790000 144.5750000 104.7810000  33.0810000
 143.8830000 105.5730000  32.8510000 145.4850000 105.1230000  32.6090000
 144.8240000 104.6770000  34.5790000 145.5760000 103.9430000  34.8040000
 143.9970000 104.3040000  35.0890000 145.2590000 106.0500000  35.2510000
 144.4670000 106.7460000  34.9760000 146.1830000 106.3350000  34.7550000
 145.3910000 105.9450000  36.7710000 146.0870000 105.1360000  37.0410000
 144.4110000 105.7580000  37.2860000 146.0160000 107.2050000  37.2670000
 145.4410000 107.9880000  36.8120000 147.0500000 107.1920000  37.1080000
 145.8220000 107.3280000  38.8120000 146.4580000 106.6570000  39.4470000
 144.8250000 107.1720000  39.1280000 146.2260000 108.3090000  39.0040000
 128.1040000 136.0690000  34.8750000 127.4290000 135.4830000  35.5850000
 128.8890000 136.7030000  35.4000000 128.6790000 135.3860000  34.3050000
 127.1670000 136.9920000  33.9940000 126.4350000 136.3460000  33.5690000
 126.6020000 137.6770000  34.6160000 128.0040000 137.8430000  33.0720000
 128.8480000 138.3080000  33.4840000 128.4300000 137.1210000  32.3700000
 127.0950000 138.8800000  32.2370000 126.1090000 138.5300000  32.0130000
 126.9860000 139.7610000  32.8390000 127.6620000 139.2480000  30.8640000
 127.0600000 140.0470000  30.4080000 128.6240000 139.7300000  30.9350000
 127.6700000 138.1880000  29.7250000 128.3280000 137.4360000  30.0610000
 126.6510000 137.7710000  29.6260000 128.1530000 138.8000000  28.3800000
 127.3850000 139.4550000  28.0690000 129.1250000 139.3390000  28.4620000
 128.1490000 137.5280000  27.4560000 127.3620000 136.8480000  27.6010000
 127.9570000 137.8960000  26.3930000 129.4780000 136.6800000  27.3870000
 130.1890000 137.2910000  26.8600000 129.9070000 136.4780000  28.3550000
 129.3050000 135.3540000  26.6500000 129.0280000 135.5110000  25.6550000
 130.3020000 134.9480000  26.5170000 128.3370000 134.1970000  27.1610000
 127.3350000 134.5250000  27.1890000 128.5140000 133.3770000  26.4270000
 128.6100000 133.6880000  28.6090000 128.1660000 134.3860000  29.3560000
 127.9180000 132.8720000  28.6970000 130.0930000 133.2660000  28.9320000
 130.7820000 134.1220000  28.8700000 130.0910000 132.8200000  29.8960000
 130.5880000 132.0810000  28.0490000 129.8500000 131.3000000  28.1940000
 130.5620000 132.2700000  26.9890000 131.9530000 131.6580000  28.2750000
 132.6590000 132.4760000  27.9270000 132.1900000 131.4830000  29.3550000
 132.2950000 130.4510000  27.4660000 132.4110000 129.3300000  27.9400000
 132.4200000 130.6630000  26.1440000 132.4340000 129.5850000  25.1950000
 132.6540000 130.0340000  24.2310000 133.2320000 128.9730000  25.4700000
 131.1540000 128.7100000  25.2830000 130.9940000 128.3660000  26.2910000
 131.1000000 127.3560000  24.4900000 131.6490000 126.5460000  24.9370000
 130.0510000 127.0830000  24.5700000 131.5780000 127.5270000  23.0880000
 130.5420000 127.5020000  21.8990000 129.6190000 128.8740000  22.0080000
 128.1610000 128.7860000  22.2650000 127.8960000 127.8680000  22.6990000
 127.8640000 129.5620000  22.9410000 127.2640000 129.0810000  21.0210000
 126.2230000 129.1660000  21.3680000 127.6600000 129.8650000  20.4780000
 127.1660000 128.0460000  19.9480000 126.1250000 128.4730000  18.9990000
 125.2320000 128.5910000  19.6170000 126.3830000 129.3970000  18.5060000
 126.0230000 127.6640000  18.2700000 128.4840000 127.7520000  19.2730000
 129.1710000 127.1830000  19.8130000 128.1370000 127.0460000  18.5160000
 128.8490000 128.7340000  18.8680000 126.8680000 126.7600000  20.6130000
 125.8980000 126.9140000  21.0830000 127.6200000 126.5850000  21.3800000
 126.7580000 125.9920000  19.7970000 131.4020000 127.6640000  20.7280000
 129.7030000 126.3070000  22.0800000 129.9800000 129.5950000  24.9850000
 128.7980000 129.4290000  25.6110000 128.5960000 128.5870000  26.4160000
 127.9040000 130.5900000  25.3180000 128.3690000 130.9900000  24.4170000
 128.0750000 131.2810000  26.0950000 126.3950000 130.2680000  25.1830000
 126.3740000 129.1740000  25.1370000 125.9780000 130.7430000  24.2880000
 125.6320000 130.6360000  26.3840000 124.6080000 130.3020000  26.1520000
 125.6210000 131.6910000  26.5620000 126.0650000 129.8070000  27.6460000
 127.0800000 130.1640000  27.8670000 126.1430000 128.7570000  27.4120000
 125.2640000 129.9520000  28.9640000 124.2260000 129.5910000  28.8890000
 125.1810000 130.9830000  29.2720000 125.9320000 129.1550000  30.1300000
 125.9670000 128.0640000  30.0590000 125.3000000 129.3260000  31.0250000
 127.3180000 129.6340000  30.6730000 127.3520000 129.2920000  31.7430000
 127.4860000 130.7320000  30.5460000 128.3610000 128.9120000  29.8280000
 128.0970000 128.7180000  28.8040000 129.6520000 128.6920000  30.0870000
 130.3020000 128.3070000  29.2620000 130.3990000 128.7790000  31.4040000
 129.7920000 128.3690000  32.2010000 130.7160000 129.8280000  31.7370000
 131.7010000 127.9040000  31.3240000 132.3340000 128.2930000  30.4610000
 131.5020000 126.9430000  31.0520000 132.6020000 127.9430000  32.5100000
 132.7780000 129.0140000  32.7230000 133.5670000 127.4880000  32.3630000
 132.0500000 127.1580000  33.7500000 131.9500000 126.1200000  33.4640000
 131.1580000 127.4910000  34.1550000 133.1470000 127.1980000  34.8500000
 134.0630000 126.7470000  34.4540000 132.7830000 126.5700000  35.6960000
 133.5940000 128.4490000  35.4350000 134.1620000 129.0240000  34.6670000
 134.4450000 128.2770000  36.0870000 132.5210000 129.3300000  36.1120000
 131.8880000 128.6800000  36.7630000 131.8300000 129.6750000  35.3000000
 132.9080000 130.5030000  37.0760000 132.0020000 130.9280000  37.4470000
 133.5210000 131.2400000  36.6810000 133.4910000 130.1090000  37.8680000
  78.4790000 126.4280000  31.8350000  77.4220000 126.1430000  32.0230000
  78.8530000 127.0200000  32.7150000  79.1520000 125.5960000  31.6200000
  78.6180000 127.2190000  30.5420000  79.6480000 127.5930000  30.4100000
  78.4430000 126.6080000  29.7300000  77.7120000 128.4550000  30.5100000
  77.7050000 128.8380000  29.4390000  76.7060000 128.2670000  30.7630000
  78.0930000 129.7140000  31.3190000  77.1890000 130.2540000  31.3450000
  78.5100000 129.3990000  32.3590000  79.0940000 130.6990000  30.5970000
  79.9990000 130.1490000  30.3600000  78.6230000 130.9470000  29.6410000
  79.4010000 131.9180000  31.4090000  78.5440000 132.4320000  31.7760000
  79.7770000 131.4500000  32.3420000  80.3610000 132.9490000  30.7400000
  79.7300000 133.5620000  30.0650000  80.6720000 133.5960000  31.5650000
  81.6170000 132.3670000  30.0800000  82.1070000 131.7990000  30.9020000
  81.2920000 131.6530000  29.3830000  82.6360000 133.3110000  29.5430000
  83.0570000 133.9510000  30.3610000  83.4820000 132.7940000  29.1430000
  82.0300000 134.2880000  28.5670000  81.4970000 135.0030000  29.1320000
  82.8370000 134.8750000  28.1510000  81.3390000 133.6460000  27.3190000
  80.4130000 133.2560000  27.7350000  81.0460000 134.5360000  26.6110000
  82.1380000 132.6650000  26.3750000  82.9040000 133.2710000  25.8280000
  82.6340000 131.8650000  26.9160000  81.1880000 131.9860000  25.3060000
  80.6770000 132.7940000  24.7240000  81.7900000 131.4380000  24.5790000
  80.1260000 130.9810000  25.7430000  80.5040000 129.9570000  25.8470000
  79.7580000 131.2120000  26.7110000  79.0830000 130.8170000  24.6360000
  78.4300000 131.7170000  24.5610000  79.5950000 130.7370000  23.7120000
  78.0370000 129.6960000  24.9730000  77.6540000 129.5420000  26.1110000
  77.6400000 129.0150000  23.8490000  76.3310000 128.3510000  24.0360000
  76.3810000 127.4180000  23.4260000  76.1350000 127.9690000  25.0670000
  75.1850000 129.2870000  23.5650000  74.2470000 128.7670000  23.8220000
  75.2540000 129.5180000  22.0130000  74.5960000 130.3390000  21.7820000
  76.1940000 129.7940000  21.6940000  74.7800000 128.3240000  21.3300000
  74.3410000 128.3970000  19.7870000  73.0990000 129.3760000  19.8110000
  71.8860000 128.9850000  20.4490000  71.1310000 129.0510000  19.7140000
  71.9630000 128.0490000  20.8590000  71.6620000 129.9700000  21.6080000
  70.9340000 129.5870000  22.2730000  72.6930000 129.9720000  22.1540000
  71.2640000 131.4210000  21.2810000  71.2290000 132.2250000  22.4900000
  72.2440000 132.4700000  22.6890000  70.6770000 133.1700000  22.3130000
  70.8570000 131.6210000  23.3470000  72.2760000 132.0860000  20.4630000
  73.2330000 132.2070000  21.0190000  72.4630000 131.4910000  19.4980000
  71.9100000 133.0880000  20.1490000  69.9290000 131.5380000  20.5930000
  69.6490000 132.5970000  20.4690000  69.0940000 131.0000000  21.1180000
  69.9900000 131.0440000  19.6230000  75.4110000 129.1070000  19.1040000
  73.9410000 127.0480000  19.3160000  75.2870000 130.4920000  24.4850000
  74.0750000 130.8620000  24.9670000  72.9960000 130.5200000  24.5340000
  74.0740000 131.8760000  26.0880000  73.3610000 132.6630000  25.9900000
  75.0480000 132.2830000  26.2290000  73.6730000 131.0940000  27.3540000
  72.6490000 130.8090000  27.3240000  73.6870000 131.8130000  28.1520000
  74.3810000 129.7350000  27.6600000  75.4310000 129.8050000  27.4310000
  74.0140000 128.9750000  26.9440000  73.9960000 128.9920000  28.9700000
  74.5280000 128.0290000  29.0550000  72.9640000 128.7010000  28.7970000
  73.9500000 129.7450000  30.2980000  73.3970000 130.6450000  30.0940000
  74.9420000 129.9550000  30.4820000  73.3230000 128.9470000  31.4110000
  72.5680000 128.1960000  31.1540000  72.8900000 129.7180000  32.0620000
  74.3120000 128.1490000  32.2740000  75.3550000 128.6340000  32.3290000
  74.3960000 127.1740000  31.7760000  73.7460000 127.8150000  33.5760000
  72.7610000 127.5340000  33.4530000  74.2670000 127.9040000  34.8130000
  73.7000000 127.5230000  35.6530000  75.7390000 128.1050000  35.0820000
  76.0020000 129.1600000  34.9050000  76.3200000 127.4910000  34.4540000
  75.9450000 127.7380000  36.5620000  75.6480000 126.7090000  36.7340000
  75.3340000 128.3830000  37.1810000  77.3780000 127.8080000  37.0520000
  77.6190000 128.8460000  37.0130000  78.0150000 127.1990000  36.4720000
  77.4220000 127.3570000  38.4850000  77.0180000 126.3220000  38.5270000
  76.8750000 127.9720000  39.1490000  78.8550000 127.3550000  39.0270000
  78.9250000 127.2300000  40.1200000  79.2360000 128.3810000  38.8970000
  79.9600000 126.4280000  38.4590000  80.8510000 126.7420000  38.9940000
  80.0840000 126.6570000  37.3670000  79.8390000 124.9280000  38.6730000
  79.6960000 124.8430000  39.7430000  80.8590000 124.5430000  38.3940000
  78.8050000 124.0610000  37.8960000  78.8700000 123.1120000  38.3420000
  78.8960000 123.9950000  36.8370000  77.7040000 124.2920000  38.1660000
 143.4860000  25.6200000  34.4140000 143.2980000  26.3840000  33.6210000
 143.7920000  26.2320000  35.2320000 142.5860000  25.0250000  34.6430000
 144.7220000  24.7550000  34.1830000 145.6120000  25.3920000  33.8800000
 144.9050000  24.1750000  35.0790000 144.3730000  23.6930000  33.0930000
 143.5420000  23.0430000  33.4540000 143.9820000  24.1780000  32.2280000
 145.6220000  22.9040000  32.6110000 146.4620000  23.6280000  32.3520000
 146.0180000  22.4500000  33.5290000 145.4980000  21.8000000  31.5260000
 146.2210000  20.9930000  31.5530000 144.5210000  21.3450000  31.5830000
 145.4620000  22.4460000  30.1110000 144.6150000  23.1340000  30.0670000
 146.3040000  23.1750000  29.9630000 145.2820000  21.3840000  29.0130000
 144.3710000  20.8900000  29.2230000 145.1270000  21.8860000  28.0760000
 146.4310000  20.4260000  28.9070000 146.6220000  19.9050000  29.8270000
 146.1400000  19.6870000  28.1210000 147.6780000  21.1520000  28.3430000
 147.4160000  21.6620000  27.4380000 148.0880000  21.9200000  29.0820000
 148.8210000  20.2170000  27.8710000 149.0920000  19.5710000  28.6780000
 148.5440000  19.5840000  27.0690000 149.9800000  21.0710000  27.3450000
 150.1770000  21.8890000  28.1140000 150.8630000  20.4210000  27.3280000
 149.6670000  21.7410000  25.9950000 149.0720000  21.0720000  25.3470000
 149.0210000  22.5790000  26.1660000 150.8090000  22.0870000  25.0000000
 151.2210000  21.0590000  24.8670000 150.4280000  22.5000000  24.0340000
 151.8820000  22.9920000  25.6530000 152.4200000  22.5110000  26.5320000
 152.6540000  23.0260000  24.8760000 151.5350000  24.4840000  25.9810000
 150.9440000  24.5160000  26.9020000 152.3940000  25.0430000  26.2650000
 150.9150000  25.1510000  24.7100000 151.4030000  26.1270000  24.2260000
 149.7650000  24.7290000  24.4420000 148.8840000  25.5010000  23.5190000
 147.8840000  25.2220000  23.7610000 148.9770000  26.5710000  23.5090000
 149.2750000  25.0400000  22.0810000 150.3160000  25.1540000  21.9060000
 148.5490000  25.8930000  21.0090000 148.3460000  26.9400000  21.3110000
 149.1790000  25.9700000  20.1160000 147.2640000  25.3600000  20.6570000
 145.9110000  25.4050000  21.5680000 146.0710000  24.1880000  22.5260000
 145.6160000  22.9430000  22.1010000 144.5280000  22.9320000  21.9700000
 146.1510000  22.6790000  21.1560000 146.1360000  21.8740000  23.0340000
 145.9100000  20.9340000  22.6120000 147.1980000  21.9390000  23.0100000
 145.6100000  21.8080000  24.3960000 145.9220000  22.9820000  25.2860000
 145.4530000  22.8260000  26.2170000 146.9520000  23.0560000  25.3520000
 145.3810000  23.8520000  24.8010000 144.1350000  21.5410000  24.4630000
 143.7770000  21.1610000  25.4130000 143.5780000  22.4960000  24.2180000
 143.9180000  20.8850000  23.6710000 146.1560000  20.5350000  24.8780000
 145.8360000  20.3580000  25.8630000 147.2430000  20.4750000  24.9050000
 145.7500000  19.7480000  24.1710000 145.9850000  26.6560000  22.3280000
 144.8070000  25.1870000  20.6610000 149.0270000  23.5780000  21.8370000
 149.6180000  22.9380000  20.8150000 150.4860000  23.4650000  20.1520000
 149.2290000  21.4830000  20.7110000 149.5890000  21.0850000  19.8150000
 148.1480000  21.5380000  20.7330000 149.7530000  20.5850000  21.8630000
 149.5970000  21.0420000  22.8140000 150.8300000  20.4410000  21.8470000
 149.1060000  19.1290000  21.8540000 148.9850000  18.8700000  20.8340000
 148.0030000  19.2670000  22.0870000 149.7940000  17.9870000  22.5320000
 150.6980000  17.7180000  22.1140000 149.1210000  17.1440000  22.4970000
 150.0300000  18.2680000  24.0220000 149.1270000  18.7020000  24.4420000
 150.8530000  18.9680000  24.1350000 150.4280000  17.0400000  24.9400000
 151.3690000  16.5820000  24.6170000 149.6530000  16.3130000  24.9180000
 150.7840000  17.4480000  26.4330000 149.8050000  17.8100000  26.8380000
 151.5400000  18.2380000  26.4030000 151.2880000  16.3040000  27.2020000
 151.7060000  15.4200000  26.5810000 151.6530000  16.3290000  28.4830000
 151.9810000  15.4250000  29.0400000 151.3590000  17.5260000  29.3680000
 150.9110000  18.3490000  28.8080000 152.2280000  17.9370000  29.8960000
 150.3860000  17.0400000  30.4710000 150.8050000  16.1510000  30.8800000
 149.4670000  16.7780000  29.9460000 150.1900000  18.0530000  31.6340000
 150.0030000  19.0430000  31.1540000 151.0650000  18.1290000  32.3740000
 148.9150000  17.7980000  32.5100000 148.0420000  17.9170000  31.8070000
 148.8150000  18.5270000  33.3440000 148.8220000  16.3190000  33.0380000
 149.8410000  16.1110000  33.5040000 148.6590000  15.6500000  32.1740000
 147.6970000  16.1170000  34.1810000 146.7560000  16.5480000  33.9650000
 148.0920000  16.6590000  35.0750000 147.5550000  14.6590000  34.4830000
 148.5090000  14.2450000  34.7810000 147.4960000  14.1870000  33.5000000
 146.3650000  14.1040000  35.3730000 146.4780000  14.5090000  36.4140000
 146.6200000  13.1260000  35.5190000 145.3930000  14.2390000  34.8410000
  61.6180000   9.8890000  36.0320000  61.2180000   9.4710000  36.9040000
  62.6540000   9.9340000  36.1930000  61.3830000   9.2030000  35.2180000
  61.0590000  11.2530000  35.6780000  61.5770000  11.6490000  34.7830000
  60.0100000  11.0810000  35.4170000  61.0210000  12.2410000  36.8420000
  60.5510000  11.7080000  37.6850000  62.0410000  12.4590000  37.2160000
  60.2030000  13.5210000  36.6510000  59.2160000  13.2050000  36.3950000
  60.2700000  14.0840000  37.6030000  60.8420000  14.4130000  35.5910000
  61.8800000  14.6740000  35.8070000  60.9090000  13.7890000  34.6210000
  59.9920000  15.5900000  35.1940000  59.1300000  15.1980000  34.6370000
  59.5660000  16.1550000  36.1170000  60.7290000  16.6650000  34.4320000
  61.5660000  17.0080000  34.9850000  61.1060000  16.1920000  33.5690000
  59.8360000  17.8250000  33.8830000  59.3200000  18.2220000  34.7000000
  60.5290000  18.7090000  33.5670000  58.9300000  17.3240000  32.7570000
  59.6570000  16.9270000  31.9720000  58.2220000  16.5250000  33.0560000
  58.1570000  18.5900000  32.2010000  57.4860000  18.8910000  33.0120000
  58.8280000  19.4190000  32.0240000  57.2950000  18.2990000  30.9050000
  56.7580000  17.3560000  31.0560000  56.5450000  19.0530000  30.7280000
  57.9980000  18.2180000  29.5830000  58.5830000  19.0890000  29.4040000
  58.7410000  17.4190000  29.5890000  57.0480000  18.0800000  28.3560000
  56.4740000  18.9540000  28.4350000  57.5050000  18.1920000  27.3210000
  56.1420000  16.8400000  28.3010000  55.6670000  16.8220000  29.3170000
  55.3490000  16.9200000  27.5310000  56.8860000  15.5130000  28.1890000
  57.8270000  15.4900000  28.6670000  56.1570000  14.7460000  28.5790000
  57.0780000  15.1100000  26.7010000  56.2640000  14.4740000  26.0700000
  58.3550000  15.4280000  26.2460000  58.8010000  14.8720000  24.9830000
  59.9300000  14.8870000  24.9820000  58.5310000  13.8130000  25.0230000
  58.1730000  15.5150000  23.7750000  57.0750000  15.4270000  23.7060000
  58.6980000  14.9230000  22.4310000  57.9110000  14.3210000  21.9390000
  58.8320000  15.8090000  21.7530000  59.9060000  14.1110000  22.4940000
  61.2270000  14.4320000  21.7510000  61.8960000  15.7160000  22.5080000
  61.4950000  17.0660000  22.2940000  60.7290000  17.1440000  21.4490000
  60.9470000  17.4800000  23.1580000  62.7920000  17.8650000  22.0490000
  62.4920000  18.9250000  22.0740000  63.5040000  17.6570000  22.8650000
  63.5790000  17.5420000  20.7680000  64.4130000  18.7180000  20.5330000
  63.8080000  19.5470000  20.0120000  64.6740000  19.0200000  21.5310000
  65.3180000  18.4590000  19.9740000  64.4890000  16.3830000  21.0230000
  63.9930000  15.4240000  21.3590000  65.2000000  16.2130000  20.1370000
  65.0820000  16.6980000  21.8600000  62.6880000  17.3480000  19.5630000
  61.9470000  18.1460000  19.4450000  62.2890000  16.3620000  19.6310000
  63.3300000  17.3970000  18.7700000  62.0660000  13.2250000  21.8090000
  60.8690000  14.9050000  20.3810000  58.4940000  16.9540000  23.8750000
  57.5480000  17.7520000  24.3950000  56.4670000  17.4020000  24.7640000
  58.0160000  19.2270000  24.4860000  58.8300000  19.3610000  25.2240000
  57.2210000  19.8150000  24.8480000  58.4330000  19.8000000  23.1060000
  59.0390000  19.0780000  22.6260000  59.0630000  20.6980000  23.2020000
  57.2410000  19.9540000  22.1410000  56.8740000  20.9410000  22.4070000
  56.4690000  19.2270000  22.5100000  57.6250000  19.9130000  20.6030000
  58.3540000  19.0970000  20.5020000  58.0290000  20.8500000  20.1680000
  56.3560000  19.7070000  19.7720000  55.6820000  20.5620000  19.6320000
  55.8190000  19.0000000  20.3720000  56.6400000  19.0900000  18.3550000
  57.1910000  18.1450000  18.3510000  57.2970000  19.7660000  17.7160000
  55.3030000  18.7280000  17.6800000  55.4720000  18.1850000  16.7040000
  54.8100000  19.6500000  17.5050000  54.4670000  17.9350000  18.6500000
  54.9480000  17.0490000  19.0190000  53.2760000  18.3730000  19.0340000
  52.7120000  17.8550000  19.7480000  52.7050000  19.8060000  18.8990000
  52.0340000  19.9190000  18.0500000  53.4150000  20.5720000  18.6330000
  52.0940000  20.3450000  20.2030000  51.3180000  19.6830000  20.5300000
  51.6350000  21.3430000  19.9870000  53.1730000  20.4140000  21.4330000
  53.9390000  21.2090000  21.2330000  53.7670000  19.5000000  21.5110000
  52.5710000  20.6970000  22.8030000  51.8100000  19.9280000  23.0540000
  52.1440000  21.6710000  22.8420000  53.6870000  20.5480000  23.8490000
  54.4470000  21.3270000  23.7330000  54.1330000  19.5780000  23.8240000
  53.2630000  20.7330000  25.2990000  52.6050000  19.9220000  25.5820000
  52.7030000  21.6550000  25.3640000  54.3460000  20.7350000  26.3800000
  54.8270000  21.7520000  26.2860000  55.1030000  19.9840000  26.1100000
  53.8980000  20.5990000  27.8290000  54.7220000  20.8000000  28.5600000
  53.8030000  19.5610000  28.0510000  52.9770000  21.0940000  27.9770000
 103.8780000  98.6870000  34.1070000 104.8900000  99.0560000  33.8770000
 103.9570000  97.6370000  34.3280000 103.4850000  98.9700000  35.0860000
 102.8760000  99.1840000  33.0170000 101.8620000  98.8320000  33.3730000
 102.8540000 100.2820000  32.9230000 103.0800000  98.5440000  31.6490000
 104.0480000  98.8150000  31.2640000 103.1760000  97.4360000  31.8110000
 101.9180000  98.6670000  30.6440000 102.0850000  97.9170000  29.8700000
 100.9720000  98.4030000  31.1440000 101.7440000 100.0350000  29.8910000
 101.7310000 100.7610000  30.7150000 102.6450000 100.2370000  29.3270000
 100.5540000 100.2030000  28.8790000  99.6360000 100.2870000  29.4200000
 100.6580000 101.1630000  28.3200000 100.3620000  99.0900000  27.9060000
 101.3140000  99.0760000  27.4390000 100.1200000  98.1210000  28.4760000
  99.1570000  99.4940000  27.0500000  98.5460000  98.6570000  27.2000000
  98.6580000 100.4290000  27.4480000  99.4740000  99.6740000  25.5700000
 100.3840000 100.2820000  25.5360000  99.7680000  98.6930000  25.1920000
  98.2960000 100.3800000  24.7950000  98.6040000 100.4470000  23.7930000
  97.3810000  99.7340000  24.9810000  97.8310000 101.7990000  25.2710000
  97.3600000 101.7590000  26.2200000  98.5660000 102.5820000  25.3360000
  96.7220000 102.2480000  24.2320000  97.2440000 102.6920000  23.3050000
  96.1830000 101.3170000  23.8740000  95.6560000 103.2380000  24.6680000
  94.8730000 103.4210000  23.9230000  95.0720000 102.7010000  25.4150000
  96.1620000 104.5850000  25.2130000  96.8300000 104.3280000  26.0900000
  96.8960000 105.0780000  24.5940000  94.9990000 105.5760000  25.6100000
  93.9680000 105.0660000  25.5990000  95.0700000 105.9640000  26.6200000
  95.0060000 106.7870000  24.5990000  95.3600000 107.8920000  24.8170000
  94.3930000 106.3470000  23.4300000  94.2660000 107.1690000  22.2560000
  93.5900000 106.8280000  21.5580000  93.8980000 108.1630000  22.5540000
  95.6820000 107.3760000  21.6040000  96.2230000 107.8800000  22.3710000
  95.7100000 108.2530000  20.3740000  95.3980000 109.2560000  20.5420000
  96.7570000 108.3410000  20.0050000  94.9660000 107.6830000  19.2570000
  93.5000000 108.0730000  18.8770000  92.8410000 106.6510000  18.9400000
  93.2550000 105.5550000  18.1270000  92.3590000 104.9760000  17.9350000
  93.6120000 106.0090000  17.1700000  94.3450000 104.7280000  18.7800000
  94.9040000 104.2140000  18.0320000  95.0160000 105.3630000  19.4020000
  93.8730000 103.7190000  19.7800000  94.9920000 102.9120000  20.3180000
  95.5420000 102.5450000  19.3850000  95.6490000 103.4530000  21.0070000
  94.4760000 102.0280000  20.8430000  93.1470000 104.2820000  20.9260000
  93.8370000 104.6600000  21.6370000  92.4300000 104.9640000  20.5380000
  92.4890000 103.4870000  21.3940000  92.8870000 102.8010000  19.1000000
  93.1630000 102.7070000  18.0300000  91.8970000 103.1900000  19.1020000
  92.9120000 101.7760000  19.5820000  92.9390000 108.8920000  19.9640000
  93.5350000 108.5540000  17.4600000  96.2800000 106.1460000  21.2730000
  97.5610000 105.9840000  21.6980000  98.1920000 106.7700000  22.4420000
  98.2540000 104.8210000  21.0590000  97.6430000 104.2500000  20.3330000
  98.3470000 104.1670000  21.9280000  99.6520000 105.2100000  20.4970000
  99.5260000 106.0770000  19.9440000  99.9510000 104.4950000  19.7470000
 100.7160000 105.4160000  21.6750000 100.2480000 105.9320000  22.4540000
 101.5770000 106.0030000  21.4490000 101.2150000 104.0400000  22.2550000
 102.1730000 103.7400000  21.8920000 100.3830000 103.2530000  22.1230000
 101.3640000 104.1670000  23.8390000 100.4110000 104.4680000  24.3620000
 102.1290000 104.9470000  24.0280000 101.8280000 102.8240000  24.4780000
 102.6150000 102.3810000  23.8300000 100.8670000 102.2120000  24.4460000
 102.1910000 102.8750000  25.9580000 102.2150000 101.8430000  26.3200000
 101.4620000 103.4070000  26.5710000 103.5980000 103.4230000  26.2800000
 104.3110000 103.0790000  25.4920000 103.9900000 104.0610000  27.3640000
 105.0450000 104.2250000  27.3750000 103.1040000 104.6150000  28.3920000
 102.1040000 104.3910000  28.2520000 103.2020000 105.7310000  28.4430000
 103.6800000 104.0740000  29.7070000 104.6200000 104.4980000  29.9250000
 103.7680000 103.0020000  29.7020000 102.6940000 104.3230000  30.8380000
 101.7210000 104.1550000  30.3870000 102.7920000 105.3880000  31.0820000
 103.0710000 103.4470000  32.1000000 103.9760000 103.8830000  32.4320000
 103.3100000 102.3780000  31.8410000 102.0170000 103.5620000  33.2830000
 101.9390000 104.6510000  33.5010000 102.3660000 103.1380000  34.1630000
 100.5980000 103.0430000  33.0250000 100.2640000 103.1860000  31.9530000
  99.7940000 103.5510000  33.6710000 100.4360000 101.5510000  33.4190000
 101.0860000 100.9350000  32.8070000  99.4980000 101.2550000  33.1150000
 100.5440000 101.2500000  34.9520000 101.5550000 101.4820000  35.2950000
 100.2320000 100.2450000  35.1030000  99.8600000 101.9020000  35.3930000
 148.9770000 121.0060000  36.2180000 149.4570000 120.0640000  36.1030000
 147.9800000 120.8200000  36.6290000 149.3570000 121.5860000  36.9920000
 148.9440000 121.8560000  34.9970000 148.2740000 121.2280000  34.3940000
 148.4000000 122.7900000  35.1300000 150.3620000 122.1230000  34.3840000
 150.8920000 122.8680000  34.9350000 150.9270000 121.2110000  34.2940000
 150.2660000 122.7360000  32.9630000 149.4950000 123.4390000  32.9680000
 151.2520000 123.2080000  32.7740000 150.1770000 121.6450000  31.8640000
 150.9690000 120.9080000  32.0160000 149.1930000 121.1340000  32.0980000
 150.1420000 122.2380000  30.5130000 150.9680000 122.9700000  30.4870000
 150.2760000 121.5050000  29.7300000 148.8410000 123.0360000  30.2740000
 148.0330000 122.2970000  30.2090000 148.6580000 123.7190000  31.1210000
 148.7480000 123.7950000  28.9220000 147.6910000 124.2720000  28.9590000
 149.4500000 124.6330000  28.8680000 148.8600000 122.8200000  27.7920000
 149.7790000 122.2590000  27.8390000 147.9680000 122.2460000  27.8610000
 148.8910000 123.5930000  26.4600000 149.8150000 124.1380000  26.3750000
 148.7460000 122.8380000  25.6410000 147.8120000 124.6380000  26.2390000
 147.8610000 125.4310000  26.9490000 148.0650000 125.1180000  25.2860000
 146.3590000 124.1110000  26.1630000 146.4160000 123.0960000  25.7090000
 146.0510000 123.9770000  27.1900000 145.3960000 125.1060000  25.4350000
 145.3520000 126.0890000  25.9550000 145.8210000 125.3010000  24.4700000
 143.9590000 124.5400000  25.4030000 143.5630000 124.5070000  26.4010000
 143.3780000 125.3830000  25.0250000 143.5990000 123.2950000  24.5950000
 144.2550000 122.4670000  24.9380000 142.4830000 123.0070000  24.7350000
 143.8370000 123.4900000  23.0910000 143.0850000 124.1230000  22.4170000
 144.9530000 122.8850000  22.6090000 145.0760000 122.7200000  21.1450000
 145.6800000 121.8220000  20.9760000 144.0850000 122.7220000  20.6830000
 145.9190000 123.8020000  20.4710000 145.4360000 124.7190000  20.7640000
 145.8530000 123.7870000  18.8780000 145.1690000 124.5610000  18.4660000
 146.8080000 124.0230000  18.5150000 145.5110000 122.5600000  18.2650000
 144.0300000 121.9400000  18.1710000 143.9430000 120.7590000  19.2360000
 144.0960000 119.3900000  18.8720000 144.8070000 119.2240000  18.1490000
 144.4790000 118.8280000  19.7500000 142.6770000 119.0170000  18.4200000
 141.9300000 119.5360000  18.9870000 142.6310000 119.3400000  17.3490000
 142.3750000 117.6500000  18.1880000 141.0470000 117.7200000  17.5010000
 140.8820000 116.8320000  16.8970000 140.2500000 117.8520000  18.2310000
 140.9920000 118.5570000  16.8430000 143.4040000 116.8830000  17.4260000
 143.1170000 115.8650000  17.1380000 143.4790000 117.4090000  16.5160000
 144.2450000 116.7920000  18.0970000 142.1030000 116.8740000  19.4420000
 143.0890000 116.7510000  19.9590000 141.7430000 115.8640000  19.2210000
 141.3320000 117.3590000  19.9620000 143.0040000 122.9410000  18.5060000
 143.9750000 121.3200000  16.8730000 147.3010000 123.6980000  20.8890000
 147.7170000 124.5080000  21.8870000 147.0000000 125.2070000  22.5620000
 149.2420000 124.4990000  22.1570000 149.5840000 123.4900000  22.3950000
 149.4440000 125.2090000  22.9200000 150.1320000 124.8320000  20.9440000
 149.8370000 125.8530000  20.5990000 149.9700000 124.0130000  20.1130000
 151.6870000 124.9360000  21.2340000 152.1200000 125.1680000  20.2610000
 152.0060000 123.9100000  21.4740000 152.1630000 125.9510000  22.2910000
 153.2630000 125.9750000  22.3740000 151.8010000 125.7200000  23.3850000
 151.6590000 127.4240000  22.0120000 150.5770000 127.4450000  22.0940000
 151.8720000 127.7740000  20.9970000 152.1250000 128.5420000  22.8950000
 151.6360000 128.3330000  23.8970000 151.7570000 129.5460000  22.5120000
 153.6550000 128.5440000  23.0890000 154.2030000 128.7320000  22.1360000
 153.9340000 127.4900000  23.2530000 154.1710000 129.5010000  24.2380000
 154.1300000 130.5450000  24.1140000 154.8090000 129.1010000  25.3030000
 155.0960000 129.9680000  25.9140000 155.1060000 127.7300000  25.8930000
 156.0730000 127.7290000  26.2950000 155.1610000 126.8910000  25.1590000
 154.1300000 127.4940000  27.0330000 153.1610000 127.4130000  26.6470000
 154.1570000 128.4720000  27.5560000 154.4360000 126.2230000  27.8570000
 155.4000000 126.3080000  28.4350000 154.6910000 125.3570000  27.1490000
 153.2840000 125.6560000  28.7310000 153.5230000 124.7230000  29.1890000
 152.4670000 125.4920000  27.9890000 152.8990000 126.5780000  29.9220000
 152.8420000 127.5940000  29.5240000 153.6670000 126.4360000  30.7030000
 151.5200000 126.2830000  30.5760000 151.3870000 125.2260000  30.8820000
 150.6960000 126.5700000  29.8860000 151.3480000 127.1570000  31.8430000
 151.5810000 128.2040000  31.5970000 152.1770000 126.8760000  32.5390000
 149.9840000 127.1480000  32.5180000 149.7040000 126.0980000  32.6760000
 149.2210000 127.6320000  31.8570000 149.8990000 127.7040000  33.4800000
  88.7700000 147.3640000  40.6550000  89.5050000 147.3940000  41.4580000
  88.0560000 146.5220000  40.7880000  88.2610000 148.3600000  40.7460000
  89.6510000 147.3100000  39.4050000  90.4730000 148.0430000  39.5310000
  90.1890000 146.3610000  39.4020000  88.8180000 147.4990000  38.0990000
  88.0680000 146.7150000  37.9430000  88.3180000 148.4900000  38.1830000
  89.6080000 147.4810000  36.7920000  89.1350000 147.7690000  35.8880000
  90.4600000 148.2140000  36.9360000  90.3710000 146.1950000  36.3940000
  91.2220000 146.3030000  35.7760000  90.8350000 145.9130000  37.3900000
  89.4190000 145.0180000  35.9080000  88.6930000 144.8570000  36.6860000
  88.8640000 145.5060000  35.0630000  90.1540000 143.7890000  35.5160000
  90.6200000 143.3970000  36.3950000  89.4140000 143.1190000  35.2540000
  91.1620000 143.8220000  34.3070000  92.0690000 144.4610000  34.5350000
  91.6400000 142.7650000  34.2150000  90.5190000 144.2910000  32.9590000
  89.6970000 143.6650000  32.6800000  90.1670000 145.3710000  33.0260000
  91.5750000 144.1830000  31.8180000  92.4720000 144.2390000  32.3710000
  91.5530000 143.2010000  31.4260000  91.5290000 145.3320000  30.8060000
  91.4910000 146.3140000  31.3940000  92.3790000 145.3630000  30.1140000
  90.1540000 145.2950000  30.1360000  89.9820000 144.3470000  29.6210000
  89.3790000 145.2970000  30.8700000  90.1010000 146.4910000  29.1170000
  90.5650000 147.3590000  29.5370000  90.7610000 146.2620000  28.3150000
  88.6440000 146.8770000  28.6590000  87.9100000 146.9580000  29.5280000
  88.6220000 147.9370000  28.2600000  87.8900000 145.9110000  27.6460000
  88.0270000 144.8650000  27.9000000  86.8160000 146.1320000  27.7510000
  88.0580000 146.2210000  26.2580000  87.8660000 147.3650000  25.8500000
  88.5460000 145.1780000  25.5430000  88.7190000 145.4160000  24.1110000
  88.6560000 144.4580000  23.5390000  87.9760000 146.1330000  23.7270000
  90.1290000 145.9270000  23.7310000  90.3010000 146.9130000  24.2460000
  90.1700000 146.0780000  22.2450000  90.1630000 145.0380000  21.8270000
  89.2710000 146.5070000  21.8280000  91.3890000 146.7890000  21.9290000
  92.0200000 146.8530000  20.5030000  92.5680000 145.3310000  20.4540000
  93.6120000 144.9820000  21.2990000  94.6030000 145.0460000  20.7490000
  93.7250000 145.7050000  22.1450000  93.4360000 143.5700000  21.8610000
  94.1230000 143.4250000  22.6590000  92.4110000 143.5630000  22.2450000
  93.4570000 142.3910000  20.9350000  94.7060000 142.3660000  20.1070000
  94.8590000 143.2540000  19.4030000  95.6040000 142.2590000  20.7540000
  94.6530000 141.4280000  19.5240000  93.4700000 141.1820000  21.8290000
  94.4070000 141.0960000  22.2370000  92.6730000 141.3270000  22.6140000
  93.3480000 140.2820000  21.1870000  92.1970000 142.4290000  20.0850000
  92.0700000 141.3970000  19.7220000  92.3680000 143.2060000  19.3540000
  91.3690000 142.8600000  20.6350000  90.9540000 146.9140000  19.4970000
  93.1160000 147.8370000  20.3890000  91.2540000 144.9810000  24.1360000
  91.9090000 145.1870000  25.2430000  91.8630000 146.1180000  26.0380000
  92.8680000 144.0230000  25.5550000  93.6980000 143.9160000  24.7630000
  92.3240000 143.1480000  25.2980000  93.4330000 144.0010000  26.9990000
  92.5970000 143.6120000  27.6260000  93.7150000 144.8940000  27.4380000
  94.5830000 143.0030000  27.2010000  95.4310000 143.2920000  26.5070000
  94.3240000 142.0080000  26.9300000  95.1820000 143.0170000  28.6190000
  95.5890000 144.0020000  28.8020000  96.0510000 142.3870000  28.6760000
  94.3790000 142.5890000  29.8710000  94.0100000 141.5980000  29.6820000
  93.4840000 143.2070000  29.9020000  95.0780000 142.7170000  31.2160000
  95.0640000 143.7770000  31.5330000  96.1580000 142.5520000  31.1060000
  94.4420000 141.8280000  32.2740000  94.5630000 140.7400000  32.1040000
  93.4110000 142.0370000  32.3150000  95.0600000 142.1190000  33.6420000
  95.1330000 143.1260000  33.9410000  95.5730000 141.2660000  34.4750000
  95.9790000 141.6170000  35.3830000  95.6170000 139.6970000  34.3940000
  96.5980000 139.3160000  34.2770000  95.0010000 139.2960000  33.5590000
  95.2140000 138.9410000  35.6890000  95.9770000 139.1040000  36.4280000
  95.1980000 137.8680000  35.5050000  93.8740000 139.5970000  36.2620000
  93.9970000 140.5960000  36.6540000  93.4990000 138.9620000  37.1130000
  92.6950000 139.6490000  35.3000000  92.5730000 138.6690000  34.9030000
  92.8600000 140.4140000  34.5630000  91.3790000 140.0430000  36.0630000
  91.5290000 141.1290000  36.3200000  91.3420000 139.4910000  37.0130000
  90.0910000 140.0340000  35.2500000  90.0890000 139.1630000  34.6370000
  90.0330000 140.8120000  34.5180000  88.8000000 139.9000000  36.1530000
  88.8500000 140.7850000  36.8400000  88.8860000 139.1100000  36.9040000
  87.4590000 139.8850000  35.4240000  86.6970000 139.3850000  36.0060000
  87.6110000 139.5050000  34.4370000  87.1550000 140.9190000  35.3170000
  44.7650000 104.1950000  36.9300000  45.5670000 103.5960000  37.3580000
  44.1180000 104.4560000  37.7750000  45.0240000 105.0930000  36.4020000
  43.9810000 103.3420000  35.8640000  44.7330000 103.0380000  35.1390000
  43.4990000 102.5430000  36.2670000  43.0190000 104.2220000  35.1150000
  42.1840000 104.5690000  35.7210000  43.6720000 104.9790000  34.8080000
  42.4340000 103.5420000  33.8430000  43.2730000 103.0570000  33.3140000
  41.8200000 102.7680000  34.2160000  41.5380000 104.3810000  32.8970000
  41.0840000 103.8240000  32.1280000  40.8630000 104.9080000  33.4960000
  42.5050000 105.4750000  32.3190000  43.4640000 105.6020000  32.9470000
  42.7610000 105.0590000  31.3440000  41.8050000 106.7660000  32.0280000
  41.2420000 107.1980000  32.8530000  42.6310000 107.5190000  31.8800000
  40.8020000 106.8430000  30.8450000  39.9640000 106.1940000  31.0390000
  40.3890000 107.8430000  30.7670000  41.5320000 106.4220000  29.5230000
  42.4440000 107.0110000  29.4950000  41.7630000 105.3350000  29.5840000
  40.7560000 106.7100000  28.2420000  40.2750000 107.7230000  28.4130000
  41.3860000 106.7690000  27.4180000  39.7450000 105.5970000  27.9330000
  38.9570000 105.4670000  28.6780000  39.3960000 105.8560000  26.9590000
  40.3940000 104.2510000  27.7100000  41.3300000 104.2570000  27.0740000
  40.6970000 103.8880000  28.6840000  39.3190000 103.2740000  26.9660000
  38.3130000 103.4580000  27.4090000  39.3960000 103.6460000  25.9280000
  39.6140000 101.8150000  27.1130000  39.4990000 101.5230000  28.1650000
  38.8440000 101.3310000  26.5330000  40.9700000 101.2860000  26.3870000
  41.7810000 101.8010000  26.8830000  41.1730000 100.2450000  26.6680000
  41.1010000 101.3660000  24.9110000  41.5040000 100.4070000  24.2460000
  40.8700000 102.5950000  24.3710000  41.0150000 102.8030000  22.9420000
  41.1330000 103.8120000  22.7850000  42.0270000 102.3280000  22.7400000
  39.7560000 102.2320000  22.2340000  39.5740000 101.2330000  22.6460000
  39.9910000 102.1900000  20.7070000  39.0160000 101.9310000  20.2700000
  40.3150000 103.2150000  20.4360000  40.9420000 101.1480000  20.4320000
  41.6650000 101.1300000  19.0420000  41.3160000  99.6520000  18.5100000
  42.0020000  98.5080000  19.0460000  41.5610000  97.5670000  18.4990000
  43.0500000  98.7170000  18.8940000  41.7110000  98.3640000  20.5500000
  42.4490000  97.6290000  20.9540000  41.7060000  99.2790000  21.0920000
  40.3620000  97.8650000  20.9180000  40.1800000  96.5970000  20.2580000
  39.9730000  96.8020000  19.1870000  41.0460000  95.9120000  20.4530000
  39.3580000  96.1110000  20.7970000  40.4700000  97.5390000  22.3900000
  39.6860000  96.8150000  22.5280000  41.4110000  97.0420000  22.4720000
  40.3270000  98.4200000  23.1150000  39.1520000  98.7940000  20.7850000
  38.1520000  98.2850000  21.1540000  38.9180000  98.9430000  19.7670000
  39.3170000  99.7140000  21.2950000  40.9790000 101.9740000  18.0860000
  43.1730000 101.1290000  19.1830000  38.5610000 102.9800000  22.6800000
  37.3800000 102.2820000  22.7410000  37.0580000 101.3470000  22.1070000
  36.4680000 102.8870000  23.8670000  35.6420000 103.4200000  23.3090000
  37.0460000 103.5380000  24.5530000  35.9280000 101.7550000  24.7610000
  36.8220000 101.1570000  25.0400000  35.2500000 101.1590000  24.1520000
  35.1860000 102.0470000  26.0630000  34.2030000 102.5090000  25.9080000
  35.7640000 102.8710000  26.5260000  35.0740000 100.9870000  27.1060000
  34.4800000 100.1770000  26.6890000  34.4630000 101.4040000  27.9070000
  36.4220000 100.5480000  27.7160000  37.0020000 101.3560000  28.1400000
  36.9620000 100.0670000  26.9170000  36.4480000  99.4320000  28.7750000
  37.4080000  99.0320000  28.9360000  35.7640000  98.6850000  28.4140000
  35.9930000  99.9380000  30.1230000  34.9740000 100.3280000  30.2010000
  36.6390000 100.7380000  30.2360000  36.1730000  98.9750000  31.2310000
  35.4020000  98.2140000  31.3820000  37.1890000  98.9000000  32.0660000
  37.2180000  98.2200000  32.9910000  38.5520000  99.5370000  31.8510000
  38.5590000 100.0670000  30.9330000  39.3080000  98.7380000  31.8490000
  38.9180000 100.4560000  33.0500000  39.8270000 100.9260000  32.6970000
  39.1510000  99.9220000  33.9910000  37.8270000 101.4310000  33.3630000
  36.9520000 100.8880000  33.7630000  37.4630000 101.9300000  32.5030000
  38.2890000 102.5340000  34.3000000  37.4940000 103.1430000  34.6570000
  39.0430000 103.1160000  33.7600000  38.9590000 101.9950000  35.6200000
  39.9400000 101.5500000  35.2650000  38.4640000 101.1730000  36.0790000
  39.3190000 103.1400000  36.5940000  39.9760000 103.9310000  36.1950000
  39.8930000 102.6170000  37.3630000  38.1540000 103.9280000  37.2240000
  37.6200000 104.5530000  36.5360000  38.6370000 104.5580000  37.9300000
  37.1440000 102.9620000  37.8700000  36.9250000 102.1570000  37.1830000
  36.2550000 103.5780000  37.9400000  37.4900000 102.5520000  38.8640000
 113.7580000  51.9060000  35.2220000 113.0470000  51.1830000  34.8420000
 113.8120000  51.7120000  36.3030000 114.7290000  51.7930000  34.6480000
 113.3010000  53.4210000  35.1740000 112.4030000  53.6130000  35.8090000
 114.1260000  54.0000000  35.5510000 112.8440000  53.7920000  33.7290000
 113.7300000  53.7860000  33.1830000 112.1760000  52.9550000  33.4930000
 112.1500000  55.1830000  33.6090000 111.1770000  55.2040000  34.1930000
 112.7780000  56.0320000  34.0020000 111.7620000  55.4900000  32.2220000
 111.1730000  54.6780000  31.8900000 111.0570000  56.3210000  32.3130000
 112.9670000  55.8390000  31.4300000 113.5310000  56.6740000  31.7640000
 113.7780000  55.1600000  31.5620000 112.7160000  56.1860000  29.9270000
 113.5830000  56.6060000  29.5460000 112.6930000  55.2390000  29.3200000
 111.4700000  57.0040000  29.4690000 110.5460000  56.7240000  29.9540000
 111.6130000  58.1220000  29.5650000 111.1020000  56.9720000  27.9870000
 111.4800000  57.8760000  27.5220000 111.7300000  56.1940000  27.5190000
 109.5940000  56.8160000  27.6860000 109.1110000  57.7420000  27.9780000
 109.5470000  56.7690000  26.6950000 108.9050000  55.4750000  27.9300000
 108.7240000  55.3150000  29.0130000 107.9470000  55.5520000  27.3760000
 109.5490000  54.2000000  27.3330000 110.5350000  53.9930000  27.7750000
 108.8190000  53.4330000  27.5580000 109.5820000  54.2960000  25.8100000
 108.5600000  54.6660000  25.3970000 110.4360000  55.0070000  25.5070000
 109.8600000  52.9720000  25.1000000 110.3880000  52.3180000  25.7860000
 108.9180000  52.4340000  24.9310000 110.6320000  52.9950000  23.7810000
 109.9170000  53.3540000  23.0320000 111.4670000  53.6940000  23.8500000
 111.2060000  51.7300000  23.2620000 111.7600000  50.9450000  23.9860000
 111.0920000  51.5530000  21.9730000 111.6700000  50.3720000  21.2630000
 112.6980000  50.6100000  21.0620000 111.5850000  49.4430000  21.9750000
 111.0550000  50.2610000  19.8970000 111.5870000  49.5750000  19.2870000
 110.9560000  51.5450000  19.0960000 110.3150000  52.2470000  19.6130000
 111.9510000  52.0200000  18.9020000 110.3110000  51.3460000  17.8030000
 111.1120000  50.4750000  16.6510000 111.3470000  51.6060000  15.5570000
 110.3430000  52.0610000  14.6740000 110.8010000  52.4520000  13.7780000
 109.6990000  51.2850000  14.3970000 109.6260000  53.2400000  15.3910000
 108.6660000  53.3820000  14.8690000 109.5920000  52.9130000  16.4270000
 110.3720000  54.5620000  15.3820000 111.7720000  54.4980000  15.9870000
 112.2960000  53.5780000  15.5940000 112.3350000  55.4180000  15.8260000
 111.5080000  54.4060000  16.9840000 110.3750000  55.3450000  14.0880000
 110.6590000  56.4120000  14.2000000 111.1880000  54.8860000  13.4910000
 109.4000000  55.2820000  13.6110000 109.5470000  55.3890000  16.3600000
 110.2290000  56.1720000  16.6710000 109.2010000  54.7030000  17.2210000
 108.6750000  55.9250000  15.9490000 112.4320000  50.0880000  17.2530000
 110.2160000  49.3940000  16.1710000 109.7120000  49.6850000  20.1450000
 109.5800000  48.3640000  20.2720000 110.4910000  47.6110000  20.0240000
 108.0840000  47.9560000  20.6650000 107.9390000  47.1290000  20.0320000
 107.3700000  48.7630000  20.6070000 108.0140000  47.4850000  22.1480000
 108.8410000  46.7740000  22.3100000 107.0470000  47.0460000  22.2290000
 108.1970000  48.7000000  23.1660000 107.4010000  49.5010000  23.0760000
 109.1240000  49.2310000  23.0390000 108.1390000  48.1410000  24.5710000
 108.9320000  47.4540000  24.6810000 107.2050000  47.5450000  24.7440000
 108.1050000  49.3410000  25.6010000 107.1370000  49.8150000  25.4390000
 108.9280000  50.0380000  25.4550000 108.2300000  48.9160000  27.0810000
 109.1490000  48.3580000  27.1750000 107.3380000  48.2760000  27.2350000
 108.1260000  50.0940000  28.0890000 107.2460000  50.6170000  27.8770000
 108.9790000  50.6870000  27.8760000 108.2860000  49.5840000  29.5590000
 109.0650000  48.8060000  29.7200000 107.5010000  50.0010000  30.5610000
 107.6160000  49.5790000  31.5150000 106.6820000  51.2570000  30.6170000
 105.6310000  51.0850000  30.3020000 106.9860000  51.9970000  29.9310000
 106.7990000  51.8110000  32.0640000 107.8800000  51.6490000  32.3870000
 106.2060000  51.1690000  32.7680000 106.3070000  53.2550000  32.3260000
 106.2880000  53.3230000  33.4280000 105.3390000  53.3240000  31.8870000
 107.1750000  54.4010000  31.7900000 107.2920000  54.2880000  30.7210000
 108.2640000  54.2400000  32.1710000 106.6340000  55.7040000  32.3040000
 106.5630000  55.6120000  33.3890000 105.6930000  55.9440000  31.8550000
 107.5180000  56.8620000  31.9840000 108.5880000  56.6610000  32.1670000
 107.2310000  57.6100000  32.7440000 107.3380000  57.5330000  30.5950000
 106.3150000  57.9010000  30.4860000 107.5100000  56.9050000  29.7040000
 108.2900000  58.7530000  30.4410000 108.0320000  59.4630000  29.6430000
 109.3260000  58.4480000  30.3140000 108.3150000  59.4150000  31.3230000
  82.6610000  43.4830000  33.4490000  82.0710000  44.2610000  33.7910000
  83.4920000  43.2220000  34.0950000  82.1160000  42.6360000  33.2260000
  83.3080000  43.8670000  32.1550000  84.1080000  44.6070000  32.3150000
  83.7970000  42.9180000  31.7870000  82.2720000  44.2780000  31.0840000
  81.8200000  43.3370000  30.7630000  81.5270000  44.8900000  31.5350000
  82.7940000  44.9870000  29.8740000  83.0260000  46.0330000  30.2500000
  83.7660000  44.5280000  29.5630000  81.6560000  45.0400000  28.8200000
  81.1940000  43.9670000  28.6000000  80.8090000  45.5470000  29.1000000
  82.1260000  45.6640000  27.4660000  82.3980000  46.7100000  27.6650000
  83.0620000  45.1170000  27.1970000  81.1090000  45.6730000  26.3110000
  80.9610000  44.6570000  25.9320000  80.1710000  46.0240000  26.7220000
  81.4840000  46.5070000  25.0800000  80.5440000  46.7440000  24.5390000
  82.0580000  47.3520000  25.2000000  82.2120000  45.7010000  24.0510000
  81.8730000  44.7410000  23.7310000  82.2700000  46.3030000  23.2140000
  83.7430000  45.6430000  24.3740000  84.0460000  46.5140000  24.9200000
  84.0060000  44.8410000  25.0900000  84.6670000  45.5320000  23.2080000
  84.6320000  46.4550000  22.6550000  85.7310000  45.3930000  23.5150000
  84.4040000  44.1960000  22.5170000  84.3330000  43.3520000  23.2110000
  83.4100000  44.2480000  22.0250000  85.4060000  43.8740000  21.4340000
  85.2680000  44.5990000  20.6230000  86.4370000  43.9700000  21.7560000
  85.3770000  42.4080000  20.8540000  85.4100000  41.6760000  21.7690000
  84.4650000  42.2480000  20.2690000  86.5410000  42.0630000  19.9410000
  86.5540000  42.6860000  19.0650000  87.5190000  42.3010000  20.4660000
  86.5610000  40.6200000  19.5830000  86.2670000  40.2730000  18.4830000
  87.0000000  39.7410000  20.4710000  86.9380000  38.2540000  20.1480000
  87.2350000  37.6340000  21.0510000  85.9980000  37.9100000  19.7390000
  88.1060000  37.8900000  19.1830000  88.1320000  38.4580000  18.2970000
  88.0260000  36.3590000  18.8620000  87.2290000  36.1840000  18.1210000
  88.9860000  35.9880000  18.5030000  87.7950000  35.4910000  20.0270000
  86.9070000  34.0580000  19.8040000  88.0240000  33.2070000  19.0890000
  87.9530000  31.8130000  19.2270000  88.9590000  31.5320000  18.8680000
  87.8170000  31.4810000  20.2340000  86.8350000  31.2720000  18.3790000
  86.8430000  30.2020000  18.5580000  85.8070000  31.6900000  18.6660000
  86.8920000  31.3600000  16.8930000  85.9480000  30.3400000  16.4150000
  84.9810000  30.6150000  16.7740000  86.0110000  30.1580000  15.3450000
  86.0600000  29.3540000  16.9070000  86.4580000  32.7240000  16.3970000
  86.6480000  32.9580000  15.3500000  85.4380000  32.7280000  16.7200000
  86.8430000  33.5570000  16.9440000  88.2050000  31.1180000  16.3730000
  88.5740000  30.1490000  16.6690000  88.9240000  31.8830000  16.7120000
  88.1760000  31.0220000  15.2820000  86.5510000  33.3640000  21.0810000
  85.7680000  34.2590000  18.9500000  89.3170000  38.1710000  19.9290000
  90.5350000  38.5170000  19.4360000  90.7720000  38.4690000  18.2320000
  91.4640000  39.0310000  20.4820000  92.4410000  39.3290000  20.1410000
  91.5970000  38.1400000  21.0980000  90.8090000  40.1610000  21.3220000
  90.0470000  40.7510000  20.7260000  91.6280000  40.8000000  21.5530000
  89.9500000  39.6710000  22.5360000  90.6650000  39.2700000  23.3100000
  89.0760000  39.0140000  22.2740000  89.2080000  40.8640000  23.1150000
  88.7780000  41.4130000  22.2440000  89.9480000  41.4390000  23.7720000
  87.9800000  40.3460000  23.9740000  88.4800000  39.8010000  24.7700000
  87.4070000  39.6660000  23.3090000  87.1440000  41.4400000  24.5890000
  86.7100000  42.1660000  23.8820000  87.7840000  41.9930000  25.2380000
  86.0730000  40.9750000  25.5580000  86.5570000  40.5560000  26.4250000
  85.4230000  40.2010000  25.1570000  85.2400000  42.2180000  25.9570000
  84.3750000  42.3980000  25.3640000  85.5660000  43.0510000  26.9010000
  84.8420000  43.8750000  27.1490000  86.7950000  43.0550000  27.7640000
  87.4640000  43.8830000  27.4400000  87.3180000  42.1050000  27.6840000
  86.3960000  43.3480000  29.2120000  85.9130000  42.4870000  29.6540000
  85.7220000  44.1260000  29.3040000  87.6020000  43.6370000  30.0700000
  88.0820000  44.5830000  29.8610000  88.2880000  42.8720000  29.6760000
  87.3440000  43.5830000  31.5800000  87.0950000  42.5340000  31.8280000
  86.5490000  44.2420000  31.8760000  88.6060000  44.0700000  32.3910000
  88.8440000  45.1410000  32.2710000  89.3920000  43.5940000  31.8350000
  88.5010000  43.8110000  33.8660000  88.3990000  42.7410000  34.0140000
  87.5860000  44.2860000  34.3050000  89.7050000  44.4670000  34.6380000
  89.7220000  45.5170000  34.2960000  90.6580000  44.0430000  34.3670000
  89.5180000  44.4680000  36.1490000  89.1920000  43.4380000  36.3690000
  88.6940000  45.1520000  36.4150000  90.4330000  44.7590000  36.6530000
  36.3850000   2.6680000  30.6170000  36.6140000   2.0620000  29.7220000
  36.3430000   2.0480000  31.5620000  37.1120000   3.5030000  30.7220000
  35.0260000   3.3810000  30.4790000  34.1620000   2.6720000  30.4210000
  34.9600000   3.9230000  31.4650000  34.8340000   4.3210000  29.2630000
  34.0290000   5.0520000  29.4020000  35.7030000   4.8740000  29.1440000
  34.6420000   3.5880000  27.8850000  35.4300000   2.8770000  27.6790000
  33.7010000   2.9970000  27.8290000  34.5780000   4.5250000  26.6670000
  35.4490000   5.1790000  26.7610000  34.7130000   3.8280000  25.8080000
  33.3700000   5.4080000  26.3680000  32.4450000   4.9000000  26.2880000
  33.2920000   6.0620000  27.2050000  33.7470000   6.1500000  24.9560000
  34.7980000   6.4320000  24.8550000  33.7470000   5.3550000  24.2110000
  32.8820000   7.1790000  24.2600000  33.2100000   7.5280000  23.2520000
  32.0200000   6.5750000  24.0940000  32.5950000   8.4650000  25.1160000
  31.9680000   9.1890000  24.5250000  32.0360000   8.2320000  26.0270000
  33.9110000   9.0520000  25.7010000  34.3800000   8.2760000  26.3800000
  34.6710000   9.3320000  24.9570000  33.5520000  10.1820000  26.6180000
  32.7760000   9.9870000  27.3000000  34.4690000  10.3470000  27.2120000
  33.2650000  11.5540000  25.9800000  33.9260000  11.6360000  25.1470000
  32.2890000  11.4710000  25.5520000  33.3870000  12.7290000  26.9050000
  32.6310000  12.6340000  27.7450000  34.3370000  12.6450000  27.4770000
  33.3860000  14.1600000  26.2910000  33.3910000  14.8390000  27.1340000
  34.2920000  14.3210000  25.8120000  32.2180000  14.6030000  25.3770000
  32.2380000  14.0160000  24.5050000  31.3040000  14.3510000  25.8720000
  32.3130000  16.0060000  24.9160000  32.6810000  16.9130000  25.6190000
  32.0000000  16.1580000  23.5890000  32.4000000  17.3640000  22.9170000
  31.5830000  17.7000000  22.2710000  32.6240000  18.0710000  23.7180000
  33.8020000  17.0320000  22.2310000  34.1590000  18.0580000  22.0250000
  33.4710000  16.2730000  20.8880000  33.3670000  15.1570000  21.0860000
  32.4410000  16.4070000  20.4720000  34.3930000  16.6920000  19.8170000
  34.6880000  15.8110000  18.5100000  35.5170000  14.6590000  19.0700000
  36.9070000  14.8280000  19.3970000  37.3930000  15.7060000  19.0470000
  37.1400000  14.6620000  20.4490000  37.5770000  13.6170000  18.8340000
  38.6340000  13.4290000  19.1270000  36.9670000  12.8180000  19.3270000
  37.4080000  13.5760000  17.3110000  38.2080000  12.3650000  16.9320000
  38.1430000  12.2830000  15.8290000  39.2540000  12.4010000  17.2650000
  37.8230000  11.5280000  17.5310000  36.0670000  13.2210000  16.7210000
  35.9860000  12.1320000  16.9330000  35.2800000  13.7990000  17.1650000
  36.1930000  13.3890000  15.6870000  37.9550000  14.7410000  16.5180000
  37.5870000  15.6990000  16.9750000  37.4810000  14.6430000  15.5550000
  39.0590000  14.6670000  16.3290000  33.4120000  15.2600000  18.0820000
  35.5500000  16.6040000  17.6310000  34.7050000  16.2270000  23.0500000
  35.9640000  16.6570000  23.2330000  36.5080000  17.5600000  22.6390000
  36.8150000  15.7780000  24.1400000  36.2230000  15.3340000  24.8960000
  37.5250000  16.5480000  24.5560000  37.5060000  14.7060000  23.2770000
  38.2350000  15.1580000  22.6420000  36.7810000  14.2970000  22.6130000
  38.2500000  13.5480000  23.8370000  39.1700000  13.8920000  24.3160000
  38.7070000  13.0780000  23.0120000  37.4400000  12.5900000  24.7550000
  38.0130000  11.6530000  24.8190000  36.5410000  12.1940000  24.2190000
  37.2350000  12.9430000  26.2920000  36.8440000  12.0330000  26.7810000
  36.4860000  13.7710000  26.3210000  38.6010000  13.3840000  26.9720000
  39.0900000  14.1660000  26.4590000  39.2840000  12.5230000  26.8510000
  38.3600000  13.7680000  28.4510000  37.9150000  12.9120000  29.1010000
  37.6530000  14.5970000  28.3030000  39.6330000  14.2460000  29.0980000
  39.5560000  15.3240000  29.1310000  40.6180000  13.5010000  29.6830000
  41.4740000  14.0730000  30.1490000  40.5670000  12.0530000  29.8460000
  39.8570000  11.5610000  29.2260000  40.2480000  11.7700000  30.8970000
  41.9540000  11.3730000  29.5450000  41.9450000  10.3250000  29.9010000
  42.7610000  11.9140000  30.1140000  42.3720000  11.4040000  28.0840000
  41.7700000  10.6120000  27.5410000  43.3720000  10.9880000  28.0970000
  42.5420000  12.7830000  27.3670000  43.0510000  13.4250000  28.0970000
  41.4390000  13.1480000  27.2580000  43.2040000  13.0350000  25.9530000
  44.1520000  12.6200000  25.9800000  43.2020000  14.1340000  25.8830000
  42.5700000  12.5050000  24.6680000  41.8160000  13.2450000  24.3630000
  42.0300000  11.5660000  24.9250000  43.5630000  12.2350000  23.5440000
  44.2330000  11.4560000  23.7710000  44.2120000  13.1390000  23.3000000
  42.6940000  11.9500000  22.3540000  42.0910000  12.8320000  21.8880000
  41.9720000  11.1480000  22.5700000  43.2610000  11.4700000  21.5450000
  14.1260000 113.3050000  32.1510000  13.9200000 112.5020000  31.4060000
  13.5310000 114.1260000  31.8380000  13.9260000 112.9110000  33.1650000
  15.6050000 113.6900000  32.0440000  15.8990000 114.2710000  31.1140000
  16.0090000 114.2990000  32.9230000  16.5440000 112.4870000  32.0420000
  16.2780000 111.7880000  31.2460000  17.5400000 112.8820000  31.7980000
  16.7660000 111.6680000  33.3700000  16.9580000 112.3300000  34.1880000
  15.8260000 111.2220000  33.7130000  18.0600000 110.7880000  33.3400000
  18.0500000 110.1640000  32.4700000  18.8690000 111.4920000  33.2090000
  18.3950000 109.9270000  34.5380000  19.0460000 110.4670000  35.2330000
  17.4230000 109.7780000  35.0910000  18.9680000 108.5490000  34.1810000
  20.0150000 108.6520000  33.8540000  19.0170000 108.0200000  35.1350000
  18.2250000 107.5970000  33.2360000  18.1420000 108.1370000  32.3460000
  18.7910000 106.7110000  33.0710000  16.7990000 107.2060000  33.7540000
  16.8930000 106.5730000  34.6290000  16.2400000 108.1230000  33.9380000
  15.9570000 106.4330000  32.7200000  16.5120000 105.5650000  32.4370000
  14.9320000 106.1170000  33.0890000  15.6320000 107.2950000  31.4400000
  15.1290000 108.1920000  31.8370000  16.5040000 107.6590000  30.8440000
  14.7690000 106.6230000  30.4400000  13.8940000 106.0960000  30.9470000
  14.3930000 107.4930000  29.8300000  15.5170000 105.7090000  29.5100000
  16.1300000 106.4620000  29.0020000  16.2100000 105.1460000  30.1360000
  14.6480000 104.9130000  28.5480000  14.0600000 104.1650000  29.1560000
  13.8580000 105.5370000  27.9590000  15.5550000 104.0400000  27.6630000
  16.3970000 103.6860000  28.2670000  14.9840000 103.1890000  27.3420000
  16.2080000 104.6570000  26.5060000  15.8470000 105.7100000  25.9220000
  17.2690000 103.9380000  26.1600000  18.2420000 104.4960000  25.2570000
  18.9390000 103.7310000  24.7740000  17.7320000 105.1540000  24.5050000
  19.2410000 105.4400000  26.0460000  18.6270000 106.2710000  26.4350000
  20.2720000 106.0920000  25.1370000  19.8330000 107.1100000  24.9660000
  21.0720000 106.3260000  25.7680000  20.7470000 105.4580000  23.9000000
  20.2550000 105.9510000  22.4350000  20.3720000 104.5470000  21.5950000
  19.2690000 103.6150000  21.6010000  19.7440000 102.6080000  21.7100000
  18.6200000 103.7620000  22.4200000  18.5580000 103.7460000  20.2230000
  18.1890000 104.7880000  20.0780000  19.3430000 103.7930000  19.4440000
  17.4900000 102.9000000  19.8360000  17.6850000 101.3890000  19.9380000
  18.6940000 101.0830000  19.6350000  17.5060000 100.9960000  20.9440000
  16.9760000 100.8020000  19.3190000  16.2660000 103.2430000  20.6730000
  16.0560000 104.2240000  20.5720000  15.3870000 102.6950000  20.2960000
  16.3850000 102.9140000  21.6920000  17.2540000 103.1870000  18.4170000
  18.1730000 102.8030000  17.9190000  17.1880000 104.2650000  18.3060000
  16.3730000 102.6470000  18.1140000  18.8950000 106.4510000  22.6480000
  21.2930000 106.8910000  21.8730000  19.8310000 104.7000000  27.1220000
  19.6680000 105.1010000  28.3590000  19.0010000 106.0750000  28.7070000
  20.4110000 104.1800000  29.2510000  21.4010000 104.5880000  29.2140000
  20.4770000 103.1510000  28.8740000  20.0660000 104.1960000  30.7510000
  19.0250000 103.9340000  30.8930000  20.1860000 105.2290000  31.1210000
  20.9780000 103.2760000  31.5530000  22.0160000 103.5850000  31.4190000
  20.7840000 102.3000000  31.1220000  20.5920000 103.1920000  33.0910000
  19.5410000 103.1060000  33.1980000  21.0160000 104.0640000  33.6260000
  21.0730000 101.9750000  33.7530000  20.5240000 101.0510000  33.3700000
  20.8510000 102.0190000  34.8090000  22.6510000 101.7130000  33.5830000
  22.7410000 101.6040000  32.4700000  22.9430000 100.7120000  33.8650000
  23.5120000 102.8190000  34.1920000  23.3740000 102.6960000  35.2680000
  23.2320000 103.8490000  33.7980000  24.9560000 102.5610000  33.8010000
  25.3230000 101.5550000  33.7820000  25.7490000 103.4720000  33.3750000
  26.7080000 103.1830000  33.0230000  25.3420000 104.8850000  33.2270000
  24.6790000 105.1740000  34.0200000  24.9400000 105.1480000  32.2650000
  26.5640000 105.8360000  33.3440000  27.0710000 105.7850000  32.3560000
  27.1440000 105.5110000  34.2380000  26.2090000 107.3110000  33.5600000
  25.3460000 107.4540000  32.8180000  26.9350000 108.0120000  33.2210000
  25.6970000 107.5460000  34.9630000  26.5380000 107.3470000  35.5810000
  24.8550000 106.9200000  35.2300000  25.2360000 109.0090000  35.2650000
  26.0340000 109.6890000  35.1300000  25.0470000 108.8780000  36.3730000
  23.9320000 109.2550000  34.3960000  23.3470000 108.3300000  34.2550000
  24.2660000 109.5810000  33.4420000  23.0360000 110.3260000  35.1320000
  22.4480000 110.7850000  34.3300000  23.7980000 111.0190000  35.4390000
  22.1540000 109.8510000  36.3020000  22.7260000 109.1280000  36.9740000
  21.3130000 109.3430000  35.7480000  21.8820000 110.7010000  36.9200000
  97.2340000  39.7740000  36.3270000  96.1340000  39.8160000  36.3690000
  97.4870000  40.7280000  35.8400000  97.6550000  39.7080000  37.2990000
  97.7850000  38.5940000  35.5540000  98.8550000  38.3300000  35.7360000
  97.2780000  37.7470000  35.9640000  97.5650000  38.6710000  33.9980000
  96.5000000  38.6980000  33.7830000  98.0650000  39.5070000  33.4460000
  98.0220000  37.3470000  33.3600000  99.1600000  37.3300000  33.5400000
  97.4900000  36.4040000  33.6190000  97.9350000  37.4170000  31.7900000
  96.9240000  37.5300000  31.5420000  98.4870000  38.2800000  31.4390000
  98.5910000  36.0770000  31.3220000  98.0650000  35.2360000  31.7290000
  98.4080000  36.0590000  30.2600000 100.0900000  35.8520000  31.6620000
 100.5970000  36.8110000  31.3720000 100.2840000  35.8360000  32.7120000
 100.7750000  34.6380000  30.9680000 100.5520000  34.5640000  29.9380000
 101.8490000  34.8120000  30.8680000 100.4030000  33.2200000  31.5490000
 100.4470000  33.1040000  32.6450000  99.3340000  33.0490000  31.2950000
 101.1860000  32.0730000  30.9020000 102.2050000  32.1920000  31.2760000
 100.7470000  31.0430000  31.1530000 101.1090000  32.0100000  29.3750000
 101.6410000  32.9200000  28.9440000 101.6430000  31.2260000  28.9550000
  99.6820000  32.0180000  28.7690000  99.1040000  31.2510000  29.3460000
  99.1940000  32.9210000  29.1140000  99.3980000  31.8290000  27.2470000
 100.1200000  31.1240000  26.9220000  98.4710000  31.4330000  27.0970000
  99.6160000  33.0930000  26.4520000  99.0170000  33.9830000  26.9140000
 100.7130000  33.4640000  26.4950000  99.3420000  32.9230000  24.9780000
 100.0810000  32.2120000  24.5960000  98.4270000  32.3840000  24.8570000
  99.3370000  34.2290000  24.2060000  98.8120000  35.2680000  24.6410000
  99.9630000  34.1680000  22.9490000  99.9580000  35.3800000  22.1840000
  98.9290000  35.8330000  22.0450000 100.3950000  36.2220000  22.7000000
 100.7120000  35.2250000  20.8160000 100.6230000  36.1050000  20.2370000
 100.3110000  33.9970000  19.9570000 101.2230000  33.6270000  19.4750000
  99.8550000  33.2300000  20.5900000  99.5820000  34.3650000  18.7530000
  98.0400000  34.9780000  18.8270000  97.3300000  33.6490000  19.3060000
  96.2370000  33.0240000  18.5670000  95.5800000  32.3530000  19.2040000
  95.6320000  33.8390000  18.0800000  96.7100000  32.1110000  17.4110000
  95.7680000  31.5980000  17.1220000  97.0490000  32.6690000  16.5450000
  97.7070000  31.0020000  17.7720000  99.1110000  31.5230000  17.6360000
  99.1010000  32.2930000  18.4620000  99.7530000  30.6660000  17.8840000
  99.2450000  31.8300000  16.6540000  97.5390000  30.4980000  19.1800000
  97.8750000  31.2340000  19.9350000  96.4380000  30.1950000  19.1820000
  98.1780000  29.6590000  19.3360000  97.4750000  29.9430000  16.7640000
  97.4780000  30.3290000  15.7560000  96.5240000  29.4460000  17.0680000
  98.3260000  29.3320000  16.7490000  97.9500000  36.0260000  19.8990000
  97.6100000  35.3480000  17.4710000 102.1310000  35.1420000  21.1060000
 102.9360000  36.2550000  21.1010000 102.5730000  37.2910000  20.5560000
 104.1540000  36.0820000  21.9610000 105.0220000  36.1570000  21.3220000
 104.1440000  35.0430000  22.3540000 104.1900000  37.0100000  23.1670000
 104.0330000  38.0360000  22.7990000 105.1880000  36.9080000  23.4860000
 103.1980000  36.7210000  24.3520000 103.5330000  35.8130000  24.8280000
 102.1750000  36.6190000  24.0640000 103.1970000  37.8970000  25.3420000
 102.7890000  38.8220000  24.8030000 104.2210000  38.0580000  25.6540000
 102.3780000  37.6000000  26.6490000 102.7200000  36.7070000  27.2210000
 101.3450000  37.4160000  26.2720000 102.3770000  38.7720000  27.6530000
 102.2400000  39.7050000  27.0770000 103.2560000  38.7620000  28.2500000
 101.1630000  38.7100000  28.6260000 101.3090000  37.9140000  29.3330000
 100.1910000  38.5420000  28.1300000 100.9030000  40.0500000  29.2960000
 100.2880000  40.7580000  28.7010000 101.2540000  40.2840000  30.5080000
 100.8560000  41.2030000  30.9060000 102.0330000  39.4270000  31.4790000
 102.9830000  39.9520000  31.6950000 102.2540000  38.4930000  30.9870000
 101.4270000  39.1350000  32.8490000 100.4980000  38.7520000  32.7270000
 101.2840000  40.1120000  33.2810000 102.4400000  38.3900000  33.7870000
 103.3420000  38.9560000  33.9710000 102.6860000  37.4570000  33.2100000
 101.6790000  38.1790000  35.1330000 100.7370000  37.5780000  35.0840000
 101.3910000  39.1630000  35.4000000 102.5660000  37.4690000  36.2970000
 101.9000000  37.4410000  37.1150000 103.5140000  38.0290000  36.5300000
 102.9140000  36.0330000  35.8710000 103.7120000  35.6230000  36.4010000
 103.3230000  36.1860000  34.8320000 101.7190000  34.9710000  35.8140000
 100.9900000  35.3050000  35.1210000 101.1930000  34.8090000  36.7300000
 102.3270000  33.6200000  35.3140000 102.8000000  33.2240000  36.1540000
 103.0760000  33.7570000  34.4660000 101.5190000  32.9330000  34.9600000
  42.1430000 116.1080000  36.5950000  42.1000000 117.2230000  36.7750000
  42.2720000 115.6900000  37.6380000  41.2150000 115.7550000  36.2480000
  43.2010000 115.6670000  35.5350000  44.1210000 116.1280000  35.7840000
  43.2550000 114.5180000  35.6130000  42.8510000 115.9350000  34.1180000
  41.8640000 115.5670000  33.8900000  42.7160000 116.9710000  33.9890000
  43.9230000 115.4300000  33.1000000  44.9250000 115.7330000  33.4220000
  43.8590000 114.3330000  33.1490000  43.6310000 115.7850000  31.6600000
  44.5400000 115.5200000  31.0960000  42.7620000 115.2030000  31.2870000
  43.2610000 117.2940000  31.2640000  42.2950000 117.6280000  31.6060000
  44.0220000 117.9940000  31.6470000  43.2660000 117.3880000  29.7880000
  42.5250000 116.5670000  29.4410000  42.7690000 118.3300000  29.4620000
  44.5220000 117.0860000  28.9290000  44.7180000 115.9910000  28.8910000
  44.1890000 117.3670000  27.9230000  45.8270000 117.8770000  29.3120000
  46.1350000 117.8150000  30.2840000  46.5730000 117.3740000  28.6860000
  45.8130000 119.3570000  28.8260000  46.6170000 119.5410000  28.1740000
  44.9610000 119.4180000  28.1520000  45.5370000 120.2560000  30.0000000
  44.5750000 119.9910000  30.5110000  46.3750000 120.1470000  30.7180000
  45.4200000 121.7490000  29.6910000  45.0550000 122.1350000  30.6490000
  46.3340000 122.1780000  29.4160000  44.3050000 122.3320000  28.7940000
  44.0350000 123.3760000  29.0500000  44.6620000 122.3200000  27.7580000
  42.9810000 121.5140000  28.8600000  43.0560000 120.5250000  28.4130000
  42.6000000 121.5000000  29.8350000  41.8520000 122.1710000  28.0450000
  40.8970000 121.6090000  28.1850000  41.7530000 123.1060000  28.5340000
  42.0240000 122.4300000  26.5410000  43.0230000 122.0670000  25.9370000
  40.9100000 122.9360000  25.9960000  41.0470000 123.1040000  24.4810000
  41.9370000 123.7120000  24.3150000  41.1890000 122.1380000  24.0150000
  39.7180000 123.7610000  23.8890000  38.9160000 123.0990000  24.0550000
  39.9170000 124.1130000  22.4140000  40.9110000 124.6330000  22.3380000
  40.1300000 123.0930000  21.8990000  38.7200000 124.6770000  21.7940000
  38.2400000 126.2430000  21.8890000  39.4070000 127.0000000  22.5510000
  39.1400000 128.3600000  22.9740000  38.5210000 128.9120000  22.3090000
  38.6430000 128.2640000  23.8700000  40.5380000 129.1180000  23.0860000
  40.3430000 130.1690000  23.0040000  41.0310000 128.9170000  23.9950000
  41.5400000 129.0720000  21.9980000  42.4460000 130.2440000  22.1480000
  42.9420000 130.2620000  23.1130000  43.2660000 130.0310000  21.4290000
  41.9000000 131.1950000  21.9500000  42.5310000 127.8760000  22.2290000
  41.8790000 126.8840000  22.2530000  43.3100000 127.8610000  21.4050000
  43.0850000 128.1880000  23.1350000  40.9120000 129.0100000  20.6560000
  41.7460000 128.8980000  19.9890000  40.5180000 129.9380000  20.4690000
  40.1160000 128.2610000  20.6030000  38.1060000 126.7220000  20.5390000
  37.0110000 126.3320000  22.7380000  39.4910000 124.9420000  24.7110000
  38.4540000 124.9150000  25.5120000  37.6610000 123.9960000  25.6920000
  38.2350000 126.2980000  26.2020000  37.7640000 127.0220000  25.5360000
  39.2850000 126.7200000  26.3030000  37.5950000 126.0520000  27.6280000
  36.6990000 125.4320000  27.7020000  37.2960000 126.9910000  28.0420000
  38.7490000 125.4810000  28.4860000  39.6720000 126.1720000  28.3610000
  39.1170000 124.5360000  28.0580000  38.2230000 125.2530000  29.8690000
  37.7230000 124.2400000  29.8840000  37.5230000 126.0810000  30.0920000
  39.1600000 125.2390000  31.0090000  40.0540000 124.7430000  30.6930000
  39.4290000 126.1780000  31.3900000  38.6510000 124.4770000  32.2280000
  39.4690000 124.3880000  32.9680000  38.5070000 123.4180000  31.9530000
  37.3540000 124.9120000  32.9980000  36.5260000 124.9060000  32.2340000
  37.3150000 125.9090000  33.4800000  37.0010000 123.8580000  34.0430000
  36.6060000 122.9900000  33.5530000  36.9250000 124.0010000  35.3620000
  36.4450000 123.2360000  35.9450000  37.4980000 125.1990000  36.1080000
  36.7390000 125.9650000  36.2320000  38.2730000 125.7160000  35.6100000
  37.8910000 124.5420000  37.4170000  37.1080000 124.0150000  37.7980000
  38.2500000 125.1660000  38.1990000  39.0260000 123.4870000  37.4570000
  38.6780000 122.6150000  36.7670000  39.0810000 123.0080000  38.4670000
  40.4220000 124.0130000  37.1280000  40.7450000 124.7410000  37.9050000
  40.4750000 124.5340000  36.1660000  41.4360000 122.8580000  37.0310000
  41.1270000 122.1470000  36.2270000  41.4630000 122.2830000  37.9160000
  42.8390000 123.4080000  36.8040000  43.0550000 124.2850000  37.4730000
  42.9450000 123.9200000  35.8540000  43.9000000 122.2690000  36.9370000
  43.6680000 121.4110000  36.3030000  44.0350000 121.9160000  37.9810000
  45.2710000 122.7160000  36.6410000  45.3480000 122.9440000  35.6140000
  46.0620000 122.0480000  36.9590000  45.5200000 123.5500000  37.1730000
 117.4720000  44.7450000  32.0650000 117.5470000  43.8170000  32.6860000
 116.8240000  45.5270000  32.4970000 118.4120000  45.2800000  32.0450000
 116.9700000  44.2640000  30.6470000 117.7810000  43.6920000  30.2930000
 116.0810000  43.6030000  30.6790000 116.5850000  45.3510000  29.6310000
 115.9570000  45.0010000  28.8410000 115.8990000  45.9540000  30.1360000
 117.6350000  46.1890000  28.9430000 118.2710000  45.5230000  28.3430000
 117.2580000  46.9390000  28.2550000 118.5940000  46.8190000  29.8960000
 117.9940000  47.2640000  30.6500000 119.3180000  46.1240000  30.3840000
 119.1190000  48.0490000  29.1360000 119.4420000  47.7910000  28.1150000
 118.3270000  48.8300000  29.0300000 120.2350000  48.8720000  29.7980000
 120.0410000  49.9490000  29.4650000 120.0940000  48.7370000  30.8650000
 121.6070000  48.3180000  29.4090000 121.6850000  47.2320000  29.4790000
 121.8090000  48.4990000  28.3430000 122.7820000  48.9980000  30.1470000
 122.7130000  50.0550000  30.1960000 122.7030000  48.6060000  31.1980000
 124.1950000  48.5590000  29.7130000 124.8960000  49.0310000  30.3360000
 124.4080000  47.4350000  29.8820000 124.5160000  48.9800000  28.2110000
 123.8530000  48.4130000  27.5340000 124.2700000  49.9960000  28.1710000
 126.0410000  48.7760000  27.9530000 126.6510000  49.4490000  28.6190000
 126.2580000  47.7180000  28.2080000 126.2150000  49.1050000  26.4550000
 127.1570000  48.6750000  26.1670000 125.4690000  48.6080000  25.9070000
 126.1580000  50.6710000  26.0770000 125.3050000  51.0180000  26.6140000
 127.0700000  51.1340000  26.6040000 126.0390000  50.9080000  24.4920000
 126.8540000  50.3150000  23.9720000 125.0230000  50.6010000  24.1580000
 126.0630000  52.3770000  24.1400000 126.5880000  53.3000000  24.7350000
 125.3820000  52.5360000  22.9790000 125.3990000  53.8730000  22.3480000
 125.2630000  54.6390000  23.1090000 126.3800000  54.1820000  21.9370000
 124.2330000  53.7410000  21.2990000 124.3490000  52.8570000  20.6540000
 124.3160000  54.9490000  20.3950000 124.0400000  55.8390000  20.9660000
 125.3530000  55.0260000  19.9830000 123.3700000  54.7120000  19.2300000
 123.7040000  55.4980000  17.9350000 123.1180000  54.5110000  16.7840000
 123.8100000  53.3860000  16.2690000 123.7220000  53.2160000  15.1860000
 124.8880000  53.4500000  16.3820000 123.3350000  52.0920000  17.0310000
 124.0380000  51.3420000  16.6940000 123.5500000  52.2280000  18.0910000
 121.9840000  51.5670000  16.8840000 121.7540000  50.2840000  17.6380000
 120.6990000  50.1550000  17.9530000 122.0690000  49.4740000  16.9800000
 122.3570000  50.2710000  18.5520000 121.0310000  52.5900000  17.4890000
 120.0380000  52.1800000  17.4830000 121.2480000  52.6270000  18.5710000
 121.0890000  53.5610000  16.9910000 121.5400000  51.5050000  15.4770000
 120.4000000  51.4240000  15.5080000 121.8930000  50.5320000  15.0040000
 121.8380000  52.3860000  14.9030000 122.8430000  56.6960000  17.8610000
 125.1450000  55.5660000  17.8920000 122.8810000  53.7610000  21.9390000
 121.9350000  52.9950000  21.4200000 122.1050000  52.1680000  20.5510000
 120.5810000  53.2820000  22.0060000 120.5160000  54.3760000  22.1700000
 120.5510000  52.7440000  22.9380000 119.4480000  52.9030000  20.9800000
 119.7370000  53.1600000  19.9820000 118.5550000  53.4650000  21.1510000
 118.9750000  51.4610000  20.9970000 118.6110000  51.2810000  22.0110000
 119.8220000  50.7670000  20.8470000 117.9340000  51.2580000  19.8540000
 118.5530000  51.3350000  18.9740000 117.3250000  52.1110000  19.6640000
 117.0260000  49.9920000  19.7460000 117.6990000  49.1560000  19.6770000
 116.3610000  49.9550000  18.8710000 116.0190000  49.7990000  20.9230000
 115.4790000  50.7460000  21.0710000 116.5630000  49.6800000  21.8620000
 115.0030000  48.6290000  20.7310000 115.6060000  47.7000000  20.6170000
 114.4520000  48.8430000  19.7930000 114.1520000  48.5920000  21.9370000
 114.0640000  49.5820000  22.4300000 113.4980000  47.4880000  22.3800000
 112.9480000  47.5580000  23.2950000 113.5410000  46.1010000  21.7150000
 114.3560000  45.5130000  22.0990000 113.7170000  46.2490000  20.5980000
 112.1740000  45.4340000  21.9580000 111.3940000  45.9670000  21.4410000
 111.8140000  45.5080000  23.0000000 112.1340000  44.0900000  21.5120000
 112.5120000  44.0630000  20.5180000 111.0370000  43.7920000  21.5610000
 113.1170000  43.1940000  22.2730000 113.0050000  43.4800000  23.3010000
 114.1490000  43.4430000  22.0150000 112.9120000  41.7070000  22.0590000
 113.0510000  41.5570000  20.9340000 111.8430000  41.4550000  22.2090000
 113.8440000  40.8570000  22.8570000 114.8360000  41.3220000  22.9350000
 113.9730000  39.9300000  22.3320000 113.4640000  40.5120000  24.2880000
 113.5830000  41.3830000  24.9230000 114.2630000  39.7690000  24.5410000
 112.0300000  40.0330000  24.4770000 111.3800000  40.8820000  24.6510000
 112.0270000  39.4900000  25.4290000 111.6630000  39.3870000  23.6470000
  59.7300000  41.8130000  32.7610000  60.7800000  41.9040000  33.0360000
  59.1420000  41.2160000  33.4570000  59.3850000  42.8270000  32.7970000
  59.5800000  41.3570000  31.3390000  60.0090000  42.1020000  30.6590000
  60.1180000  40.4290000  31.1350000  58.0700000  41.2120000  31.0270000
  57.6430000  40.5730000  31.8710000  57.5450000  42.1680000  31.0050000
  57.7810000  40.4420000  29.7620000  58.2700000  41.0160000  28.8930000
  58.2470000  39.4480000  29.8100000  56.2630000  40.0480000  29.4810000
  55.8630000  39.3160000  30.1890000  55.6620000  40.9660000  29.4190000
  56.2280000  39.3420000  28.0470000  56.9140000  39.9100000  27.4300000
  56.7230000  38.3100000  28.2180000  54.8430000  39.2760000  27.5160000
  54.2900000  38.7430000  28.2240000  54.4480000  40.2610000  27.4600000
  54.6440000  38.5640000  26.1940000  53.5810000  38.8930000  25.9150000
  55.2770000  38.9830000  25.4580000  54.7900000  37.0760000  26.2530000
  55.8670000  36.9260000  26.2860000  54.2160000  36.6210000  27.0800000
  54.3110000  36.3450000  24.9760000  53.2280000  36.6610000  24.7990000
  54.9280000  36.7170000  24.1570000  54.3730000  34.8740000  25.1200000
  55.3430000  34.5460000  25.4120000  53.7240000  34.5800000  25.9610000
  53.9700000  34.0010000  23.8500000  54.5830000  34.2740000  23.0010000
  54.1700000  32.9660000  23.9870000  52.4900000  34.1540000  23.4680000
  52.2820000  35.2390000  23.3550000  52.3620000  33.5730000  22.5030000
  51.4470000  33.8370000  24.5450000  50.8290000  32.9720000  24.1350000
  51.9180000  33.4330000  25.5020000  50.3640000  34.9050000  24.8050000
  49.7890000  34.4890000  25.6370000  50.7960000  35.8900000  25.0920000
  49.4560000  35.1160000  23.5780000  48.5940000  34.3530000  23.2500000
  49.7890000  36.1740000  22.8540000  48.9910000  36.4510000  21.6750000
  49.0810000  35.7410000  20.9460000  47.9430000  36.5920000  22.0430000
  49.3110000  37.8860000  21.1140000  49.1890000  38.5720000  21.9320000
  48.3570000  38.3480000  19.9740000  47.3190000  38.2720000  20.3020000
  48.4470000  39.4000000  19.8870000  48.6400000  37.7920000  18.7260000
  48.3520000  36.3490000  18.2880000  49.8430000  35.6890000  18.4290000
  50.7730000  35.8550000  17.3590000  50.1930000  35.7330000  16.4090000
  51.1510000  36.8360000  17.4660000  51.9760000  34.8760000  17.4550000
  51.6250000  33.8310000  17.3150000  52.5980000  35.0920000  16.5510000
  52.8570000  34.9860000  18.6450000  53.8000000  33.8930000  18.5200000
  54.2030000  34.0220000  17.5150000  54.5130000  33.9630000  19.3730000
  53.1800000  32.9950000  18.5990000  53.7910000  36.1090000  18.6040000
  53.2290000  37.0620000  18.4830000  54.2860000  36.1120000  19.5490000
  54.6450000  35.9640000  17.8240000  52.2240000  34.8890000  19.9970000
  51.4070000  35.6590000  20.1470000  52.9980000  34.9710000  20.7010000
  51.8250000  33.9250000  20.0340000  47.4930000  35.5850000  19.2260000
  48.0390000  36.3550000  16.8240000  50.6980000  37.9630000  20.7270000
  51.3160000  39.2260000  20.6960000  50.7030000  40.2300000  20.9380000
  52.7470000  39.1060000  20.2950000  52.9790000  39.8150000  19.4990000
  53.0230000  38.1290000  19.9100000  53.6560000  39.3780000  21.4780000
  53.4300000  38.6640000  22.2420000  53.4820000  40.4080000  21.7350000
  55.1690000  39.2970000  21.2430000  55.4660000  40.0410000  20.4810000
  55.3610000  38.2980000  20.9920000  56.0430000  39.5380000  22.4720000
  57.0480000  39.1540000  22.3900000  55.4680000  39.0920000  23.3460000
  56.2690000  41.0060000  22.8170000  55.3130000  41.5120000  23.0850000
  56.7500000  41.5720000  22.0150000  57.1620000  40.9590000  24.0560000
  58.0740000  40.4100000  23.9800000  56.6940000  40.4180000  24.8780000
  57.5350000  42.3670000  24.5650000  56.5920000  42.8810000  24.8450000
  58.0090000  42.9880000  23.8350000  58.5030000  42.3150000  25.6940000
  58.8790000  41.3500000  25.9710000  58.6070000  43.3620000  26.5430000
  59.1400000  43.1960000  27.5170000  58.1840000  44.8020000  26.3690000
  57.4270000  44.8240000  25.5790000  59.0410000  45.3750000  25.9510000
  57.5980000  45.4620000  27.6510000  56.7260000  45.0330000  28.1320000
  57.3610000  46.5020000  27.4030000  58.7010000  45.5320000  28.7610000
  59.7180000  45.7000000  28.4020000  58.6960000  44.5120000  29.1770000
  58.4500000  46.7010000  29.7770000  58.4690000  47.6440000  29.2520000
  59.3390000  46.6390000  30.4090000  57.1650000  46.6360000  30.6500000
  56.2470000  46.6310000  30.0390000  57.1420000  47.5510000  31.2760000
  57.2730000  45.2940000  31.5740000  58.2490000  45.1600000  31.9790000
  57.1810000  44.3560000  31.0360000  56.2240000  45.1950000  32.6750000
  55.1970000  45.3070000  32.3150000  56.3600000  46.1390000  33.2170000
  56.3940000  44.0400000  33.6760000  55.9960000  43.0600000  33.2220000
  55.7760000  44.3340000  34.4760000  57.4540000  44.0110000  34.0180000
  92.7320000  36.4320000  33.3650000  93.2960000  35.5120000  33.1730000
  91.9030000  36.1620000  33.9070000  93.3690000  37.1950000  33.9390000
  92.1780000  37.0980000  32.0100000  91.6310000  38.0380000  32.1730000
  93.0050000  37.3970000  31.3910000  91.4160000  36.1420000  31.2120000
  90.5090000  35.8870000  31.7990000  91.1340000  36.7150000  30.3260000
  92.1020000  34.8920000  30.7900000  93.0710000  35.0770000  30.4220000
  92.1440000  34.2550000  31.6820000  91.4410000  34.2110000  29.5060000
  90.2940000  34.0160000  29.6080000  91.5430000  34.8490000  28.6240000
  91.9440000  32.7830000  29.1700000  93.0720000  32.8790000  29.2160000
  91.6700000  32.0980000  30.0240000  91.3950000  32.3530000  27.8010000
  90.2660000  32.3820000  27.8110000  91.7810000  33.0940000  27.0880000
  91.8840000  30.9040000  27.4700000  91.6120000  30.1560000  28.3250000
  91.4290000  30.6330000  26.4910000  93.4330000  30.8060000  27.4080000
  93.9080000  31.6230000  26.8320000  93.8810000  30.9270000  28.4030000
  93.9530000  29.4460000  26.8010000  93.7100000  28.5830000  27.3720000
  93.4680000  29.3050000  25.8480000  95.4850000  29.6500000  26.5630000
  95.6220000  30.6070000  26.0310000  96.0620000  29.7480000  27.4650000
  96.1140000  28.5600000  25.6500000  95.9000000  27.6580000  26.1330000
  95.5410000  28.5420000  24.7570000  97.5730000  28.7120000  25.4100000
  97.7540000  29.5450000  24.7550000  98.1620000  28.7970000  26.3630000
  98.1140000  27.4940000  24.6390000  99.1590000  27.3070000  24.6980000
  97.6510000  26.5180000  25.0060000  97.7780000  27.5530000  23.1750000
  96.8050000  27.9480000  22.9740000  98.5050000  28.2090000  22.6710000
  97.7900000  26.2460000  22.4730000  98.7620000  25.8610000  21.8400000
  96.7210000  25.5540000  22.8800000  96.3760000  24.2580000  22.3550000
  95.5320000  23.8550000  22.8700000  96.2190000  24.2070000  21.2760000
  97.4980000  23.2200000  22.5550000  98.2740000  23.3580000  21.7970000
  96.9680000  21.7950000  22.4460000  97.7550000  21.0340000  22.7030000
  96.0610000  21.7730000  23.0930000  96.5090000  21.4720000  21.0990000
  97.4680000  21.1430000  19.8840000  96.5910000  20.1370000  19.0400000
  96.0470000  19.0260000  19.6790000  96.8880000  18.2970000  19.7080000
  95.6380000  19.2840000  20.6590000  94.8760000  18.5700000  18.7810000
  94.1350000  19.2980000  18.8330000  95.2030000  18.3360000  17.7430000
  94.3000000  17.2370000  19.2030000  93.5650000  17.4780000  20.4470000
  94.2740000  17.8540000  21.1980000  92.8680000  18.2740000  20.2040000
  93.1230000  16.6300000  20.9560000  93.2680000  16.7900000  18.1690000
  93.7660000  16.5260000  17.2400000  92.6980000  15.9680000  18.5490000
  92.4410000  17.5140000  18.0540000  95.3360000  16.2240000  19.2850000
  95.9760000  16.2840000  18.4070000  94.8890000  15.2350000  19.2770000
  95.9020000  16.2320000  20.2080000  97.6650000  22.3020000  19.0340000
  98.6540000  20.3870000  20.3940000  98.0630000  23.4800000  23.9250000
  99.3370000  23.1010000  24.1500000 100.0380000  22.5350000  23.3130000
  99.8620000  23.7030000  25.4240000  99.0300000  23.8250000  26.0880000
 100.2120000  24.7150000  25.1590000 101.0710000  22.9370000  26.0810000
 101.3260000  23.5100000  26.9910000 101.9050000  22.9020000  25.3290000
 100.8940000  21.4720000  26.4540000 101.7380000  21.1120000  26.9610000
 100.8480000  20.8500000  25.5380000  99.6740000  21.1470000  27.3570000
  99.4730000  22.0580000  27.9450000  99.9640000  20.3360000  28.0310000
  98.4560000  20.6190000  26.5620000  98.6520000  19.6090000  26.0830000
  98.1660000  21.2200000  25.7030000  97.1590000  20.4120000  27.4110000
  97.4450000  19.9310000  28.3630000  96.5400000  19.5700000  26.9080000
  96.2840000  21.6410000  27.6620000  95.7160000  21.8870000  26.7690000
  97.0090000  22.4300000  28.0240000  95.3540000  21.4200000  28.8490000
  95.0120000  22.3420000  29.2510000  95.0900000  20.2890000  29.4190000
  95.5070000  19.3940000  28.8690000  94.3600000  20.0650000  30.6910000
  94.8500000  19.3550000  31.3790000  93.4540000  19.5520000  30.4580000
  94.0670000  21.3940000  31.4000000  93.3870000  21.2260000  32.2510000
  93.5040000  22.0120000  30.7030000  95.2890000  22.2340000  31.8490000
  95.6070000  22.8160000  31.0020000  96.0550000  21.6130000  32.3820000
  94.8400000  23.1770000  32.9710000  94.6240000  22.6490000  33.9080000
  93.9970000  23.7040000  32.6380000  95.9110000  24.2110000  33.4390000
  96.3720000  24.6220000  32.5050000  96.7600000  23.8390000  34.0150000
  95.2280000  25.2350000  34.4180000  95.2480000  24.8190000  35.3890000
  94.1570000  25.3600000  34.0390000  95.8200000  26.6410000  34.3280000
  95.7700000  27.0370000  33.3710000  96.8650000  26.6440000  34.6370000
  95.1390000  27.6370000  35.3070000  95.1990000  28.6740000  34.9700000
  95.5110000  27.4900000  36.2840000  94.0800000  27.4110000  35.3850000
 100.4600000  21.0860000  33.8000000 100.0080000  20.2440000  33.2660000
 100.2080000  20.9090000  34.8870000 101.5320000  20.8880000  33.6370000
  99.8190000  22.4230000  33.2240000  98.8160000  22.2700000  32.9370000
  99.7820000  23.1740000  33.9320000 100.6500000  22.9300000  32.0160000
 101.5400000  23.3360000  32.5220000 100.9520000  22.1270000  31.3060000
 100.0060000  24.1170000  31.1860000  98.9050000  23.9630000  31.1240000
 100.0700000  24.9770000  31.8380000 100.8480000  24.4470000  29.9340000
 101.8710000  24.7160000  30.2370000 101.0120000  23.5410000  29.3620000
 100.2890000  25.6010000  29.0470000 100.6170000  25.6610000  28.0030000
  99.2480000  25.3340000  29.0050000 100.2040000  26.9890000  29.7180000
  99.8790000  26.9520000  30.7110000 101.2100000  27.4510000  29.7850000
  99.3800000  27.9860000  29.0280000  99.8930000  28.9520000  29.0450000
  99.3650000  27.8000000  27.9330000  98.0320000  28.3040000  29.6230000
  98.2310000  28.6740000  30.6140000  97.6300000  29.1610000  29.0640000
  96.9500000  27.2100000  29.7030000  96.7130000  26.7190000  28.7300000
  97.4190000  26.4790000  30.3510000  95.6810000  27.7020000  30.3600000
  95.9790000  28.0760000  31.3210000  95.3380000  28.5550000  29.7340000
  94.5880000  26.6840000  30.5870000  95.0300000  25.6810000  30.5690000
  94.0710000  26.8760000  31.5610000  93.4700000  26.7540000  29.5160000
  92.5850000  26.2570000  29.8230000  93.2860000  27.8300000  29.3240000
  93.8520000  25.9960000  28.2310000  94.6670000  26.5660000  27.8320000
  94.1500000  24.8990000  28.4510000  92.6780000  25.9350000  27.2670000
  91.8710000  25.2310000  27.5650000  92.2040000  26.9270000  27.2200000
  93.1050000  25.5330000  25.8660000  93.4290000  24.4140000  25.5170000
  92.9380000  26.4710000  24.8890000  93.2950000  26.1170000  23.4910000
  94.3820000  26.0290000  23.5170000  92.9540000  25.1070000  23.3050000
  92.9870000  27.2420000  22.4880000  91.8830000  27.4090000  22.5410000
  93.3540000  26.8110000  21.0020000  92.8130000  25.9320000  20.6080000
  93.0150000  27.5610000  20.3420000  94.7780000  26.6400000  20.7850000
  95.5240000  27.4530000  19.5250000  95.4060000  26.3890000  18.3140000
  96.5700000  25.5450000  18.2240000  97.3430000  26.1800000  17.8420000
  96.8590000  25.1420000  19.2430000  96.3230000  24.3880000  17.1930000
  96.4440000  24.6770000  16.2550000  97.0390000  23.6500000  17.3650000
  95.0180000  23.6250000  17.1990000  95.2400000  22.2340000  16.6470000
  95.5170000  22.3500000  15.5410000  96.0340000  21.6880000  17.2590000
  94.3330000  21.6120000  16.7150000  94.4970000  23.4670000  18.6000000
  94.4230000  24.4500000  19.0280000  93.5380000  22.9410000  18.5970000
  95.2280000  22.8270000  19.0740000  93.9610000  24.4150000  16.4610000
  93.9660000  25.3620000  17.0020000  93.0240000  23.9030000  16.5600000
  94.1190000  24.5040000  15.3480000  94.6960000  28.5740000  19.0750000
  96.9300000  27.7070000  19.8170000  93.6670000  28.4610000  22.7990000
  93.3830000  29.6610000  22.2090000  92.5370000  29.8570000  21.3950000
  94.4900000  30.5910000  22.5900000  94.8330000  31.0700000  21.6990000
  95.1960000  29.9140000  23.0430000  93.9700000  31.6600000  23.5230000
  93.4460000  31.2540000  24.3740000  93.1830000  32.2260000  22.9910000
  95.0430000  32.6570000  23.9380000  95.4060000  33.1600000  23.0620000
  95.8420000  32.0460000  24.3850000  94.5790000  33.7840000  24.9270000
  93.9680000  33.3510000  25.7460000  93.9820000  34.4850000  24.3000000
  95.7800000  34.5510000  25.5630000  96.2180000  35.3020000  24.9200000
  96.5800000  33.8260000  25.7370000  95.4570000  35.1770000  26.9200000
  94.7080000  35.9250000  26.9010000  96.4340000  35.5870000  27.1720000
  95.1600000  34.1300000  27.9890000  95.8780000  33.3580000  27.8190000
  94.0990000  33.8620000  27.7620000  95.2460000  34.6950000  29.3540000
  94.7060000  35.6180000  29.5940000  95.9520000  34.1360000  30.3360000
  95.9720000  34.5610000  31.3920000  96.5570000  32.7350000  30.4410000
  97.5970000  32.7600000  30.6560000  96.4450000  32.2440000  29.4230000
  95.8420000  31.9010000  31.5670000  96.1090000  32.4640000  32.4130000
  96.4110000  30.9400000  31.4980000  94.3300000  31.6260000  31.4080000
  94.1150000  31.2460000  30.4580000  93.8150000  32.5720000  31.4630000
  93.8270000  30.5810000  32.4220000  94.0570000  30.8740000  33.3790000
  94.4080000  29.6760000  32.0930000  92.3840000  30.1670000  32.1700000
  92.1190000  29.2960000  32.7640000  92.1470000  29.9350000  31.0990000
  91.3550000  31.2340000  32.7090000  90.3850000  30.7670000  32.7450000
  91.2860000  32.1020000  31.9790000  91.4570000  31.8710000  34.0850000
  92.5040000  32.2630000  34.1460000  91.4660000  31.1240000  34.8850000
  90.5340000  33.0290000  34.3720000  89.5860000  32.7620000  34.8940000
  90.2350000  33.5930000  33.4650000  91.0880000  33.7940000  34.9250000
 127.0730000  87.1300000  32.0930000 127.1770000  87.3410000  33.1950000
 127.7230000  87.8970000  31.6670000 127.4200000  86.1090000  31.7870000
 125.6170000  87.2840000  31.5630000 125.6830000  87.4380000  30.4560000
 125.2130000  86.2890000  31.7200000 124.8130000  88.4550000  32.1220000
 124.7750000  88.3500000  33.1600000 125.4120000  89.2580000  31.8160000
 123.3350000  88.4180000  31.6650000 123.2390000  88.3810000  30.5680000
 122.8430000  87.4880000  31.8990000 122.5000000  89.6670000  32.1460000
 122.4370000  89.6570000  33.2830000 123.0810000  90.5370000  31.8510000
 121.1140000  89.5800000  31.4290000 121.2340000  89.4250000  30.3720000
 120.5450000  88.7570000  31.7650000 120.2920000  90.8440000  31.7650000
 120.0650000  90.8240000  32.7800000 120.9780000  91.7340000  31.4480000
 119.0330000  91.0160000  30.9700000 118.2430000  90.2990000  31.1900000
 118.6440000  91.9790000  31.2780000 119.1680000  90.9030000  29.3960000
 119.3120000  89.8890000  29.1890000 118.2110000  91.0520000  28.9160000
 120.1550000  91.8530000  28.7090000 120.1990000  92.8680000  29.1920000
 121.1210000  91.4140000  28.7530000 119.8130000  92.1070000  27.1660000
 119.5270000  91.1110000  26.7200000 118.9020000  92.6880000  27.1110000
 121.0770000  92.6420000  26.4040000 121.4960000  93.3690000  27.0320000
 121.8170000  91.8400000  26.3300000 120.6930000  93.1680000  25.0100000
 120.0580000  92.5030000  24.4030000 120.0800000  93.9960000  25.2370000
 121.8960000  93.5510000  24.1480000 122.4800000  94.4890000  24.4770000
 122.6370000  92.6910000  24.0220000 121.3670000  93.9160000  22.7080000
 120.9480000  93.0590000  22.3050000 120.5220000  94.5740000  22.5980000
 122.4820000  94.4660000  21.8520000 123.0220000  93.9590000  20.9060000
 122.8800000  95.6480000  22.3800000 123.7340000  96.5130000  21.5870000
 124.3670000  97.1080000  22.3290000 124.3760000  95.9000000  21.0160000
 122.9990000  97.5780000  20.7130000 122.3780000  97.0710000  19.9000000
 124.0430000  98.4310000  20.0940000 124.7500000  98.6820000  20.8330000
 124.6050000  97.8590000  19.3270000 123.6730000  99.6780000  19.4840000
 124.7550000 100.5630000  18.6040000 125.4340000 101.2940000  19.8310000
 125.4780000 102.6720000  20.0000000 126.2930000 102.9320000  20.5980000
 125.5200000 103.1930000  19.0870000 124.1770000 103.0670000  20.8070000
 124.2460000 104.1380000  20.9910000 123.2900000 102.8500000  20.1650000
 123.9890000 102.5820000  22.1980000 123.0110000 103.4180000  22.9220000
 123.2140000 104.5210000  23.0280000 121.9850000 103.2870000  22.5790000
 123.0840000 102.9820000  23.9070000 123.5210000 101.1630000  22.2860000
 124.2340000 100.5330000  21.8320000 123.3040000 100.9690000  23.3630000
 122.5600000 101.1090000  21.6720000 125.3090000 102.6270000  23.0370000
 125.7260000 103.6200000  22.7850000 125.9730000 101.8060000  22.8120000
 125.0980000 102.6810000  24.0290000 125.7210000  99.6900000  17.9200000
 124.0280000 101.5650000  17.7500000 122.1390000  98.3350000  21.5420000
 120.8060000  97.8880000  21.6270000 120.3740000  96.9550000  20.9540000
 120.0030000  98.5210000  22.6900000 120.0100000  99.6230000  22.5340000
 120.5910000  98.3890000  23.6160000 118.6080000  97.9820000  22.7900000
 118.1570000  97.9990000  21.8490000 117.8790000  98.6030000  23.3880000
 118.5050000  96.4800000  23.2180000 118.8860000  96.4260000  24.2970000
 119.1900000  95.8800000  22.6660000 117.1930000  95.8000000  23.2480000
 116.8600000  95.6650000  22.1960000 116.4550000  96.5130000  23.6820000
 117.3310000  94.5390000  24.0910000 117.7250000  94.7070000  25.0800000
 118.0640000  94.0150000  23.3950000 116.0780000  93.6130000  24.3820000
 115.6270000  93.3880000  23.4240000 115.2090000  94.1210000  24.8820000
 116.4100000  92.3350000  25.0820000 116.5080000  92.5640000  26.1650000
 117.3300000  91.8700000  24.6870000 115.3250000  91.3190000  24.8150000
 115.5450000  90.6490000  24.0630000 114.1930000  91.0950000  25.4820000
 113.5280000  90.3840000  25.0930000 113.6210000  91.9710000  26.5780000
 112.5700000  92.2680000  26.3920000 114.1980000  92.9160000  26.5620000
 113.6310000  91.3000000  27.9370000 114.5340000  90.5960000  28.0990000
 112.7380000  90.5980000  28.0230000 113.6250000  92.3630000  29.0300000
 112.9740000  93.1860000  28.8000000 114.6210000  92.7650000  29.1720000
 113.1390000  91.8260000  30.4730000 112.1620000  91.3710000  30.3210000
 113.0470000  92.7500000  31.1040000 114.2310000  90.8830000  31.0010000
 115.2280000  91.3140000  31.1930000 114.3540000  90.0590000  30.2510000
 113.5710000  90.2420000  32.2670000 112.4950000  89.8910000  32.0060000
 113.3320000  90.9520000  33.0410000 114.2700000  89.0590000  32.9070000
 114.2070000  88.3010000  32.0890000 113.7110000  88.7810000  33.8360000
 115.7620000  89.3010000  33.1420000 116.3360000  89.4960000  32.2390000
 116.1250000  88.4050000  33.5760000 116.0720000  90.0090000  33.9280000
 134.5290000  77.0070000  34.9510000 133.6390000  76.4540000  35.1930000
 134.1380000  77.9840000  34.5040000 135.0470000  77.2010000  35.9220000
 135.5290000  76.3980000  33.9600000 135.0570000  76.2980000  32.9540000
 136.4060000  77.0510000  33.7450000 136.0330000  74.9850000  34.4900000
 136.1900000  75.0520000  35.5550000 135.1600000  74.2790000  34.4370000
 137.2520000  74.4190000  33.7890000 137.8690000  75.1940000  33.3300000
 137.9130000  73.9480000  34.4930000 136.9030000  73.5200000  32.5110000
 136.2650000  72.6720000  32.8740000 136.1340000  74.0400000  31.9660000
 138.0770000  73.0310000  31.5690000 138.5610000  72.1630000  32.0200000
 137.5880000  72.5920000  30.6700000 139.0920000  74.0930000  31.0260000
 139.7100000  74.5930000  31.8070000 139.7540000  73.5740000  30.3030000
 138.4500000  75.3330000  30.4120000 138.0340000  75.9980000  31.1470000
 139.3620000  75.8200000  30.0410000 137.6810000  75.0100000  29.1140000
 138.3150000  74.3720000  28.5010000 136.7930000  74.3950000  29.2470000
 137.2050000  76.2280000  28.3460000 138.0560000  76.7400000  27.8970000
 136.6210000  75.8040000  27.5460000 136.3690000  77.1970000  29.1950000
 136.7790000  77.3980000  30.1960000 136.1740000  78.1180000  28.6290000
 134.9500000  76.6880000  29.3960000 134.5760000  76.3060000  28.4420000
 134.9950000  75.8500000  30.1610000 134.1820000  77.9010000  29.8700000
 134.7710000  78.3470000  30.6390000 134.1740000  78.6730000  29.0990000
 132.6910000  77.5490000  30.2290000 132.6570000  76.6800000  30.9100000
 132.2700000  78.3670000  30.8380000 131.8190000  77.3500000  28.9490000
 132.2710000  76.6280000  28.2160000 130.8760000  76.8890000  29.1930000
 131.4510000  78.6540000  28.1820000 131.5730000  79.7240000  28.7520000
 130.9510000  78.4520000  26.8660000 130.8150000  79.6130000  26.0430000
 129.7370000  79.7870000  25.8430000 131.3260000  80.4870000  26.5010000
 131.5830000  79.3010000  24.7260000 131.5280000  80.2610000  24.1410000
 130.8230000  78.2380000  23.8760000 131.1430000  77.2470000  24.2950000
 129.7460000  78.2240000  24.0820000 131.1210000  78.3730000  22.4040000
 130.4270000  79.3990000  21.3390000 129.4140000  78.3260000  20.6110000
 128.2440000  77.8820000  21.3060000 128.4800000  77.6000000  22.2980000
 127.4950000  78.6670000  21.4800000 127.7220000  76.6620000  20.4270000
 128.4300000  75.8620000  20.2640000 126.9090000  76.1020000  21.0500000
 127.0890000  76.9600000  19.0540000 126.5000000  75.6860000  18.4800000
 125.6850000  75.3880000  19.0870000 126.0940000  75.9720000  17.4480000
 127.3550000  74.9470000  18.5290000 126.0010000  77.9380000  19.1610000
 126.3050000  78.9500000  19.2760000 125.4150000  77.7580000  18.3100000
 125.3370000  77.6010000  19.9870000 128.1700000  77.4710000  18.0680000
 129.0840000  76.8650000  18.2410000 128.4090000  78.4180000  18.3420000
 127.8660000  77.5560000  17.0220000 129.5620000  80.2490000  22.1000000
 131.2960000  79.9270000  20.2830000 132.9320000  79.0570000  25.2290000
 133.9660000  79.0390000  24.3670000 133.7960000  79.2730000  23.1830000
 135.3300000  78.6280000  24.8950000 135.4580000  79.1280000  25.8910000
 136.2020000  78.9610000  24.3350000 135.3690000  77.0650000  25.1140000
 134.8700000  76.8880000  26.0490000 136.4070000  76.7030000  25.2970000
 134.7590000  76.2080000  24.0060000 133.6670000  76.3260000  23.9530000
 135.0440000  75.1830000  24.2600000 135.3680000  76.5130000  22.6210000
 135.1540000  77.5140000  22.3940000 134.7550000  76.1560000  21.7790000
 136.8610000  76.1260000  22.4360000 137.0480000  75.1090000  22.6880000
 137.5260000  76.6220000  23.1820000 137.3610000  76.3240000  21.0340000
 137.1070000  77.3490000  20.6610000 136.9120000  75.6580000  20.2930000
 138.8510000  76.2190000  21.0290000 139.2680000  76.1050000  20.0420000
 139.2130000  75.4200000  21.5910000 139.3330000  77.6310000  21.5630000
 138.6020000  78.4250000  21.4280000 140.3510000  77.8890000  22.3830000
 140.5340000  78.9490000  22.7340000 141.5700000  77.0130000  22.5640000
 142.4080000  77.4240000  22.1370000 141.4370000  76.1270000  21.9360000
 141.7420000  76.5360000  24.0070000 141.9500000  77.4350000  24.6250000
 142.7210000  75.9590000  24.0600000 140.4750000  75.8240000  24.6260000
 140.4050000  74.8770000  24.1480000 139.5220000  76.2990000  24.3570000
 140.5710000  75.6170000  26.1480000 139.6330000  75.0070000  26.2910000
 140.2620000  76.5030000  26.6790000 141.8830000  74.9450000  26.5740000
 142.7770000  75.4870000  26.2720000 141.8850000  73.9070000  26.1790000
 141.8690000  74.8750000  28.0850000 140.9780000  74.3410000  28.4460000
 142.0240000  75.8690000  28.4950000 142.9690000  73.9670000  28.6160000
 143.8610000  74.1170000  28.0610000 142.7100000  72.9480000  28.3830000
 143.1680000  74.2230000  30.1060000 143.5940000  75.2420000  30.3630000
 143.7600000  73.4150000  30.4730000 142.2470000  74.1140000  30.6580000
  89.4130000 131.0480000  35.7280000  89.7350000 131.5940000  34.8810000
  89.9650000 131.2750000  36.6830000  88.3930000 131.3890000  35.9700000
  89.3880000 129.5610000  35.4510000  89.0550000 128.9780000  36.2760000
  88.5670000 129.4500000  34.7160000  90.7610000 129.0550000  34.9080000
  91.1910000 129.7720000  34.1810000  91.4510000 129.0180000  35.7380000
  90.6440000 127.6330000  34.3740000  91.6700000 127.2380000  34.2710000
  90.1060000 127.0760000  35.1630000  89.9020000 127.4380000  33.0490000
  88.8800000 127.8130000  33.2560000  90.2790000 128.0640000  32.1870000
  89.8340000 125.9210000  32.6270000  89.3350000 125.4320000  33.4400000
  89.2750000 125.8810000  31.7440000  91.2280000 125.2200000  32.3320000
  91.8030000 125.1490000  33.2610000  91.0170000 124.1980000  32.1260000
  92.1080000 126.0380000  31.2990000  92.1720000 127.0160000  31.7280000
  93.1710000 125.5980000  31.2860000  91.4910000 126.0200000  29.8480000
  90.5480000 126.6120000  29.9390000  92.2580000 126.5720000  29.2400000
  91.2040000 124.6060000  29.1930000  92.1020000 124.0690000  29.3280000
  90.5590000 123.8960000  29.6940000  90.8060000 124.8290000  27.7100000
  89.9000000 125.3750000  27.5870000  91.6390000 125.4310000  27.3030000
  90.8080000 123.6110000  26.7570000  91.8310000 123.1780000  26.6220000
  90.1870000 122.8580000  27.1650000  90.2960000 123.9000000  25.3740000
  89.2480000 123.9670000  25.5880000  90.6190000 124.8600000  24.9620000
  90.6090000 122.8010000  24.4030000  90.3250000 121.8260000  24.7060000
  90.0110000 123.0150000  23.5230000  92.0800000 122.7350000  24.0470000
  92.5620000 123.6460000  23.9840000  92.6240000 122.2370000  24.8610000
  92.2120000 121.9030000  22.8070000  91.3210000 121.6000000  22.1000000
  93.5040000 121.5250000  22.5880000  93.7090000 120.6680000  21.4630000
  93.2700000 119.6370000  21.8010000  93.0970000 121.0590000  20.5810000
  95.1800000 120.5710000  21.0430000  95.4280000 121.6100000  20.7790000
  95.5540000 119.8440000  19.7080000  94.9170000 120.1030000  18.8900000
  96.5960000 120.1040000  19.4470000  95.5610000 118.3780000  19.8230000
  94.3050000 117.4120000  20.0020000  94.3890000 117.0910000  21.5250000
  94.5690000 115.7190000  22.0330000  94.3880000 115.7730000  23.1060000
  93.8310000 115.0120000  21.6100000  96.0350000 115.2260000  21.7220000
  96.0110000 114.1560000  22.0400000  96.2400000 115.2860000  20.6110000
  97.1650000 115.7580000  22.5750000  97.0540000 117.2240000  22.7700000
  97.2690000 117.7020000  21.8260000  96.0710000 117.4730000  23.1870000
  97.8570000 117.6050000  23.3260000  97.0280000 115.0550000  23.8780000
  96.8520000 113.9610000  23.6960000  97.9570000 115.0780000  24.4250000
  96.3420000 115.5980000  24.4370000  98.4350000 115.4520000  21.8850000
  99.2260000 115.8970000  22.4550000  98.4010000 115.8670000  20.8700000
  98.6410000 114.3580000  21.7680000  93.1240000 118.2530000  19.8100000
  94.5050000 116.1330000  19.3420000  95.9820000 120.1330000  22.1230000
  97.0410000 120.8700000  22.4810000  97.7830000 121.4610000  21.7360000
  97.1980000 120.9270000  23.9670000  98.2030000 120.7060000  24.1750000
  96.5410000 120.1860000  24.3970000  96.9050000 122.3700000  24.4480000
  95.8810000 122.5990000  24.1290000  97.5470000 123.0710000  24.0310000
  96.9380000 122.4610000  25.9970000  97.8780000 122.2150000  26.5470000
  96.2330000 121.6870000  26.3930000  96.4020000 123.8820000  26.3690000
  95.6170000 124.2270000  25.7140000  97.2050000 124.6090000  26.2530000
  96.0090000 124.1310000  27.8090000  95.4610000 125.0970000  27.8210000
  96.7990000 124.2740000  28.5320000  95.1270000 123.0560000  28.4080000
  95.5840000 122.0320000  28.3770000  94.1190000 123.1170000  27.9580000
  94.9110000 123.2320000  29.9120000  94.1200000 122.6350000  30.3060000
  94.4560000 124.2170000  30.0830000  96.2050000 123.0390000  30.7500000
  97.1500000 123.4890000  30.4010000  96.3250000 122.4700000  31.9450000
  97.2680000 122.4320000  32.5270000  95.1570000 121.9520000  32.7890000
  95.5380000 121.0630000  33.3150000  94.3910000 121.5290000  32.2220000
  94.7930000 123.0550000  33.8160000  94.6040000 124.0140000  33.3660000
  95.6450000 123.1770000  34.4890000  93.5660000 122.6420000  34.5710000
  93.8310000 121.6760000  35.0120000  92.7480000 122.4730000  33.8740000
  93.1270000 123.5760000  35.6860000  92.7000000 124.4550000  35.2030000
  93.9920000 123.8450000  36.3230000  92.1570000 123.0120000  36.6800000
  92.3400000 121.8910000  36.8790000  91.1910000 123.0020000  36.1480000
  92.0820000 123.7540000  38.0680000  92.8990000 123.6390000  38.7220000
  91.3020000 123.1370000  38.6220000  91.6970000 125.2690000  37.9510000
  92.3680000 125.8410000  37.2970000  91.7580000 125.7930000  38.8780000
  90.2850000 125.4010000  37.3890000  89.4940000 124.9210000  38.0190000
  90.2040000 124.9960000  36.3650000  90.1900000 126.4380000  37.3530000
 141.2020000  28.1750000  36.5290000 142.0060000  27.5000000  36.9290000
 140.8710000  27.5990000  35.5940000 140.4080000  28.1510000  37.3120000
 141.8110000  29.5640000  36.3110000 141.0630000  30.2350000  35.8460000
 142.0540000  29.8910000  37.2610000 143.1270000  29.5880000  35.3970000
 143.8790000  28.9500000  35.8490000 142.8210000  29.1420000  34.4660000
 143.6370000  31.0310000  35.1700000 142.8030000  31.7480000  35.0840000
 144.1260000  31.2670000  36.1220000 144.5140000  31.3460000  33.9390000
 145.0260000  32.2510000  34.1370000 145.3360000  30.6600000  33.8720000
 143.8140000  31.4080000  32.5490000 142.8080000  31.0520000  32.6540000
 143.8450000  32.4570000  32.2390000 144.6170000  30.5630000  31.4480000
 145.6130000  31.0270000  31.3600000 144.6260000  29.4460000  31.7280000
 144.0640000  30.8150000  30.0420000 143.9150000  31.8700000  29.8970000
 144.7520000  30.5380000  29.2920000 142.7450000  30.0670000  29.8200000
 142.7890000  29.0210000  29.9610000 142.0450000  30.4230000  30.6000000
 142.2030000  30.3540000  28.4120000 142.1060000  31.4030000  28.2910000
 142.9260000  30.0340000  27.6170000 140.8400000  29.6980000  28.1130000
 140.1540000  29.8050000  28.9570000 140.4940000  30.2860000  27.3170000
 140.7830000  28.2220000  27.6140000 141.1750000  27.4850000  28.3420000
 139.7960000  27.9930000  27.3820000 141.5860000  27.9760000  26.3600000
 141.1500000  27.2340000  25.6600000 141.5240000  28.8450000  25.8460000
 143.0320000  27.4850000  26.6100000 143.6430000  28.1920000  27.2070000
 142.9820000  26.5810000  27.2070000 143.8290000  27.1680000  25.3560000
 143.7660000  27.9760000  24.6190000 144.8870000  26.9720000  25.5610000
 143.2160000  25.9820000  24.5410000 143.4350000  24.8350000  24.7910000
 142.5290000  26.3490000  23.4920000 142.0960000  25.3760000  22.5440000
 142.1040000  25.7610000  21.5570000 142.6940000  24.4670000  22.5870000
 140.6040000  24.9600000  22.8530000 140.4000000  24.0550000  22.1990000
 139.4950000  25.8940000  22.3830000 138.7910000  26.0670000  23.1250000
 139.9160000  26.7850000  22.0000000 138.7260000  25.3390000  21.3390000
 138.9190000  25.5880000  19.7970000 138.3900000  27.0460000  19.5450000
 139.2470000  28.1110000  19.1770000 138.9170000  28.9900000  19.7820000
 140.2490000  27.8390000  19.2590000 138.9110000  28.4940000  17.6820000
 139.6270000  29.2810000  17.5020000 139.0920000  27.6580000  17.0030000
 137.4720000  29.0230000  17.4140000 136.9760000  29.9420000  18.4610000
 137.8300000  30.6400000  18.7680000 136.0970000  30.5340000  18.0670000
 136.6120000  29.3450000  19.3620000 137.4020000  29.6920000  16.1020000
 136.3850000  29.8960000  16.0640000 138.0060000  30.6280000  16.2010000
 137.7050000  29.1100000  15.2880000 136.5690000  27.9070000  17.4160000
 135.6600000  28.1970000  16.9860000 136.4440000  27.5550000  18.4290000
 136.9360000  27.0480000  16.7820000 140.3410000  25.4910000  19.5930000
 138.0200000  24.7110000  19.0410000 140.3590000  24.7390000  24.2810000
 140.4410000  23.5020000  24.7800000 141.0820000  22.6720000  24.1810000
 139.5630000  23.3600000  26.0650000 139.2550000  22.3710000  26.2370000
 138.5420000  23.8490000  25.7740000 140.1610000  24.1160000  27.2640000
 139.4350000  24.2680000  28.0840000 140.3480000  25.1690000  26.9290000
 141.4910000  23.4570000  27.6660000 142.2950000  23.7360000  27.0230000
 141.3850000  22.3730000  27.5050000 141.8970000  23.6760000  29.1080000
 141.9470000  24.7360000  29.2920000 142.8840000  23.3640000  29.2270000
 140.9780000  22.9110000  30.1770000 139.9980000  23.3240000  30.1610000
 141.4780000  23.0680000  31.0920000 140.9670000  21.4080000  30.0300000
 141.9740000  20.9600000  30.2360000 140.7570000  21.1390000  28.9710000
 139.9430000  20.7030000  30.9720000 138.9320000  21.1970000  30.9080000
 140.2240000  20.9400000  32.0100000 139.7160000  19.2110000  30.7870000
 138.8060000  19.0120000  30.2050000 140.4190000  18.1200000  31.1860000
 140.0390000  17.1320000  30.8220000 141.7230000  18.1010000  31.9420000
 141.7220000  18.9160000  32.6320000 142.6410000  18.1610000  31.3230000
 141.8130000  16.8000000  32.7530000 142.7720000  16.7780000  33.2040000
 141.7220000  15.9660000  32.1140000 140.8520000  16.6200000  33.9630000
 139.8460000  16.8520000  33.6720000 141.0510000  17.4590000  34.6500000
 141.0540000  15.3350000  34.7950000 140.4430000  15.4370000  35.7130000
 142.0390000  15.2690000  35.1690000 140.6730000  14.0530000  34.0380000
 140.7250000  13.2300000  34.7240000 141.3790000  13.8590000  33.2390000
 139.1360000  14.1770000  33.6320000 139.0390000  14.8600000  32.7680000
 138.5190000  14.6670000  34.4480000 138.3370000  12.8880000  33.1960000
 138.8170000  12.3720000  32.3520000 137.3600000  13.2300000  32.8370000
 138.2530000  11.8950000  34.4080000 137.7740000  12.2430000  35.3690000
 139.2980000  11.5340000  34.5780000 137.6850000  11.0250000  34.2020000
 125.7670000   6.8230000  36.0190000 126.7780000   7.0680000  36.3520000
 125.8310000   6.3270000  35.0460000 125.2470000   6.0360000  36.6450000
 124.9100000   8.0840000  35.9110000 123.8680000   7.7890000  35.6360000
 124.7760000   8.6200000  36.8530000 125.3140000   9.1990000  34.9080000
 125.4940000   8.7810000  33.8160000 124.5230000   9.9680000  35.0110000
 126.7540000   9.6310000  35.4180000 126.7970000   9.9360000  36.4640000
 127.3050000   8.7250000  35.4210000 127.3080000  10.7420000  34.5140000
 126.7400000  11.6760000  34.5960000 128.2700000  10.9740000  34.9210000
 127.4270000  10.3590000  33.0400000 128.0390000   9.4690000  32.9440000
 126.3890000  10.0930000  32.7380000 127.9650000  11.4900000  32.0990000
 128.9060000  11.9440000  32.5420000 128.1390000  11.1930000  31.1050000
 126.9810000  12.6710000  31.8730000 126.4700000  12.9030000  32.8510000
 127.5580000  13.5560000  31.5470000 125.9060000  12.3040000  30.8520000
 126.3890000  12.1490000  29.8900000 125.4270000  11.4090000  31.2380000
 124.8650000  13.3920000  30.6250000 125.3600000  14.3220000  30.7740000
 124.3620000  13.3820000  29.6210000 123.6200000  13.3450000  31.5690000
 123.7620000  12.9370000  32.5600000 123.1580000  14.4140000  31.7220000
 122.4980000  12.4310000  30.9890000 123.0390000  11.5890000  30.6540000
 121.8000000  11.9840000  31.7050000 121.7120000  13.0440000  29.7770000
 121.3750000  14.0890000  29.9980000 122.2850000  13.1120000  28.8330000
 120.4010000  12.2750000  29.4820000 119.8290000  12.1380000  30.3580000
 119.8490000  12.8700000  28.7800000 120.5950000  10.9700000  28.6710000
 121.6500000  10.7260000  28.6140000 120.1120000  10.1870000  29.2320000
 120.1860000  11.0520000  27.2270000 119.4530000  10.2510000  26.6250000
 120.8730000  12.0580000  26.6790000 120.6700000  12.4090000  25.3030000
 121.5780000  12.4310000  24.6980000 120.1910000  11.5390000  24.9500000
 119.6530000  13.6380000  25.2310000 118.8970000  13.4050000  26.0730000
 118.8820000  13.8500000  23.8740000 117.9770000  14.4600000  24.1040000
 119.5920000  14.3280000  23.1330000 118.5190000  12.5860000  23.4550000
 119.1760000  11.8520000  22.1640000 118.4380000  10.4820000  22.0890000
 118.6790000   9.4760000  23.0840000 118.5330000   9.9570000  24.0660000
 117.7740000   8.7190000  23.0000000 119.9150000   8.5990000  22.9030000
 119.6710000   7.8250000  22.1950000 120.7310000   9.1920000  22.4500000
 120.3980000   7.8100000  24.1430000 119.2330000   7.4470000  25.0350000
 118.4690000   6.8920000  24.4610000 119.5760000   6.8840000  25.9100000
 118.7330000   8.4280000  25.2100000 121.1600000   6.5840000  23.7310000
 121.6290000   6.1350000  24.6590000 120.2870000   6.0610000  23.3930000
 121.8210000   6.9140000  22.9280000 121.3760000   8.6120000  24.9170000
 121.6110000   8.0210000  25.8130000 120.9780000   9.5310000  25.2370000
 122.2300000   8.8150000  24.2650000 118.9270000  12.6710000  20.9490000
 120.6070000  11.6750000  22.4890000 120.3780000  14.9200000  25.4260000
 120.0820000  15.5970000  26.5210000 119.0680000  15.4810000  27.1680000
 121.1440000  16.6640000  26.8110000 120.8740000  17.5070000  26.2270000
 122.0390000  16.3200000  26.3580000 121.2480000  16.9450000  28.2990000
 121.1520000  16.0450000  28.9180000 120.3760000  17.5890000  28.6640000
 122.6010000  17.5750000  28.6630000 122.4430000  17.8570000  29.6990000
 122.7020000  18.5230000  28.1890000 123.8920000  16.7110000  28.5490000
 123.8670000  16.2310000  27.5120000 123.9420000  15.8660000  29.2660000
 125.0740000  17.6700000  28.7750000 125.0030000  18.5210000  28.1170000
 125.9850000  17.0980000  28.5440000 125.2660000  18.2270000  30.1700000
 124.3280000  18.7930000  30.4400000 126.1160000  18.8580000  30.1540000
 125.4370000  17.1610000  31.3070000 126.3530000  16.5990000  31.1770000
 124.5120000  16.5060000  31.1940000 125.3310000  17.7250000  32.6850000
 126.2900000  18.0740000  33.1100000 124.2300000  17.8760000  33.3640000
 124.1980000  18.3150000  34.3280000 122.8330000  17.5670000  32.8770000
 122.4790000  16.6430000  33.4510000 122.8050000  17.4120000  31.7370000
 121.9260000  18.7540000  33.2210000 122.4160000  19.7010000  32.8460000
 121.9330000  18.8330000  34.3000000 120.5470000  18.6930000  32.5980000
 120.5210000  18.4070000  31.6160000 120.1450000  19.7060000  32.6850000
 119.5920000  17.8220000  33.4210000 119.6650000  18.0660000  34.4620000
 119.7840000  16.7710000  33.4780000 118.0820000  17.8490000  33.0940000
 117.7490000  18.8730000  33.0530000 117.4600000  17.3930000  33.7610000
 117.7220000  17.1910000  31.7730000 118.0130000  17.8950000  30.9970000
 116.6470000  17.1950000  31.6050000 118.3150000  15.7390000  31.4180000
 117.9930000  15.0390000  32.2350000 119.3760000  15.8860000  31.3850000
 117.8780000  15.1730000  30.0560000 118.0140000  15.9340000  29.2800000
 116.7620000  14.9130000  30.0990000 118.4320000  14.2800000  29.7540000
  85.7590000  85.4410000  35.2780000  85.7720000  85.3510000  34.1930000
  84.7380000  85.5890000  35.6950000  86.1350000  84.5060000  35.6990000
  86.5990000  86.6260000  35.8210000  86.6990000  86.5370000  36.8670000
  87.6300000  86.4970000  35.4180000  86.1360000  88.0280000  35.3700000
  85.1720000  88.2810000  35.6940000  86.8400000  88.6820000  35.7930000
  86.2540000  88.2410000  33.8120000  87.3470000  88.1280000  33.5390000
  85.6890000  87.4240000  33.2930000  85.6690000  89.5920000  33.4000000
  84.6300000  89.5020000  33.4130000  86.0320000  90.2860000  34.1500000
  86.2610000  90.0060000  32.0010000  87.3230000  89.6790000  32.0180000
  85.6320000  89.4480000  31.3140000  86.1080000  91.4320000  31.4760000
  86.2070000  91.4300000  30.3630000  85.0910000  91.6090000  31.6070000
  87.0000000  92.4760000  32.1690000  86.9670000  92.3970000  33.2600000
  88.0270000  92.2350000  31.8550000  86.4970000  93.8910000  31.6940000
  86.4450000  93.8320000  30.5870000  85.4880000  94.0960000  32.1790000
  87.3240000  95.1680000  32.1370000  87.8130000  94.9400000  33.0470000
  88.1890000  95.3290000  31.5400000  86.5790000  96.5270000  32.1600000
  85.6820000  96.5370000  32.8020000  87.2500000  97.3780000  32.3910000
  85.9760000  96.8970000  30.7940000  85.1740000  96.1580000  30.5130000
  85.3910000  97.7640000  31.0180000  87.0750000  97.1860000  29.6910000
  87.7020000  97.9940000  30.0890000  87.7430000  96.3490000  29.5270000
  86.4850000  97.6860000  28.3240000  85.7480000  98.4380000  28.5400000
  87.3320000  98.0690000  27.6700000  85.7350000  96.5320000  27.5860000
  84.8070000  96.1360000  28.0530000  85.4180000  96.9660000  26.6110000
  86.7030000  95.3800000  27.4030000  86.6980000  94.3250000  27.9730000
  87.6730000  95.7390000  26.4150000  88.3480000  94.7040000  25.6790000
  89.2750000  95.1920000  25.3860000  88.4780000  93.8170000  26.2510000
  87.5610000  94.2330000  24.4130000  88.1500000  93.5450000  23.8000000
  87.0610000  95.5050000  23.6310000  86.2360000  95.2510000  22.9250000
  86.7890000  96.3980000  24.3010000  88.2270000  95.9720000  22.9430000
  88.0470000  97.2610000  21.9520000  87.2140000  96.6750000  20.7260000
  87.8750000  96.5340000  19.4340000  87.2120000  96.2700000  18.6440000
  88.3540000  97.5130000  19.2680000  88.9150000  95.4170000  19.5950000
  89.6980000  95.3680000  18.7830000  89.5890000  95.7030000  20.4070000
  88.4000000  93.9960000  19.7030000  87.2560000  93.7800000  20.5870000
  87.0520000  92.6390000  20.6230000  87.5820000  94.1640000  21.5480000
  86.3690000  94.3610000  20.1640000  88.0960000  93.3320000  18.4020000
  87.9830000  92.2410000  18.5210000  87.1470000  93.6240000  18.0310000
  88.8830000  93.4840000  17.6810000  89.5180000  93.2830000  20.4020000
  90.4590000  93.4670000  19.8760000  89.2960000  92.1860000  20.2440000
  89.3930000  93.5860000  21.4450000  87.1410000  98.2200000  22.6000000
  89.4120000  97.7180000  21.5400000  86.4250000  93.5000000  24.8510000
  86.1920000  92.2800000  24.3480000  86.8070000  91.8140000  23.4220000
  85.0200000  91.5630000  24.9290000  84.3680000  91.2370000  24.0980000
  84.3830000  92.2360000  25.5400000  85.4880000  90.3760000  25.7910000
  86.2410000  89.8360000  25.2080000  84.6590000  89.6740000  25.9450000
  86.0660000  90.7840000  27.2170000  85.6420000  90.1380000  28.0460000
  85.7130000  91.8110000  27.3690000  87.5440000  90.8170000  27.3830000
  87.8270000  91.4830000  28.2270000  88.0260000  91.3220000  26.4930000
  88.2150000  89.3710000  27.5510000  89.3060000  89.4710000  27.3770000
  87.9750000  88.7780000  26.7300000  87.8490000  88.7030000  28.9080000
  86.8600000  88.2620000  28.7810000  87.6810000  89.4740000  29.6860000
  88.9830000  87.7400000  29.4200000  89.8800000  88.3340000  29.2860000
  89.0530000  86.9220000  28.7250000  88.5860000  87.3030000  30.8210000
  87.5250000  87.2600000  31.0290000  89.3940000  86.9800000  31.8320000
  88.9700000  86.8860000  32.8510000  90.8800000  87.0870000  31.6980000
  91.2100000  88.0380000  31.9540000  91.2200000  86.8940000  30.6700000
  91.6620000  86.0370000  32.5290000  91.4150000  84.9760000  32.1820000
  91.4860000  86.1190000  33.6510000  93.1430000  86.1380000  32.1300000
  93.5650000  87.1360000  32.4330000  93.3180000  86.1230000  31.0620000
  93.8080000  84.9320000  32.8190000  93.2570000  84.0210000  32.5350000
  93.5330000  84.9230000  33.8550000  95.3030000  84.7350000  32.5930000
  95.6170000  85.2470000  31.6660000  95.5300000  83.7020000  32.5680000
  96.0560000  85.2400000  33.8710000  95.6490000  84.9410000  34.8270000
  95.7840000  86.2970000  34.0280000  97.5810000  84.9010000  33.8950000
  98.0030000  85.2150000  32.9670000  97.5430000  83.7640000  33.9220000
  98.2000000  85.4680000  35.1040000  99.1920000  85.0990000  35.2350000
  97.7260000  85.1180000  36.0220000  98.2570000  86.5220000  34.9660000
  49.7290000 137.1780000  35.9400000  50.6110000 136.4780000  35.7730000
  49.2640000 136.9450000  36.9080000  50.1240000 138.1770000  35.6850000
  48.7260000 136.8280000  34.7860000  49.2310000 137.0800000  33.8170000
  48.3840000 135.8080000  34.8480000  47.4610000 137.7140000  34.9300000
  46.6620000 137.1990000  35.4880000  47.7670000 138.6110000  35.4700000
  46.7160000 137.9140000  33.5390000  45.9210000 138.6410000  33.6870000
  47.3960000 138.2150000  32.7800000  46.0750000 136.5900000  32.9750000
  46.7860000 135.7690000  32.9580000  45.2130000 136.2500000  33.6620000
  45.5800000 136.7920000  31.5020000  44.8310000 137.6110000  31.4310000
  46.3460000 137.0800000  30.8070000  44.9310000 135.6230000  30.8680000
  44.0080000 135.3450000  31.4060000  44.6070000 135.8850000  29.8990000
  45.8410000 134.3910000  30.8050000  45.8100000 133.8250000  31.7220000
  45.3430000 133.7440000  30.1160000  47.3370000 134.6350000  30.3120000
  47.2540000 135.1120000  29.3890000  48.0020000 135.2260000  31.0120000
  48.0720000 133.3330000  30.1030000  47.9000000 132.7430000  31.0040000
  47.5280000 132.8270000  29.3970000  49.4920000 133.2370000  29.6250000
  50.1720000 133.6170000  30.3740000  49.6870000 132.1570000  29.5470000
  49.8440000 133.9070000  28.3140000  49.1210000 133.5530000  27.6150000
  49.6610000 135.0090000  28.4160000  51.2420000 133.5060000  27.7670000
  52.0070000 133.6400000  28.5700000  51.2720000 132.4630000  27.6780000
  51.6690000 134.0160000  26.3620000  51.8050000 135.1520000  26.4830000
  52.6510000 133.7110000  26.0870000  50.6310000 133.7350000  25.2010000
  49.6270000 133.9410000  25.4640000  50.8540000 134.2070000  24.2150000
  50.6220000 132.2050000  24.9290000  51.3390000 131.3810000  25.4760000
  49.6140000 131.9220000  24.0610000  49.3530000 130.5220000  23.6890000
  48.8710000 130.5540000  22.6750000  50.3110000 129.8530000  23.5800000
  48.4460000 129.8600000  24.7070000  49.0700000 129.5430000  25.5720000
  47.6700000 128.6230000  24.0950000  48.2580000 127.7460000  24.2760000
  46.7130000 128.5580000  24.5530000  47.3800000 128.6500000  22.7420000
  46.0520000 129.3960000  22.1450000  46.6430000 130.8400000  21.6580000
  46.2520000 131.9970000  22.3870000  45.2200000 132.2910000  22.1830000
  46.2510000 131.8430000  23.4800000  47.3180000 133.0800000  22.1300000
  48.1920000 132.8920000  22.7630000  47.5780000 132.9970000  21.0840000
  47.0350000 134.5340000  22.3700000  48.2130000 135.3760000  22.0340000
  49.0230000 134.9390000  22.6570000  48.4740000 135.2170000  20.9780000
  48.0140000 136.3650000  22.2970000  45.9540000 135.0600000  21.5290000
  45.0730000 134.4820000  21.7560000  45.7280000 136.0410000  21.7780000
  46.2220000 134.9300000  20.5150000  46.6250000 134.7370000  23.7610000
  46.2200000 135.8050000  23.8970000  47.4570000 134.5840000  24.4920000
  45.7710000 134.1000000  24.0990000  45.6670000 128.7150000  20.9010000
  45.0110000 129.5830000  23.1760000  47.5020000 130.7780000  25.2170000
  46.9260000 130.6450000  26.4200000  47.0260000 129.5810000  26.9820000
  46.2800000 131.9140000  26.8990000  46.8540000 132.7840000  26.5810000
  46.3110000 132.0120000  27.9810000  44.7860000 132.0620000  26.6270000
  44.3020000 131.1290000  26.8850000  44.5580000 132.2000000  25.5470000
  44.2310000 133.1800000  27.5700000  44.8610000 134.1770000  27.4680000
  44.2370000 132.8410000  28.5480000  42.7320000 133.4120000  27.3480000
  42.5170000 133.7100000  26.3480000  42.4860000 134.2840000  27.8810000
  41.8070000 132.2860000  27.7650000  41.9630000 132.1450000  28.8540000
  42.1740000 131.4130000  27.3440000  40.2520000 132.5390000  27.4940000
  40.0730000 132.4300000  26.4210000  39.9780000 133.5070000  27.8110000
  39.2770000 131.6560000  28.2580000  38.3500000 131.7240000  27.8180000
  39.2560000 132.0530000  29.2690000  39.7000000 130.1950000  28.4340000
  39.8800000 129.6620000  27.5430000  39.8630000 129.5110000  29.5110000
  40.3140000 128.5280000  29.4030000  39.5470000 129.9860000  30.9210000
  39.1830000 129.1040000  31.4800000  38.6190000 130.5870000  30.8590000
  40.6980000 130.6630000  31.5990000  41.0870000 131.5550000  31.0770000
  41.6040000 130.0020000  31.4930000  40.3860000 130.8060000  33.1260000
  40.1650000 129.8280000  33.5710000  39.4540000 131.3540000  33.1550000
  41.4110000 131.7260000  33.7460000  41.5150000 132.5410000  33.0590000
  42.4150000 131.3040000  33.8330000  40.9760000 132.1490000  35.1670000
  40.7030000 131.2310000  35.6140000  40.0690000 132.8190000  35.2390000
  42.0870000 132.8740000  35.9150000  42.3410000 133.7140000  35.3480000
  43.0060000 132.2330000  35.9920000  41.7820000 133.1580000  37.3930000
  41.0160000 133.9150000  37.4270000  42.6310000 133.7170000  37.9100000
  41.3590000 131.8990000  38.1890000  41.0810000 132.0780000  39.2250000
  41.9950000 131.1310000  38.0780000  40.4420000 131.5480000  37.7780000
  39.5630000 108.8630000  36.5450000  39.5240000 107.7830000  36.6800000
  38.7770000 109.3520000  36.9870000  40.4700000 109.1420000  36.9610000
  39.4120000 109.2880000  35.1240000  39.8280000 108.4930000  34.4910000
  38.3980000 109.3680000  34.8070000  40.1890000 110.6310000  34.8520000
  39.8710000 111.3620000  35.6050000  41.2080000 110.3880000  34.9290000
  39.8450000 111.2460000  33.4260000  40.1640000 110.5170000  32.7270000
  38.6900000 111.2270000  33.3980000  40.5110000 112.6140000  33.2170000
  39.9570000 113.2480000  33.8860000  41.5510000 112.5090000  33.5410000
  40.3690000 113.1100000  31.7010000  39.4000000 113.5810000  31.5820000
  41.0960000 113.9620000  31.4590000  40.6080000 112.1230000  30.6120000
  39.9590000 111.2030000  30.7800000  40.3310000 112.5060000  29.6040000
  42.0800000 111.6000000  30.5780000  42.6070000 112.5860000  30.3040000
  42.3710000 111.3690000  31.5630000  42.2240000 110.4610000  29.5290000
  41.7870000 109.5550000  29.9200000  41.6270000 110.6620000  28.6820000
  43.7110000 110.2670000  29.1620000  44.0290000 110.9810000  28.4170000
  44.3410000 110.2020000  30.0190000  43.8420000 109.0090000  28.3000000
  44.1560000 108.2290000  28.9830000  42.9290000 108.6680000  27.8500000
  44.9090000 109.0780000  27.1500000  45.8860000 109.3730000  27.5770000
  45.0960000 108.0140000  26.8360000  44.4780000 109.9330000  25.8460000
  43.8330000 110.7160000  26.2290000  45.3590000 110.3370000  25.4760000
  43.6460000 109.1130000  24.8000000  44.4170000 108.4130000  24.5080000
  42.8130000 108.5600000  25.2340000  43.1920000 109.9610000  23.5760000
  44.1190000 110.0770000  23.0030000  42.5750000 109.4220000  22.8740000
  42.5520000 111.3300000  23.8230000  41.5850000 111.5460000  24.5350000
  43.1860000 112.3030000  23.0630000  42.6810000 113.6220000  23.1080000
  43.1120000 114.3100000  22.3200000  41.5390000 113.5390000  23.0870000
  43.1120000 114.1820000  24.5380000  42.2950000 113.7670000  25.1570000
  43.1910000 115.7350000  24.6940000  42.2250000 116.0330000  24.9440000
  43.8680000 116.0480000  25.5480000  43.6250000 116.3300000  23.4570000
  45.1100000 116.3940000  23.0280000  45.5120000 114.9190000  22.6380000
  46.8310000 114.3900000  22.9540000  47.5800000 114.6480000  22.1920000
  47.1580000 114.7220000  23.9280000  46.8140000 112.8460000  23.0630000
  47.5780000 112.5360000  23.7070000  45.8650000 112.5570000  23.6390000
  46.7790000 112.0620000  21.8060000  48.0690000 112.2770000  21.1360000
  48.3690000 113.3590000  21.1520000  48.8430000 111.6830000  21.6120000
  48.1100000 111.9230000  20.1200000  46.7030000 110.6420000  22.0950000
  46.6180000 109.9680000  21.1620000  47.5920000 110.3290000  22.7060000
  45.7710000 110.6410000  22.6950000  45.6650000 112.3870000  20.8670000
  44.7350000 112.3430000  21.4020000  45.6920000 111.7210000  19.9540000
  45.7860000 113.3540000  20.6110000  45.1820000 117.2740000  21.8250000
  45.9400000 116.7230000  24.1870000  44.3210000 113.5830000  25.0350000
  44.4320000 113.5140000  26.3980000  43.6070000 113.8830000  27.1920000
  45.7730000 113.0810000  26.8280000  46.2630000 112.9380000  25.8610000
  45.7060000 112.1660000  27.4510000  46.5060000 114.2690000  27.4720000
  46.0490000 114.4910000  28.4130000  46.3810000 115.2220000  26.9740000
  48.0370000 113.9620000  27.7880000  48.6300000 113.8110000  26.9300000
  47.9400000 113.0670000  28.2950000  48.7810000 115.0110000  28.6660000
  48.9350000 116.0110000  28.1990000  49.7650000 114.6290000  28.7320000
  48.2570000 115.1400000  30.0580000  47.1980000 115.4430000  30.0020000
  48.7930000 115.8880000  30.5910000  48.1860000 113.8210000  30.9410000
  49.2050000 113.4050000  30.9030000  47.4410000 113.0780000  30.4490000
  47.7200000 114.2090000  32.3810000  46.6400000 114.5520000  32.3760000
  48.2900000 115.1260000  32.6880000  48.0790000 113.2480000  33.5110000
  49.1340000 113.2870000  33.8750000  47.2790000 112.3610000  34.0700000
  47.7110000 111.6920000  34.7830000  45.8910000 111.9820000  33.6820000
  45.6490000 112.2160000  32.6030000  45.1770000 112.5930000  34.2420000
  45.6060000 110.4970000  34.0500000  45.9670000 110.4030000  35.1100000
  46.3140000 109.7820000  33.5560000  44.1200000 110.1790000  33.9130000
  43.8000000 110.3990000  32.9220000  43.6190000 110.7990000  34.7100000
  43.9030000 108.6840000  34.2710000  44.5880000 108.1540000  33.5880000
  42.9040000 108.3480000  34.0110000  44.2630000 108.2360000  35.6700000
  45.2730000 108.6220000  35.9860000  44.3960000 107.2420000  35.7480000
  43.2590000 108.5580000  36.7890000  42.3780000 107.9440000  36.7660000
  42.9870000 109.6360000  36.6010000  43.7990000 108.3060000  38.2580000
  44.7630000 108.8350000  38.3760000  44.0260000 107.2560000  38.3520000
  42.7370000 108.7570000  39.3280000  42.5780000 109.8220000  39.2640000
  42.9380000 108.5340000  40.4260000  41.8370000 108.2280000  39.0560000
 106.6290000 144.5890000  29.7750000 107.4150000 143.8770000  29.5180000
 105.9110000 144.3210000  28.9640000 106.1840000 144.3310000  30.7190000
 107.3190000 145.9970000  29.6140000 108.3240000 145.9960000  30.0850000
 107.5410000 146.0430000  28.5430000 106.6190000 147.2160000  30.1350000
 106.0540000 147.6260000  29.2810000 105.8980000 146.8720000  30.8390000
 107.5230000 148.3310000  30.6510000 107.9220000 148.0970000  31.6020000
 108.3640000 148.4290000  30.0280000 106.7250000 149.6150000  30.8380000
 106.2070000 149.8120000  29.8720000 105.9940000 149.5170000  31.6570000
 107.6100000 150.8640000  31.1470000 107.9570000 150.7410000  32.0880000
 108.3250000 150.7910000  30.3710000 106.8660000 152.3250000  31.0440000
 106.1820000 152.3600000  31.9150000 107.6960000 153.0120000  31.2800000
 106.2230000 152.8110000  29.6890000 105.4970000 151.9910000  29.4920000
 105.7150000 153.7520000  29.8820000 107.2280000 152.8340000  28.5030000
 108.1150000 153.5370000  28.6750000 107.7890000 151.8540000  28.4640000
 106.5690000 153.0150000  27.1130000 106.2970000 154.1160000  27.0240000
 107.3770000 152.7310000  26.3740000 105.2230000 152.2150000  26.8460000
 104.4810000 152.6540000  27.5910000 104.8370000 152.4830000  25.9050000
 105.3400000 150.7030000  27.0650000 105.7790000 150.5250000  28.0950000
 104.3250000 150.2830000  27.0120000 106.3510000 150.0700000  26.0610000
 106.0830000 150.1760000  25.0530000 107.3420000 150.6060000  26.2300000
 106.4030000 148.5570000  26.2560000 106.9560000 148.2000000  27.1710000
 105.3530000 148.3640000  26.3880000 106.9800000 147.6640000  25.1050000
 106.7320000 148.0430000  24.1290000 108.0460000 147.6440000  25.3090000
 106.4930000 146.2740000  25.1950000 105.5100000 145.8860000  25.7820000
 107.2200000 145.3350000  24.5290000 106.8180000 143.9390000  24.4490000
 106.3120000 143.5200000  25.3820000 106.1780000 143.7490000  23.5090000
 108.1090000 143.0860000  24.2930000 108.7740000 143.4760000  23.5610000
 107.9290000 141.6360000  23.7830000 108.8720000 141.1410000  23.8770000
 107.3170000 141.1180000  24.4690000 107.3060000 141.6530000  22.4530000
 107.0630000 140.3380000  21.5330000 108.0730000 140.4670000  20.4210000
 109.5010000 140.1680000  20.6220000 109.5420000 139.3540000  21.2780000
 109.9330000 139.8530000  19.6290000 110.1870000 141.4160000  21.1740000
 109.9700000 142.2600000  20.4520000 109.7200000 141.7510000  22.1310000
 111.6860000 141.3710000  21.3580000 112.1880000 142.6570000  21.7370000
 113.1620000 142.5190000  22.1530000 112.3070000 143.2180000  20.8080000
 111.4790000 143.1090000  22.3920000 112.0150000 140.4720000  22.5250000
 111.4780000 139.5080000  22.3600000 113.0360000 140.2230000  22.5830000
 111.6350000 141.0070000  23.4460000 112.4120000 140.9320000  20.0950000
 111.7700000 141.3280000  19.2780000 112.4240000 139.8480000  20.1540000
 113.3770000 141.2860000  20.1330000 107.4480000 139.1220000  22.3290000
 105.6970000 140.3940000  20.9880000 108.7470000 143.0450000  25.5910000
 110.0880000 143.0140000  25.4540000 110.7630000 142.9170000  24.4410000
 110.8350000 143.1580000  26.8040000 111.8690000 142.9330000  26.6510000
 110.5300000 142.3510000  27.4040000 110.5900000 144.5660000  27.3460000
 110.7930000 144.4920000  28.4040000 109.5510000 144.8470000  27.2460000
 111.4140000 145.7220000  26.9270000 112.4270000 145.4000000  26.9390000
 111.3290000 146.5530000  27.5780000 110.9720000 146.3280000  25.5690000
 109.8880000 146.2810000  25.4950000 111.4060000 145.7490000  24.7300000
 111.3400000 147.8650000  25.4330000 111.2860000 148.2730000  24.4460000
 112.3840000 147.9000000  25.7370000 110.5330000 148.7630000  26.3000000
 109.7810000 148.1800000  26.7980000 110.0040000 149.4300000  25.6290000
 111.2820000 149.6820000  27.3760000 111.9980000 150.3800000  26.8350000
 111.9040000 149.0830000  28.0040000 110.2740000 150.4240000  28.3190000
 109.3390000 149.9680000  28.4470000 110.5020000 151.6520000  28.8250000
 109.7440000 152.1790000  29.3250000 111.7890000 152.4850000  28.7410000
 112.4120000 152.2420000  27.8330000 112.4780000 152.3630000  29.5690000
 111.5920000 153.9780000  28.6250000 110.8940000 154.3170000  29.3410000
 111.0840000 154.2060000  27.6630000 112.8400000 154.7990000  28.7750000
 113.5230000 154.4810000  27.9550000 113.4030000 154.5920000  29.7120000
 112.6580000 156.3610000  28.7150000 112.1120000 156.8400000  29.5630000
 111.9300000 156.4770000  27.9300000 114.0110000 157.1660000  28.4040000
 114.6720000 156.3840000  28.8040000 114.0810000 158.0960000  29.0070000
 114.2520000 157.5000000  26.8790000 113.3400000 157.9300000  26.4400000
 114.3590000 156.5500000  26.3280000 115.4580000 158.4640000  26.7410000
 115.3070000 159.2090000  27.5420000 115.4370000 159.0140000  25.7830000
 116.8510000 158.0040000  27.0280000 117.6230000 158.8290000  26.9940000
 117.1340000 157.2410000  26.2240000 116.8960000 157.5010000  28.0420000
  24.1190000  96.0640000  31.5930000  24.0620000  94.9950000  31.7590000
  24.8570000  96.1330000  30.8240000  23.1170000  96.4890000  31.3600000
  24.7230000  96.7240000  32.8330000  24.2150000  96.3860000  33.7070000
  25.6930000  96.2970000  33.0390000  24.7420000  98.2750000  32.7050000
  23.7520000  98.5570000  32.5090000  25.0130000  98.7520000  33.6100000
  25.7480000  98.7600000  31.6380000  26.7160000  98.6010000  32.0780000
  25.7030000  98.1530000  30.8360000  25.4570000 100.1880000  31.1550000
  24.3740000 100.2100000  30.8520000  25.7390000 100.7810000  32.0440000
  26.3300000 100.6470000  29.9820000  27.3900000 100.4300000  30.2350000
  26.2710000 100.0680000  29.0920000  26.0090000 102.1650000  29.7470000
  26.3020000 102.7110000  30.6830000  26.5430000 102.4490000  28.8770000
  24.5250000 102.5090000  29.5640000  24.0180000 102.4020000  30.5420000
  24.5190000 103.5170000  29.2920000  23.7830000 101.7270000  28.4170000
  24.4200000 100.8730000  28.0870000  22.8060000 101.3340000  28.7150000
  23.5750000 102.5890000  27.1560000  23.0290000 103.4300000  27.6190000
  24.4980000 102.9440000  26.7330000  22.7730000 101.9130000  26.0970000
  21.7250000 101.7870000  26.4460000  22.6550000 102.5990000  25.2610000
  23.1540000 100.4780000  25.6140000  23.3180000  99.8920000  26.5090000
  22.2900000  99.9210000  25.2170000  24.3900000 100.3910000  24.7330000
  24.2140000 101.0730000  23.9420000  25.2850000 100.6670000  25.3050000
  24.7470000  99.1060000  23.9680000  24.5110000  98.2120000  24.5890000
  24.0990000  98.9980000  23.1450000  26.2350000  99.0670000  23.6010000
  26.8160000  99.1160000  24.4750000  26.4140000  98.1070000  23.1810000
  26.6820000 100.0970000  22.6190000  26.1040000 100.6040000  21.6940000
  27.9340000 100.3580000  22.9040000  28.6750000 101.4640000  22.2070000
  29.6740000 101.4880000  22.5300000  28.5710000 101.2480000  21.1530000
  28.0210000 102.8250000  22.5900000  26.9530000 102.7040000  22.4090000
  28.6550000 104.0750000  21.8810000  28.1080000 104.2370000  20.9820000
  28.6690000 105.0370000  22.4690000  29.9830000 103.7190000  21.5430000
  31.2250000 104.0880000  22.5810000  31.4580000 102.7190000  23.3360000
  32.7090000 101.9930000  23.2030000  33.4930000 102.7350000  22.9890000
  32.9270000 101.5010000  24.1470000  32.5890000 100.9670000  22.0900000
  33.0070000  99.9800000  22.4950000  31.4940000 100.6620000  22.0420000
  33.0580000 101.1150000  20.6650000  33.1780000  99.7280000  20.0490000
  33.6960000  99.2730000  20.8720000  32.1530000  99.3110000  20.0660000
  33.6720000  99.6750000  19.0940000  32.0660000 101.8810000  19.8040000
  32.6000000 102.1320000  18.9080000  31.2340000 101.2560000  19.5470000
  31.7410000 102.7610000  20.3120000  34.4450000 101.6750000  20.5870000
  35.1730000 101.1070000  21.1020000  34.3400000 102.6030000  21.1060000
  34.8780000 101.9420000  19.6180000  32.4420000 104.4000000  21.7760000
  30.7980000 105.1110000  23.5410000  28.2980000 102.9300000  24.0430000
  27.2760000 103.1280000  24.8350000  26.1430000 103.1470000  24.4410000
  27.7440000 103.3040000  26.2420000  28.8010000 103.2820000  26.3150000
  27.2630000 102.4770000  26.8220000  27.2650000 104.5990000  26.8680000
  27.5570000 104.6120000  27.9290000  26.2220000 104.7630000  26.7200000
  28.0650000 105.7480000  26.1200000  27.7790000 105.8470000  25.1020000
  29.0740000 105.5200000  26.0360000  28.0140000 107.0960000  26.9130000
  27.0070000 107.2350000  27.3330000  28.2190000 107.9730000  26.3320000
  29.1230000 107.2010000  28.0320000  30.1580000 107.2990000  27.6050000
  29.0300000 106.2070000  28.5550000  28.9340000 108.3080000  29.1050000
  27.9320000 108.3450000  29.4550000  29.0890000 109.2400000  28.6880000
  30.0080000 108.2000000  30.2420000  30.9870000 108.2510000  29.7810000
  29.9030000 107.1970000  30.5780000  29.7160000 109.3020000  31.3210000
  28.9130000 110.0460000  31.1860000  30.5070000 109.3500000  32.3690000
  30.1930000 110.1330000  33.1390000  31.7680000 108.4920000  32.6210000
  32.6070000 109.0690000  32.8570000  32.1560000 108.0120000  31.6800000
  31.6580000 107.4130000  33.7320000  31.3760000 107.8500000  34.7060000
  32.6570000 107.0090000  33.7440000  30.5530000 106.3440000  33.4350000
  30.7430000 106.0870000  32.4170000  29.5410000 106.7460000  33.4480000
  30.5600000 105.0680000  34.3270000  30.1320000 105.4430000  35.2420000
  31.6840000 104.9310000  34.5700000  29.7080000 103.8820000  33.7380000
  30.1420000 103.4390000  32.8170000  28.7310000 104.2550000  33.4990000
  29.5800000 102.8080000  34.8660000  28.9530000 103.1350000  35.7300000
  30.5940000 102.6310000  35.1950000  28.9550000 101.4690000  34.4180000
  29.4870000 101.2790000  33.5380000  27.8890000 101.5670000  34.1930000
  29.2380000 100.3460000  35.4800000  28.8950000  99.2770000  35.0760000
  28.5960000 100.4940000  36.3710000  30.2620000 100.3350000  35.7730000
 116.6790000  56.6370000  39.1480000 115.9250000  56.6800000  39.9830000
 117.6650000  56.7530000  39.7720000 116.6210000  55.6670000  38.6600000
 116.4950000  57.8210000  38.1760000 116.4530000  58.7000000  38.7630000
 117.3600000  57.8760000  37.5290000 115.2720000  57.8560000  37.2830000
 114.4720000  57.7960000  37.9820000 115.1260000  58.8590000  36.8220000
 115.2590000  56.8430000  36.1710000 115.3510000  55.8770000  36.6270000
 114.3410000  56.9860000  35.6410000 116.4060000  57.0540000  35.0600000
 116.5660000  58.0540000  34.7020000 117.3020000  56.7510000  35.5450000
 116.2560000  56.1250000  33.8210000 116.2150000  55.0940000  34.1420000
 115.3560000  56.5350000  33.4380000 117.3410000  56.3420000  32.7610000
 117.4160000  57.3730000  32.6060000 118.3310000  55.9370000  33.0770000
 116.9860000  55.7140000  31.4430000 117.8620000  54.9270000  31.2990000
 116.1510000  55.0580000  31.4940000 116.9350000  56.6170000  30.2540000
 116.1200000  57.3250000  30.4560000 117.8580000  57.2330000  30.1570000
 116.5720000  55.8930000  28.8930000 117.2000000  55.0330000  28.6700000
 115.5640000  55.5670000  28.9930000 116.6110000  56.7500000  27.5960000
 117.5900000  56.9680000  27.2610000 115.9760000  56.1600000  26.7940000
 115.8610000  58.0470000  27.7930000 114.7730000  57.8390000  28.0940000
 116.2700000  58.5980000  28.5560000 115.9270000  58.9700000  26.5680000
 116.9730000  59.2240000  26.3330000 115.4930000  58.3460000  25.7710000
 114.9990000  60.2230000  26.8470000 114.0160000  59.9500000  27.2190000
 115.4480000  60.8260000  27.5770000 114.7840000  61.0370000  25.5020000
 114.4580000  60.4570000  24.6570000 114.0930000  61.8240000  25.5450000
 116.1060000  61.6420000  25.0260000 116.8820000  62.2280000  25.7440000
 116.2710000  61.3280000  23.7600000 117.2670000  62.1600000  23.1280000
 116.9060000  63.1720000  23.2900000 118.2320000  62.0000000  23.6300000
 117.3860000  61.9430000  21.5930000 118.0800000  62.6900000  21.2130000
 116.0110000  61.9630000  20.9830000 116.1730000  61.4720000  20.0610000
 115.2380000  61.3360000  21.4430000 115.4830000  63.3200000  20.6420000
 114.4900000  63.5720000  19.3270000 115.4870000  63.6260000  18.0820000
 116.3480000  64.8010000  17.8660000 116.6860000  64.6370000  16.8330000
 115.7110000  65.7530000  17.9060000 117.4910000  64.7570000  18.8570000
 117.9750000  65.7030000  18.9580000 117.1640000  64.3270000  19.8370000
 118.7270000  63.9990000  18.3720000 119.7280000  63.9550000  19.4560000
 120.5090000  63.2890000  19.1410000 120.0400000  64.9930000  19.6630000
 119.3440000  63.6400000  20.3570000 118.3380000  62.6210000  17.9030000
 119.2820000  62.0530000  17.9840000 117.6260000  62.2750000  18.5110000
 118.0500000  62.6590000  16.8400000 119.4510000  64.7000000  17.2430000
 119.7730000  65.6730000  17.6050000 118.7360000  64.8880000  16.4560000
 120.3980000  64.0780000  17.0890000 113.5820000  62.4750000  18.9560000
 113.9580000  64.9170000  19.4980000 117.8850000  60.6550000  21.3040000
 119.1480000  60.3300000  21.5510000 120.0290000  61.1470000  21.6580000
 119.4510000  58.8330000  21.3850000 119.9050000  58.7270000  20.4160000
 118.5230000  58.1890000  21.4360000 120.3300000  58.3860000  22.5600000
 121.2550000  58.9900000  22.4200000 120.5280000  57.3860000  22.3780000
 119.7350000  58.5840000  23.9890000 118.8400000  57.9850000  24.1360000
 119.3260000  59.6030000  24.0090000 120.8990000  58.4240000  25.1380000
 121.7210000  59.1400000  25.0030000 121.2400000  57.3860000  25.1130000
 120.3380000  58.4440000  26.5840000 121.1260000  57.9740000  27.2750000
 119.5090000  57.7710000  26.6570000 119.8920000  59.8320000  27.0510000
 119.1350000  60.2270000  26.3950000 120.7450000  60.4730000  26.9950000
 119.4220000  59.7570000  28.5000000 120.2060000  59.4370000  29.1110000
 118.7160000  58.9310000  28.6670000 118.6830000  61.0550000  28.8250000
 118.1870000  61.4460000  27.9380000 118.8360000  61.7860000  29.9250000
 118.3670000  62.7570000  29.8910000 119.7410000  61.4870000  31.1650000
 120.1750000  62.3900000  31.5600000 120.5020000  60.7720000  30.8270000
 118.8580000  60.9640000  32.2530000 118.3560000  60.0590000  31.9520000
 118.1440000  61.7190000  32.4800000 119.6080000  60.5600000  33.5460000
 120.3970000  61.2800000  33.7620000 120.0830000  59.5850000  33.4200000
 118.6930000  60.5020000  34.7760000 117.8820000  59.8270000  34.6050000
 118.1410000  61.4550000  34.9520000 119.3520000  60.1920000  36.1730000
 120.1740000  59.4200000  35.9960000 118.6420000  59.8780000  36.9960000
 120.1890000  61.3710000  36.7360000 119.5460000  62.1100000  37.1830000
 120.6600000  61.8170000  35.8490000 121.3360000  60.9290000  37.7200000
 121.8510000  60.0700000  37.2940000 120.9040000  60.4810000  38.6340000
 122.3820000  61.9550000  38.0110000 122.9340000  62.1990000  37.0850000
 123.1830000  61.6520000  38.6650000 121.8740000  62.8090000  38.5300000
  66.9740000 141.4840000  40.7880000  67.0150000 142.5840000  40.9150000
  67.6080000 140.9620000  41.4910000  65.9700000 141.0830000  40.9650000
  67.3430000 141.0920000  39.3370000  66.8520000 140.2090000  39.0400000
  66.9890000 141.8220000  38.6110000  68.8140000 140.8180000  39.0230000
  69.3720000 141.6850000  39.3820000  69.1580000 139.9940000  39.5970000
  69.1270000 140.5920000  37.5560000  68.6560000 139.6910000  37.2750000
  68.7910000 141.2850000  36.7710000  70.6030000 140.4150000  37.3920000
  71.0770000 141.2380000  37.9360000  70.8900000 139.4920000  37.9390000
  71.0820000 140.2390000  35.9790000  70.7710000 139.2220000  35.5740000
  70.6550000 140.9050000  35.2680000  72.6070000 140.3240000  35.9470000
  72.7610000 141.4260000  36.0860000  73.0950000 139.7420000  36.7380000
  73.2180000 139.8700000  34.5910000  73.0510000 138.7930000  34.3830000
  72.6850000 140.3700000  33.7780000  74.7170000 140.1680000  34.3030000
  74.9760000 141.2100000  34.5050000  75.2690000 139.6210000  35.0800000
  75.2220000 139.6700000  32.8920000  74.8300000 140.4140000  32.2270000
  76.2720000 139.8090000  32.8500000  74.9380000 138.2280000  32.3990000
  75.5180000 137.5340000  33.0180000  73.8670000 137.9290000  32.6210000
  75.3560000 137.9850000  30.9600000  76.4540000 138.0930000  30.8460000
  75.1340000 136.9600000  30.6230000  74.7160000 138.9380000  29.9080000
  73.6830000 138.9460000  30.1740000  74.9960000 139.9410000  30.1390000
  74.9890000 138.4560000  28.4870000  76.0540000 138.1900000  28.4420000
  74.3520000 137.6110000  28.3380000  74.6720000 139.4340000  27.3980000
  73.6790000 139.9390000  27.2980000  75.3420000 140.3100000  27.5380000
  74.8680000 138.8220000  26.0630000  75.9310000 138.8180000  25.4460000
  73.7110000 138.1880000  25.6390000  73.7070000 137.6440000  24.3290000
  72.6640000 137.4320000  24.0640000  73.9950000 138.3600000  23.5600000
  74.4770000 136.2460000  24.0050000  74.8770000 136.3610000  22.9460000
  73.6390000 134.9500000  24.0420000  74.2850000 134.2260000  23.6450000
  73.4290000 134.7430000  25.1210000  72.4010000 135.1220000  23.2400000
  72.4200000 135.3750000  21.6420000  72.5660000 137.0120000  21.6320000
  71.3970000 137.8110000  21.6170000  70.4530000 137.2350000  21.3940000
  71.3490000 138.3910000  22.5150000  71.4710000 138.8310000  20.4780000
  70.6020000 139.5060000  20.3230000  72.3420000 139.4050000  20.6410000
  71.4250000 138.3980000  19.0230000  71.2440000 139.6340000  18.1620000
  72.2070000 140.1560000  18.1970000  71.0200000 139.3430000  17.1520000
  70.4390000 140.1880000  18.6400000  72.7560000 137.7690000  18.6780000
  72.9530000 137.0050000  19.3960000  72.6970000 137.4220000  17.6510000
  73.4900000 138.5010000  18.8870000  70.2820000 137.4310000  18.7920000
  70.2920000 137.2620000  17.7370000  69.3340000 137.8780000  19.0440000
  70.4280000 136.5380000  19.3170000  73.5990000 134.7040000  21.1210000
  71.1020000 135.0000000  21.0860000  75.5530000 136.0840000  24.9150000
  76.8090000 136.2110000  24.4680000  77.3160000 136.4230000  23.3260000
  77.6760000 135.9750000  25.7120000  77.2720000 136.5800000  26.4300000
  78.7850000 136.2770000  25.6190000  77.6480000 134.5260000  26.1870000
  78.4630000 133.8920000  25.7580000  76.7810000 134.1120000  25.8160000
  77.7430000 134.4650000  27.7460000  78.3350000 135.4010000  28.1040000
  78.2430000 133.6330000  28.2400000  76.2560000 134.3790000  28.2380000
  75.7990000 133.3350000  28.1190000  75.4980000 135.0540000  27.9060000
  76.3050000 134.3320000  29.7870000  76.4290000 135.3210000  30.1420000
  77.1770000 133.8210000  30.1790000  75.0290000 133.7260000  30.3780000
  74.9550000 132.7510000  30.0020000  74.2300000 134.3200000  29.9620000
  74.8670000 133.5900000  31.8940000  73.8200000 133.6380000  32.1050000
  75.3500000 134.4270000  32.4310000  75.4800000 132.2870000  32.4500000
  76.5010000 131.9610000  32.1300000  75.0570000 131.5430000  33.4900000
  75.5440000 130.6800000  33.9700000  73.7970000 131.8180000  34.1770000
  73.1210000 131.0130000  34.0130000  73.2710000 132.7390000  33.8570000
  73.9730000 131.8140000  35.7090000  74.8060000 132.4640000  35.8590000
  74.3090000 130.8830000  36.1370000  72.6510000 132.2140000  36.4130000
  71.9330000 131.5280000  35.9440000  72.3070000 133.2340000  36.2090000
  72.6620000 131.8200000  37.9440000  73.6070000 132.1070000  38.4360000
  72.7490000 130.7250000  37.9400000  71.3970000 132.1810000  38.6850000
  70.5580000 131.5400000  38.3460000  71.0760000 133.2230000  38.5120000
  71.3970000 131.8480000  40.1710000  71.8100000 130.8400000  40.3520000
  70.3580000 131.8550000  40.5030000  72.0720000 132.9740000  40.9500000
  71.5720000 133.9550000  40.7180000  73.1810000 133.0470000  40.8230000
  71.8760000 132.7190000  42.4520000  72.3550000 133.4980000  43.0400000
  72.1930000 131.7390000  42.7250000  70.7860000 132.8320000  42.6540000
  89.2220000  28.1990000  27.6910000  89.9110000  27.9000000  26.8680000
  89.0930000  29.2790000  27.8900000  88.2350000  27.8490000  27.4860000
  89.7240000  27.5730000  28.9470000  89.7500000  26.4750000  28.8180000
  90.8280000  27.8530000  28.9680000  89.0320000  27.8930000  30.2830000
  89.6210000  27.2880000  31.0780000  89.1640000  28.9520000  30.5670000
  87.5740000  27.4380000  30.1850000  87.0140000  28.0560000  30.8700000
  87.2450000  27.5940000  29.1370000  87.2930000  25.9370000  30.4300000
  87.5750000  25.3110000  29.5710000  87.7680000  25.5470000  31.3170000
  85.7360000  25.7240000  30.5420000  85.2630000  26.1330000  31.4380000
  85.3080000  26.2090000  29.6720000  85.4240000  24.1970000  30.6470000
  85.8610000  23.8460000  31.5680000  84.2900000  24.0880000  30.7280000
  85.9050000  23.1640000  29.5780000  86.9530000  23.2330000  29.4870000
  85.6580000  22.1200000  29.8820000  85.2400000  23.4910000  28.2260000
  84.2180000  23.3450000  28.4730000  85.3630000  24.5010000  27.8350000
  85.7020000  22.5930000  26.9890000  85.4600000  21.5260000  27.1820000
  85.2470000  23.0290000  26.1410000  87.2930000  22.7650000  26.7950000
  87.7580000  22.2840000  27.6260000  87.6300000  22.3250000  25.7640000
  87.7390000  24.1790000  26.8720000  86.9890000  24.6860000  26.1670000
  87.6400000  24.5740000  27.8350000  89.1690000  24.4680000  26.3080000
  89.4350000  25.4980000  26.5500000  89.9000000  23.9510000  26.8690000
  89.3220000  24.0930000  24.8330000  90.3750000  24.3040000  24.5240000
  89.1750000  23.0250000  24.7310000  88.3340000  24.8150000  23.8890000
  87.3180000  24.4840000  23.9620000  88.2830000  25.9300000  24.1150000
  88.7680000  24.7780000  22.4400000  89.2250000  25.6860000  21.7920000
  88.6050000  23.5890000  21.7930000  88.9960000  23.4420000  20.4230000
  88.7470000  22.4210000  20.2140000  88.4550000  24.1410000  19.8030000
  90.5220000  23.6180000  20.2420000  90.7690000  24.6630000  20.4080000
  90.9210000  23.2270000  18.7510000  90.1690000  23.5410000  18.0680000
  91.9060000  23.5790000  18.5340000  90.9670000  21.7690000  18.7140000
  91.3780000  21.0030000  17.4360000  90.0150000  20.8430000  16.7020000
  89.0620000  19.8880000  17.1140000  89.3560000  18.8140000  16.9610000
  88.8530000  20.0330000  18.2070000  87.8000000  20.2440000  16.2630000
  88.0380000  20.0870000  15.2330000  87.0170000  19.5010000  16.4610000
  87.1870000  21.6680000  16.3760000  87.3460000  22.3050000  17.7240000
  86.9320000  23.3140000  17.7960000  86.9250000  21.7160000  18.5050000
  88.4310000  22.3210000  17.8370000  87.9230000  22.5580000  15.5140000
  88.8820000  22.7770000  16.0100000  88.1380000  22.1050000  14.5240000
  87.3720000  23.5390000  15.3200000  85.7100000  21.6010000  15.9710000
  85.2380000  22.5120000  16.1740000  85.1990000  20.8250000  16.4760000
  85.6360000  21.3360000  14.9240000  92.2100000  21.8930000  16.6230000
  91.8960000  19.7370000  17.8830000  91.1370000  22.6290000  21.0860000
  92.4120000  22.7390000  21.4530000  93.0750000  23.7640000  21.2410000
  92.9600000  21.3700000  21.9030000  93.8640000  21.1810000  21.3640000
  92.1760000  20.6330000  21.5900000  93.2600000  21.4010000  23.4360000
  93.8650000  22.3320000  23.6330000  93.8940000  20.5350000  23.6280000
  92.0130000  21.3950000  24.3940000  91.3570000  20.5510000  24.0950000
  91.4060000  22.2250000  24.1500000  92.3760000  21.1890000  25.8900000
  93.1340000  21.9960000  26.1900000  92.7820000  20.1610000  25.9720000
  91.2340000  21.3150000  26.8480000  90.6550000  20.5040000  26.5780000
  90.6350000  22.1480000  26.6020000  91.5460000  21.1490000  28.2500000
  92.4760000  21.5730000  28.5070000  91.7990000  20.1150000  28.3010000
  90.3740000  21.5830000  29.1320000  89.5250000  20.9070000  28.8950000
  90.1190000  22.5940000  28.9170000  90.5820000  21.3340000  30.5620000
  90.7190000  20.3340000  30.7490000  90.7850000  22.1630000  31.5340000
  90.9870000  21.7460000  32.4970000  90.7130000  23.7240000  31.4780000
  90.1310000  24.2160000  30.6900000  91.7140000  24.0480000  31.3590000
  90.2590000  24.0840000  32.9240000  90.9130000  23.5750000  33.6390000
  89.2360000  23.7630000  33.1580000  90.2930000  25.5650000  33.1820000
  89.6010000  26.0590000  32.4990000  91.3340000  26.0150000  33.1450000
  89.7600000  25.8740000  34.6090000  90.4810000  25.4560000  35.4110000
  88.7800000  25.4900000  34.8420000  89.7550000  27.3350000  35.0490000
  90.6310000  27.8930000  34.6250000  89.8660000  27.4210000  36.1300000
  88.4910000  28.0500000  34.4840000  87.6500000  27.4650000  34.7570000
  88.5100000  28.1090000  33.3700000  88.3220000  29.4490000  35.0530000
  89.2650000  29.9040000  34.8660000  88.1580000  29.3440000  36.1350000
  87.2210000  30.3420000  34.5160000  86.2640000  29.8780000  34.7770000
  87.3220000  30.4010000  33.4150000  87.0910000  31.3910000  34.8390000
   8.9410000  26.2280000  39.5050000   9.7720000  26.6900000  39.0100000
   8.9290000  25.1500000  39.4250000   8.8360000  26.5610000  40.5330000
   7.6990000  26.8300000  38.7470000   6.9140000  26.9090000  39.4510000
   7.8690000  27.8690000  38.4030000   7.3980000  25.9680000  37.6280000
   8.2710000  25.7260000  37.0820000   6.9520000  25.0530000  38.0380000
   6.3550000  26.6220000  36.7120000   5.8330000  25.8460000  36.2220000
   5.7730000  27.2400000  37.4130000   7.1050000  27.4800000  35.6370000
   7.6150000  28.3440000  36.1000000   7.9080000  26.9000000  35.2050000
   6.2220000  28.1330000  34.5110000   5.4450000  28.7710000  35.0140000
   6.6780000  28.8010000  33.8390000   5.4190000  27.1380000  33.6210000
   5.0340000  26.3220000  34.2560000   4.6350000  27.7050000  33.0030000
   6.4360000  26.4060000  32.6850000   7.2750000  26.0110000  33.1940000
   5.9890000  25.5980000  32.1530000   6.8650000  27.3590000  31.5590000
   5.9050000  27.6230000  31.1450000   7.3730000  28.2350000  31.9220000
   7.8280000  26.7610000  30.4460000   8.1010000  27.5460000  29.8170000
   8.6910000  26.3430000  30.9520000   7.2650000  25.6820000  29.5800000
   6.8180000  24.9190000  30.2380000   6.4650000  26.1400000  28.9410000
   8.2780000  24.9550000  28.6570000   9.0200000  24.3780000  29.2870000
   7.6800000  24.1730000  28.1700000   9.0090000  25.8120000  27.6410000
   8.3800000  26.2050000  26.8390000   9.5110000  26.5730000  28.1920000
  10.1250000  24.9120000  26.9360000  10.6120000  24.2790000  27.7490000
   9.5370000  24.2300000  26.3660000  11.0770000  25.6540000  26.0590000
  11.7810000  26.4120000  26.5080000  11.8120000  24.9720000  25.6080000
  10.2020000  26.2620000  24.9830000  10.1190000  27.5060000  24.8730000
   9.6360000  25.3710000  24.1640000   8.7620000  25.8790000  23.0990000
   7.8220000  25.2790000  22.9550000   8.2990000  26.8670000  23.4300000
   9.4390000  26.0200000  21.7420000  10.4800000  26.5160000  21.8690000
   8.6790000  26.8960000  20.7800000   7.7230000  26.3820000  20.5770000
   8.4550000  27.8640000  21.2160000   9.4400000  26.9990000  19.5110000
   8.8100000  27.7580000  18.2360000   7.8600000  26.6080000  17.6580000
   8.3180000  25.7830000  16.6300000   9.3140000  25.4040000  16.7720000
   7.6670000  24.9600000  16.6750000   8.1330000  26.3620000  15.1840000
   9.0150000  26.9350000  15.0980000   8.0220000  25.5330000  14.4240000
   6.8550000  27.2340000  14.9490000   6.6150000  27.5720000  13.5360000
   5.9680000  28.4030000  13.4610000   7.6370000  27.9090000  13.1620000
   6.2280000  26.6380000  13.0890000   5.6030000  26.6710000  15.5600000
   5.7460000  26.6010000  16.5960000   4.7600000  27.4060000  15.5420000
   5.4530000  25.7330000  15.0820000   6.9600000  28.4760000  15.6080000
   7.8370000  29.0960000  15.3250000   6.7630000  28.2830000  16.7110000
   6.1720000  29.0570000  15.2530000   7.9490000  28.8630000  18.7270000
   9.8350000  28.0140000  17.1820000   9.6180000  24.7090000  21.1440000
  10.7950000  24.4420000  20.4690000  11.6900000  25.2690000  20.3180000
  10.8300000  22.9550000  20.0180000  11.1120000  23.0050000  18.9500000
   9.8730000  22.4490000  20.1030000  11.9740000  22.2740000  20.7940000
  12.9620000  22.6460000  20.5760000  12.0670000  21.2270000  20.4290000
  11.6570000  22.2840000  22.3320000  10.7580000  21.7160000  22.6010000
  11.5710000  23.3510000  22.5790000  12.8000000  21.7690000  23.1770000
  13.7340000  22.0960000  22.6910000  12.7590000  20.6940000  23.3100000
  12.6270000  22.4210000  24.5650000  11.5870000  22.3460000  25.0510000
  12.8360000  23.4770000  24.4310000  13.5690000  21.7340000  25.6350000
  14.5780000  21.5720000  25.2340000  13.1720000  20.7090000  25.8620000
  13.4950000  22.5590000  26.9280000  12.4660000  22.4910000  27.3350000
  13.5490000  23.6360000  26.7090000  14.6330000  22.1460000  27.7870000
  15.5990000  22.2500000  27.2400000  14.5450000  21.5240000  29.0200000
  15.5280000  21.2300000  29.4130000  13.3660000  21.1710000  29.8730000
  12.4550000  21.5260000  29.4870000  13.4560000  21.7450000  30.8580000
  13.3040000  19.6940000  30.3230000  12.7570000  19.4230000  31.2020000
  14.2920000  19.3400000  30.6540000  12.9660000  18.7610000  29.1360000
  13.1810000  17.7030000  29.3560000  13.7290000  19.0550000  28.3780000
  11.5170000  18.8360000  28.5870000  11.1660000  19.8410000  28.3680000
  10.7870000  18.5580000  29.3070000  11.1810000  17.9310000  27.4370000
  11.8380000  18.2920000  26.6800000  10.0920000  17.9390000  27.1170000
  11.4990000  16.4950000  27.7500000  10.7880000  16.2980000  28.5800000
  12.5120000  16.2770000  28.1000000  11.2560000  15.5480000  26.5460000
  11.3690000  14.5020000  26.8380000  12.0760000  15.6700000  25.7910000
   9.8870000  15.6340000  25.8650000   9.1950000  15.3740000  26.6570000
   9.8290000  14.8980000  25.0810000   9.7520000  16.6140000  25.5210000
 105.7020000 106.6480000  31.7240000 105.6070000 105.5890000  31.8690000
 106.0720000 106.8200000  30.6630000 104.7140000 107.1070000  31.9680000
 106.7780000 107.0750000  32.7490000 106.7170000 108.1360000  32.8270000
 106.3660000 106.7520000  33.7380000 108.2710000 106.6090000  32.4790000
 108.3360000 105.5570000  32.6400000 108.5720000 106.8100000  31.4500000
 109.3290000 107.1020000  33.4420000 109.0800000 106.7260000  34.4030000
 110.3010000 106.7590000  33.0920000 109.5110000 108.6660000  33.5290000
 108.5090000 109.0740000  33.6170000 110.0640000 109.0740000  34.3630000
 110.1880000 109.2460000  32.2600000 111.2360000 108.8500000  32.2890000
 109.6470000 108.9100000  31.3540000 110.2220000 110.7860000  32.2800000
 110.9400000 111.1120000  33.0680000 110.5760000 111.0790000  31.2800000
 108.8490000 111.4730000  32.5000000 108.2260000 111.0190000  31.7990000
 108.3520000 111.3900000  33.4830000 108.9110000 112.9790000  32.1910000
 109.5890000 113.4590000  32.9000000 109.3770000 113.0440000  31.2140000
 107.5310000 113.6720000  32.1430000 107.0240000 113.0780000  31.4450000
 107.1580000 113.5310000  33.2220000 107.5050000 115.2030000  31.7930000
 106.4320000 115.4990000  31.7280000 107.8900000 115.6740000  32.7430000
 108.2790000 115.6250000  30.5400000 109.3310000 115.3100000  30.5630000
 107.8950000 115.0480000  29.7150000 108.3240000 117.1650000  30.2580000
 107.3320000 117.5360000  30.1480000 108.8090000 117.8450000  31.0040000
 109.1210000 117.4540000  28.9490000 108.8500000 116.7330000  28.2340000
 108.8120000 118.4510000  28.5950000 110.7010000 117.4710000  29.1370000
 111.0250000 118.0200000  30.0360000 110.9910000 116.4140000  29.3210000
 111.4390000 118.1220000  28.0050000 111.8970000 119.2370000  28.1060000
 111.4960000 117.3760000  26.8910000 111.9800000 118.0040000  25.6500000
 111.4470000 117.6190000  24.7460000 111.7590000 119.0440000  25.8250000
 113.5160000 117.8120000  25.5520000 113.9290000 118.1440000  26.5330000
 114.1100000 118.5510000  24.3290000 113.8500000 119.6270000  24.2590000
 115.1050000 118.3670000  24.3300000 113.5610000 118.0010000  23.1130000
 113.9110000 118.5760000  21.6720000 112.5720000 119.3160000  21.2810000
 111.6260000 118.5990000  20.5220000 112.1560000 118.0910000  19.7380000
 111.2460000 117.7930000  21.1640000 110.6300000 119.5240000  19.8740000
 110.0830000 119.9390000  20.6540000 111.1110000 120.3430000  19.5340000
 109.6730000 119.0640000  18.7750000 108.5660000 118.1510000  19.2630000
 109.0370000 117.2510000  19.6920000 107.9890000 118.6330000  20.0770000
 107.9960000 117.9400000  18.3040000 109.0320000 120.3310000  18.2820000
 108.2840000 120.1990000  17.5140000 108.4710000 120.7240000  19.1110000
 109.7830000 121.0730000  17.9860000 110.3880000 118.3070000  17.7040000
 110.5720000 117.3250000  18.0860000 111.2700000 118.8450000  17.4860000
 109.6610000 118.2760000  16.8910000 114.9540000 119.6200000  21.8070000
 114.1600000 117.4960000  20.7000000 113.6670000 116.4220000  25.2790000
 114.8430000 115.7800000  25.4810000 115.8730000 116.3730000  25.8050000
 114.9090000 114.3270000  25.0860000 115.6320000 114.2000000  24.3400000
 113.9640000 114.0660000  24.5580000 115.0650000 113.4390000  26.3360000
 114.1150000 113.3880000  26.8020000 115.6180000 113.9440000  27.0810000
 115.6420000 112.0260000  26.0480000 116.2890000 112.1100000  25.2160000
 114.8250000 111.4060000  25.7270000 116.4430000 111.3550000  27.1520000
 117.3280000 112.0190000  27.4430000 116.7520000 110.3870000  26.8190000
 115.7220000 111.2110000  28.4170000 114.7050000 110.7190000  28.0920000
 115.4750000 112.1990000  28.8110000 116.4360000 110.3280000  29.4660000
 117.1850000 110.9580000  29.9480000 116.9500000 109.5050000  28.9420000
 115.5420000 109.6280000  30.5250000 114.6470000 109.1350000  30.0770000
 115.1210000 110.4260000  31.1120000 116.4200000 108.6490000  31.2350000
 117.5120000 108.6670000  30.9550000 116.0800000 108.0510000  32.3750000
 116.8600000 107.4020000  32.7610000 114.8110000 108.1110000  33.1030000
 114.5090000 107.0340000  33.1780000 114.0430000 108.6980000  32.5510000
 115.0730000 108.6570000  34.5350000 115.6590000 109.5480000  34.6200000
 115.5790000 107.8490000  35.0650000 113.8570000 108.9640000  35.4350000
 113.4270000 109.9170000  35.1510000 114.2490000 109.0530000  36.3490000
 112.6540000 107.9590000  35.5510000 113.0720000 106.9390000  35.4090000
 111.9980000 108.1940000  34.7230000 111.8840000 107.9850000  36.8430000
 111.4170000 108.9630000  37.0560000 112.6370000 107.9090000  37.6650000
 110.8590000 106.8630000  37.0090000 111.3220000 105.9700000  36.6010000
 109.9620000 107.0680000  36.3930000 110.5090000 106.6380000  38.4790000
 110.1620000 107.5850000  38.9160000 111.4620000 106.3650000  38.9990000
 109.4820000 105.5510000  38.6950000 109.3590000 105.3580000  39.7920000
 109.8720000 104.6150000  38.3000000 108.5160000 105.9020000  38.2590000
  52.5590000 100.9600000  37.3060000  53.0500000 100.2220000  36.7480000
  51.5650000 100.5890000  37.5200000  53.0640000 100.9870000  38.2850000
  52.4550000 102.3940000  36.6910000  52.1810000 102.3750000  35.5790000
  51.6070000 102.8810000  37.1900000  53.7750000 103.1850000  36.7730000
  54.0810000 103.5160000  37.7070000  54.5270000 102.5680000  36.2890000
  53.4170000 104.5260000  36.0840000  52.9170000 104.2980000  35.1410000
  52.7000000 105.0780000  36.6230000  54.6130000 105.4030000  35.8090000
  54.5780000 106.1590000  36.5790000  55.6070000 104.8990000  35.8900000
  54.5200000 106.0710000  34.4360000  54.2980000 105.2760000  33.7130000
  53.5450000 106.6530000  34.3930000  55.7530000 106.8010000  33.9530000
  55.9070000 107.6650000  34.5580000  56.6970000 106.1790000  33.9470000
  55.5740000 107.2250000  32.4990000  54.7450000 107.8720000  32.5160000
  56.4900000 107.7800000  32.1150000  55.3830000 106.1190000  31.4230000
  56.2690000 105.5310000  31.4580000  54.5660000 105.4540000  31.4970000
  55.1870000 106.6980000  30.0080000  56.0890000 107.3470000  29.9480000
  55.3370000 105.8360000  29.2900000  53.8070000 107.3860000  29.7120000
  53.4460000 108.0940000  30.4750000  53.8810000 107.9440000  28.7850000
  52.6260000 106.4610000  29.4610000  52.9650000 105.6810000  28.8410000
  52.3620000 105.9730000  30.3870000  51.4310000 107.2230000  28.8130000
  50.9950000 107.7940000  29.6560000  51.7630000 107.9540000  28.0430000
  50.4270000 106.3640000  28.1230000  49.8580000 105.7670000  28.8190000
  49.7500000 107.0820000  27.8080000  50.9150000 105.5520000  26.8460000
  51.4640000 106.2230000  26.2130000  51.5060000 104.7690000  27.1970000
  49.8120000 104.7700000  26.1900000  48.8300000 104.3820000  26.8000000
  49.8720000 104.8250000  24.8520000  48.5600000 104.9280000  24.2210000
  48.7420000 104.4280000  23.2070000  47.8520000 104.2230000  24.6340000
  47.8270000 106.2480000  24.1350000  47.5310000 106.4120000  25.1940000
  46.5910000 106.3170000  23.2060000  45.8480000 105.5950000  23.5370000
  46.1520000 107.2530000  23.4240000  46.8990000 106.2160000  21.7580000
  47.1380000 104.9080000  20.9870000  48.6840000 105.0540000  20.6730000
  49.1960000 106.2950000  20.1150000  49.4360000 106.0920000  19.1000000
  48.4730000 107.0940000  20.1180000  50.4510000 106.6630000  20.9740000
  50.7510000 107.6340000  20.7750000  50.1280000 106.4980000  22.0760000
  51.6680000 105.8450000  20.7740000  51.4470000 104.3680000  20.9340000
  52.4830000 103.9290000  20.9490000  50.9830000 104.2110000  21.9190000
  50.7730000 103.9500000  20.1990000  52.2850000 106.1810000  19.4490000
  53.1930000 105.6030000  19.3940000  51.6530000 105.9130000  18.5860000
  52.4570000 107.2210000  19.4500000  52.6240000 106.3490000  21.8380000
  52.2080000 105.8940000  22.7950000  52.5330000 107.4010000  21.9280000
  53.6620000 106.1390000  21.6590000  46.8650000 103.7830000  21.8860000
  46.3470000 104.9700000  19.7330000  48.7850000 107.2140000  23.8420000
  48.6810000 108.4240000  24.4130000  47.6110000 108.9880000  24.7040000
  50.0780000 109.0150000  24.4540000  50.4410000 109.1650000  23.4510000
  50.7780000 108.3540000  25.0160000  50.1380000 110.4640000  25.0150000
  49.2690000 111.0100000  24.7020000  50.9900000 110.9950000  24.5900000
  50.2850000 110.4940000  26.5240000  50.6640000 111.4700000  26.8270000
  51.0640000 109.8790000  26.8000000  48.9940000 110.2000000  27.3020000
  48.7180000 109.1550000  27.2570000  48.1360000 110.7030000  26.7760000
  49.2160000 110.5100000  28.7830000  49.3030000 111.6200000  28.8210000
  50.0690000 109.9110000  29.1370000  48.0000000 110.1460000  29.5610000
  47.1120000 110.4680000  29.1040000  48.0600000 110.6450000  30.5280000
  47.8390000 108.6650000  29.9380000  48.7690000 108.1950000  30.1410000
  47.5620000 108.2190000  29.0520000  46.8260000 108.4280000  30.9790000
  45.9470000 108.9540000  30.7890000  46.9740000 107.6660000  32.0670000
  46.1250000 107.6950000  32.7040000  48.1120000 106.7600000  32.2990000
  48.6130000 106.4750000  31.3740000  47.6890000 105.8370000  32.8290000
  49.2140000 107.3870000  33.1810000  49.8950000 106.5390000  33.4850000
  48.6680000 107.6360000  34.1420000  50.0850000 108.5180000  32.6100000
  49.4800000 109.2950000  32.1880000  50.8110000 108.0910000  31.8070000
  51.1020000 109.1310000  33.5910000  51.6940000 108.2370000  33.9790000
  50.5730000 109.5000000  34.5300000  52.0890000 110.1310000  32.9080000
  52.3970000 109.5480000  31.9990000  52.9080000 110.4060000  33.5740000
  51.2700000 111.4150000  32.5350000  50.9290000 111.8050000  33.5180000
  50.4040000 110.9710000  31.9930000  51.9860000 112.4680000  31.6350000
  52.8290000 112.8270000  32.2330000  51.3720000 113.3340000  31.3840000
  52.4250000 111.8890000  30.2680000  51.6150000 111.3570000  29.8180000
  53.2840000 111.2830000  30.4410000  52.8770000 112.6310000  29.6200000
  12.1490000  71.6290000  31.6670000  12.5520000  72.3260000  30.9190000
  11.5400000  72.1700000  32.4310000  11.6160000  70.8340000  31.1460000
  13.3990000  71.0330000  32.3950000  13.0410000  70.3390000  33.0930000
  14.0070000  70.5350000  31.5960000  14.2680000  72.0180000  33.1960000
  13.6330000  72.3550000  34.0260000  15.1310000  71.4680000  33.6120000
  14.8170000  73.2280000  32.3360000  13.9910000  73.8430000  32.0650000
  15.5070000  73.8700000  32.9910000  15.5640000  72.8010000  31.0120000
  16.2600000  72.0300000  31.3650000  14.8000000  72.3260000  30.3570000
  16.2840000  73.9440000  30.2760000  17.0660000  74.4060000  30.9260000
  16.7550000  73.5240000  29.4100000  15.3180000  75.1240000  30.0020000
  14.9140000  75.5120000  30.9450000  15.7310000  76.1020000  29.5530000
  14.1680000  74.6610000  29.1780000  13.5500000  73.9020000  29.6520000
  13.5170000  75.5390000  29.1200000  14.6740000  74.2150000  27.8070000
  15.2190000  75.0280000  27.3210000  15.2950000  73.3170000  27.8480000
  13.4940000  73.9030000  26.8890000  13.1120000  74.8540000  26.7100000
  13.9610000  73.6260000  25.9040000  12.3860000  72.8730000  27.3150000
  11.9920000  73.3490000  28.2590000  11.4870000  72.8210000  26.6970000
  12.9170000  71.5270000  27.9360000  13.9290000  71.6380000  28.4710000
  12.2310000  71.0990000  28.6720000  13.1590000  70.5370000  26.7860000
  12.2070000  70.5970000  26.1230000  13.9660000  70.9800000  26.2330000
  13.5220000  69.0950000  27.2680000  14.3810000  69.0590000  27.9880000
  12.7220000  68.6630000  27.7600000  13.8360000  68.1160000  26.1070000
  14.6270000  68.5020000  25.5120000  14.0380000  67.1610000  26.5240000
  12.5570000  67.9230000  25.2750000  11.4550000  67.9180000  25.7380000
  12.8090000  68.0080000  23.9500000  11.6990000  68.2040000  23.0360000
  12.0860000  67.7930000  22.0750000  10.8110000  67.6420000  23.4070000
  11.3790000  69.7380000  22.8000000  10.6510000  69.7710000  22.0190000
  12.6310000  70.6220000  22.5780000  12.4580000  71.6310000  23.0140000
  13.5650000  70.2310000  23.1100000  12.8420000  70.8330000  21.1450000
  13.1940000  69.6090000  20.1820000  14.1210000  70.3480000  19.1350000
  13.5490000  71.2490000  18.0910000  14.3430000  71.3110000  17.2780000
  12.6430000  70.9200000  17.7520000  13.3790000  72.6480000  18.7820000
  13.1290000  73.3450000  17.9230000  12.4650000  72.6570000  19.4320000
  14.5190000  73.3150000  19.4860000  14.0250000  74.3860000  20.3780000
  13.3490000  75.0380000  19.8420000  13.4620000  73.8840000  21.1480000
  14.9040000  74.9510000  20.7740000  15.3600000  72.4370000  20.3060000
  15.7700000  71.7520000  19.6010000  16.1520000  73.0100000  20.9030000
  14.8020000  71.7990000  20.9320000  15.4640000  73.8700000  18.4700000
  16.0700000  73.0450000  18.1240000  16.0940000  74.5580000  19.0620000
  14.8660000  74.3800000  17.7000000  14.0590000  68.6490000  20.8760000
  11.9680000  69.1530000  19.5430000  10.7840000  70.2310000  24.0640000
   9.4810000  69.9860000  24.3590000   8.7230000  69.6290000  23.5140000
   9.1120000  70.1630000  25.8330000  10.0140000  70.5020000  26.3690000
   8.6100000  69.1960000  26.2100000   8.0720000  71.2710000  26.2280000
   7.0890000  71.0560000  25.7840000   8.4380000  72.1500000  25.7600000
   7.9180000  71.4100000  27.7160000   8.8800000  71.8860000  27.9770000
   7.9880000  70.4050000  28.1610000   6.6680000  72.2050000  28.1310000
   5.7680000  71.8720000  27.5400000   6.8940000  73.1860000  27.8360000
   6.1580000  72.1400000  29.6730000   6.0330000  71.0560000  29.9410000
   5.1050000  72.4820000  29.6320000   6.8110000  72.9190000  30.8320000
   6.6240000  74.0020000  30.7690000   7.8640000  72.7010000  30.7530000
   6.3050000  72.3730000  32.1890000   7.0240000  72.7720000  32.9440000
   6.2850000  71.2970000  32.1300000   4.9290000  72.7830000  32.5450000
   4.1790000  72.3610000  31.9720000   4.5860000  73.5060000  33.5830000
   3.5460000  73.6820000  33.8080000   5.4730000  74.1980000  34.6300000
   5.3950000  75.2810000  34.4790000   6.5070000  73.8870000  34.4980000
   5.1220000  73.9710000  36.0760000   4.9760000  72.8880000  36.2010000
   4.1890000  74.6030000  36.3290000   6.2320000  74.3440000  37.0430000
   5.9390000  74.4400000  38.0790000   6.4970000  75.3220000  36.7200000
   7.5020000  73.4810000  36.9290000   7.9110000  73.6620000  35.8750000
   7.3520000  72.3740000  37.1310000   8.5020000  73.9180000  38.0060000
   9.1340000  73.0860000  38.3440000   7.8720000  74.2050000  38.8650000
   9.4130000  74.9980000  37.4700000   8.8560000  75.9020000  37.5650000
   9.6970000  74.8100000  36.4280000  10.5850000  75.0970000  38.4920000
  10.9620000  74.1200000  38.7760000  10.2480000  75.5870000  39.3930000
  11.7530000  75.9710000  37.9060000  11.4740000  76.9870000  37.6390000
  12.2750000  75.5220000  36.9990000  12.5730000  76.0960000  38.6240000
  25.0590000 139.4050000  33.1390000  24.8970000 140.4220000  32.7080000
  26.1210000 139.1420000  32.9530000  24.8680000 139.5440000  34.2320000
  24.1200000 138.3410000  32.4550000  24.1010000 137.3850000  33.0040000
  23.1590000 138.7350000  32.5380000  24.3080000 138.0410000  30.9820000
  23.3660000 137.7150000  30.6260000  24.7200000 138.9300000  30.4730000
  25.3510000 136.8860000  30.7670000  26.2680000 137.2910000  31.1680000
  25.0170000 136.0510000  31.3380000  25.4880000 136.4430000  29.3550000
  26.2340000 135.6670000  29.3700000  24.6130000 136.0040000  29.0560000
  25.9480000 137.5750000  28.4450000  25.3320000 138.4690000  28.5170000
  26.9710000 137.9000000  28.7060000  25.9170000 137.0830000  26.9640000
  26.6850000 136.3720000  26.8350000  24.9910000 136.6230000  26.6750000
  26.1680000 138.2250000  26.0100000  27.1510000 138.6770000  26.2970000
  26.2710000 137.7620000  25.0800000  25.0640000 139.3070000  25.8480000
  24.0920000 138.9040000  26.2240000  25.4030000 140.0950000  26.5510000
  24.9330000 139.7620000  24.4630000  24.4910000 139.0180000  23.8180000
  24.2050000 140.5230000  24.5320000  26.1380000 140.5570000  23.8610000
  26.4590000 141.2580000  24.5870000  26.9610000 139.8680000  23.6370000
  25.8350000 141.1410000  22.4270000  25.7190000 140.2970000  21.6950000
  24.8560000 141.7330000  22.4860000  26.9860000 142.1170000  21.8520000
  27.0740000 143.0620000  22.4590000  27.8950000 141.5430000  21.9740000
  26.6900000 142.5300000  20.3720000  25.8730000 143.1650000  20.3150000
  27.5240000 143.1740000  20.0770000  26.6200000 141.3750000  19.3490000
  25.8060000 140.6590000  19.6140000  26.3690000 141.8780000  18.3940000
  27.9800000 140.6310000  19.2250000  28.9790000 141.1410000  18.7640000
  27.9040000 139.3100000  19.4790000  29.1280000 138.5260000  19.7170000
  28.9120000 137.5200000  19.4310000  30.0280000 138.9950000  19.2280000
  29.3650000 138.4760000  21.2210000  30.1650000 137.8180000  21.4590000
  28.1870000 137.8990000  22.0890000  28.1670000 138.5910000  22.9670000
  27.2540000 138.0730000  21.4460000  28.4220000 136.4890000  22.4420000
  27.8170000 135.2930000  21.5080000  26.2470000 135.5440000  21.7430000
  25.5600000 135.2110000  22.9150000  25.3480000 134.1320000  22.8330000
  26.1670000 135.3730000  23.8240000  24.2190000 135.9370000  23.0120000
  23.5270000 135.3180000  23.6900000  24.3400000 136.9490000  23.3060000
  23.3710000 135.9750000  21.7310000  23.4140000 134.7270000  20.9210000
  24.4980000 134.4570000  20.8390000  22.7750000 133.9820000  21.4120000
  22.9840000 135.0180000  19.9610000  21.9120000 136.1890000  22.0890000
  21.7870000 137.0930000  22.7330000  21.3510000 136.2290000  21.2130000
  21.6120000 135.3060000  22.6990000  23.7990000 137.1880000  20.9450000
  24.8300000 136.9840000  20.5040000  23.7940000 138.0130000  21.6250000
  23.2150000 137.4020000  20.1210000  28.3240000 135.4050000  20.1530000
  28.1880000 134.0580000  22.2920000  29.6410000 139.8430000  21.7180000
  30.9000000 140.2750000  21.4630000  31.7540000 139.5560000  21.0340000
  31.0780000 141.7370000  21.6900000  30.9620000 141.9430000  22.7760000
  30.1330000 142.0390000  21.1990000  32.2870000 142.4900000  21.0920000
  32.1510000 143.5620000  21.1190000  32.3740000 142.2540000  20.0370000
  33.6610000 142.1250000  21.7470000  34.4490000 142.6550000  21.0880000
  33.9230000 141.0880000  21.7320000  33.8540000 142.6350000  23.1940000
  33.2530000 142.0710000  23.9390000  33.5770000 143.6640000  23.2030000
  35.3300000 142.4830000  23.5730000  35.9710000 143.0080000  22.8990000
  35.6480000 141.4420000  23.5150000  35.6890000 142.9600000  25.0360000
  35.4650000 144.0100000  25.0690000  36.7560000 142.7760000  25.1910000
  34.8160000 142.3500000  26.1870000  35.4250000 142.4510000  27.0970000
  34.4480000 141.3740000  25.8890000  33.5710000 143.2280000  26.4010000
  33.2520000 143.9150000  25.6240000  32.8680000 143.3860000  27.5350000
  32.0060000 144.0420000  27.6110000  33.0490000 142.5940000  28.8260000
  33.7470000 141.8110000  28.8390000  32.0690000 142.1800000  29.1230000
  33.4860000 143.6610000  29.8860000  32.6160000 144.3000000  30.0860000
  34.3020000 144.3110000  29.5990000  33.6650000 143.0770000  31.3200000
  32.9530000 142.2260000  31.4280000  33.6130000 143.9110000  32.0700000
  35.0360000 142.3950000  31.4780000  35.7700000 143.2190000  31.3080000
  35.1990000 141.5570000  30.8430000  35.2750000 142.0110000  32.9710000
  34.4870000 141.3500000  33.3020000  35.0380000 142.9070000  33.6010000
  36.6740000 141.5860000  33.3320000  37.5010000 142.1440000  32.9740000
  36.8160000 140.6030000  32.9130000  36.7940000 141.4100000  34.8580000
  36.1850000 140.5520000  35.1290000  36.4270000 142.4010000  35.2600000
  38.2250000 141.1270000  35.4110000  39.0520000 141.7280000  34.9790000
  38.4570000 140.0480000  35.1860000  38.2390000 141.3040000  36.4710000
   7.0370000  14.5720000  23.9550000   6.2050000  13.8750000  24.0180000
   6.8860000  15.3630000  24.6220000   7.9780000  14.0780000  24.3540000
   7.1880000  15.2120000  22.5480000   6.1980000  15.5890000  22.1870000
   7.8150000  16.0730000  22.5750000   7.6650000  14.2560000  21.5060000
   6.8390000  13.5010000  21.3620000   7.7370000  14.8950000  20.6060000
   9.0360000  13.5850000  21.6090000   8.9910000  12.9060000  22.4230000
   9.3340000  12.8810000  20.7800000  10.2250000  14.6550000  21.7510000
   9.9930000  15.3530000  20.8510000  10.1000000  15.1010000  22.7180000
  11.6550000  14.0290000  21.5840000  11.6900000  13.2440000  22.2900000
  11.8220000  13.5640000  20.5960000  12.8140000  15.0560000  21.8610000
  12.4620000  15.5440000  22.7730000  13.7930000  14.5180000  22.0350000
  13.0060000  16.1170000  20.8130000  13.1560000  15.6780000  19.8380000
  12.1970000  16.7860000  20.8230000  14.2840000  16.9710000  20.9970000
  15.1370000  16.2950000  20.9970000  14.4930000  17.6790000  20.0970000
  14.2430000  17.7930000  22.2940000  13.4830000  18.5260000  22.2120000
  14.0060000  17.0990000  23.0740000  15.5840000  18.3970000  22.5170000
  16.2520000  17.5890000  22.4200000  15.8970000  19.1340000  21.7270000
  15.7800000  19.0840000  23.9130000  16.6980000  19.6140000  23.7710000
  14.9770000  19.8610000  24.0530000  15.8420000  18.1570000  25.1950000
  14.9200000  17.5860000  25.2040000  16.6630000  17.5440000  24.9160000
  16.0940000  18.8770000  26.5270000  15.4440000  19.7400000  26.4570000
  15.8190000  18.2070000  27.3370000  17.4910000  19.5790000  26.7460000
  17.6550000  20.4000000  26.0150000  17.4790000  19.8860000  27.7930000
  18.4380000  18.4130000  26.5360000  18.5070000  17.5000000  27.2660000
  19.1440000  18.5160000  25.3720000  20.1090000  17.4570000  24.9380000
  21.0900000  17.8700000  24.8580000  20.0690000  16.6710000  25.6580000
  19.7630000  16.7540000  23.6000000  20.4780000  16.0250000  23.3310000
  19.7530000  17.8070000  22.5100000  18.8920000  18.4130000  22.7200000
  20.6600000  18.4090000  22.6620000  19.7640000  17.2320000  21.1400000
  20.1320000  18.1690000  19.9950000  18.7890000  19.0720000  19.8430000
  18.1900000  19.2700000  18.5620000  18.2190000  18.3910000  17.8910000
  17.1450000  19.5170000  18.7460000  18.7660000  20.3930000  17.7340000
  19.8380000  20.1580000  17.4580000  18.1700000  20.4780000  16.8680000
  18.8830000  21.8220000  18.3840000  19.1490000  22.8680000  17.3240000
  20.1520000  22.7060000  16.9110000  18.4370000  22.7500000  16.5630000
  19.1160000  23.8940000  17.7850000  17.6730000  22.1740000  19.0970000
  17.6450000  23.2450000  19.1840000  16.7370000  21.8420000  18.6780000
  17.7690000  21.7620000  20.1740000  20.0000000  21.8640000  19.3590000
  20.9200000  21.8290000  18.7450000  19.8560000  20.9870000  19.9880000
  20.0160000  22.8530000  19.9030000  21.1610000  19.0860000  20.4270000
  20.4190000  17.3300000  18.8390000  18.4390000  16.2480000  23.6180000
  18.3340000  14.9970000  24.1150000  19.2620000  14.2450000  24.2730000
  16.9150000  14.5840000  24.3150000  16.8180000  13.5700000  23.8770000
  16.1400000  15.2510000  24.0200000  16.6720000  14.4080000  25.8470000
  17.1840000  15.2480000  26.3380000  16.9700000  13.4030000  26.0630000
  15.1930000  14.5370000  26.1310000  14.6550000  13.7730000  25.5770000
  14.8730000  15.5290000  25.7890000  14.8290000  14.1500000  27.5830000
  15.1170000  13.1320000  27.8210000  13.6780000  14.2020000  27.5490000
  15.3840000  15.0900000  28.6320000  15.0570000  16.0810000  28.3660000
  16.4790000  15.0740000  28.6120000  14.7680000  14.8640000  29.9870000
  15.1600000  13.9200000  30.3710000  13.6380000  14.7640000  29.9710000
  15.1730000  15.9010000  30.9990000  15.0420000  16.9070000  30.6590000
  16.2230000  15.9140000  31.2010000  14.5580000  15.8360000  32.3890000
  15.2600000  15.7990000  33.1790000  13.3200000  15.6700000  32.8020000
  13.0870000  15.6270000  33.9080000  12.0780000  15.8970000  31.9320000
  12.3510000  15.9730000  30.8970000  11.6570000  16.8820000  32.1490000
  10.9360000  14.9000000  32.2770000  10.6120000  14.7770000  33.3170000
  11.2320000  13.9330000  32.0210000   9.7420000  15.3030000  31.3720000
  10.0930000  15.2920000  30.3170000   9.4370000  16.3100000  31.5370000
   8.5360000  14.3000000  31.4920000   8.3520000  14.3520000  32.5500000
   8.9980000  13.2850000  31.2240000   7.2930000  14.5830000  30.6040000
   6.4930000  13.8550000  30.7660000   7.6620000  14.5340000  29.6240000
   6.6540000  15.9230000  30.8190000   6.1510000  16.2810000  29.9030000
   7.3980000  16.7090000  30.8250000   5.7570000  16.0060000  32.0980000
   6.4050000  15.9600000  32.9330000   5.0640000  15.1460000  32.1090000
   4.9930000  17.4010000  32.1120000   4.2740000  17.7000000  31.2680000
   5.7170000  18.2050000  32.1570000   4.4990000  17.3990000  33.0770000
 142.1170000 114.9180000  36.2570000 141.2370000 114.3750000  36.3850000
 142.7900000 114.7320000  37.1510000 142.6170000 114.3790000  35.4230000
 141.6600000 116.3560000  35.8920000 140.6010000 116.3500000  35.5240000
 141.7060000 116.9570000  36.7900000 142.7160000 117.0000000  34.9810000
 142.8140000 118.0350000  35.2420000 143.6780000 116.5450000  35.2210000
 142.4660000 116.8830000  33.4690000 141.4330000 117.2470000  33.2310000
 143.1370000 117.5100000  32.9640000 142.4920000 115.4250000  32.8880000
 143.3550000 114.9390000  33.2270000 141.5560000 114.9800000  33.2710000
 142.4700000 115.3360000  31.3780000 142.6150000 114.2230000  31.1060000
 141.4970000 115.6440000  31.0630000 143.4510000 116.2440000  30.6790000
 143.2960000 117.3140000  30.9070000 144.3470000 116.0760000  31.2020000
 143.7030000 115.9220000  29.1420000 143.5390000 114.8090000  29.1080000
 142.9800000 116.4580000  28.4680000 145.1340000 116.3760000  28.7580000
 145.3330000 117.3470000  29.1670000 145.9410000 115.8650000  29.1680000
 145.1860000 116.5860000  27.2310000 144.5070000 117.4410000  26.9780000
 146.0980000 117.0050000  26.8520000 144.8240000 115.4230000  26.3870000
 144.0410000 114.8670000  26.8810000 144.4060000 115.8490000  25.4260000
 145.9780000 114.4080000  26.2210000 146.2970000 113.9090000  27.1300000
 145.6550000 113.6000000  25.6120000 147.2820000 114.9420000  25.5990000
 146.9720000 115.4250000  24.6750000 147.7570000 115.7090000  26.3260000
 148.2510000 113.7640000  25.3330000 148.3930000 113.3160000  26.3280000
 147.7860000 112.9790000  24.7540000 149.5820000 114.2330000  24.8320000
 149.8880000 115.1750000  25.3240000 150.1860000 113.4320000  25.2140000
 149.5780000 114.3170000  23.3360000 149.9350000 113.5390000  22.4600000
 149.0660000 115.4970000  22.8860000 148.8920000 115.8090000  21.4620000
 148.6840000 116.8640000  21.4660000 149.8240000 115.5360000  20.9120000
 147.7300000 114.9780000  20.9110000 148.0070000 113.9310000  21.0930000
 147.3550000 115.3350000  19.4380000 146.9120000 116.3990000  19.3320000
 148.2850000 115.4250000  18.8170000 146.5450000 114.2640000  18.7950000
 144.9790000 114.1920000  18.9240000 144.6990000 112.8600000  19.7900000
 144.4860000 111.6280000  19.1580000 144.4590000 110.7770000  19.8870000
 143.5270000 111.7100000  18.5560000 145.5600000 111.2830000  18.0750000
 145.0310000 110.5830000  17.4130000 145.8500000 112.2360000  17.5760000
 146.7920000 110.5590000  18.4750000 147.7130000 111.6140000  19.0800000
 147.8970000 112.4830000  18.3870000 147.3350000 112.0270000  20.0360000
 148.6020000 111.1160000  19.3720000 146.6300000 109.4990000  19.4890000
 146.2390000 109.8650000  20.4410000 145.9090000 108.7710000  19.0990000
 147.6310000 108.9800000  19.5470000 147.3840000 110.0440000  17.1980000
 148.4410000 109.8510000  17.3130000 147.2380000 110.8090000  16.4540000
 146.8630000 109.0860000  16.9240000 144.6710000 115.3310000  19.6860000
 144.4600000 114.0710000  17.5470000 146.5330000 115.2290000  21.7530000
 145.9510000 114.1600000  22.3720000 146.5080000 113.1070000  22.5560000
 144.5620000 114.4260000  22.7340000 144.0530000 114.8020000  21.8700000
 144.5900000 115.2200000  23.3760000 143.8630000 113.1870000  23.2790000
 144.1330000 112.8350000  24.3040000 143.9500000 112.3960000  22.5860000
 142.3620000 113.6110000  23.3590000 141.9970000 114.0070000  22.4700000
 142.2920000 114.2810000  24.2180000 141.3760000 112.4600000  23.4850000
 141.5070000 111.7680000  22.6330000 140.3390000 112.8390000  23.4180000
 141.5010000 111.6650000  24.8640000 141.1740000 112.2800000  25.7060000
 142.5420000 111.3430000  25.1090000 140.5890000 110.4250000  24.9690000
 140.7670000 109.7950000  24.1110000 139.6290000 110.7980000  24.8550000
 140.7570000 109.7130000  26.3680000 139.9600000 108.9790000  26.4070000
 140.6030000 110.4690000  27.1810000 142.1410000 109.1260000  26.5660000
 142.8360000 109.4350000  25.7500000 142.4820000 108.4080000  27.6560000
 143.4880000 107.9510000  27.7410000 141.5490000 108.0460000  28.8520000
 141.9260000 107.0980000  29.3160000 140.5910000 107.7000000  28.4060000
 141.3050000 109.1660000  29.8920000 140.8000000 108.6070000  30.6880000
 140.5980000 109.9410000  29.5620000 142.5290000 109.8090000  30.3940000
 142.9140000 110.4720000  29.6300000 143.2660000 109.0610000  30.5000000
 142.4040000 110.4340000  31.7200000 141.9900000 109.7620000  32.4650000
 141.5240000 111.1250000  31.7870000 143.6640000 111.0270000  32.3170000
 143.9410000 111.9690000  31.8160000 144.4950000 110.3290000  32.1550000
 143.5410000 111.3240000  33.7660000 143.0890000 110.4650000  34.1630000
 142.8290000 112.1360000  33.8700000 144.8570000 111.7120000  34.3570000
 145.1030000 112.7000000  33.9320000 145.6180000 111.0380000  33.9940000
 144.8470000 111.9260000  35.8300000 144.3510000 112.8500000  36.1530000
 145.8880000 112.0870000  36.1250000 144.5430000 111.0650000  36.4040000
 108.5750000  74.8320000  38.6250000 107.9470000  74.2490000  39.2340000
 109.4340000  74.8450000  39.2570000 108.8730000  74.2570000  37.7480000
 107.9520000  76.1580000  38.2750000 107.6150000  76.7390000  39.1410000
 108.6720000  76.7770000  37.7100000 106.6730000  75.7340000  37.5110000
 106.8430000  74.9580000  36.7420000 106.0320000  75.2990000  38.1500000
 105.9300000  76.9590000  36.8750000 105.0090000  76.5960000  36.5150000
 105.7880000  77.6720000  37.6800000 106.6270000  77.6200000  35.6370000
 107.6190000  78.0280000  35.9390000 106.8800000  76.7750000  34.9170000
 105.8430000  78.7830000  34.9550000 104.9410000  78.2580000  34.5900000
 105.5130000  79.5770000  35.6910000 106.5330000  79.4490000  33.7940000
 105.8250000  80.2060000  33.4810000 107.4530000  79.9700000  34.2310000
 106.8080000  78.5670000  32.5640000 107.5800000  77.9020000  32.9540000
 105.8930000  78.0290000  32.4400000 107.3190000  79.4210000  31.4310000
 107.7490000  80.3480000  31.8780000 108.1730000  78.9370000  30.8680000
 106.2160000  79.9570000  30.4180000 105.2650000  80.2710000  30.9160000
 106.7520000  80.7420000  29.8540000 105.7440000  78.7950000  29.4980000
 105.2550000  78.0380000  30.0290000 105.0010000  79.2190000  28.8890000
 106.7200000  78.4190000  28.3090000 107.0220000  79.3140000  27.7850000
 107.6580000  77.9740000  28.7340000 106.1700000  77.3320000  27.3350000
 105.9220000  76.3960000  27.9180000 105.2760000  77.7650000  26.8440000
 107.2440000  76.8750000  26.2260000 108.0360000  76.4420000  26.7200000
 106.7260000  76.0610000  25.6860000 107.7840000  78.0120000  25.3000000
 107.3670000  79.0720000  25.4510000 108.8630000  78.0270000  25.3180000
 107.3560000  77.7420000  23.8430000 107.4600000  76.6850000  23.2310000
 106.8710000  78.8330000  23.3020000 106.4720000  78.9160000  21.9680000
 106.6050000  79.9650000  21.7350000 107.1360000  78.2990000  21.4120000
 105.0040000  78.3530000  21.8260000 105.1930000  77.3190000  22.2170000
 104.5780000  78.2320000  20.3700000 104.4290000  79.2090000  19.9470000
 105.4890000  77.8090000  19.9130000 103.4070000  77.3990000  20.2880000
 102.6740000  77.1800000  18.8920000 102.1930000  78.7070000  18.5790000
 100.8900000  79.0440000  17.9860000 101.0210000  80.0130000  17.5100000
 100.6110000  78.2510000  17.3710000  99.7650000  79.0870000  19.0360000
  98.8160000  79.3340000  18.4650000  99.6460000  78.0560000  19.5010000
  99.6720000  80.0490000  20.1650000  98.2960000  79.9860000  20.8380000
  98.2070000  80.6710000  21.7300000  97.4420000  80.1500000  20.0740000
  98.2500000  78.9870000  21.3590000 100.6990000  79.7870000  21.2260000
 100.4650000  78.7730000  21.5910000 101.6840000  79.9430000  20.8530000
 100.6290000  80.5840000  21.9190000  99.8620000  81.4660000  19.7470000
 100.8620000  81.6760000  19.5220000  99.5490000  82.1310000  20.5310000
  99.3070000  81.5010000  18.7640000 103.6760000  76.7000000  17.9440000
 101.4530000  76.3220000  19.2310000 104.0220000  79.0200000  22.6550000
 103.6240000  78.3550000  23.7660000 104.1730000  77.3080000  24.1420000
 102.6490000  79.1120000  24.6250000 101.7410000  79.3580000  24.0710000
 103.1250000  80.0260000  24.9200000 102.2570000  78.3750000  25.9350000
 103.1080000  77.8700000  26.5710000 101.6760000  77.5010000  25.5740000
 101.1620000  79.1980000  26.7720000 100.3040000  79.5270000  26.1280000
 101.6680000  80.1320000  26.9970000 100.7110000  78.4150000  28.0440000
 100.2040000  77.4910000  27.8100000 100.0210000  79.1210000  28.5540000
 101.7360000  78.0980000  29.1200000 102.3040000  78.9670000  29.4100000
 102.5250000  77.4000000  28.7840000 101.0080000  77.5290000  30.3680000
 100.6650000  76.5490000  30.2980000 100.0450000  78.0110000  30.6270000
 101.7960000  77.5810000  31.7000000 101.1690000  77.1960000  32.5130000
 102.0450000  78.5770000  31.9140000 102.9510000  76.6190000  31.4540000
 103.4740000  76.8810000  30.4640000 103.2870000  75.5360000  32.1940000
 104.1170000  74.9740000  31.8520000 102.5770000  75.0970000  33.4580000
 101.8280000  74.3420000  33.2790000 102.0720000  75.9820000  33.8240000
 103.5440000  74.8350000  34.6570000 104.1540000  75.7230000  34.7500000
 104.2170000  74.0960000  34.5040000 102.6720000  74.5140000  35.9310000
 101.7820000  75.2160000  35.9280000 103.2160000  74.7930000  36.8660000
 102.2110000  73.0560000  36.0150000 103.0930000  72.4480000  36.1400000
 101.7200000  72.7380000  35.0590000 101.2690000  72.5920000  37.1040000
 101.9660000  72.4130000  37.9510000 100.8520000  71.6380000  36.8620000
 100.2320000  73.5050000  37.7070000 100.8030000  74.3780000  38.0460000
  99.7110000  73.0800000  38.5730000  99.1480000  73.9970000  36.7310000
  99.4430000  74.3100000  35.6670000  98.6810000  74.7770000  37.2450000
  98.1190000  72.9290000  36.6150000  98.4340000  72.2770000  35.8210000
  97.1810000  73.3590000  36.3660000  98.1000000  72.4090000  37.5430000
  55.6070000  67.3000000  34.5010000  55.7440000  67.7090000  35.5140000
  56.5410000  67.2610000  34.0110000  55.1760000  66.2830000  34.4640000
  54.5340000  68.2380000  33.8600000  54.8290000  69.2740000  33.9180000
  54.4560000  67.9890000  32.8200000  53.1650000  68.1050000  34.5220000
  52.6510000  67.1280000  34.3050000  53.1700000  68.2700000  35.5860000
  52.2300000  69.2480000  34.0140000  52.7070000  70.1820000  34.2680000
  52.1820000  69.2940000  32.9150000  50.7560000  69.2570000  34.4940000
  50.1620000  68.7780000  33.6280000  50.7860000  68.6740000  35.4110000
  50.1880000  70.6460000  34.7270000  50.8020000  71.2010000  35.4810000
  50.2130000  71.2370000  33.8130000  48.6610000  70.5470000  35.1790000
  48.5260000  69.9140000  36.0440000  48.3750000  71.6040000  35.3890000
  47.6220000  70.0370000  34.0320000  47.5640000  68.9440000  34.0240000
  46.5950000  70.1850000  34.2530000  47.6280000  70.5910000  32.5720000
  47.5350000  71.7150000  32.5990000  48.5580000  70.4440000  32.1170000
  46.5510000  70.0450000  31.6700000  45.5980000  70.1590000  32.1450000
  46.5960000  70.6600000  30.7560000  46.8100000  68.5550000  31.3470000
  47.8240000  68.4010000  31.0530000  46.5620000  67.9640000  32.1510000
  45.8250000  68.1260000  30.2460000  44.9060000  68.7710000  30.2330000
  46.2790000  68.1120000  29.2180000  45.4210000  66.7260000  30.6030000
  44.8780000  66.7450000  31.6060000  44.6340000  66.4390000  29.9210000
  46.5090000  65.6160000  30.5200000  47.2730000  65.8240000  31.2750000
  46.0980000  64.6430000  30.8490000  47.2410000  65.3330000  29.1750000
  47.7440000  66.2820000  28.8890000  48.1370000  64.6780000  29.2730000
  46.2630000  64.9640000  28.0330000  45.4400000  64.0620000  28.0920000
  46.3180000  65.7480000  26.9150000  45.2240000  65.5470000  25.9000000
  45.5600000  66.0180000  24.9750000  45.1130000  64.4610000  25.6690000
  43.8680000  66.2090000  26.2120000  43.4460000  65.7110000  27.0730000
  42.9190000  66.1010000  25.0150000  42.8440000  65.1020000  24.5620000
  41.8380000  66.3940000  25.2460000  43.5500000  66.8440000  23.9240000
  43.4150000  66.3370000  22.4130000  44.7720000  65.5380000  22.2630000
  46.0250000  66.1630000  22.0880000  46.0000000  66.3500000  21.0160000
  46.1580000  67.1500000  22.6720000  47.0520000  65.1790000  22.6460000
  47.9860000  65.7510000  22.4890000  46.8540000  65.0080000  23.7270000
  47.2830000  63.8680000  21.9710000  48.5580000  63.3410000  22.5040000
  48.6400000  62.2940000  21.9780000  49.3970000  63.9390000  22.1930000
  48.4690000  63.2160000  23.5990000  46.2490000  62.8030000  22.1970000
  45.2490000  63.2680000  22.1220000  46.3760000  61.9680000  21.5040000
  46.3210000  62.4030000  23.1970000  47.4390000  64.0020000  20.4290000
  47.7140000  62.9480000  20.0260000  48.1690000  64.7380000  20.2550000
  46.4910000  64.2000000  19.9910000  42.2550000  65.4340000  22.3300000
  43.4660000  67.3990000  21.3940000  44.0610000  67.6300000  26.5240000
  43.0370000  68.2630000  27.1540000  42.0250000  67.7800000  27.6120000
  43.2780000  69.7280000  27.1540000  43.4450000  70.0170000  26.0890000
  44.2020000  69.7710000  27.7140000  42.1240000  70.5150000  27.8140000
  41.2510000  69.9320000  27.7760000  41.8820000  71.3840000  27.1410000
  42.3790000  70.9970000  29.2910000  41.8680000  71.8940000  29.4630000
  43.4240000  71.2150000  29.4790000  42.0050000  69.9350000  30.2840000
  42.5530000  69.0650000  30.0670000  40.9360000  69.6580000  30.2150000
  42.3530000  70.4460000  31.7300000  41.8390000  71.3490000  31.9120000
  43.3910000  70.7720000  31.7680000  42.1700000  69.4130000  32.8560000
  42.6030000  68.4800000  32.5960000  41.0880000  69.1990000  32.9070000
  42.5450000  70.0830000  34.1700000  42.0320000  71.0470000  34.3580000
  43.5920000  70.3580000  34.2400000  42.1020000  69.1320000  35.3010000
  41.1210000  69.2490000  35.7740000  42.9090000  68.1990000  35.8600000
  42.4790000  67.6310000  36.7260000  44.2490000  67.7260000  35.3470000
  44.6940000  68.3230000  34.5080000  44.0950000  66.7110000  34.8790000
  45.2820000  67.4560000  36.5140000  44.6780000  66.8460000  37.2000000
  45.6170000  68.3300000  37.0100000  46.4970000  66.5790000  36.1540000
  47.0580000  67.0660000  35.3720000  46.0970000  65.6890000  35.7390000
  47.3380000  66.2430000  37.3810000  46.8230000  65.8090000  38.2170000
  47.6160000  67.2050000  37.7510000  48.5590000  65.3720000  37.1620000
  49.2980000  65.5090000  38.0270000  49.1060000  65.7110000  36.2810000
  48.2150000  63.8780000  37.0340000  47.2450000  63.8340000  36.5050000
  48.0990000  63.3050000  37.9510000  49.3540000  63.0790000  36.3140000
  49.1070000  62.0170000  36.4460000  50.3420000  63.2140000  36.7220000
  49.3440000  63.3050000  34.8160000  48.4960000  62.8970000  34.2780000
  50.3040000  62.8290000  34.4200000  49.4560000  64.3480000  34.6160000
  72.2600000  76.7360000  30.5510000  72.7230000  77.4670000  31.2620000
  72.9040000  76.7970000  29.6980000  72.4660000  75.6710000  30.9640000
  70.7770000  76.9480000  30.2530000  70.3070000  76.9530000  31.2050000
  70.5760000  77.9670000  29.8940000  70.2420000  75.9040000  29.2910000
  71.0320000  75.9460000  28.4700000  70.1760000  74.8980000  29.6430000
  68.8290000  76.1980000  28.7250000  68.8110000  77.0980000  28.1730000
  68.6390000  75.4990000  27.9590000  67.7170000  76.1840000  29.7120000
  67.2500000  75.1370000  29.7250000  68.2360000  76.3700000  30.6250000
  66.7060000  77.3720000  29.5420000  67.2450000  78.3740000  29.5120000
  66.2240000  77.2420000  28.5520000  65.6660000  77.3810000  30.6780000
  65.3140000  76.3690000  30.8120000  66.1370000  77.6910000  31.6080000
  64.4480000  78.3340000  30.4100000  64.0740000  78.0520000  29.5250000
  63.5950000  78.1010000  31.0390000  64.9080000  79.7690000  30.4450000
  65.3030000  80.0040000  31.4880000  65.7400000  79.9010000  29.7100000
  63.8820000  80.8110000  30.1080000  63.0580000  80.8670000  30.9040000
  64.3840000  81.8190000  30.1090000  63.2200000  80.6690000  28.7850000
  64.0320000  80.6660000  28.0770000  62.5640000  79.7690000  28.7380000
  62.3550000  81.9330000  28.4830000  62.4240000  82.7810000  29.2080000
  62.7090000  82.4470000  27.5940000  60.8840000  81.6540000  28.2160000
  60.3360000  81.1610000  29.0100000  60.3770000  82.6710000  28.2260000
  60.4510000  80.9640000  26.9250000  61.0770000  80.0570000  26.9320000
  59.3880000  80.7440000  26.8950000  60.7640000  81.6310000  25.5770000
  60.1740000  82.5070000  25.4640000  61.7340000  82.0010000  25.5520000
  60.6000000  80.8250000  24.3100000  59.8450000  79.8720000  24.2960000
  61.0910000  81.3630000  23.1320000  60.9050000  80.6150000  21.8940000
  61.3170000  81.3480000  21.2290000  61.5050000  79.6320000  21.8530000
  59.4510000  80.3190000  21.4140000  59.2560000  79.3810000  21.8280000
  59.3240000  80.0760000  19.8870000  59.8330000  79.1140000  19.5830000
  58.2630000  79.9300000  19.6070000  59.9400000  81.1710000  19.1220000
  59.6070000  81.5320000  17.6060000  60.3820000  80.4520000  16.8310000
  59.8780000  79.1430000  16.5510000  59.9490000  78.4860000  17.4550000
  58.8240000  79.2260000  16.2400000  60.6450000  78.4660000  15.4540000
  60.0520000  77.6330000  15.0850000  60.7320000  79.0360000  14.5860000
  62.0380000  78.0390000  15.6820000  63.0310000  79.1780000  15.7390000
  62.4560000  80.0510000  16.2040000  63.9670000  78.8620000  16.3190000
  63.2670000  79.5550000  14.7290000  62.2350000  77.3030000  16.9120000
  63.2970000  77.0020000  16.9180000  62.0500000  77.8540000  17.8800000
  61.5880000  76.3600000  16.9440000  62.4220000  77.0990000  14.5950000
  63.2960000  76.6100000  15.0030000  62.6450000  77.5860000  13.6460000
  61.6800000  76.3020000  14.4050000  58.1830000  81.4540000  17.4520000
  60.3120000  82.8390000  17.3930000  58.5570000  81.3310000  21.9320000
  57.4770000  80.8490000  22.5050000  57.0630000  79.7230000  22.3010000
  56.9020000  81.7180000  23.6370000  56.1180000  82.3610000  23.2640000
  57.7570000  82.4220000  23.7970000  56.5450000  80.9250000  24.9910000
  57.2090000  80.0430000  25.1900000  55.5340000  80.5740000  24.8450000
  56.5980000  81.8810000  26.1850000  56.2530000  82.8890000  26.0470000
  57.6800000  82.0680000  26.3010000  56.1570000  81.1100000  27.4920000
  56.4850000  80.0610000  27.4270000  55.0800000  81.0400000  27.5960000
  56.8720000  81.6440000  28.7390000  56.7380000  82.7350000  28.8850000
  57.9730000  81.7160000  28.6340000  56.3420000  81.0420000  30.0470000
  56.4060000  79.9960000  29.8660000  55.2790000  81.3470000  30.2830000
  57.2260000  81.3880000  31.2570000  57.2330000  82.4870000  31.3110000
  58.2270000  81.1030000  31.0440000  56.7540000  80.8180000  32.6200000
  55.7090000  81.0110000  32.7990000  57.4300000  80.1720000  33.5600000
  56.9190000  79.9630000  34.5460000  58.8550000  79.8400000  33.4720000
  59.2990000  80.5750000  32.7940000  58.9700000  78.7410000  33.2940000
  59.6170000  80.0060000  34.8240000  59.2610000  79.2780000  35.4360000
  59.4200000  81.0340000  35.2840000  61.0940000  79.7620000  34.6920000
  61.2690000  78.7150000  34.2640000  61.5800000  79.7010000  35.7230000
  61.9180000  80.7030000  33.7880000  61.8740000  81.6810000  34.1680000
  61.5210000  80.7260000  32.7460000  63.3820000  80.2670000  33.7150000
  63.8750000  80.9440000  32.9960000  63.3890000  79.2320000  33.3920000
  64.1320000  80.3860000  35.1140000  63.5960000  79.8990000  35.8460000
  64.2970000  81.3950000  35.5270000  65.5790000  79.7200000  35.0730000
  66.0270000  80.1900000  34.1710000  65.4610000  78.6860000  34.8200000
  66.3560000  79.8560000  36.3840000  66.3130000  80.9650000  36.6160000
  67.3450000  79.4510000  36.2880000  65.7810000  79.4110000  37.2010000
  66.2630000  60.8490000  31.3590000  67.2660000  60.6710000  31.6210000
  66.2460000  61.9270000  31.4310000  66.0110000  60.5130000  30.3550000
  65.2180000  60.4210000  32.3890000  65.0350000  59.3290000  32.3840000
  65.5150000  60.7220000  33.4110000  63.8080000  61.0720000  32.1440000
  63.2810000  61.0690000  33.1300000  63.8950000  62.0830000  31.8000000
  62.9930000  60.2980000  31.0630000  63.5870000  60.1590000  30.2240000
  62.7900000  59.2650000  31.4540000  61.6240000  61.0010000  30.6780000
  61.0460000  61.1800000  31.6100000  61.8180000  61.9390000  30.2760000
  60.7990000  60.2600000  29.6780000  60.3260000  59.3250000  30.1250000
  59.9790000  60.8610000  29.2850000  61.5100000  59.7130000  28.4510000
  62.0070000  60.5580000  28.0090000  62.3400000  59.1180000  28.8180000
  60.5490000  59.1100000  27.4390000  60.0090000  58.2690000  27.9040000
  59.8750000  59.9110000  27.0850000  61.2480000  58.6320000  26.1640000
  62.1270000  59.2680000  25.9420000  61.7980000  57.6500000  26.3040000
  60.2780000  58.5150000  25.0020000  59.5810000  57.7620000  25.1650000
  59.6010000  59.4190000  24.8280000  61.1260000  58.2160000  23.7820000
  61.6520000  59.1770000  23.6160000  61.7580000  57.3700000  23.9520000
  60.2490000  57.8530000  22.5150000  59.9020000  56.7940000  22.6410000
  59.2700000  58.3300000  22.5390000  60.9340000  58.0040000  21.1830000
  61.9010000  57.4850000  21.2170000  60.2420000  57.6530000  20.4300000
  61.3170000  59.4870000  20.9640000  60.5130000  60.1210000  21.2970000
  62.1780000  59.7250000  21.6570000  61.5990000  59.8920000  19.5200000
  62.5520000  59.4200000  19.2370000  60.7580000  59.7240000  18.9170000
  61.9960000  61.3370000  19.5180000  63.1030000  61.6770000  19.8740000
  61.0490000  62.1380000  19.0850000  61.3680000  63.5790000  18.9730000
  61.6010000  63.9740000  19.9890000  62.1950000  63.6820000  18.2340000
  60.1280000  64.2230000  18.3820000  60.0470000  63.7600000  17.4430000
  60.2190000  65.7630000  18.2100000  60.9820000  66.0990000  17.4040000
  59.2830000  66.1790000  17.9510000  60.6660000  66.4020000  19.4450000
  62.1340000  67.0010000  19.7410000  61.7250000  68.5290000  20.0860000
  61.3610000  69.3660000  19.0070000  61.7400000  70.3080000  19.2900000
  61.8540000  69.1140000  18.1360000  59.8370000  69.2750000  18.7460000
  59.6210000  69.9570000  17.9640000  59.7020000  68.3130000  18.5010000
  58.9020000  69.6480000  19.8430000  58.6190000  68.4540000  20.7750000
  58.3090000  67.6050000  20.1000000  59.4370000  68.1130000  21.3450000
  57.8520000  68.6720000  21.5370000  59.3990000  70.8540000  20.6190000
  59.7260000  71.6130000  19.9840000  58.7060000  71.2320000  21.4510000
  60.3110000  70.5650000  21.2290000  57.6260000  70.1550000  19.1950000
  57.8500000  70.9660000  18.5330000  56.9500000  70.4230000  20.0630000
  57.1730000  69.3940000  18.5830000  62.5920000  66.2720000  20.9990000
  62.8870000  66.8430000  18.4620000  58.9600000  63.8290000  19.1780000
  58.0730000  62.9050000  18.7840000  58.1230000  62.3540000  17.7110000
  56.9730000  62.6330000  19.8160000  56.6940000  63.4770000  20.3710000
  57.4790000  62.0410000  20.6660000  55.8500000  61.8890000  19.1330000
  56.1690000  61.0330000  18.5250000  55.4140000  62.6350000  18.4940000
  54.8510000  61.3680000  20.2130000  54.7930000  62.1370000  21.0120000
  55.3390000  60.4700000  20.6670000  53.3940000  61.1430000  19.7040000
  53.4380000  60.2870000  19.0630000  52.9450000  61.9560000  19.1410000
  52.5110000  60.9010000  20.9710000  52.4040000  61.8080000  21.4480000
  53.0520000  60.1550000  21.6440000  51.1040000  60.4370000  20.6530000
  50.7970000  60.7150000  19.6980000  50.4580000  60.9910000  21.2830000
  50.8680000  58.8880000  20.6000000  49.8200000  58.7100000  20.4150000
  51.0940000  58.4340000  21.5340000  51.6330000  58.1880000  19.4580000
  51.6170000  58.6590000  18.5450000  52.3400000  57.0650000  19.6890000
  52.9810000  56.6830000  18.8650000  52.5360000  56.4260000  21.0110000
  52.6550000  55.3330000  20.9200000  51.6830000  56.4050000  21.5270000
  53.6330000  57.0880000  21.8110000  53.4410000  58.1490000  22.0310000
  54.5740000  57.0510000  21.2220000  53.8720000  56.3400000  23.1930000
  53.9640000  55.2910000  22.9640000  53.0200000  56.5100000  23.8410000
  55.2760000  56.8690000  23.7170000  55.4860000  57.8420000  23.5030000
  56.0320000  56.2720000  23.1570000  55.5720000  56.5630000  25.1750000
  54.7990000  57.0350000  25.8320000  56.4740000  56.9780000  25.5370000
  55.6830000  55.0530000  25.4600000  56.2430000  54.6240000  24.5960000
  54.6420000  54.7030000  25.2850000  56.3020000  54.6190000  26.8320000
  57.3140000  55.0210000  26.9550000  56.4520000  53.5000000  26.8270000
  55.4250000  54.9970000  27.9830000  55.8590000  54.5690000  28.9200000
  54.4140000  54.7270000  27.8990000  55.3150000  56.0260000  28.1820000
  37.1610000  13.4310000  32.4070000  36.8070000  12.9390000  31.4730000
  36.7680000  12.7800000  33.1870000  38.1960000  13.5950000  32.4730000
  36.5010000  14.7980000  32.3200000  36.7600000  15.3820000  33.2270000
  36.8470000  15.2430000  31.3740000  34.9780000  14.5590000  32.2040000
  34.7320000  13.9100000  31.3820000  34.7180000  14.0060000  33.0690000
  34.2350000  15.8630000  31.9870000  34.5520000  16.6910000  32.7010000
  34.6160000  16.3190000  30.9300000  32.6310000  15.8300000  31.7510000
  32.5260000  15.3320000  30.8050000  32.1300000  15.3040000  32.5620000
  31.8840000  17.1860000  31.7470000  31.8800000  17.4980000  32.8120000
  32.4790000  17.8810000  31.0910000  30.4460000  17.0950000  31.2190000
  29.8530000  16.4630000  31.9080000  29.9960000  18.0330000  31.2570000
  30.3490000  16.5780000  29.7460000  30.4950000  15.4700000  29.7810000
  29.3530000  16.8040000  29.5210000  31.2810000  17.1330000  28.7150000
  32.3240000  16.8800000  28.9390000  31.0580000  16.6440000  27.7560000
  31.1300000  18.6840000  28.5090000  31.2250000  19.2470000  29.4510000
  31.9640000  19.0630000  27.8730000  29.8410000  19.0010000  27.8450000
  29.0510000  18.6510000  28.4730000  29.7850000  20.0950000  27.9710000
  29.7350000  18.5880000  26.3590000  30.7850000  18.7490000  26.0300000
  29.4820000  17.5140000  26.3630000  28.8380000  19.5040000  25.3800000
  28.9610000  20.6100000  25.5960000  29.1260000  19.1620000  24.3580000
  27.3650000  19.1390000  25.5170000  27.1230000  18.2190000  24.9710000
  27.1010000  18.8610000  26.5030000  26.5440000  20.2950000  25.0520000
  25.5110000  20.2670000  25.3250000  26.9870000  21.2030000  25.4060000
  26.5730000  20.3770000  23.5470000  25.9000000  19.7080000  22.8760000
  27.5940000  21.1930000  23.0830000  27.8150000  21.2760000  21.6290000
  27.7890000  20.3160000  21.1120000  26.9100000  21.7820000  21.0870000
  29.1320000  22.0720000  21.3130000  29.1880000  23.1120000  21.7300000
  29.1560000  22.2420000  19.7760000  28.4620000  23.0290000  19.5760000
  30.0720000  22.6650000  19.4670000  28.8770000  21.0500000  18.9660000
  30.1210000  20.2500000  18.1950000  30.2990000  18.9700000  19.0960000
  29.2190000  18.0460000  19.2900000  29.4580000  17.4330000  20.1960000
  28.3560000  18.6950000  19.6040000  28.9040000  17.2490000  17.9680000
  28.0220000  16.6340000  18.0430000  28.7170000  17.9310000  17.1590000
  29.9860000  16.3500000  17.4460000  31.2020000  17.1480000  16.8980000
  31.5820000  17.5690000  17.8330000  31.8360000  16.3710000  16.5090000
  30.9180000  17.9250000  16.1970000  30.4260000  15.4610000  18.6180000
  29.6590000  14.8670000  18.9090000  31.2840000  14.8990000  18.3110000
  30.6920000  16.1600000  19.3740000  29.4010000  15.5680000  16.2950000
  28.6340000  14.9080000  16.6520000  30.1100000  14.9420000  15.7530000
  28.9080000  16.2280000  15.5930000  29.6750000  19.8180000  16.8310000
  31.4430000  20.8590000  18.4320000  30.2380000  21.2490000  21.6630000
  31.5150000  21.8240000  21.7030000  31.7270000  23.0160000  21.6160000
  32.6400000  20.8790000  21.9110000  32.9010000  20.3930000  20.9790000
  32.2510000  20.1340000  22.6340000  33.9050000  21.4680000  22.5210000
  34.1510000  22.5380000  22.4130000  34.7430000  20.9520000  22.0560000
  34.0260000  21.2240000  24.0420000  34.9610000  21.7160000  24.3230000
  34.0840000  20.1200000  24.2060000  32.9650000  21.8660000  24.9440000
  31.9590000  21.4870000  24.7290000  32.9060000  22.9330000  24.6950000
  33.4270000  21.5780000  26.4130000  34.4790000  21.8610000  26.5420000
  33.4850000  20.5000000  26.6290000  32.5550000  22.2650000  27.5000000
  31.5950000  21.7500000  27.5410000  32.4340000  23.3140000  27.2520000
  33.2760000  22.2400000  28.8640000  34.2110000  22.7060000  28.8570000
  33.4370000  21.1790000  28.9870000  32.4530000  22.8210000  30.0150000
  31.9640000  23.8430000  29.8690000  32.2600000  22.1890000  31.1610000
  31.5940000  22.6440000  31.8790000  32.5710000  20.8020000  31.5530000
  33.2760000  20.3400000  30.8610000  31.7140000  20.2240000  31.7090000
  33.4170000  20.9440000  32.8760000  32.7250000  21.2840000  33.6470000
  34.2800000  21.6540000  32.6690000  34.0240000  19.6060000  33.3930000
  34.5140000  19.0520000  32.5990000  33.1450000  18.9780000  33.6760000
  34.9030000  19.7400000  34.6790000  34.2060000  20.0940000  35.3830000
  35.6370000  20.5780000  34.4390000  35.6070000  18.4910000  35.1300000
  36.0190000  17.9860000  34.2290000  34.8730000  17.8520000  35.5500000
  36.6470000  18.7540000  36.3230000  37.5410000  19.2160000  36.0290000
  36.8900000  17.8270000  36.8490000  35.9930000  19.6170000  37.4640000
  34.9630000  19.3580000  37.6810000  36.1070000  20.6290000  37.2050000
  36.6940000  19.2350000  38.8160000  36.6670000  18.1740000  38.8890000
  36.2090000  19.5770000  39.7010000  37.6930000  19.6570000  38.8180000
  68.6200000 134.9740000  38.5040000  69.5760000 135.4770000  38.7020000
  68.6990000 134.0120000  39.0980000  67.8790000 135.6850000  38.7440000
  68.4640000 134.6730000  36.9610000  68.7390000 133.6970000  36.6410000
  67.4730000 134.9110000  36.7270000  69.4120000 135.6230000  36.1770000
  69.0520000 136.6640000  36.2460000  70.3670000 135.5750000  36.6250000
  69.5400000 135.3520000  34.7070000  70.2680000 134.5490000  34.6080000
  68.6140000 134.9860000  34.1890000  70.0970000 136.6260000  33.8970000
  69.3030000 137.3840000  33.7700000  70.9610000 137.1000000  34.4050000
  70.5380000 136.0250000  32.4960000  71.3870000 135.2920000  32.6440000
  69.7900000 135.4430000  31.9990000  70.9850000 137.1680000  31.5540000
  70.1010000 137.5900000  31.1150000  71.6070000 137.8710000  32.0860000
  71.7440000 136.6050000  30.3020000  72.1490000 137.4340000  29.7020000
  72.5880000 136.1040000  30.7350000  71.0520000 135.8080000  29.2390000
  70.9110000 134.8310000  29.5910000  70.0710000 136.2350000  29.1170000
  71.7450000 135.7050000  27.8710000  72.1490000 136.7510000  27.7630000
  72.5630000 134.9750000  27.9820000  70.8220000 135.1900000  26.7640000
  69.8590000 135.8210000  26.7850000  71.2780000 135.3270000  25.7950000
  70.4070000 133.7820000  26.9380000  71.3100000 133.1630000  26.8910000
  69.8130000 133.6520000  27.8170000  69.5990000 133.2270000  25.7940000
  69.8510000 133.6050000  24.8360000  69.6830000 132.1890000  25.7730000
  68.0620000 133.5710000  26.0450000  67.7880000 133.1510000  27.0470000
  67.9170000 134.6120000  26.0120000  67.2500000 132.9190000  24.9600000
  67.4150000 131.8410000  25.0850000  66.1840000 133.1740000  25.1450000
  67.5410000 133.3840000  23.4990000  68.0650000 132.7840000  22.6070000
  67.1950000 134.6940000  23.4370000  67.3500000 135.4580000  22.2260000
  68.4070000 135.4240000  21.8780000  66.7710000 135.0820000  21.3520000
  66.7550000 136.8970000  22.5830000  65.7610000 136.8290000  22.8680000
  66.7400000 137.7250000  21.2670000  67.4260000 137.2680000  20.5180000
  65.7400000 137.6880000  20.7890000  67.2580000 139.0620000  21.3770000
  67.5600000 139.9800000  20.1660000  66.3450000 141.0110000  20.0730000
  65.0430000 140.5770000  19.9980000  64.4330000 141.3210000  19.4910000
  64.9580000 139.7150000  19.3840000  64.5180000 140.2480000  21.4050000
  63.5780000 139.7310000  21.2640000  65.1410000 139.5850000  21.9270000
  64.2260000 141.3790000  22.3490000  63.5530000 140.8990000  23.5950000
  62.6270000 140.4390000  23.1980000  64.3150000 140.2170000  24.0110000
  63.2590000 141.6810000  24.2690000  65.4390000 142.1140000  22.7250000
  65.1780000 142.9420000  23.4120000  66.1850000 141.4260000  23.2970000
  65.8790000 142.5050000  21.8100000  63.2800000 142.3090000  21.7640000
  62.9310000 143.0210000  22.5440000  62.4830000 141.6640000  21.4380000
  63.8070000 142.8400000  20.9750000  68.7510000 140.8140000  20.4370000
  67.5910000 139.1670000  18.9380000  67.7380000 137.4790000  23.5500000
  67.2950000 138.3600000  24.4180000  66.2160000 138.7920000  24.6210000
  68.4390000 138.7620000  25.3390000  68.7350000 139.7430000  24.9600000
  69.2200000 138.0140000  25.3350000  68.0380000 138.9830000  26.7120000
  67.4390000 139.8620000  26.7660000  68.8640000 139.3920000  27.2960000
  67.5030000 137.7320000  27.5000000  68.1200000 136.8400000  27.4610000
  66.6010000 137.4330000  27.0180000  67.4820000 137.9860000  28.9690000
  66.8470000 138.7930000  29.1220000  68.4730000 138.1240000  29.3630000
  66.8270000 136.8070000  29.7290000  65.7400000 136.7360000  29.5660000
  66.9970000 137.0350000  30.8120000  67.4310000 135.4280000  29.3600000
  68.5020000 135.3800000  29.6530000  67.2060000 135.1640000  28.3450000
  66.9000000 134.2080000  30.1820000  67.1320000 134.3740000  31.2400000
  67.2870000 133.2960000  29.7770000  65.4250000 134.1140000  30.1660000
  65.0430000 134.7510000  30.9490000  64.7740000 133.1000000  29.6900000
  63.7610000 133.0030000  29.9450000  65.3340000 132.0580000  28.7430000
  65.8050000 131.2690000  29.3100000  66.1010000 132.5290000  28.0710000
  64.2300000 131.4100000  27.9250000  63.6060000 132.0940000  27.3980000
  63.6990000 130.9330000  28.7610000  64.7610000 130.4190000  26.8320000
  65.4710000 129.7360000  27.2870000  65.2630000 130.9090000  25.9570000
  63.5270000 129.6580000  26.3800000  62.8020000 130.3050000  25.9790000
  63.0500000 129.2400000  27.2600000  63.6940000 128.6480000  25.2200000
  62.7230000 128.2130000  24.9190000  64.2610000 127.8010000  25.6000000
  64.3200000 129.1890000  23.9480000  64.2930000 128.4780000  23.1460000
  65.4140000 129.2770000  24.1350000  63.7120000 130.5260000  23.4340000
  63.7740000 131.4360000  24.1180000  62.6690000 130.4190000  23.1880000
  64.4560000 130.8290000  22.1770000  63.9380000 131.7270000  21.7130000
  64.4540000 130.0270000  21.4050000  65.5240000 131.0190000  22.4390000
 109.7530000 105.9410000  24.3820000 109.4520000 106.2130000  25.3460000
 109.8920000 106.8800000  23.8180000 110.6830000 105.3280000  24.3680000
 108.4990000 105.1240000  23.7460000 108.6020000 104.1280000  24.0760000
 107.5430000 105.5650000  24.1320000 108.5600000 105.1070000  22.2000000
 108.3890000 106.1150000  21.8180000 109.6050000 104.8200000  21.9360000
 107.5630000 104.2050000  21.5450000 107.5570000 103.3140000  22.1920000
 106.5610000 104.6380000  21.5770000 107.8800000 103.8780000  20.0900000
 108.8920000 103.4190000  20.0040000 107.1590000 103.2000000  19.8060000
 107.5880000 105.0490000  19.1450000 106.5330000 105.1540000  19.0040000
 107.9750000 105.9970000  19.5080000 108.1280000 104.9090000  17.7130000
 107.7800000 104.0660000  17.1370000 107.7650000 105.8030000  17.1740000
 109.6600000 104.9150000  17.8270000 110.0580000 104.1790000  18.5010000
 110.1270000 104.5750000  16.9170000 110.4540000 106.2590000  18.0680000
 110.5950000 106.7230000  17.0880000 109.8640000 106.9120000  18.6080000
 111.8650000 106.2260000  18.7010000 112.4190000 105.4120000  18.1760000
 112.4160000 107.1030000  18.3860000 111.9640000 106.1310000  20.2510000
 111.6840000 105.1650000  20.6150000 112.9470000 106.4480000  20.5720000
 111.0610000 107.1860000  21.0030000 110.0250000 107.0210000  20.6960000
 111.3720000 106.9590000  22.0160000 111.5010000 108.6170000  20.5770000
 112.5950000 108.7780000  20.5280000 111.2640000 108.8910000  19.4830000
 110.8830000 109.6740000  21.5480000 111.3360000 109.5690000  22.5110000
 111.2570000 110.6340000  21.1200000 109.2820000 109.6900000  21.5980000
 108.7780000 108.7200000  21.2970000 109.1140000 109.9980000  22.6390000
 108.7680000 110.7800000  20.8150000 108.0620000 111.6380000  21.2250000
 109.2430000 110.7130000  19.5330000 108.6570000 111.7190000  18.6000000
 109.0320000 111.5170000  17.5960000 107.5890000 111.6650000  18.5430000
 109.0900000 113.2160000  18.9420000 108.8800000 113.5340000  19.9320000
 108.0950000 114.1040000  18.1620000 107.0960000 113.9450000  18.5350000
 108.2650000 115.1220000  18.5050000 108.1730000 113.9650000  16.6680000
 107.5620000 115.0780000  15.5520000 106.0610000 114.6780000  15.2870000
 105.7250000 113.8430000  14.0760000 104.8300000 114.2340000  13.5640000
 106.5190000 113.8190000  13.3710000 105.5480000 112.3580000  14.4560000
 105.3260000 111.7670000  13.5870000 106.4350000 111.9880000  14.9630000
 104.3820000 111.9380000  15.3840000 104.6760000 112.5020000  16.6770000
 105.6580000 111.9940000  16.9950000 104.6530000 113.5540000  16.6140000
 103.8020000 112.3290000  17.3980000 103.0400000 112.3900000  14.9480000
 102.9670000 113.4880000  15.1240000 102.9300000 112.0670000  13.9640000
 102.3250000 111.7220000  15.5530000 104.3430000 110.4410000  15.5080000
 103.5020000 110.1460000  16.0300000 105.2570000 110.1310000  16.0280000
 104.3220000 109.9080000  14.5520000 107.5160000 116.3730000  16.3030000
 108.2640000 115.0600000  14.2520000 110.4990000 113.3000000  18.6960000
 111.2350000 114.4130000  18.9620000 110.6920000 115.4850000  19.1690000
 112.7230000 114.1900000  18.9250000 113.2370000 115.1370000  19.0090000
 113.0030000 113.7150000  17.9970000 113.1860000 113.2230000  19.9690000
 112.9450000 112.1550000  19.6460000 112.5720000 113.3820000  20.8680000
 114.6800000 113.3450000  20.4150000 114.8310000 114.4010000  20.6570000
 115.2730000 113.1560000  19.5490000 115.1210000 112.6520000  21.6690000
 114.2750000 112.6550000  22.4130000 115.9060000 113.1330000  22.1480000
 115.7190000 111.2240000  21.4240000 116.6840000 111.2540000  20.8220000
 114.9940000 110.6980000  20.7700000 116.0420000 110.5520000  22.7820000
 115.2240000 110.4870000  23.4650000 116.7480000 111.0950000  23.3560000
 116.4730000 109.0750000  22.5460000 116.7990000 108.7420000  23.5320000
 117.2920000 109.0440000  21.9320000 115.3470000 108.2720000  22.0160000
 114.9140000 108.4770000  21.0040000 114.8100000 107.2650000  22.6780000
 113.9100000 106.8310000  22.3250000 115.2250000 106.9110000  24.0700000
 116.3480000 106.8320000  24.0730000 114.8330000 105.9420000  24.2450000
 114.6030000 107.7570000  25.1230000 114.8500000 108.8590000  25.0180000
 114.9850000 107.3610000  26.1000000 112.9940000 107.7190000  25.1890000
 112.7630000 106.7220000  25.4530000 112.5370000 108.0530000  24.2490000
 112.3440000 108.7210000  26.1190000 111.2870000 108.5650000  25.9730000
 112.4140000 109.7790000  25.8850000 112.6530000 108.5850000  27.5470000
 112.1890000 109.3990000  28.0990000 113.7330000 108.6550000  27.6230000
 112.2270000 107.2080000  28.2050000 112.5930000 106.3090000  27.7130000
 111.1280000 107.2670000  28.2570000 112.6010000 107.0880000  29.7560000
 112.4130000 108.0060000  30.1230000 113.6680000 106.9200000  29.8360000
 111.9630000 106.0050000  30.5850000 111.9940000 105.0170000  30.0610000
 110.9040000 106.1900000  30.8450000 112.5340000 106.0190000  31.4750000
  83.9070000   0.3800000  37.6390000  82.8530000   0.4510000  37.9990000
  84.1200000   1.1810000  36.9300000  84.5240000   0.5920000  38.5880000
  84.0190000  -1.0850000  37.0800000  85.0260000  -1.4080000  36.8200000
  83.6530000  -1.7570000  37.8940000  83.1690000  -1.3740000  35.8070000
  82.1840000  -1.1480000  36.0710000  83.5110000  -0.6970000  34.9870000
  83.3450000  -2.9040000  35.3420000  84.3900000  -3.1140000  35.4190000
  82.7110000  -3.5910000  36.0090000  83.0640000  -3.2390000  33.8680000
  83.0480000  -4.3090000  33.8350000  82.0440000  -2.7590000  33.6100000
  84.1490000  -2.6020000  32.9100000  84.1350000  -1.5600000  32.9120000
  85.1470000  -2.9330000  33.2450000  83.9990000  -3.3230000  31.5240000
  84.1050000  -4.4100000  31.6650000  83.0180000  -3.1120000  31.1330000
  84.9840000  -2.8080000  30.3840000  84.8070000  -1.7530000  30.2470000
  85.9940000  -3.0070000  30.6030000  84.6500000  -3.5220000  29.0120000
  84.8690000  -4.5650000  29.0500000  83.5830000  -3.3380000  28.7880000
  85.6350000  -3.0230000  27.8660000  86.6620000  -3.4320000  28.2080000
  85.3130000  -3.4740000  26.8760000  85.8170000  -1.4950000  27.7280000
  86.2060000  -1.1410000  28.6950000  86.6540000  -1.4030000  27.0040000
  84.6090000  -0.5520000  27.3500000  83.7330000  -1.1590000  27.7020000
  84.6400000   0.3720000  27.9600000  84.6060000  -0.2420000  25.8460000
  83.8180000   0.3650000  25.5700000  85.4380000   0.4540000  25.6520000
  84.5970000  -1.3750000  24.9150000  85.4790000  -2.0660000  24.9610000
  83.7890000  -2.1050000  25.2050000  84.5210000  -1.0530000  23.4060000
  85.3020000  -0.3560000  23.0770000  84.6370000  -2.0100000  22.9170000
  83.1610000  -0.4720000  23.0630000  82.0670000  -0.7930000  23.4870000
  83.2110000   0.5450000  22.1520000  82.0060000   1.4540000  22.1200000
  82.0210000   1.9230000  21.1960000  81.0070000   0.9690000  22.0840000
  82.0450000   2.5440000  23.2460000  81.8330000   2.0050000  24.1840000
  80.9420000   3.5740000  23.0700000  79.9100000   3.0510000  23.1580000
  81.0120000   4.2870000  23.9160000  80.9840000   4.2980000  21.7770000
  80.2790000   3.7540000  20.4570000  81.4920000   3.4400000  19.5230000
  82.3100000   4.5500000  19.0660000  82.3870000   4.6370000  17.9740000
  81.8860000   5.4470000  19.3900000  83.6770000   4.2750000  19.7730000
  84.2690000   5.1980000  19.8560000  83.2900000   3.8880000  20.7460000
  84.5700000   3.2410000  19.2180000  85.7640000   3.0440000  20.0700000
  86.2520000   3.9600000  20.4340000  85.4590000   2.5380000  20.9690000
  86.4730000   2.4640000  19.4590000  84.0190000   1.8760000  19.0310000
  83.6440000   1.5840000  19.9920000  83.2500000   1.8230000  18.2120000
  84.9000000   1.2680000  18.7430000  85.0480000   3.5620000  17.8060000
  85.4900000   4.5600000  17.8200000  84.2290000   3.4580000  17.0340000
  85.7890000   2.7450000  17.5450000  79.5590000   2.4880000  20.7060000
  79.5390000   4.8820000  19.8940000  83.2630000   3.1760000  23.2200000
  83.6330000   3.7430000  24.3420000  82.9810000   3.9660000  25.3520000
  85.0560000   4.1910000  24.1160000  84.9930000   5.2300000  23.7900000
  85.6340000   3.6830000  23.3810000  85.8020000   4.2770000  25.4470000
  85.9330000   3.2150000  25.8200000  85.2500000   4.8010000  26.1770000
  87.1960000   4.9430000  25.1900000  86.9900000   5.8480000  24.6920000
  87.8240000   4.2630000  24.5250000  87.9890000   5.2370000  26.4790000
  87.2580000   5.6250000  27.1310000  88.8550000   5.8800000  26.2810000
  88.4120000   3.9050000  27.1470000  89.2940000   3.5990000  26.6290000
  87.5040000   3.2400000  27.1360000  88.8100000   4.1960000  28.5670000
  87.9530000   4.5550000  29.1630000  89.5720000   4.9620000  28.5840000
  89.5010000   3.0120000  29.2730000  89.7840000   3.2770000  30.3020000
  90.4850000   2.8360000  28.7740000  88.9050000   1.6350000  29.2630000
  88.9940000   1.0800000  28.3930000  87.9710000   1.2360000  30.1910000
  87.5430000   0.2840000  30.1190000  87.5380000   1.9690000  31.4220000
  86.4130000   2.0580000  31.4090000  87.8740000   3.0470000  31.4020000
  87.9790000   1.3710000  32.7600000  89.0890000   1.2640000  32.7990000
  87.6190000   0.3470000  32.7990000  87.5010000   2.2930000  33.8580000
  86.4670000   2.5030000  33.7500000  87.9720000   3.2720000  33.6870000
  87.7020000   1.7830000  35.3310000  88.7480000   1.4050000  35.4070000
  87.0940000   0.8790000  35.4580000  87.3070000   2.7320000  36.5460000
  88.1590000   3.4470000  36.6670000  87.3390000   2.0970000  37.4090000
  86.0300000   3.5930000  36.4750000  85.2280000   2.9950000  36.0450000
  86.3180000   4.4120000  35.7660000  85.7410000   4.3110000  37.7770000
  86.6240000   4.9010000  37.9220000  85.7410000   3.6270000  38.6290000
  84.4650000   5.1230000  37.8460000  83.5840000   4.5720000  37.7680000
  84.4330000   5.7990000  36.9930000  84.3640000   5.7300000  38.6900000
  26.0380000  14.7090000  29.3420000  25.8710000  15.1030000  28.3510000
  25.3440000  13.8970000  29.2960000  27.0550000  14.3110000  29.3910000
  25.7470000  15.6800000  30.4960000  24.7120000  16.0870000  30.4430000
  25.7010000  15.0230000  31.3450000  26.8320000  16.7400000  30.7750000
  26.7460000  17.1310000  31.7520000  27.8290000  16.2730000  30.7190000
  26.7970000  18.0140000  29.9250000  27.7540000  18.4730000  30.1090000
  26.7700000  17.8310000  28.8580000  25.6000000  18.9670000  30.1150000
  24.6890000  18.4390000  29.8930000  25.4850000  19.3580000  31.1100000
  25.6420000  20.3050000  29.3480000  25.9600000  20.0460000  28.3740000
  24.6450000  20.8170000  29.3070000  26.7370000  21.1570000  29.9550000
  26.3570000  21.9910000  30.5110000  27.4820000  20.5870000  30.5690000
  27.5960000  21.9050000  28.8650000  28.4150000  22.3950000  29.3650000
  28.1430000  21.2800000  28.1690000  26.6040000  22.8610000  28.1850000
  25.9240000  22.2370000  27.6930000  25.9940000  23.4620000  28.8830000
  27.2780000  23.7770000  27.1530000  27.9480000  24.3070000  27.7840000
  27.8580000  23.0710000  26.4640000  26.3540000  24.6650000  26.3900000
  25.6640000  25.2480000  27.0740000  26.9510000  25.3160000  25.8000000
  25.5030000  23.8690000  25.4020000  26.2020000  23.3090000  24.7380000
  24.8730000  23.1010000  25.8670000  24.6580000  24.8310000  24.5800000
  23.8210000  25.1340000  25.1890000  25.2080000  25.7690000  24.4010000
  24.2150000  24.2860000  23.2440000  23.7660000  23.2970000  23.3910000
  23.3610000  24.9040000  22.8300000  25.3570000  24.0420000  22.2100000
  26.1860000  23.4750000  22.7010000  25.0240000  23.5610000  21.2840000
  25.9550000  25.3660000  21.6130000  25.3840000  26.4400000  21.6690000
  27.1660000  25.2100000  21.0800000  27.8880000  26.4130000  20.6090000
  28.7810000  26.0800000  20.1650000  27.4190000  26.8960000  19.8020000
  28.3590000  27.2210000  21.8280000  27.6200000  27.2050000  22.5540000
  28.7330000  28.6730000  21.5620000  27.9900000  29.0310000  20.8750000
  28.5590000  29.1550000  22.4980000  30.1200000  28.8710000  21.0750000
  30.5200000  28.7410000  19.5700000  31.3990000  27.4220000  19.4240000
  32.8090000  27.5490000  19.5550000  33.1780000  28.2540000  18.7970000
  33.0950000  27.9550000  20.4790000  33.4080000  26.2250000  19.4190000
  34.5320000  26.2640000  19.4470000  33.0550000  25.6570000  20.2630000
  33.0800000  25.3850000  18.1810000  34.2090000  24.4960000  17.7950000
  34.1330000  24.2880000  16.7030000  35.1200000  25.0910000  17.9830000
  34.2480000  23.6870000  18.5420000  31.8650000  24.5490000  18.5030000
  31.6000000  24.0310000  17.5350000  32.0340000  23.9080000  19.4060000
  31.0160000  25.2050000  18.8500000  32.9160000  26.3150000  17.0430000
  32.7430000  25.6240000  16.2460000  33.8490000  26.7580000  16.8130000
  32.1210000  26.9600000  17.2620000  29.2680000  28.5070000  18.8440000
  31.3530000  29.9700000  19.3280000  29.5790000  26.5370000  22.3560000
  29.3870000  25.6480000  23.3430000  28.2550000  25.3200000  23.7620000
  30.6670000  25.2260000  24.0390000  31.5100000  25.1470000  23.2650000
  30.5320000  24.1900000  24.4160000  31.1080000  26.1480000  25.1900000
  31.5230000  27.1110000  24.8170000  31.9950000  25.5590000  25.5780000
  30.0220000  26.4140000  26.2050000  29.5570000  25.5350000  26.6290000
  29.2260000  26.9530000  25.7120000  30.5350000  27.0610000  27.4840000
  30.8330000  28.0430000  27.2990000  31.4420000  26.5770000  27.8170000
  29.4670000  27.1840000  28.6160000  29.8470000  27.7910000  29.4100000
  29.0910000  26.1850000  28.9770000  28.2100000  27.9610000  28.0140000
  27.7010000  27.4090000  27.2180000  28.5920000  28.8680000  27.6610000
  27.0560000  28.1890000  29.0750000  26.2230000  28.5730000  28.5030000
  27.3080000  28.9610000  29.7930000  26.7550000  26.9090000  29.8000000
  26.3300000  26.0840000  29.1990000  26.7580000  26.7340000  31.1180000
  26.5100000  25.7960000  31.6090000  27.0610000  27.8650000  32.1690000
  26.7310000  27.5040000  33.1670000  26.5000000  28.7320000  31.7860000
  28.5700000  28.0130000  32.2220000  28.9490000  28.5390000  31.3410000
  29.0480000  27.0030000  32.4130000  29.0480000  28.7770000  33.4420000
  28.3150000  29.5560000  33.6330000  29.9700000  29.2870000  33.1720000
  29.2840000  27.8690000  34.6240000  30.1900000  27.2460000  34.4000000
  28.5290000  27.1140000  34.7830000  29.5920000  28.6840000  35.9450000
  30.4090000  29.4140000  35.7820000  29.9930000  27.9190000  36.6720000
  28.3440000  29.3910000  36.5640000  27.5730000  28.5840000  36.8680000
  27.8650000  30.0620000  35.8120000  28.6900000  30.2160000  37.7800000
  27.9140000  31.0040000  37.9500000  29.6290000  30.8070000  37.6130000
  28.8490000  29.4700000  39.0990000  27.8620000  29.4010000  39.5680000
  29.3950000  30.0580000  39.8750000  29.2140000  28.4570000  38.9730000
  47.3650000 120.4690000  41.2940000  46.9270000 120.7280000  42.2080000
  47.1480000 119.4910000  41.0110000  46.9810000 121.0980000  40.5420000
  48.8360000 120.4200000  41.4760000  49.0550000 121.2050000  42.0640000
  49.1380000 119.4670000  41.8530000  49.4800000 120.7520000  40.1990000
  49.0400000 121.7040000  39.7830000  50.5840000 120.9690000  40.5130000
  49.4080000 119.7110000  39.1120000  49.8030000 118.8490000  39.5860000
  48.3140000 119.5410000  38.9340000  50.1810000 120.0440000  37.8250000
  51.1860000 120.4380000  37.9500000  50.3570000 119.1680000  37.3030000
  49.5000000 121.0520000  36.8890000  48.4150000 120.8230000  36.7310000
  49.5310000 122.0020000  37.5070000  50.1410000 121.1090000  35.4920000
  51.1720000 121.4330000  35.5770000  50.0990000 120.0300000  35.1090000
  49.4260000 121.9540000  34.4400000  49.6200000 123.0200000  34.6540000
  49.9830000 121.8570000  33.4910000  47.9330000 121.6630000  34.2250000
  47.8740000 120.5900000  34.0350000  47.3950000 121.8480000  35.1280000
  47.4010000 122.4350000  32.9720000  48.0390000 122.3080000  32.0880000
  46.4120000 122.0650000  32.8510000  47.1830000 123.9200000  33.2700000
  46.3380000 123.9210000  33.9140000  48.0500000 124.3280000  33.8040000
  46.9620000 124.7590000  31.9590000  46.6070000 124.0800000  31.1790000
  46.2800000 125.5210000  32.1130000  48.3320000 125.3830000  31.4850000
  49.0620000 125.2970000  32.2790000  48.7470000 124.6310000  30.7660000
  48.3500000 126.7660000  30.7730000  47.9030000 127.4830000  31.4820000
  49.3760000 127.0070000  30.6940000  47.5370000 126.7170000  29.4730000
  46.5430000 126.3510000  29.5970000  47.3570000 127.6690000  29.0930000
  48.2020000 125.8980000  28.4200000  47.5640000 125.2840000  27.6190000
  49.5160000 126.0040000  28.3750000  50.1700000 125.1380000  27.4350000
  51.1820000 125.2120000  27.6690000  49.7110000 124.1430000  27.4410000
  50.0950000 125.7450000  25.9500000  49.5590000 126.7330000  26.0170000
  49.4800000 124.8860000  24.8480000  48.3820000 124.8520000  24.8880000
  49.7620000 125.1710000  23.8500000  49.9850000 123.5780000  25.0510000
  49.3460000 122.2990000  24.3210000  48.4590000 121.6640000  25.4060000
  47.1780000 122.2440000  25.7970000  46.8660000 121.7870000  26.7960000
  47.2790000 123.2780000  25.9120000  46.1440000 121.9410000  24.7060000
  45.2170000 122.2800000  25.0140000  46.3360000 122.3660000  23.7380000
  45.9200000 120.4790000  24.3440000  45.2690000 119.6730000  25.4050000
  45.7520000 119.8390000  26.3740000  44.3000000 120.1650000  25.3980000
  45.1940000 118.5620000  25.1930000  45.0730000 120.4160000  23.1770000
  44.1200000 120.7290000  23.5140000  45.4420000 121.0030000  22.2750000
  45.0740000 119.3710000  22.8160000  47.1790000 119.6140000  24.0780000
  47.8910000 119.5520000  24.8800000  47.7780000 119.9090000  23.2370000
  46.7560000 118.6290000  23.7740000  48.4380000 122.8620000  23.2260000
  50.4520000 121.4100000  23.8690000  51.5360000 125.9450000  25.6240000
  51.8880000 127.0180000  24.8820000  51.0950000 127.7230000  24.2690000
  53.3690000 127.2520000  24.9430000  53.8390000 126.9250000  23.9610000
  53.7190000 126.5620000  25.6190000  53.6730000 128.7350000  25.2630000
  52.8990000 129.2970000  24.8140000  54.5520000 129.1210000  24.7060000
  53.6420000 129.2410000  26.6990000  53.6600000 130.2840000  26.5570000
  54.4070000 128.8950000  27.2520000  52.3740000 129.1040000  27.5070000
  52.0560000 128.0630000  27.6440000  51.4670000 129.5450000  26.9700000
  52.5980000 129.8000000  28.8930000  52.8360000 130.8350000  28.7250000
  53.3870000 129.2840000  29.4360000  51.3810000 129.6620000  29.8250000
  51.1260000 128.6080000  30.0660000  50.5520000 130.0290000  29.1790000
  51.3650000 130.4460000  31.2010000  51.6780000 131.5100000  31.0580000
  52.1540000 129.9640000  31.7500000  49.9880000 130.3090000  31.9400000
  49.1830000 130.9200000  31.7020000  49.8060000 129.5640000  33.0130000
  48.7890000 129.5680000  33.3920000  50.6860000 128.4530000  33.5010000
  51.4080000 128.8310000  34.2330000  51.1070000 127.8830000  32.5900000
  49.9660000 127.3360000  34.2470000  48.9610000 127.0420000  33.8420000
  49.6150000 127.6930000  35.2500000  50.8270000 126.0890000  34.6140000
  50.9120000 125.5270000  33.6940000  50.1910000 125.4420000  35.2620000
  52.1930000 126.4380000  35.2080000  52.0750000 126.9980000  36.0720000
  52.7440000 127.0390000  34.4870000  53.0470000 125.2140000  35.4880000
  53.2990000 124.6690000  34.5340000  52.4110000 124.5800000  36.0990000
  54.2690000 125.5730000  36.3930000  53.8460000 126.0100000  37.3130000
  54.9340000 126.3080000  35.8580000  55.0390000 124.3480000  36.7650000
  55.6360000 123.9390000  35.9930000  54.4450000 123.5920000  37.3120000
  56.1600000 124.7940000  37.7520000  56.6490000 123.8960000  38.1560000
  55.6560000 125.4090000  38.5050000  56.8210000 125.4190000  37.2730000
  83.1280000 153.4210000  30.6910000  83.5110000 154.1860000  29.9710000
  84.0340000 152.8440000  30.8970000  82.7400000 154.0000000  31.5420000
  81.8720000 152.6460000  30.2000000  81.1600000 153.3550000  29.8650000
  82.2870000 151.9500000  29.4830000  81.1780000 151.7840000  31.2630000
  81.9490000 151.3010000  31.8450000  80.6150000 152.4070000  31.9420000
  80.1830000 150.7670000  30.6100000  79.3360000 151.2420000  30.0970000
  80.7770000 150.2510000  29.8090000  79.6600000 149.7210000  31.6020000
  80.4890000 149.1780000  32.0210000  79.0240000 150.1430000  32.4550000
  78.6410000 148.8070000  30.9630000  77.9350000 149.5900000  30.5670000
  79.0710000 148.2200000  30.2190000  77.8300000 147.7820000  31.7860000
  78.5260000 147.2930000  32.5200000  77.0320000 148.3170000  32.3490000
  77.0860000 146.6040000  31.0330000  77.9030000 145.8830000  30.7970000
  76.3890000 146.0710000  31.6760000  76.3620000 146.9540000  29.7550000
  76.0280000 147.9070000  30.0400000  77.0390000 147.2050000  28.8960000
  75.1780000 146.1120000  29.3380000  75.4290000 145.1040000  29.6340000
  74.2940000 146.3670000  29.9040000  74.9060000 146.1020000  27.7700000
  75.8100000 145.7660000  27.3130000  74.1470000 145.3540000  27.5170000
  74.6570000 147.5310000  27.1390000  73.9650000 147.9580000  27.9380000
  75.6220000 148.1100000  27.1110000  74.1560000 147.3500000  25.7080000
  74.8910000 146.6990000  25.3030000  73.1330000 146.9590000  25.6690000
  74.0480000 148.7520000  24.9230000  73.3650000 149.4030000  25.3920000
  75.0040000 149.2850000  24.9430000  73.5860000 148.5280000  23.4750000
  72.5610000 148.1220000  23.4170000  73.5720000 149.4440000  22.8780000
  74.5460000 147.6450000  22.7260000  75.7220000 147.6830000  22.9270000
  73.9220000 146.6970000  22.0410000  74.6620000 145.5400000  21.4720000
  74.1860000 145.0250000  20.6270000  75.5990000 145.9100000  21.0870000
  74.9440000 144.6000000  22.6610000  75.6720000 145.1460000  23.3650000
  75.4810000 143.2410000  22.1670000  76.5310000 143.4680000  22.0810000
  75.4020000 142.4910000  22.9510000  75.0030000 142.7120000  20.9120000
  73.7330000 141.8130000  20.8180000  72.7000000 142.6340000  19.9090000
  71.2950000 142.7930000  20.3430000  70.6870000 142.9880000  19.4520000
  70.9970000 141.8970000  20.8940000  71.1870000 144.0190000  21.4000000
  71.8080000 143.7160000  22.2050000  71.5700000 144.9680000  20.9590000
  69.7910000 144.2820000  21.8800000  69.9420000 145.4830000  22.7370000
  70.7740000 145.3610000  23.4560000  70.1590000 146.4040000  22.1890000
  69.0130000 145.6190000  23.2880000  68.8790000 144.5520000  20.7850000
  69.2540000 145.4070000  20.2540000  68.7490000 143.6320000  20.1640000
  67.9430000 144.9080000  21.1530000  69.2550000 143.1450000  22.6780000
  69.8730000 143.1300000  23.5960000  69.3850000 142.2540000  22.1230000
  68.2760000 143.3090000  23.0530000  74.0940000 140.5940000  20.0740000
  73.1900000 141.6570000  22.1820000  73.7270000 144.3940000  23.4270000
  73.8080000 143.7780000  24.6220000  74.8330000 143.4350000  25.1800000
  72.3950000 143.5270000  25.0740000  71.7770000 143.2000000  24.2390000
  72.0250000 144.5460000  25.3740000  72.3930000 142.5650000  26.2730000
  72.8620000 143.1470000  27.1280000  73.0080000 141.6900000  26.0980000
  70.9620000 142.0970000  26.5880000  70.5900000 141.4230000  25.8150000
  70.3210000 142.8930000  26.7950000  70.9410000 141.2540000  27.9230000
  71.4090000 140.3030000  27.6650000  69.8960000 141.0580000  28.1600000
  71.5060000 141.8740000  29.1240000  71.2490000 142.9160000  29.0560000
  72.6000000 141.8720000  29.0300000  70.9610000 141.3660000  30.4270000
  71.5080000 140.4660000  30.7210000  69.8750000 141.1880000  30.3840000
  71.1960000 142.3300000  31.5920000  70.7070000 141.9200000  32.4100000
  70.7240000 143.2230000  31.3710000  72.6310000 142.5650000  31.9830000
  73.2050000 141.6220000  32.0140000  73.2980000 143.7510000  32.1650000
  74.3170000 143.7060000  32.4550000  72.6790000 145.1600000  32.1800000
  72.4050000 145.3430000  31.1630000  73.4220000 145.8850000  32.3940000
  71.6040000 145.3910000  33.1720000  70.6370000 145.0230000  32.7140000
  71.4090000 146.4480000  33.2970000  71.8870000 144.7760000  34.5570000
  72.9020000 145.1170000  34.8000000  71.8820000 143.6870000  34.5770000
  71.0020000 145.3300000  35.6750000  69.9190000 145.3910000  35.3640000
  71.2830000 146.3000000  35.9760000  71.1220000 144.3390000  36.8060000
  72.1550000 144.2020000  36.9540000  70.7690000 143.3840000  36.4860000
  70.5030000 144.7390000  38.1210000  70.5600000 143.9070000  38.8010000
  69.3830000 144.9410000  37.9610000  71.1950000 145.9910000  38.7070000
  71.2080000 146.7400000  37.9510000  72.2030000 145.8270000  38.7440000
  70.7080000 146.4070000  40.1590000  71.5430000 146.7470000  40.7480000
  70.2670000 145.4950000  40.5760000  69.8620000 147.0840000  40.1520000
 149.1090000 104.4290000  31.9710000 149.3500000 105.4570000  31.7160000
 149.1550000 104.3600000  33.0470000 148.1180000 104.2870000  31.6540000
 149.9200000 103.3550000  31.1980000 149.3440000 102.4350000  31.1340000
 150.0680000 103.7530000  30.1820000 151.2430000 103.0800000  31.9510000
 151.7560000 104.0120000  32.2730000 150.9200000 102.6340000  32.9260000
 152.2220000 102.0010000  31.2670000 153.1140000 101.9330000  31.8150000
 151.8620000 101.0020000  31.3210000 152.7460000 102.3800000  29.7950000
 151.9770000 102.4240000  29.0720000 153.0480000 103.3710000  29.7850000
 153.7410000 101.4030000  29.1370000 154.4760000 101.1540000  29.8650000
 153.2130000 100.4390000  29.0420000 154.3520000 101.9280000  27.7990000
 154.8680000 102.8410000  28.0210000 155.1350000 101.2980000  27.4470000
 153.3420000 102.0760000  26.6750000 152.5340000 102.7260000  27.0110000
 153.7130000 102.6520000  25.8150000 152.8360000 100.7620000  26.0540000
 153.5980000 100.3160000  25.3780000 152.4280000  99.9710000  26.6900000
 151.7430000 101.1410000  25.1110000 150.9700000 101.7970000  25.5920000
 152.2040000 101.7410000  24.2850000 150.9620000 100.0600000  24.3430000
 150.6580000  99.2440000  25.0660000 149.9920000 100.3480000  23.9660000
 151.7630000  99.4740000  23.1550000 151.9330000 100.3070000  22.4770000
 152.7130000  98.9940000  23.5400000 151.0190000  98.2470000  22.5020000
 151.1770000  97.4270000  23.1830000 149.9690000  98.4240000  22.4210000
 151.6440000  97.9580000  21.1030000 152.6510000  97.7260000  21.3340000
 151.1220000  97.0480000  20.6780000 151.5710000  98.9920000  20.0340000
 152.1470000  99.8910000  20.3500000 151.9810000  98.6680000  19.0820000
 150.2060000  99.4720000  19.7380000 149.2140000  98.7510000  19.7940000
 150.1780000 100.7920000  19.3500000 148.7890000 101.2670000  19.0970000
 148.7490000 102.0370000  18.3080000 148.2180000 100.4910000  18.6420000
 148.0060000 101.7670000  20.3570000 147.9690000 100.9960000  21.0940000
 146.5490000 102.4000000  20.0510000 146.2620000 102.6840000  21.0710000
 146.6230000 103.2250000  19.4610000 145.7260000 101.3930000  19.4230000
 145.5200000 101.2360000  17.8670000 146.3210000  99.8880000  17.4150000
 145.7910000  98.5830000  17.7000000 144.7420000  98.6140000  17.4640000
 146.3550000  97.8800000  17.1300000 146.0470000  98.2810000  19.1210000
 146.9730000  98.7720000  19.4130000 145.3180000  98.7510000  19.8010000
 146.1120000  96.8620000  19.6020000 146.0230000  96.8590000  21.1200000
 146.9650000  97.2420000  21.5330000 145.0890000  97.3780000  21.3760000
 145.9210000  95.9140000  21.5040000 145.0210000  96.1100000  18.9900000
 145.1370000  94.9930000  19.1380000 144.1040000  96.4500000  19.3920000
 145.0020000  96.2810000  17.9340000 147.4530000  96.3240000  19.2670000
 147.4950000  95.2450000  19.3380000 148.1810000  96.9090000  19.8710000
 147.5080000  96.6120000  18.2440000 144.1010000 100.9720000  17.6350000
 146.1840000 102.4000000  17.1970000 148.8810000 102.8270000  20.8100000
 149.2690000 102.9040000  22.1340000 148.8740000 102.1450000  22.9630000
 150.1770000 104.0970000  22.3100000 150.7010000 104.2910000  21.4040000
 150.9400000 103.8430000  23.0640000 149.4600000 105.3920000  22.7410000
 148.8980000 105.7420000  21.8650000 150.2180000 106.2200000  22.9850000
 148.5080000 105.1730000  24.0120000 148.0040000 104.2210000  23.8730000
 147.6810000 105.9190000  24.0140000 149.4080000 105.1660000  25.3670000
 149.7960000 106.1820000  25.5280000 150.2480000 104.4400000  25.2980000
 148.5260000 104.7720000  26.5890000 149.1210000 104.4850000  27.4900000
 148.0380000 103.8580000  26.2790000 147.5420000 105.9120000  26.9590000
 146.8770000 106.3080000  26.2160000 148.1590000 106.7600000  27.2000000
 146.7300000 105.6130000  28.2240000 147.4280000 105.2930000  29.0600000
 146.0550000 104.8280000  27.9780000 145.8470000 106.8020000  28.6090000
 145.1630000 107.0850000  27.8330000 145.8950000 107.4430000  29.7990000
 145.1270000 108.2040000  30.0300000 147.1030000 107.3410000  30.7460000
 148.0220000 107.2290000  30.1710000 147.1580000 106.3930000  31.2890000
 146.8900000 108.5120000  31.7220000 145.8380000 108.3760000  32.0870000
 146.9230000 109.4550000  31.1050000 147.9580000 108.5400000  32.8880000
 148.8640000 108.6740000  32.3210000 147.9250000 107.5550000  33.3160000
 147.8630000 109.6700000  33.9080000 146.8950000 109.5480000  34.3340000
 147.9030000 110.6530000  33.4530000 148.8840000 109.6570000  35.0710000
 149.9090000 109.7050000  34.7010000 148.7100000 108.7300000  35.5080000
 148.5960000 110.7440000  36.0830000 147.5320000 110.7290000  36.3820000
 148.7130000 111.6640000  35.5260000 149.5920000 110.7590000  37.1980000
 149.9000000 111.8000000  37.2600000 150.5090000 110.1830000  36.9270000
 149.0640000 110.3260000  38.5390000 149.9050000 110.2850000  39.2320000
 148.5510000 109.3430000  38.5280000 148.4540000 111.1210000  38.8460000
  44.0870000  15.0600000  30.6300000  44.3270000  15.7620000  29.8100000
  43.5710000  15.6620000  31.4120000  43.4610000  14.2290000  30.2320000
  45.4130000  14.4890000  31.0820000  46.0820000  15.2090000  31.5570000
  45.3090000  13.7420000  31.7960000  46.1470000  13.7140000  29.9940000
  45.6650000  12.7760000  29.7990000  45.9720000  14.2340000  29.0830000
  47.6470000  13.5150000  30.2480000  48.0950000  14.4890000  30.4680000
  47.7110000  12.9750000  31.2740000  48.3890000  12.6610000  29.2190000
  48.4210000  13.2520000  28.2800000  49.3980000  12.4610000  29.5130000
  47.7630000  11.2460000  28.9930000  47.5030000  10.7590000  29.9280000
  46.7670000  11.3260000  28.4730000  48.6540000  10.3570000  28.1370000
  49.5000000  10.0610000  28.7060000  48.0660000   9.4890000  27.8990000
  49.2380000  10.8880000  26.8370000  49.9580000  11.7200000  27.0520000
  49.8590000  10.1510000  26.3040000  48.1360000  11.3740000  25.9120000
  47.8970000  10.4370000  25.3980000  47.2430000  11.6910000  26.4740000
  48.6520000  12.2580000  24.7420000  49.5590000  11.7490000  24.3060000
  47.9380000  12.1160000  23.9270000  48.8660000  13.7530000  25.1000000
  49.5370000  13.9610000  25.9670000  49.3510000  14.2340000  24.2380000
  47.5520000  14.4680000  25.1480000  47.0650000  14.2360000  24.2290000
  46.9970000  14.0780000  26.0040000  47.7040000  15.9520000  25.2860000
  48.3810000  16.0680000  26.0870000  48.1880000  16.5150000  24.4360000
  46.3040000  16.5260000  25.5670000  45.8660000  16.1930000  26.5440000
  46.4680000  17.5830000  25.5550000  45.1620000  16.3060000  24.5370000
  45.0670000  15.2540000  24.5470000  44.1830000  16.6480000  24.8610000
  45.5240000  17.0960000  23.2780000  45.4380000  18.3300000  23.2720000
  45.7860000  16.3580000  22.1850000  46.0480000  17.0100000  20.9640000
  46.0430000  16.2790000  20.1560000  45.1930000  17.6450000  20.7640000
  47.3630000  17.8040000  21.0160000  47.3150000  18.4990000  21.7860000
  47.4230000  18.6480000  19.7240000  46.4400000  18.8860000  19.4100000
  47.9690000  19.5830000  19.8120000  48.0140000  17.9270000  18.6090000
  47.3790000  16.7910000  17.6400000  48.1190000  15.4730000  18.0600000
  49.4190000  15.1320000  17.5700000  49.4370000  14.8800000  16.4540000
  50.0930000  15.9380000  17.7620000  49.9810000  13.9420000  18.4380000
  50.0290000  14.2590000  19.4870000  49.2480000  13.1400000  18.4010000
  51.3280000  13.2780000  18.2570000  51.1560000  12.0670000  19.0560000
  51.3160000  12.1240000  20.1540000  50.1990000  11.5570000  18.8750000
  52.0380000  11.3750000  18.7520000  51.6390000  13.0560000  16.8250000
  51.6350000  14.0020000  16.2480000  52.6840000  12.6250000  16.8310000
  50.9070000  12.3520000  16.4920000  52.3860000  14.0180000  18.9560000
  52.2480000  13.8200000  19.9850000  52.3970000  15.0820000  18.7410000
  53.3500000  13.5560000  18.7770000  45.9110000  16.6740000  17.8910000
  47.8090000  17.1800000  16.2990000  48.5500000  17.0060000  21.1080000
  49.6430000  17.5020000  21.7480000  49.6100000  18.5220000  22.3830000
  50.8530000  16.5340000  21.6880000  51.1740000  16.4030000  20.6260000
  50.3510000  15.6580000  21.9780000  52.0280000  16.8280000  22.6210000
  52.3880000  17.8210000  22.4250000  52.8520000  16.2130000  22.3350000
  51.5960000  16.6000000  24.0900000  51.2680000  15.5580000  24.2320000
  50.7140000  17.1670000  24.3700000  52.6760000  16.8400000  25.1100000
  53.0930000  17.8490000  25.0160000  53.4800000  16.0740000  25.0480000
  52.2400000  16.7110000  26.5950000  53.1480000  16.8390000  27.1810000
  51.8490000  15.6830000  26.8250000  51.1900000  17.7530000  27.0470000
  50.3970000  17.8300000  26.3300000  51.7380000  18.6570000  27.1020000
  50.6060000  17.2710000  28.3210000  50.2180000  16.1910000  28.0560000
  49.7560000  17.9450000  28.5780000  51.5300000  17.2430000  29.4880000
  51.9580000  18.2280000  29.7240000  51.8200000  16.2210000  30.2010000
  52.4550000  16.4290000  31.0820000  51.4270000  14.7940000  30.0030000
  50.8130000  14.7160000  29.1280000  50.8100000  14.5250000  30.8520000
  52.5900000  13.7720000  30.0020000  53.3740000  14.0120000  29.2930000
  52.1000000  12.9420000  29.5730000  53.3340000  13.6380000  31.3490000
  52.5350000  13.5870000  32.1010000  53.7960000  14.6080000  31.5250000
  54.4410000  12.5800000  31.4380000  54.9880000  12.5450000  30.5240000
  53.9350000  11.6750000  31.7120000  55.4810000  12.9670000  32.5510000
  56.0370000  13.9010000  32.2750000  56.2820000  12.2430000  32.5320000
  54.9520000  13.0560000  33.9580000  54.6850000  12.1380000  34.3450000
  54.0460000  13.6230000  33.9670000  56.0250000  13.7360000  34.8220000
  56.1410000  14.7780000  34.4940000  57.0050000  13.2070000  34.7340000
  55.7400000  13.8190000  36.3340000  56.5730000  14.1950000  36.8960000
  55.5120000  12.8330000  36.6720000  54.7860000  14.2900000  36.6100000
  26.6700000  84.3880000  35.3900000  26.8280000  84.7260000  34.3670000
  27.4750000  84.7920000  36.0340000  25.7710000  84.9140000  35.7790000
  26.5110000  82.8410000  35.5080000  26.1810000  82.5330000  36.5590000
  25.7820000  82.5090000  34.8040000  27.8690000  82.0190000  35.2410000
  28.5210000  82.1150000  36.1430000  27.6190000  80.9760000  35.1650000
  28.6970000  82.3880000  34.0530000  28.9600000  83.4270000  34.0050000
  29.6660000  81.8180000  34.0780000  27.8700000  82.0850000  32.7890000
  27.6070000  81.0870000  32.8260000  26.9460000  82.6120000  32.9050000
  28.6230000  82.4310000  31.4960000  27.9900000  82.4760000  30.6640000
  29.0580000  83.5080000  31.5820000  29.7870000  81.4950000  30.9730000
  30.4900000  82.1960000  30.3790000  30.4550000  81.0510000  31.7120000
  29.4410000  80.3240000  30.0860000  30.3410000  80.0540000  29.5910000
  29.2080000  79.4770000  30.7090000  28.4730000  80.3670000  28.8800000
  27.6780000  80.9330000  29.2020000  28.9370000  80.9240000  28.0450000
  27.7400000  79.0600000  28.5450000  28.4540000  78.2500000  28.3640000
  27.0940000  78.8120000  29.4180000  26.8620000  79.1780000  27.2800000
  26.1860000  79.9660000  27.2180000  27.5410000  79.2780000  26.4050000
  26.1290000  77.8670000  27.1860000  26.8210000  77.0430000  27.2640000
  25.3370000  77.8800000  28.0160000  25.3270000  77.7340000  25.8800000
  24.8090000  76.7450000  25.9130000  24.5840000  78.5360000  25.9840000
  26.0210000  78.0820000  24.5640000  25.2930000  78.0590000  23.7890000
  26.2710000  79.0720000  24.5980000  27.2360000  77.2330000  24.2270000
  27.9960000  77.4710000  24.8660000  26.9320000  76.1890000  24.4400000
  27.6710000  77.3890000  22.7620000  28.7430000  77.7610000  22.3750000
  26.7630000  76.9940000  21.8820000  27.1640000  76.7990000  20.4930000
  27.6080000  77.7370000  20.1290000  28.0170000  76.0180000  20.4230000
  25.9450000  76.4540000  19.6600000  25.3600000  75.9700000  20.3930000
  26.3830000  75.5360000  18.5250000  27.0470000  74.7070000  18.8570000
  25.5340000  75.0020000  18.2440000  26.9580000  76.2570000  17.3870000
  28.5110000  76.6310000  17.3510000  28.6650000  78.1290000  17.7410000
  27.9140000  79.1610000  17.1230000  27.5310000  78.7090000  16.2370000
  27.0680000  79.4320000  17.7640000  28.8850000  80.3210000  16.8740000
  28.3400000  81.2370000  16.6680000  29.5100000  80.4440000  17.7470000
  29.9280000  79.9160000  15.8520000  30.9930000  79.0420000  16.3650000
  30.5470000  78.1460000  16.7740000  31.7090000  78.7570000  15.5750000
  31.5430000  79.5830000  17.0980000  29.4600000  79.3400000  14.5760000
  28.3460000  79.5620000  14.4690000  30.0820000  79.5650000  13.7360000
  29.4780000  78.3000000  14.6490000  30.7090000  81.0920000  15.3770000
  31.5150000  80.7720000  14.7220000  31.1600000  81.5130000  16.3410000
  29.9750000  81.7610000  14.9480000  29.1870000  75.8080000  18.3240000
  28.9240000  76.5230000  15.9500000  25.2680000  77.6220000  19.1510000
  23.9240000  77.6490000  19.2240000  23.2890000  76.7450000  19.7080000
  23.2770000  78.7530000  18.4740000  23.0150000  78.3190000  17.5000000
  24.0160000  79.5050000  18.0720000  22.0810000  79.3690000  19.1340000
  21.2860000  78.5940000  19.2140000  21.6390000  79.9430000  18.3580000
  22.2890000  80.0310000  20.4800000  22.9770000  80.8690000  20.3970000
  22.7780000  79.3370000  21.1280000  20.9180000  80.4640000  21.0370000
  20.2830000  79.5580000  21.2360000  20.3720000  81.1290000  20.3280000
  21.0330000  81.1160000  22.4460000  20.0640000  81.5190000  22.6580000
  21.7140000  81.9450000  22.5130000  21.4600000  80.2040000  23.5260000
  22.4760000  79.8450000  23.3390000  20.8840000  79.2440000  23.4040000
  21.2000000  80.7740000  24.9300000  20.1110000  81.0090000  25.0170000
  21.7450000  81.7400000  25.0130000  21.8860000  79.7540000  25.8320000
  22.0400000  78.8170000  25.3470000  22.5450000  80.1120000  26.9320000
  23.1520000  79.3850000  27.4840000  22.2790000  81.3260000  27.8040000
  21.3550000  81.0970000  28.3940000  22.0460000  82.2150000  27.2170000
  23.4670000  81.6330000  28.8090000  24.3090000  82.0310000  28.2220000
  23.8080000  80.7240000  29.1690000  22.9980000  82.6590000  29.9410000
  22.0750000  82.3090000  30.3310000  22.8050000  83.6170000  29.4300000
  24.1350000  82.7930000  31.0110000  25.0980000  83.0610000  30.4920000
  24.3020000  81.8400000  31.4940000  23.6370000  83.7860000  32.0750000
  23.1660000  84.6030000  31.5650000  24.5290000  84.1570000  32.7130000
  22.6160000  83.1770000  33.0480000  23.1090000  82.4300000  33.6870000
  21.7460000  82.7030000  32.4870000  22.0540000  84.1880000  34.0350000
  21.6890000  84.9670000  33.4750000  22.8880000  84.5290000  34.6630000
  21.1020000  83.5160000  34.9480000  20.7910000  84.2690000  35.7490000
  21.5940000  82.6660000  35.3770000  20.2140000  83.0760000  34.4710000
 146.8970000 142.4130000  33.8830000 145.9270000 142.9620000  33.7930000
 147.5490000 143.0500000  34.4340000 146.7900000 141.4380000  34.4360000
 147.6230000 142.2040000  32.5480000 147.6740000 143.1900000  32.1410000
 148.6560000 141.8650000  32.8200000 146.8670000 141.1330000  31.6270000
 145.9040000 141.5910000  31.4570000 147.4060000 141.1440000  30.6320000
 146.6710000 139.6270000  32.2000000 146.3040000 139.6910000  33.1990000
 145.9150000 139.1180000  31.5200000 147.8710000 138.6470000  32.1940000
 148.0160000 138.4100000  31.0990000 148.7370000 139.1140000  32.6590000
 147.4430000 137.2610000  32.9020000 147.0810000 137.5130000  33.8960000
 146.5700000 136.8760000  32.3290000 148.4340000 136.0960000  32.8800000
 149.3250000 136.3860000  33.3970000 147.9160000 135.2000000  33.3180000
 148.9580000 135.8510000  31.4440000 149.4810000 136.6810000  31.0080000
 149.6670000 135.0430000  31.5440000 147.7630000 135.4870000  30.4060000
 147.0890000 134.7510000  30.7460000 147.1200000 136.3480000  30.1910000
 148.2320000 134.9340000  29.0010000 148.8410000 134.0490000  29.0640000
 147.3690000 134.7200000  28.3440000 148.8220000 136.1020000  28.1310000
 149.7710000 136.3980000  28.6240000 149.1330000 135.6570000  27.1800000
 147.9550000 137.3180000  27.7540000 147.7520000 137.8590000  28.6530000
 148.5810000 138.0190000  27.1930000 146.6730000 137.1650000  26.8980000
 146.5330000 138.1650000  26.4840000 146.8530000 136.4960000  26.0550000
 145.3700000 136.7970000  27.6060000 145.5580000 135.8600000  28.0800000
 145.2040000 137.5200000  28.3680000 144.2570000 136.6060000  26.6110000
 144.6120000 136.1380000  25.7170000 143.3810000 136.0900000  27.0490000
 143.6690000 137.9490000  26.3010000 143.4010000 138.8650000  27.0680000
 143.4880000 138.1440000  24.9590000 143.1330000 139.5130000  24.5330000
 142.7640000 139.2840000  23.4800000 142.3050000 139.9050000  25.1480000
 144.4180000 140.3980000  24.5150000 144.9220000 140.2910000  25.4380000
 144.0610000 141.9100000  24.2340000 143.4790000 142.2520000  25.0460000
 145.0240000 142.3500000  24.3490000 143.4470000 142.2150000  22.9580000
 141.8310000 142.4060000  22.7580000 141.4440000 140.9030000  22.4940000
 141.4070000 140.3590000  21.1340000 141.9990000 141.0010000  20.5460000
 141.8760000 139.4090000  21.1650000 139.9320000 140.3110000  20.7060000
 139.4060000 139.3950000  21.1580000 139.3890000 141.1240000  21.1970000
 139.6380000 140.5090000  19.2610000 140.6060000 139.7650000  18.3760000
 140.7010000 138.6770000  18.6190000 140.2130000 139.8500000  17.3770000
 141.5680000 140.2770000  18.4070000 138.2390000 140.0270000  19.1440000
 138.2800000 138.9800000  19.2800000 137.6380000 140.3610000  20.0380000
 137.8530000 140.2440000  18.1370000 139.7310000 141.9360000  18.8980000
 140.7560000 142.2930000  19.0890000 138.9940000 142.5530000  19.4860000
 139.5060000 141.9990000  17.8350000 141.1760000 142.8300000  23.9530000
 141.5410000 143.1890000  21.5320000 145.2120000 139.9560000  23.4210000
 146.5030000 139.7290000  23.7760000 146.9720000 140.1960000  24.7830000
 147.2390000 138.9650000  22.7240000 148.1050000 139.4390000  22.5640000
 146.6060000 138.9820000  21.8560000 147.6630000 137.5790000  23.2880000
 146.8270000 137.1670000  23.9270000 148.3880000 137.8540000  24.0800000
 148.1350000 136.5490000  22.2050000 147.2710000 136.1710000  21.6140000
 148.5800000 135.6100000  22.5890000 149.1730000 137.1470000  21.2250000
 149.8950000 137.7070000  21.8400000 148.7880000 137.9330000  20.6330000
 149.8290000 136.0380000  20.2980000 149.0620000 135.6020000  19.6350000
 150.2050000 135.1970000  20.9330000 150.9630000 136.5930000  19.3760000
 150.5850000 137.5000000  18.9580000 151.0340000 135.8710000  18.5630000
 152.3840000 136.6540000  19.8880000 153.0720000 136.7670000  19.0320000
 152.7250000 135.7690000  20.4160000 152.5930000 137.9690000  20.7730000
 152.5370000 138.9160000  20.2010000 152.7010000 138.0820000  22.0860000
 152.8530000 139.0760000  22.5520000 152.5740000 136.8520000  22.9990000
 153.5890000 136.5120000  23.2620000 152.1740000 136.0210000  22.3600000
 151.7730000 137.0600000  24.2780000 150.7080000 137.3820000  23.9890000
 152.2570000 137.7310000  24.9170000 151.5630000 135.7660000  25.1010000
 150.8070000 135.0700000  24.6160000 151.0670000 136.0820000  26.0090000
 152.9110000 135.0220000  25.5280000 153.5270000 135.8990000  25.6720000
 153.4000000 134.5700000  24.6840000 152.8200000 133.9420000  26.4950000
 152.3280000 134.3180000  27.3480000 153.7740000 133.5830000  26.9250000
 152.0220000 132.6990000  26.0460000 152.5610000 131.7750000  26.3840000
 151.8460000 132.6910000  25.0140000 150.6320000 132.5390000  26.6760000
 150.1420000 131.6450000  26.1420000 149.9050000 133.4270000  26.5190000
 150.7520000 132.2790000  28.2160000 149.8400000 132.1200000  28.7600000
 151.1730000 133.1970000  28.7270000 151.3920000 131.4270000  28.3990000
  22.3490000  89.9400000  34.5490000  21.7380000  89.0380000  34.4410000
  23.2620000  89.8130000  35.0650000  22.5400000  90.2130000  33.4700000
  21.5040000  90.9670000  35.3830000  21.6300000  90.5750000  36.4090000
  22.0660000  91.8510000  35.1670000  20.0180000  91.0850000  35.1440000
  19.6900000  91.7470000  35.9700000  19.8890000  91.4450000  34.1560000
  19.2050000  89.8750000  35.2990000  19.4960000  89.2000000  34.5300000
  19.5130000  89.5090000  36.2750000  17.6870000  90.0090000  35.2710000
  17.2210000  89.1860000  35.7870000  17.3110000  90.9410000  35.5850000
  17.1370000  89.7280000  33.8300000  17.8170000  89.1060000  33.2400000
  16.2880000  89.1850000  34.0840000  16.8170000  91.0610000  33.0740000
  15.8130000  91.2770000  33.4380000  17.3610000  91.9170000  33.3800000
  17.0740000  90.7680000  31.5640000  17.2280000  91.6930000  30.9950000
  17.9850000  90.2190000  31.5450000  15.9250000  89.8990000  30.9050000
  15.8200000  88.9810000  31.5560000  15.1140000  90.5910000  31.0120000
  16.0100000  89.5080000  29.4170000  16.7270000  88.7320000  29.3490000
  15.0070000  89.1670000  29.1270000  16.5400000  90.6190000  28.4880000
  16.2000000  91.5970000  28.7430000  17.6050000  90.7880000  28.6680000
  16.1000000  90.3930000  27.0520000  14.9700000  90.6020000  27.1210000
  16.5270000  91.1380000  26.4300000  16.4950000  89.0410000  26.4250000
  16.2050000  88.1110000  26.9120000  15.9730000  89.0790000  25.4640000
  17.9680000  88.9600000  26.0470000  18.6020000  89.3320000  26.8450000
  18.0990000  87.9000000  25.8380000  18.3550000  89.7940000  24.6980000
  18.0030000  90.7690000  24.7250000  19.4200000  89.9250000  24.6410000
  17.8470000  89.1090000  23.4940000  17.0540000  88.1490000  23.5240000
  18.1670000  89.7690000  22.3620000  17.6160000  89.2730000  21.1210000
  18.3610000  89.4220000  20.3060000  17.4630000  88.1470000  21.1000000
  16.4030000  90.1060000  20.8840000  15.9240000  89.8790000  19.9400000
  16.6790000  91.6230000  20.9160000  16.0190000  92.0290000  21.6580000
  17.6870000  91.8150000  21.3210000  16.4410000  92.2460000  19.6310000
  17.6240000  92.5560000  18.5670000  18.6490000  93.4350000  19.4660000
  18.6890000  94.8870000  19.3360000  17.7150000  95.2690000  19.0960000
  18.9830000  95.2900000  20.2780000  19.7260000  95.2260000  18.1810000
  20.7320000  95.1180000  18.5900000  19.4430000  94.6100000  17.2990000
  19.7680000  96.6580000  17.6800000  18.6970000  96.8500000  16.7180000
  19.0570000  96.6080000  15.7270000  17.8650000  96.1180000  16.9020000
  18.3220000  97.9230000  16.7940000  19.5540000  97.5550000  18.8080000
  20.3740000  97.5080000  19.4680000  19.5440000  98.5000000  18.2950000
  18.6190000  97.3690000  19.3910000  21.0560000  96.9490000  17.1200000
  21.1800000  97.9850000  16.8280000  21.3430000  96.3270000  16.2880000
  21.7660000  96.7680000  17.9480000  18.3110000  91.2880000  18.2220000
  17.0510000  93.4640000  17.5930000  15.4360000  89.8630000  21.8940000
  14.7530000  88.7490000  21.8620000  14.6820000  87.9830000  20.9010000
  13.9450000  88.4840000  23.1190000  13.6090000  89.4410000  23.5070000
  14.6710000  88.2210000  23.8920000  12.7580000  87.5870000  22.8760000
  13.0360000  86.5890000  22.5060000  12.0900000  87.9750000  22.1040000
  11.8930000  87.2880000  24.1590000  11.0420000  86.6550000  23.7490000
  12.5320000  86.7200000  24.7830000  11.3460000  88.5810000  24.8330000
  11.1380000  89.3390000  24.1070000  12.1840000  89.0460000  25.3950000
  10.0680000  88.3890000  25.7340000   9.3070000  87.8510000  25.1620000
   9.8070000  89.4020000  25.9480000  10.2800000  87.6330000  27.1030000
  10.1370000  86.6000000  26.8500000   9.4430000  87.9690000  27.7180000
  11.6500000  87.8900000  27.8760000  11.7810000  88.9170000  28.1540000
  12.4500000  87.6290000  27.2280000  11.6100000  86.9260000  29.0970000
  11.4290000  85.8980000  28.8500000  11.8730000  87.1090000  30.3710000
  11.9430000  86.2110000  30.9750000  12.3320000  88.3310000  31.1510000
  11.9390000  89.1920000  30.6630000  13.4230000  88.3680000  31.2790000
  11.7670000  88.4010000  32.5980000  12.0470000  87.4600000  33.1990000
  10.6780000  88.4760000  32.6090000  12.4940000  89.4790000  33.4140000
  12.1340000  90.4610000  33.2070000  13.5400000  89.4780000  33.0570000
  12.2750000  89.1150000  34.8640000  12.9070000  88.2280000  35.1430000
  11.3110000  88.6810000  34.9890000  12.4980000  90.3250000  35.7750000
  12.2020000  90.0810000  36.8130000  11.8090000  91.0820000  35.4230000
  13.9470000  90.9230000  35.8400000  14.1850000  91.4900000  34.9630000
  14.5680000  90.0640000  35.9210000  14.0120000  91.8810000  37.1070000
  13.9940000  91.2610000  37.9500000  13.0830000  92.4550000  37.1950000
  15.2480000  92.7580000  37.0290000  15.2360000  93.5820000  36.3370000
  16.0540000  92.1740000  36.6250000  15.4790000  93.2580000  37.9490000
 133.6350000  16.0010000  35.7260000 134.7140000  15.9210000  35.7480000
 133.2450000  16.3580000  36.7170000 133.3110000  16.6200000  34.8850000
 133.0090000  14.6200000  35.4690000 133.6860000  13.8400000  35.6840000
 132.1390000  14.5530000  36.1470000 132.4860000  14.4080000  34.0640000
 131.8370000  15.2450000  33.7370000 133.2740000  14.4420000  33.3210000
 131.8290000  12.9970000  33.8800000 131.2040000  12.7880000  34.7640000
 131.2130000  13.0560000  32.9420000 132.8680000  11.8620000  33.7790000
 133.4640000  11.8820000  34.7220000 132.1970000  11.0170000  33.7080000
 133.8100000  11.7950000  32.5690000 133.3040000  11.6600000  31.5950000
 134.3440000  12.8120000  32.5390000 134.8410000  10.6540000  32.9210000
 135.3490000  10.7970000  33.8560000 134.2930000   9.7220000  33.0140000
 135.7960000  10.3620000  31.8540000 136.4760000  11.1340000  31.7530000
 136.3710000   9.5450000  32.2940000 135.2220000  10.1060000  30.4580000
 134.5710000   9.2970000  30.4720000 134.6800000  10.9790000  30.1070000
 136.2590000   9.5770000  29.4540000 136.5990000   8.5770000  29.7720000
 135.8410000   9.4760000  28.4380000 137.5550000  10.4430000  29.1730000
 137.9320000  10.6560000  30.1670000 138.3620000   9.9630000  28.6360000
 137.1570000  11.6520000  28.3710000 136.8340000  11.1980000  27.5010000
 136.3040000  12.1730000  28.8380000 138.3090000  12.5850000  28.0550000
 138.7560000  12.8250000  29.0260000 139.1130000  12.1420000  27.4520000
 137.8000000  13.9140000  27.3300000 137.3160000  13.5150000  26.4000000
 137.1370000  14.4980000  27.9800000 138.8930000  14.8080000  26.7800000
 139.5520000  14.1960000  26.1260000 138.4480000  15.4020000  26.0280000
 139.7450000  15.6380000  27.7040000 139.5770000  15.6260000  28.9130000
 140.5650000  16.5100000  27.0590000 141.6640000  17.0790000  27.8100000
 142.0020000  18.0400000  27.3250000 141.3750000  17.4240000  28.8460000
 142.8280000  16.0510000  27.9510000 143.5990000  16.4830000  28.5750000
 143.4490000  15.8150000  26.5640000 143.3650000  14.7510000  26.2440000
 142.9210000  16.3980000  25.7580000 144.8630000  16.0800000  26.6260000
 145.3870000  17.4860000  26.2350000 145.1910000  17.5400000  24.6260000
 146.3310000  17.1770000  23.7620000 146.1700000  17.6340000  22.8130000
 147.1390000  17.7260000  24.1520000 146.3850000  15.6550000  23.6410000
 147.3670000  15.2360000  23.6700000 145.9370000  15.2040000  24.5170000
 145.6560000  15.0120000  22.4600000 145.8740000  13.5290000  22.3640000
 145.8420000  13.1340000  23.3430000 145.1720000  13.0410000  21.6880000
 146.9070000  13.4170000  22.0380000 144.2700000  15.0890000  22.7750000
 144.1910000  14.6870000  23.7970000 144.0170000  16.1880000  22.8200000
 143.6600000  14.5940000  21.9890000 146.0470000  15.5800000  21.1460000
 147.0740000  15.2880000  20.9620000 146.1240000  16.6820000  21.1930000
 145.3940000  15.2290000  20.3310000 144.4570000  18.4850000  26.8160000
 146.8410000  17.5390000  26.5470000 142.3770000  14.7750000  28.3880000
 142.5870000  14.4150000  29.6630000 143.3660000  14.9930000  30.3540000
 141.8200000  13.1860000  30.0470000 141.8060000  12.6080000  29.1500000
 140.7970000  13.4380000  30.3450000 142.5300000  12.3790000  31.1690000
 142.7890000  12.9640000  32.0450000 143.4900000  12.1110000  30.6570000
 141.7480000  11.1210000  31.4820000 141.5500000  10.6370000  30.5650000
 140.8260000  11.4050000  32.0210000 142.5500000  10.2350000  32.3940000
 143.5990000  10.2030000  31.8630000 142.1350000   9.2680000  32.3750000
 142.7760000  10.6710000  33.8450000 141.8050000  10.9990000  34.1860000
 143.2790000  11.6610000  33.7910000 143.3610000   9.5130000  34.7960000
 144.2970000   9.1210000  34.3610000 142.6580000   8.7070000  34.8300000
 143.4690000  10.0900000  36.1730000 144.0100000  11.0030000  36.1100000
 143.9720000   9.3880000  36.8970000 142.1090000  10.4910000  36.7000000
 142.0010000  11.6030000  36.6700000 141.1920000   9.7840000  37.2660000
 140.3480000  10.2890000  37.6650000 141.2410000   8.2180000  37.3480000
 140.9820000   7.8500000  38.3620000 142.2090000   7.8230000  37.0660000
 140.1420000   7.6310000  36.4680000 140.1040000   6.5850000  36.5940000
 140.5170000   7.8110000  35.3830000 138.6960000   8.0930000  36.6740000
 138.7850000   9.1950000  36.9630000 138.3230000   7.5180000  37.5450000
 137.7710000   8.1490000  35.4470000 138.3560000   8.4380000  34.5250000
 137.0330000   8.9310000  35.5040000 137.1200000   6.7860000  35.1170000
 136.5010000   6.4250000  35.9810000 137.9330000   6.0550000  34.9730000
 136.2160000   6.8110000  33.8640000 135.5670000   7.7060000  33.9310000
 135.5630000   5.9510000  33.9090000 137.0090000   6.8590000  32.5130000
 137.8160000   7.5370000  32.7080000 136.5490000   7.3780000  31.6830000
 137.5270000   5.5180000  32.0310000 138.3100000   5.1740000  32.7950000
 137.9900000   5.5030000  31.0530000 136.8380000   4.7150000  31.9200000
 129.6360000  22.8760000  17.4950000 130.4560000  23.3840000  17.0820000
 129.3560000  22.0360000  16.9210000 129.8720000  22.3680000  18.4470000
 128.4690000  23.9270000  17.5820000 127.9790000  24.1900000  16.6100000
 127.6340000  23.4140000  18.1670000 129.0070000  25.2180000  18.2590000
 129.2220000  25.1120000  19.2870000 129.8650000  25.5690000  17.7350000
 128.1030000  26.4290000  18.0820000 128.5910000  27.1050000  18.7740000
 128.2900000  26.8270000  17.0600000 126.6130000  26.3520000  18.4420000
 126.0540000  25.5490000  17.8400000 126.5120000  26.0950000  19.5280000
 125.8940000  27.6860000  18.1680000 126.0500000  27.9440000  17.1280000
 124.8330000  27.5630000  18.3820000 126.4280000  28.9140000  18.9820000
 127.3760000  29.1730000  18.5890000 125.7710000  29.7810000  18.8700000
 126.6690000  28.5910000  20.4940000 125.7400000  28.4340000  21.1170000
 127.2590000  27.6970000  20.6830000 127.3870000  29.7900000  21.2570000
 128.2600000  30.1130000  20.6720000 126.6130000  30.5850000  21.3740000
 127.8600000  29.2790000  22.6350000 127.1650000  28.5160000  22.9630000
 128.8300000  28.8590000  22.5870000 127.8680000  30.5380000  23.5850000
 127.1570000  31.3600000  23.2410000 127.6430000  30.2440000  24.5980000
 129.2660000  31.1140000  23.7150000 129.1830000  31.9450000  24.4550000
 129.9010000  30.3730000  24.0940000 129.8510000  31.7380000  22.4920000
 130.0880000  30.9300000  21.7960000 129.0620000  32.2590000  21.8610000
 131.1270000  32.5740000  22.6510000 131.6190000  32.5530000  21.6270000
 130.8430000  33.6010000  22.9080000 132.1180000  32.0140000  23.6970000
 132.7830000  32.7900000  23.9110000 131.6040000  31.8920000  24.6500000
 132.9950000  30.8200000  23.1870000 134.1430000  30.6680000  23.5190000
 132.4170000  29.9820000  22.2920000 133.2550000  29.0600000  21.5280000
 134.0130000  29.6430000  21.0630000 133.7670000  28.2820000  22.1200000
 132.4100000  28.4580000  20.3990000 133.0780000  27.8040000  19.7450000
 131.7410000  29.6100000  19.5430000 130.7090000  29.5720000  19.5100000
 131.9160000  30.5730000  20.0380000 132.3360000  29.7180000  18.2430000
 133.6150000  30.6750000  17.9210000 133.0080000  32.1210000  17.6240000
 132.3970000  32.4600000  16.3620000 133.1130000  32.7620000  15.5840000
 131.7950000  31.5600000  16.1220000 131.3490000  33.5950000  16.6280000
 130.6690000  33.7310000  15.7540000 130.7480000  33.2670000  17.4760000
 131.7420000  35.0340000  16.8800000 130.6230000  35.5520000  17.6810000
 130.6170000  35.1440000  18.6940000 130.6780000  36.7000000  17.6380000
 129.7820000  35.1550000  17.0810000 133.0250000  35.2230000  17.7350000
 133.7710000  34.7310000  17.2130000 133.2300000  36.3090000  17.7130000
 132.7940000  34.7950000  18.7350000 131.8650000  35.7390000  15.6380000
 130.8580000  35.7870000  15.1770000 132.7260000  35.3850000  15.1240000
 132.0580000  36.7350000  15.8500000 134.3590000  30.7690000  19.2190000
 134.3000000  30.1930000  16.7190000 131.2710000  27.7230000  21.0560000
 131.4780000  26.6240000  21.7210000 132.5730000  26.0750000  21.6600000
 130.2990000  26.2990000  22.6050000 129.4040000  26.5210000  22.0870000
 130.2600000  27.0320000  23.4730000 130.3260000  24.8880000  23.1160000
 130.5280000  24.1410000  22.2970000 129.3760000  24.6090000  23.4430000
 131.2440000  24.7690000  24.3690000 132.0050000  25.5100000  24.3440000
 131.6830000  23.7700000  24.3400000 130.5100000  24.9630000  25.7050000
 129.7860000  24.1190000  25.7690000 129.9220000  25.8660000  25.7480000
 131.5550000  24.9650000  26.7980000 132.2210000  25.8330000  26.7070000
 132.1490000  24.1310000  26.6340000 130.9230000  25.0180000  28.1910000
 130.3860000  24.1340000  28.5430000 130.1980000  25.8980000  28.1790000
 131.9810000  25.2470000  29.3300000 131.4710000  25.5990000  30.1710000
 132.7400000  26.0150000  29.0580000 132.8390000  23.9910000  29.6730000
 133.7440000  23.8670000  29.0680000 132.4170000  23.0970000  30.5190000
 132.9100000  22.1070000  30.5030000 131.1710000  23.3760000  31.3480000
 130.8260000  22.3620000  31.5990000 130.2990000  23.8060000  30.8280000
 131.3490000  24.1650000  32.6570000 131.8160000  25.0860000  32.4500000
 131.9950000  23.7160000  33.4270000 130.0640000  24.5000000  33.4100000
 129.3820000  24.9700000  32.7480000 130.3030000  25.2320000  34.1000000
 129.5900000  23.2940000  34.1280000 130.4170000  22.8560000  34.6340000
 129.1820000  22.5430000  33.4550000 128.6050000  23.7040000  35.1960000
 127.7200000  23.8670000  34.6340000 128.9510000  24.6080000  35.6850000
 128.4360000  22.6960000  36.3570000 127.5860000  23.0950000  36.9360000
 129.3970000  22.6640000  37.0150000 128.0120000  21.2230000  36.1350000
 127.8230000  20.7110000  37.0860000 128.8710000  20.6780000  35.6830000
 126.7670000  21.1160000  35.1990000 125.7920000  21.2470000  35.6860000
 126.7750000  20.1040000  34.7520000 126.7760000  21.8090000  34.3710000
 136.1930000  57.8270000  36.0750000 135.2130000  57.5760000  36.3700000
 136.2450000  58.5500000  35.2890000 136.6950000  58.1600000  36.9510000
 136.7310000  56.4920000  35.6270000 137.8200000  56.5100000  35.4980000
 136.6750000  55.8030000  36.4920000 136.2160000  55.9980000  34.3340000
 135.1390000  55.8590000  34.4730000 136.3660000  56.7570000  33.5820000
 136.7030000  54.6050000  33.8590000 137.7210000  54.7230000  33.4140000
 136.7140000  53.9540000  34.6760000 135.7520000  54.0610000  32.8000000
 134.6930000  54.1630000  32.9970000 135.8920000  54.6340000  31.8900000
 136.1560000  52.6380000  32.5390000 137.2380000  52.5280000  32.2680000
 135.8610000  52.1040000  33.4480000 135.2780000  52.0570000  31.4030000
 134.1550000  52.2180000  31.4300000 135.5420000  52.5430000  30.4230000
 135.4380000  50.5480000  31.3320000 136.5110000  50.3240000  31.0970000
 135.2430000  50.1940000  32.2650000 134.3700000  49.9610000  30.4030000
 134.3640000  48.8760000  30.4780000 133.3380000  50.3030000  30.6280000
 134.6360000  50.1780000  28.8760000 134.7680000  51.2290000  28.6850000
 135.5980000  49.5970000  28.6680000 133.5840000  49.5530000  27.9990000
 133.9470000  49.6750000  26.9580000 133.4590000  48.4870000  28.1100000
 132.1230000  50.1480000  27.9970000 131.6840000  50.1940000  29.0790000
 132.0800000  51.1110000  27.5570000 131.0390000  49.3930000  27.2830000
 130.8940000  48.4030000  27.6500000 130.0180000  49.8310000  27.4870000
 131.2990000  49.2980000  25.7800000 131.8910000  50.1630000  25.4740000
 131.8110000  48.3940000  25.6520000 129.9250000  49.3040000  25.0740000
 129.2340000  48.4700000  25.3690000 129.3930000  50.2620000  25.3320000
 130.0580000  49.3330000  23.5750000 130.8990000  49.9620000  22.9510000
 129.1370000  48.5190000  22.9480000 129.3080000  48.0230000  21.6080000
 128.2820000  47.6850000  21.2330000 129.5470000  48.8710000  20.9800000
 130.3710000  46.9640000  21.4020000 131.3370000  47.2370000  21.7820000
 130.5950000  46.7010000  19.9120000 129.6050000  46.4510000  19.5220000
 130.8950000  47.6750000  19.5590000 131.5920000  45.6540000  19.6960000
 132.4540000  45.5680000  18.3790000 131.4360000  44.6720000  17.5380000
 130.3220000  45.2750000  16.8010000 130.0350000  46.2210000  17.3050000
 130.6510000  45.4770000  15.8260000 129.2110000  44.2260000  16.5970000
 128.3940000  44.5940000  15.9470000 129.5530000  43.3230000  16.0580000
 128.3470000  43.8160000  17.8070000 127.5780000  42.6060000  17.4490000
 126.9870000  42.8440000  16.5290000 128.3150000  41.8840000  17.1430000
 127.1350000  42.1600000  18.3300000 129.2230000  43.4830000  19.0190000
 129.9300000  44.3110000  19.1380000 128.5780000  43.3370000  19.9130000
 129.7880000  42.6400000  18.8030000 127.3680000  44.8230000  18.1730000
 127.9840000  45.7110000  18.5770000 126.7090000  44.4730000  18.9290000
 126.7510000  45.1460000  17.3540000 132.5230000  46.8680000  17.7660000
 133.6380000  44.6750000  18.5760000 129.9830000  45.7280000  22.0080000
 130.2620000  45.5650000  23.3310000 130.8490000  46.4100000  24.0030000
 129.9510000  44.1340000  23.7820000 128.9250000  43.9070000  23.5090000
 130.0160000  44.0770000  24.8740000 130.7880000  43.0580000  23.0960000
 130.4550000  42.9740000  22.0440000 130.6080000  42.1160000  23.6150000
 132.3120000  43.2150000  23.0360000 132.8000000  42.9780000  24.0130000
 132.5540000  44.2930000  22.8210000 132.9180000  42.2730000  21.9040000
 132.5860000  42.4380000  20.9380000 132.6250000  41.2370000  22.0750000
 134.4360000  42.3480000  22.0250000 134.8820000  41.4410000  21.6350000
 134.7080000  42.3890000  23.0980000 135.0090000  43.6140000  21.2510000
 134.3640000  44.4930000  21.4150000 134.8940000  43.3320000  20.2100000
 136.4090000  44.0610000  21.6380000 136.7760000  44.7080000  20.8890000
 136.2470000  44.6350000  22.5450000 137.4070000  42.8780000  21.9000000
 137.6900000  42.4580000  20.9880000 137.8410000  42.4890000  23.0950000
 138.5760000  41.6770000  23.1880000 137.5340000  43.2730000  24.3890000
 136.7050000  42.7430000  24.8840000 137.2330000  44.2840000  24.2060000
 138.7160000  43.2020000  25.4120000 139.1840000  42.1930000  25.3780000
 138.2930000  43.3510000  26.4460000 139.8430000  44.2340000  25.3120000
 140.2820000  44.1410000  24.3700000 140.6000000  43.8560000  26.0160000
 139.5140000  45.7270000  25.6500000 139.0500000  45.7440000  26.6250000
 138.8990000  46.2750000  24.9090000 140.8950000  46.4410000  25.7190000
 141.3450000  46.3980000  24.8110000 141.6150000  46.0440000  26.4110000
 140.7390000  47.9800000  26.2050000 140.2020000  47.9750000  27.1370000
 140.1790000  48.5220000  25.4060000 142.0830000  48.5770000  26.4920000
 142.7250000  48.5290000  25.6500000 142.5430000  48.0270000  27.2940000
 141.8960000  50.0360000  26.9170000 141.5010000  50.6850000  26.1310000
 142.8950000  50.3250000  27.1380000 141.2770000  50.1640000  27.8230000
  42.0130000  45.4540000  35.8950000  42.0040000  44.3920000  36.2140000
  41.1300000  45.6110000  35.2320000  41.8200000  46.0910000  36.7140000
  43.3500000  45.7850000  35.2000000  43.4660000  45.2420000  34.2930000
  43.4650000  46.8180000  34.9340000  44.4670000  45.1870000  36.1410000
  44.4660000  45.8350000  37.0500000  44.1970000  44.1180000  36.3980000
  45.8840000  45.3030000  35.4400000  46.0160000  46.4010000  35.0830000
  46.6600000  44.9920000  36.1280000  46.0480000  44.4110000  34.2110000
  45.9570000  43.3770000  34.5520000  45.3530000  44.5690000  33.3980000
  47.5020000  44.5550000  33.6530000  48.2350000  44.6660000  34.4290000
  47.7440000  43.6140000  33.1540000  47.5440000  45.7930000  32.7590000
  46.6710000  45.8350000  32.1950000  47.5890000  46.6450000  33.4410000
  48.6750000  45.8440000  31.8060000  49.6370000  45.5510000  32.2400000
  48.5050000  45.1510000  30.9900000  48.7600000  47.3150000  31.2330000
  48.8640000  47.9930000  32.1170000  49.7290000  47.3890000  30.7560000
  47.7790000  47.7540000  30.1700000  46.7200000  47.3900000  30.4950000
  48.0080000  47.2700000  29.2370000  47.7080000  49.2780000  29.9920000
  47.2260000  49.7000000  30.9260000  48.7410000  49.7060000  29.9310000
  47.0330000  49.7380000  28.6650000  46.0990000  49.2040000  28.5950000
  46.8260000  50.7710000  28.6980000  47.7190000  49.4270000  27.3410000
  48.6750000  49.9030000  27.3670000  47.9350000  48.3510000  27.2340000
  46.9890000  49.9180000  26.0880000  46.8120000  51.0040000  26.3210000
  47.6500000  50.0010000  25.2370000  45.6280000  49.3110000  25.7280000
  45.6650000  48.1410000  25.5940000  44.9940000  49.5540000  26.5920000
  45.1040000  49.9140000  24.4550000  44.5430000  50.9530000  24.3900000
  45.3440000  49.0710000  23.4920000  44.9450000  49.3520000  22.1510000
  45.1880000  48.5460000  21.4650000  43.9120000  49.5870000  22.1490000
  45.7890000  50.5550000  21.5490000  44.9970000  51.3250000  21.6520000
  46.0540000  50.3170000  20.0600000  46.7640000  49.4980000  20.0930000
  45.1660000  50.0330000  19.5290000  46.6720000  51.4690000  19.4310000
  48.2320000  51.4060000  18.9130000  48.1680000  50.5930000  17.5980000
  48.6570000  49.2110000  17.5610000  48.5700000  48.6150000  18.4400000
  47.9360000  48.7060000  16.9070000  50.0080000  49.1140000  16.7110000
  50.1800000  48.1350000  16.4780000  49.9930000  49.6280000  15.7710000
  51.3130000  49.6060000  17.4050000  52.4850000  49.0720000  16.6270000
  52.4080000  49.4660000  15.6020000  53.4410000  49.4090000  16.9750000
  52.3050000  48.0060000  16.6470000  51.4300000  51.1130000  17.4150000
  52.3590000  51.4070000  17.9470000  51.2830000  51.4230000  16.4130000
  50.5830000  51.4520000  17.9700000  51.3330000  49.1830000  18.8220000
  50.9390000  48.2280000  18.9640000  50.8410000  49.9860000  19.4150000
  52.3530000  49.1110000  19.2020000  48.6700000  52.7460000  18.5790000
  49.0140000  50.5430000  19.9270000  47.0080000  50.7700000  22.2600000
  47.6060000  51.9770000  22.3550000  47.1150000  53.0800000  22.0270000
  49.0680000  51.9090000  22.8950000  49.7210000  51.7340000  22.0390000
  49.1590000  50.9770000  23.4600000  49.4940000  53.1750000  23.6570000
  48.7250000  53.4520000  24.3730000  49.5760000  53.9970000  22.9840000
  50.9890000  52.8830000  24.2490000  51.6260000  52.9780000  23.3980000
  50.9020000  51.8130000  24.6780000  51.5310000  53.9130000  25.2290000
  51.1950000  54.8840000  24.8780000  52.5790000  53.8550000  25.1670000
  51.0170000  53.6510000  26.6570000  51.2290000  52.6250000  26.9780000
  49.8880000  53.6610000  26.6160000  51.5770000  54.7300000  27.6220000
  52.0370000  55.5750000  27.0220000  52.3790000  54.1770000  28.0960000
  50.6050000  55.2570000  28.7190000  50.2620000  54.3480000  29.2960000
  49.8220000  55.7590000  28.1850000  51.4010000  56.1910000  29.6040000
  51.5240000  57.2280000  29.2280000  52.1140000  55.8910000  30.6780000
  52.5170000  56.7190000  31.2480000  52.3450000  54.4810000  31.2620000
  53.4040000  54.4820000  31.5710000  52.1580000  53.6810000  30.5340000
  51.4550000  54.3270000  32.4260000  50.4600000  54.5960000  32.1720000
  51.7520000  54.9010000  33.3870000  51.4180000  52.8050000  32.7100000
  52.4140000  52.4180000  32.7770000  51.0230000  52.3450000  31.7380000
  50.4770000  52.6330000  33.9150000  49.5160000  53.0090000  33.6260000
  50.8700000  53.2240000  34.7650000  50.2930000  51.1210000  34.2090000
  51.2240000  50.8280000  34.7200000  50.1940000  50.5890000  33.2750000
  49.1020000  50.9900000  35.2630000  48.1710000  51.1920000  34.7710000
  49.2590000  51.7500000  35.9820000  49.1010000  49.6440000  36.0310000
  48.1870000  49.6470000  36.5990000  49.8350000  49.6340000  36.8390000
  49.2180000  48.3940000  35.1480000  50.2210000  48.3780000  34.6830000
  48.4550000  48.4080000  34.3630000  48.9860000  47.5280000  35.8330000
 129.2600000  19.5480000  31.4400000 129.6060000  20.4880000  31.7700000
 128.9550000  18.9490000  32.2870000 128.3800000  19.7710000  30.7840000
 130.5020000  18.9940000  30.7280000 130.9980000  19.7080000  30.0830000
 131.2060000  18.7880000  31.5170000 130.1270000  17.6740000  29.9140000
 129.3520000  17.9660000  29.2360000 130.9930000  17.3510000  29.3180000
 129.7360000  16.4020000  30.7790000 130.5550000  16.3030000  31.5220000
 128.8560000  16.6910000  31.3410000 129.6320000  15.0480000  30.1360000
 130.6570000  14.6680000  29.9190000 129.2560000  14.4170000  30.9010000
 128.7390000  14.9670000  28.8860000 128.4610000  13.9220000  28.7690000
 127.8490000  15.4940000  29.1660000 129.2630000  15.4780000  27.5040000
 130.2280000  16.0100000  27.5940000 129.4150000  14.5660000  26.9460000
 128.2530000  16.3060000  26.7800000 127.3320000  15.7190000  26.7540000
 128.0270000  17.2570000  27.3740000 128.5290000  16.7670000  25.3540000
 129.4740000  17.3600000  25.2800000 128.7440000  15.7510000  24.8620000
 127.3530000  17.4640000  24.5590000 127.1610000  18.3900000  25.0190000
 127.7850000  17.7730000  23.6060000 126.0750000  16.7270000  24.4850000
 125.8170000  16.5540000  25.5050000 125.2860000  17.3560000  24.1110000
 126.1060000  15.3720000  23.8600000 126.4640000  15.4590000  22.8300000
 126.7280000  14.7300000  24.4550000 124.7170000  14.6680000  23.8070000
 123.9320000  15.4060000  23.6710000 124.7410000  14.1130000  22.8810000
 124.1960000  13.8850000  25.0420000 124.0710000  14.5010000  25.9180000
 123.1790000  13.6670000  24.7660000 125.0010000  12.6860000  25.5230000
 126.0800000  12.6570000  25.2830000 124.8870000  12.6640000  26.6050000
 124.4100000  11.3770000  24.9290000 123.5630000  10.7480000  25.5000000
 125.1050000  11.0710000  23.8120000 124.4310000  10.1450000  22.8740000
 125.1070000   9.3700000  22.5000000 123.5110000   9.7250000  23.2500000
 123.9640000  11.0420000  21.6820000 123.5060000  11.9570000  21.9910000
 122.8780000  10.3780000  20.7870000 122.1350000   9.9240000  21.3450000
 122.3260000  11.0710000  20.1160000 123.5490000   9.4620000  19.8330000
 123.8190000   7.9470000  20.2690000 125.3700000   7.9350000  20.5660000
 126.2590000   8.0650000  19.4690000 125.8290000   7.8070000  18.5050000
 126.5290000   9.1430000  19.4350000 127.3840000   7.1140000  19.8430000
 128.2000000   7.2450000  19.0590000 127.8030000   7.2760000  20.8260000
 127.0630000   5.5690000  19.8160000 128.3630000   4.8190000  19.6650000
 129.0010000   5.0900000  20.5000000 128.1020000   3.7350000  19.5830000
 128.7740000   5.0700000  18.6770000 126.6680000   5.1990000  21.1190000
 127.4510000   5.3900000  21.7150000 125.8240000   5.8670000  21.4040000
 126.4130000   4.1430000  21.1300000 126.0580000   5.1060000  18.7950000
 126.3030000   5.6990000  17.9170000 125.0910000   5.5010000  19.0460000
 126.0300000   4.0260000  18.6290000 123.0510000   7.8270000  21.5560000
 123.5170000   7.1090000  19.0990000 125.1890000  11.3500000  20.9410000
 125.1490000  12.3610000  20.0810000 124.3320000  13.2540000  20.1550000
 126.2700000  12.4160000  19.1240000 125.8510000  11.9740000  18.2170000
 127.1090000  11.8200000  19.4900000 126.6810000  13.9150000  18.8050000
 125.8590000  14.4740000  18.2720000 127.4410000  13.8320000  18.0590000
 127.2440000  14.8260000  19.9100000 128.1140000  14.3900000  20.3630000
 126.5400000  14.9700000  20.7060000 127.7410000  16.1720000  19.2840000
 126.8750000  16.8000000  19.3420000 128.0670000  16.0840000  18.2850000
 128.9150000  16.7820000  20.0610000 129.8670000  16.1980000  19.9580000
 128.5030000  16.7540000  21.1170000 129.1980000  18.1900000  19.6680000
 128.2490000  18.8090000  19.9110000 129.1320000  18.1630000  18.5690000
 130.5400000  18.7060000  20.3560000 131.3250000  17.9870000  20.0710000
 130.4220000  18.6280000  21.4370000 130.8620000  20.0560000  19.8990000
 131.2800000  20.1240000  18.9150000 130.6410000  21.1350000  20.6120000
 130.8950000  22.1350000  20.2130000 130.1220000  21.2640000  22.0060000
 130.6600000  22.0770000  22.5260000 129.9910000  20.2860000  22.5410000
 128.5920000  21.6960000  21.9180000 128.0680000  20.9450000  21.2760000
 128.5660000  22.7370000  21.5150000 127.9520000  21.6090000  23.2960000
 128.4680000  22.1800000  24.0240000 127.9570000  20.6160000  23.6520000
 126.4990000  22.1160000  23.1950000 126.0980000  21.8730000  24.1630000
 125.9110000  21.5560000  22.4680000 126.2600000  23.6280000  23.0010000
 126.8200000  23.9260000  22.2220000 126.6520000  24.0750000  23.9500000
 124.8700000  23.9060000  22.6140000 124.2330000  23.5020000  23.4310000
 124.6260000  23.2490000  21.7550000 124.6280000  25.3730000  22.2980000
 123.5620000  25.4290000  22.0960000 125.1400000  25.5870000  21.3060000
 125.1600000  26.3690000  23.4240000 124.7360000  26.1220000  24.4270000
 124.7720000  27.3910000  23.2020000 126.2510000  26.3490000  23.4340000
  97.7620000 119.0580000  28.6600000  97.8740000 120.1460000  28.6960000
  98.7700000 118.7600000  28.9830000  96.9930000 118.8070000  29.4140000
  97.5210000 118.4660000  27.3070000  96.6270000 118.8560000  26.8990000
  98.2870000 118.7340000  26.5990000  97.3130000 116.9320000  27.6120000
  96.4430000 116.9240000  28.2730000  96.9450000 116.4090000  26.6920000
  98.5220000 116.2910000  28.2770000  98.5660000 116.4990000  29.3740000
  98.3550000 115.1680000  28.0970000  99.9670000 116.5600000  27.6860000
 100.2190000 117.5830000  27.7730000 100.7220000 116.0630000  28.3210000
  99.9800000 116.0790000  26.2540000  99.6950000 115.0090000  26.2680000
  99.3060000 116.6560000  25.6250000 101.4790000 116.2730000  25.6200000
 102.1680000 115.7410000  26.3080000 101.5470000 115.7550000  24.6680000
 102.0420000 117.6790000  25.4460000 102.2640000 117.9850000  26.4760000
 102.9170000 117.4810000  24.8070000 101.2010000 118.7070000  24.6900000
 100.2590000 118.7910000  25.2750000 101.6290000 119.7040000  24.7140000
 100.8870000 118.4270000  23.1980000 100.8130000 117.3640000  22.9490000
  99.9170000 118.8730000  22.9220000 101.9590000 118.9390000  22.2160000
 102.9120000 118.5320000  22.6070000 101.7420000 118.6000000  21.1650000
 101.9900000 120.4520000  22.1520000 101.0520000 120.8670000  21.6700000
 102.0440000 120.9200000  23.1580000 103.1770000 121.1100000  21.3380000
 103.9600000 120.3500000  21.4960000 103.0080000 121.0500000  20.2400000
 103.6050000 122.4960000  21.8630000 103.3000000 122.5290000  22.9250000
 104.6500000 122.5890000  21.9500000 102.9570000 123.6020000  21.0390000
 101.9170000 123.3780000  20.8950000 103.0770000 124.4840000  21.6520000
 103.7240000 123.8160000  19.7830000 104.8500000 124.3110000  19.8350000
 103.1230000 123.3780000  18.6910000 103.7530000 123.4730000  17.4010000
 102.9820000 123.3820000  16.5770000 104.0330000 124.4950000  17.2650000
 104.8100000 122.3910000  17.3130000 105.4860000 122.5290000  18.1590000
 105.6850000 122.5850000  16.1170000 105.0810000 122.3700000  15.2830000
 106.1810000 123.5850000  15.9940000 106.8710000 121.6890000  16.1460000
 107.7100000 121.3970000  14.8110000 106.9020000 120.3580000  13.9730000
 106.7990000 119.0200000  14.4630000 107.5360000 118.9120000  15.3010000
 105.7630000 118.8860000  14.7370000 107.1880000 118.0550000  13.3830000
 107.1430000 117.0280000  13.7530000 106.5480000 118.1490000  12.4670000
 108.6130000 118.1230000  12.8760000 108.7290000 117.0180000  11.8460000
 109.6840000 117.1570000  11.3730000 108.7370000 116.1670000  12.4420000
 107.9000000 116.9890000  11.1080000 108.9630000 119.4080000  12.2360000
 109.8480000 119.2380000  11.5490000 108.1250000 119.6970000  11.5730000
 109.0840000 120.1950000  13.0260000 109.6340000 117.9040000  13.9670000
 109.6420000 118.8680000  14.5480000 110.5390000 117.5500000  13.4720000
 109.2840000 117.0590000  14.5790000 107.8060000 122.6270000  14.0190000
 108.9470000 120.8100000  15.2790000 104.2890000 120.9820000  17.2860000
 104.8120000 120.0830000  18.1280000 105.7200000 120.3710000  18.9030000
 104.0820000 118.7320000  18.0400000 104.1430000 118.3090000  17.0270000
 103.0750000 118.8960000  18.3240000 104.6850000 117.7710000  19.0210000
 104.3080000 118.0020000  19.9790000 105.7570000 117.9090000  19.0590000
 104.3540000 116.2770000  18.6880000 104.8270000 116.0310000  17.7180000
 103.2110000 116.0980000  18.6720000 105.1380000 115.3850000  19.6560000
 106.1150000 115.6400000  19.7130000 104.8910000 114.3140000  19.3970000
 104.5810000 115.4680000  21.1200000 103.5130000 115.3780000  21.0670000
 104.8720000 116.3920000  21.6800000 105.1510000 114.2700000  21.8620000
 106.2240000 114.2650000  21.8380000 104.7120000 113.3470000  21.5790000
 104.7760000 114.4080000  23.3600000 103.6850000 114.3440000  23.4920000
 105.2580000 115.3590000  23.6570000 105.4330000 113.2320000  24.1410000
 105.0410000 112.2620000  23.7250000 106.2070000 113.2740000  25.2260000
 106.6780000 112.4380000  25.6980000 106.5180000 114.6240000  25.8940000
 105.9570000 115.4240000  25.4670000 107.5740000 114.8950000  25.8210000
 106.1390000 114.5580000  27.3770000 106.4980000 115.5070000  27.8750000
 106.7830000 113.7850000  27.9450000 104.6460000 114.2580000  27.7080000
 104.2090000 113.2860000  27.4550000 104.0190000 115.0070000  27.2700000
 104.5960000 114.3080000  29.2830000 105.2880000 115.0790000  29.6200000
 104.9030000 113.3040000  29.6780000 103.1610000 114.6160000  29.6600000
 102.5030000 113.8090000  29.3160000 102.7570000 115.4390000  29.0950000
 102.9330000 114.8010000  31.1960000 103.6410000 115.5080000  31.4270000
 103.1340000 113.7780000  31.6180000 101.6300000 115.4610000  31.5560000
 101.4240000 116.4470000  31.1450000 101.5580000 115.5000000  32.6240000
 100.4050000 114.5620000  31.1910000 100.3510000 114.2630000  30.1460000
  99.4320000 114.9700000  31.5870000 100.5890000 113.5750000  31.7270000
 142.0150000  20.7300000  34.8880000 142.4150000  20.3570000  35.8030000
 142.7920000  20.9900000  34.2660000 141.5070000  19.9880000  34.2670000
 141.0070000  21.8760000  35.1930000 141.5200000  22.5900000  35.8190000
 140.7920000  22.4420000  34.2550000 139.7050000  21.4890000  35.8730000
 139.8800000  20.7510000  36.7390000 139.2500000  22.4340000  36.2330000
 138.7220000  21.0060000  34.8380000 137.8150000  21.3490000  35.3150000
 138.7140000  21.6860000  33.9600000 138.6840000  19.5200000  34.4710000
 139.5620000  19.0960000  33.8820000 138.6980000  18.8600000  35.4180000
 137.3480000  19.1150000  33.7110000 136.5160000  19.4420000  34.3410000
 137.3350000  19.7370000  32.7690000 137.2400000  17.6560000  33.3900000
 137.9890000  17.4160000  32.6490000 137.5520000  16.9940000  34.2020000
 135.8320000  17.3220000  32.9790000 135.2360000  17.1730000  33.8910000
 135.4900000  18.0990000  32.3390000 135.6190000  15.9850000  32.2850000
 136.1240000  15.2760000  32.9540000 134.5020000  15.7720000  32.2780000
 136.2290000  15.7540000  30.9040000 137.2610000  15.9890000  31.1020000
 136.0910000  14.6480000  30.7300000 135.8290000  16.7170000  29.8190000
 136.2490000  17.7210000  29.9770000 136.2180000  16.2950000  28.9250000
 134.3230000  16.8240000  29.6110000 133.9480000  17.1640000  30.5740000
 133.9990000  17.5460000  28.8740000 133.5850000  15.4380000  29.3990000
 133.6770000  14.7800000  30.2610000 132.5160000  15.7050000  29.3620000
 133.8860000  14.6780000  28.0910000 134.9370000  14.4730000  28.0830000
 133.3700000  13.7140000  28.0600000 133.3780000  15.4690000  26.8880000
 132.2870000  15.4080000  26.7340000 133.5230000  16.5280000  27.1570000
 134.1440000  15.1460000  25.5920000 133.8930000  14.1530000  24.9630000
 135.0960000  16.1010000  25.2420000 135.5840000  16.1620000  23.8940000
 136.5870000  16.4980000  23.9040000 135.6870000  15.1500000  23.4030000
 134.8200000  17.2260000  23.0300000 135.3140000  17.1270000  22.0930000
 134.9130000  18.6510000  23.4620000 134.0950000  19.1550000  23.0330000
 134.7580000  18.7390000  24.5280000 136.1710000  19.2890000  22.9390000
 136.1260000  20.1190000  21.5680000 136.2990000  21.5690000  22.0040000
 135.1710000  22.4580000  22.3020000 134.1860000  21.8970000  22.3250000
 135.3610000  22.8620000  23.3030000 135.1500000  23.7350000  21.4130000
 134.4690000  24.4640000  21.8930000 136.1370000  24.2400000  21.4460000
 134.7260000  23.5800000  20.0210000 134.8210000  25.0300000  19.4590000
 134.3790000  25.6370000  20.2570000 135.9210000  25.3500000  19.3540000
 134.3580000  25.0740000  18.4660000 135.5590000  22.6770000  19.2210000
 135.3850000  21.6650000  19.6230000 135.2590000  22.7190000  18.1930000
 136.5350000  22.9940000  19.3670000 133.4230000  22.9120000  19.9130000
 133.6290000  21.8490000  19.9860000 133.1460000  23.0810000  18.8610000
 132.6370000  23.2110000  20.6460000 137.3240000  19.7930000  20.7790000
 134.7910000  20.0370000  20.9360000 133.4530000  16.8500000  22.5910000
 132.3260000  17.0010000  23.3570000 132.4070000  17.5290000  24.4900000
 131.1320000  16.1760000  22.8700000 131.1510000  16.3280000  21.7960000
 130.1810000  16.5510000  23.1350000 131.1750000  14.7000000  23.3280000
 131.1360000  14.6700000  24.3700000 132.0830000  14.1050000  23.0360000
 129.8650000  13.9660000  22.7860000 129.6250000  14.1960000  21.7440000
 129.0140000  14.3580000  23.3420000 130.0490000  12.4430000  22.8690000
 130.0500000  12.1060000  23.9350000 131.0720000  12.1870000  22.4650000
 128.9860000  11.6230000  22.1020000 129.1330000  11.7810000  21.0470000
 127.9670000  11.9340000  22.4490000 129.2110000  10.0660000  22.3310000
 130.2100000   9.8100000  22.0020000 128.5270000   9.4860000  21.7150000
 128.8990000   9.6730000  23.8650000 127.8620000   9.8920000  24.1250000
 129.5730000  10.2800000  24.5650000 129.0950000   8.0880000  24.0740000
 129.1080000   7.8200000  25.2060000 129.5420000   7.2580000  23.1110000
 129.8000000   7.6930000  22.0770000 129.7110000   5.8240000  23.4390000
 129.0420000   5.2900000  22.7660000 129.3700000   5.5800000  24.4520000
 131.1290000   5.2880000  23.2860000 131.3850000   5.4200000  22.2180000
 131.1740000   4.2280000  23.5850000 132.1630000   5.9900000  24.1790000
 131.8710000   7.0660000  24.2490000 133.1230000   5.9920000  23.7060000
 132.3810000   5.3720000  25.6770000 132.6780000   4.3760000  25.5060000
 131.4320000   5.2760000  26.2350000 133.4560000   6.0900000  26.5290000
 133.5350000   5.6960000  27.5240000 133.2030000   7.0480000  26.7700000
 134.8410000   6.0340000  25.9520000 134.8300000   6.5190000  24.9210000
 135.0610000   4.9920000  25.7920000 135.9500000   6.6910000  26.7860000
 135.8030000   7.7810000  27.0260000 136.8920000   6.5630000  26.3070000
 136.0540000   6.0030000  28.1830000 135.2260000   6.3020000  28.7380000
 136.8430000   6.1890000  28.8630000 135.9410000   4.9430000  28.1500000
  32.3040000  40.4200000  39.2130000  33.1150000  41.1390000  39.0120000
  32.4740000  39.8710000  40.1690000  31.3350000  40.9580000  39.1310000
  32.3460000  39.4490000  38.0730000  33.0360000  38.6720000  38.2510000
  31.3170000  38.8930000  38.0500000  32.6660000  40.0300000  36.6490000
  31.9490000  40.7840000  36.3270000  33.6770000  40.5070000  36.6210000
  32.7040000  38.9590000  35.5390000  33.1840000  38.0600000  35.9200000
  31.6720000  38.7600000  35.3850000  33.3290000  39.3930000  34.1720000
  32.9260000  40.3780000  34.0690000  34.3950000  39.2360000  34.1230000
  32.6720000  38.7190000  32.9600000  33.4540000  38.9550000  32.1830000
  32.5200000  37.6570000  32.9950000  31.3200000  39.3400000  32.5220000
  30.5180000  39.0840000  33.2520000  31.4120000  40.4430000  32.3700000
  30.9910000  38.8330000  31.1220000  31.9830000  38.5640000  30.6240000
  30.5880000  37.8920000  31.1370000  30.0450000  39.6900000  30.3290000
  29.0320000  39.5670000  30.8060000  30.3720000  40.6410000  30.3210000
  29.9570000  39.3540000  28.8080000  29.4910000  38.3570000  28.9100000
  29.3880000  40.1550000  28.2460000  31.2440000  39.3010000  27.9290000
  31.8740000  38.4620000  28.2400000  30.9050000  39.0250000  26.9810000
  31.9600000  40.6360000  27.7150000  31.2730000  41.4100000  27.3220000
  32.2370000  40.9980000  28.6810000  33.1660000  40.2890000  26.8630000
  33.6740000  39.3980000  27.1670000  32.8950000  40.1280000  25.8600000
  34.2580000  41.3660000  26.8280000  34.5420000  41.5170000  27.8390000
  35.1110000  40.9120000  26.4290000  33.8040000  42.6610000  26.0620000
  32.8220000  42.9950000  26.5060000  34.4570000  43.5290000  26.3130000
  33.6450000  42.5650000  24.5960000  34.5140000  42.4250000  23.7760000
  32.3040000  42.6230000  24.1970000  31.9490000  42.8400000  22.7320000
  30.8620000  43.0860000  22.6850000  32.5900000  43.6980000  22.4020000
  32.1680000  41.5570000  21.9390000  33.2010000  41.2210000  22.0880000
  32.0150000  41.8390000  20.4170000  32.7500000  42.6610000  20.1540000
  32.3060000  40.9840000  19.8390000  30.6010000  42.2090000  20.3450000
  30.0470000  43.2480000  19.3070000  30.4420000  44.5980000  20.0630000
  29.7810000  45.0030000  21.3020000  29.0080000  44.2820000  21.4890000
  30.5210000  45.0680000  22.0780000  29.2270000  46.4430000  21.1560000
  28.8010000  46.8700000  22.0610000  30.0290000  47.0940000  20.8480000
  28.1440000  46.5810000  20.0910000  27.6640000  47.9630000  20.3830000
  27.2960000  48.0620000  21.3520000  28.5380000  48.6190000  20.2490000
  26.9390000  48.1500000  19.6480000  28.5840000  46.5080000  18.6740000
  29.0580000  45.5190000  18.4890000  27.7310000  46.5830000  18.0700000
  29.2920000  47.3910000  18.3940000  26.9800000  45.6560000  20.3020000
  27.2770000  44.6570000  20.0940000  26.1990000  45.8450000  19.5000000
  26.6650000  45.7760000  21.3440000  30.9140000  43.2000000  18.0900000
  28.5760000  43.2440000  19.1170000  31.2170000  40.5660000  22.3560000
  31.4220000  39.3190000  21.8610000  32.4150000  38.9810000  21.1810000
  30.3120000  38.4010000  22.2280000  30.4170000  37.6150000  21.5120000
  29.3550000  38.7460000  22.1570000  30.5110000  37.9000000  23.6310000
  29.6040000  37.4450000  23.9840000  30.5430000  38.7740000  24.3120000
  31.8130000  37.0540000  23.8660000  32.6270000  37.8160000  23.8840000
  32.0420000  36.3070000  23.0520000  31.9200000  36.3540000  25.1460000
  31.0460000  35.7790000  25.2460000  32.0340000  36.9750000  26.0500000
  33.2590000  35.4300000  25.1180000  34.0600000  36.0700000  24.9310000
  33.1930000  34.6390000  24.3980000  33.5540000  34.7040000  26.4580000
  34.3680000  33.9420000  26.3740000  32.5850000  34.0910000  26.6000000
  33.8530000  35.5740000  27.7430000  33.0300000  36.2800000  27.8640000
  34.8340000  36.1070000  27.6020000  34.0180000  34.7340000  28.9700000
  34.9270000  34.1730000  29.0230000  33.2560000  34.7950000  30.1000000
  33.6490000  34.2590000  30.9950000  31.9670000  35.4380000  30.2870000
  31.8590000  36.1110000  29.4160000  31.9890000  36.0270000  31.1740000
  30.8160000  34.3630000  30.4370000  30.9530000  33.5330000  31.1650000
  30.6050000  33.8190000  29.4680000  29.5220000  35.0260000  30.7620000
  29.6670000  35.7120000  31.6580000  28.8540000  34.2640000  31.2320000
  28.6680000  35.5800000  29.7140000  28.1210000  34.8130000  29.2030000
  29.2370000  36.1460000  29.0150000  27.6270000  36.6120000  30.2970000
  26.8030000  36.8150000  29.6350000  28.1320000  37.5360000  30.4930000
  26.9420000  36.2140000  31.6000000  27.7140000  36.0810000  32.3850000
  26.4420000  35.2520000  31.4180000  25.8580000  37.2240000  32.0880000
  24.9210000  37.1140000  31.4980000  26.1110000  38.2050000  31.9500000
  25.5400000  36.9930000  33.6030000  24.6640000  36.3300000  33.6350000
  25.4110000  37.9390000  34.1760000  26.2610000  36.2990000  33.9810000
  91.0760000  73.7570000  33.4860000  90.1310000  74.2650000  33.4740000
  91.0630000  73.1260000  34.4090000  91.1430000  73.0450000  32.6110000
  92.3610000  74.6090000  33.5750000  92.5890000  74.9330000  34.5310000
  93.2550000  73.9830000  33.3850000  92.3900000  75.7280000  32.5060000
  91.5980000  76.5500000  32.6350000  93.3200000  76.2330000  32.5740000
  92.1840000  75.3070000  31.0390000  91.3150000  74.6250000  31.0290000
  92.0650000  76.2470000  30.4080000  93.2820000  74.3990000  30.3830000
  94.2950000  74.6580000  30.6750000  93.1390000  73.3410000  30.6760000
  93.2450000  74.3650000  28.7990000  92.2480000  74.6510000  28.4580000
  93.8560000  75.2910000  28.5670000  93.7710000  73.1390000  28.1030000
  93.1370000  72.3240000  28.2760000  93.8070000  73.3760000  27.0250000
  95.1890000  72.7210000  28.5370000  95.8830000  73.5270000  28.5800000
  95.0630000  72.3800000  29.5980000  95.7480000  71.4850000  27.6820000
  95.1260000  70.6540000  27.9540000  95.7070000  71.7840000  26.6460000
  97.1500000  70.9760000  27.9390000  97.2580000  70.7470000  28.9860000
  97.3440000  70.0520000  27.3370000  98.2380000  72.0510000  27.5880000
  97.8740000  72.9290000  27.9970000  99.2720000  71.7010000  28.0050000
  98.3870000  72.5590000  26.1830000  99.0970000  71.8600000  25.7120000
  97.4960000  72.4630000  25.6290000  99.0240000  73.9570000  26.0770000
 100.0700000  73.9440000  26.4840000  99.1470000  74.1780000  25.0340000
  98.1760000  75.1490000  26.5700000  98.0470000  75.0560000  27.6070000
  98.7020000  76.1110000  26.3690000  96.8230000  75.2630000  25.9210000
  96.2810000  74.3610000  26.1000000  96.3240000  76.0650000  26.4710000
  96.8140000  75.7120000  24.4370000  96.4710000  76.8040000  24.0720000
  97.2100000  74.7300000  23.5890000  97.2000000  74.9550000  22.1560000
  97.4030000  74.0020000  21.6600000  96.2350000  75.3380000  21.9510000
  98.3190000  75.9520000  21.6270000  98.1520000  76.9440000  22.1610000
  98.2070000  76.0770000  20.0380000  99.1110000  76.1940000  19.4820000
  97.6560000  75.2390000  19.6440000  97.5220000  77.2340000  19.7550000
  96.9520000  77.5600000  18.2820000  98.2280000  77.1590000  17.3240000
  98.3500000  75.8210000  16.7870000  97.9250000  75.1580000  17.5090000
  97.8470000  75.6700000  15.8550000  99.8480000  75.5810000  16.5650000
 100.1650000  76.1660000  15.6940000 100.3010000  75.9630000  17.4200000
 100.3680000  74.2000000  16.4350000 101.7160000  74.3080000  15.9240000
 101.6240000  74.9970000  15.1010000 102.3750000  74.7640000  16.6440000
 102.0790000  73.3160000  15.4870000 100.3970000  73.5950000  17.7820000
 100.8410000  74.3440000  18.4150000  99.4360000  73.2400000  18.1460000
 101.0190000  72.7260000  17.7990000  99.7380000  73.2230000  15.4090000
  98.7590000  72.8950000  15.7480000 100.3630000  72.2980000  15.3720000
  99.6630000  73.7860000  14.4140000  95.8960000  76.5330000  18.0150000
  96.6610000  79.0060000  18.1240000  99.6110000  75.4030000  21.8700000
 100.6500000  76.0500000  22.4280000 100.6900000  77.1670000  22.8960000
 101.8170000  75.1680000  22.6160000 102.6720000  75.7370000  22.2270000
 101.7120000  74.2070000  21.9330000 102.1150000  74.7820000  24.0780000
 101.2610000  74.2120000  24.5040000 102.2430000  75.7010000  24.6800000
 103.4450000  74.0160000  24.1830000 104.2220000  74.5680000  23.6590000
 103.3830000  73.0630000  23.7200000 104.0570000  73.8910000  25.5860000
 104.3280000  74.8660000  25.9200000 104.9900000  73.3050000  25.6080000
 103.1640000  73.1630000  26.6970000 103.0070000  72.1450000  26.4370000
 102.1130000  73.5190000  26.6180000 103.9630000  73.3460000  28.1080000
 103.8090000  74.4110000  28.2540000 105.0030000  73.1650000  28.0050000
 103.3830000  72.5320000  29.2000000 103.2910000  71.5130000  28.9050000
 102.3720000  72.8120000  29.4430000 104.1770000  72.6710000  30.4910000
 105.1670000  73.1720000  30.3790000 103.8550000  72.0190000  31.5910000
 104.5790000  72.0110000  32.4810000 102.4610000  71.4060000  31.7670000
 101.7220000  71.9970000  31.2270000 102.1280000  71.3310000  32.8120000
 102.3910000  69.9240000  31.3420000 102.2970000  69.8030000  30.2300000
 101.4430000  69.5410000  31.7610000 103.4930000  68.9790000  31.9080000
 103.7530000  69.3660000  32.9050000 104.3880000  69.2160000  31.3550000
 103.1060000  67.5180000  31.6900000 103.0680000  67.2060000  30.6380000
 102.0840000  67.3450000  32.0560000 104.0920000  66.6380000  32.4960000
 103.9180000  66.8510000  33.5510000 105.0790000  66.8790000  32.1530000
 103.7450000  65.1770000  32.1940000 104.3040000  64.6630000  32.9570000
 104.1240000  64.9200000  31.2210000 102.2370000  64.6660000  32.4000000
 101.7540000  65.2160000  33.2340000 102.2870000  63.6300000  32.6130000
 101.3650000  64.7030000  31.1600000 101.7110000  63.9490000  30.3990000
 101.1930000  65.7010000  30.8410000 100.3350000  64.3410000  31.3890000
 145.6400000  51.8580000  30.6240000 145.0880000  52.2080000  29.7090000
 145.3610000  50.7920000  30.8460000 146.6840000  51.8610000  30.3480000
 145.3010000  52.7010000  31.8450000 144.2450000  52.5860000  31.9930000
 145.8700000  52.3130000  32.6410000 145.6980000  54.1860000  31.7280000
 146.7990000  54.3170000  31.8740000 145.4710000  54.5720000  30.7510000
 145.1050000  55.1940000  32.7620000 144.0790000  54.8610000  32.9460000
 145.6880000  55.1320000  33.7520000 145.1400000  56.6570000  32.3940000
 144.7920000  57.2660000  33.2370000 146.1830000  56.8690000  32.2620000
 144.2980000  57.0340000  31.1250000 144.6290000  56.5080000  30.2300000
 143.2220000  56.9500000  31.2620000 144.4360000  58.5280000  30.7050000
 144.4760000  59.2410000  31.5810000 145.4040000  58.6940000  30.0730000
 143.2510000  59.0810000  29.8650000 142.3550000  58.9660000  30.4370000
 143.4680000  60.1310000  29.7580000 143.0070000  58.5280000  28.5000000
 143.8660000  58.7850000  27.8950000 142.8700000  57.4180000  28.4950000
 141.8080000  59.0900000  27.6750000 142.0530000  60.1730000  27.5770000
 141.8340000  58.5930000  26.6420000 140.4310000  59.0110000  28.2670000
 140.2450000  57.9310000  28.5320000 140.2910000  59.6570000  29.1660000
 139.2280000  59.3690000  27.3430000 139.0670000  58.5940000  26.5780000
 138.3710000  59.5390000  27.9210000 139.5110000  60.7240000  26.6230000
 139.3710000  61.4450000  27.3770000 140.5650000  60.8160000  26.2470000
 138.4910000  60.9720000  25.4760000 137.5130000  60.8280000  25.8700000
 138.5080000  61.9680000  25.2870000 138.7870000  60.2030000  24.1650000
 139.7910000  59.8220000  23.9900000 138.1140000  59.4210000  24.0320000
 138.5430000  60.9890000  22.9300000 137.6590000  60.7590000  22.1730000
 139.3780000  62.0350000  22.7640000 139.3270000  62.7400000  21.4950000
 140.3450000  62.8980000  21.1370000 138.8660000  62.1450000  20.7330000
 138.6790000  64.1680000  21.5280000 137.6300000  64.1550000  21.7980000
 138.7890000  64.8200000  20.0640000 139.6860000  64.5540000  19.6420000
 138.0360000  64.4700000  19.3660000 138.6580000  66.2470000  20.0940000
 139.7950000  67.3140000  19.6730000 140.8650000  67.2430000  20.8330000
 142.0310000  66.4320000  20.7660000 142.3500000  66.1980000  21.8500000
 141.8090000  65.4940000  20.1460000 143.0260000  67.3360000  19.9420000
 143.9320000  66.8150000  19.6160000 142.4910000  67.5840000  19.0660000
 143.5550000  68.6660000  20.4770000 142.5560000  69.5390000  21.2160000
 142.1310000  69.0420000  22.0940000 143.0100000  70.4950000  21.4700000
 141.6650000  69.6620000  20.4650000 144.6990000  68.4220000  21.4870000
 144.9850000  69.3530000  21.9890000 144.2900000  67.7840000  22.2670000
 145.5240000  67.9080000  21.0770000 144.1700000  69.3500000  19.2720000
 144.6760000  68.6460000  18.5700000 144.8570000  70.1090000  19.6550000
 143.2670000  69.7910000  18.8120000 140.4150000  66.7990000  18.4520000
 139.1700000  68.6380000  19.6620000 139.4310000  64.8930000  22.5570000
 138.8450000  65.8270000  23.2530000 137.6620000  66.0820000  23.2890000
 139.8080000  66.3520000  24.2790000 139.6890000  67.3430000  24.3030000
 140.8530000  66.0660000  23.9950000 139.6350000  65.7190000  25.5820000
 139.7470000  64.6510000  25.4040000 138.6260000  65.9320000  26.0460000
 140.6560000  66.2200000  26.6350000 140.2850000  67.1710000  27.0610000
 141.5670000  66.5170000  26.1060000 140.9450000  65.1990000  27.7630000
 141.7370000  65.5310000  28.5200000 141.2770000  64.2720000  27.3210000
 139.6520000  65.0620000  28.6010000 138.7880000  64.8870000  27.8930000
 139.4900000  66.0090000  29.0950000 139.6770000  64.0520000  29.7640000
 140.1050000  63.0890000  29.4540000 138.6620000  63.7280000  30.0690000
 140.4700000  64.6340000  30.9920000 140.1070000  65.5900000  31.2890000
 141.4850000  64.8430000  30.8870000 140.2950000  63.6680000  32.1020000
 139.4200000  63.9410000  32.7710000 141.0700000  62.6540000  32.3740000
 140.8520000  62.0720000  33.2120000 142.2610000  62.2690000  31.5440000
 142.4320000  63.0470000  30.7540000 142.0470000  61.3150000  31.0080000
 143.4920000  62.0680000  32.4070000 144.3240000  61.5840000  31.8440000
 143.3370000  61.4090000  33.2390000 144.0590000  63.4160000  32.8810000
 143.3870000  63.9190000  33.6040000 143.9630000  64.0760000  31.9820000
 145.5230000  63.4300000  33.4450000 146.1140000  62.9690000  32.6320000
 145.6440000  62.8000000  34.2670000 146.0750000  64.8730000  33.7520000
 146.0880000  65.5290000  32.8840000 147.1370000  64.6880000  33.9770000
 145.4480000  65.5570000  34.9030000 145.5350000  64.8590000  35.6950000
 144.4040000  65.5400000  34.5710000 145.8250000  67.0390000  35.1160000
 145.7620000  67.5300000  34.1390000 146.8590000  67.2100000  35.4410000
 144.8960000  67.7020000  36.0680000 144.0070000  67.9100000  35.5830000
 145.3280000  68.6260000  36.4650000 144.7200000  67.0940000  36.9720000
  38.6240000  79.7190000  39.9250000  37.9500000  78.9380000  39.8230000
  39.3340000  79.3360000  40.5770000  39.0050000  79.9450000  38.9480000
  37.9820000  80.9950000  40.5710000  38.7190000  81.8050000  40.6750000
  37.1730000  81.3750000  39.9410000  37.5200000  80.6470000  42.0150000
  36.8320000  79.7700000  41.9770000  38.4500000  80.2820000  42.4740000
  36.9610000  81.8640000  42.7830000  37.3820000  82.8240000  42.5000000
  35.9010000  81.9270000  42.5210000  36.9750000  81.6460000  44.2900000
  36.1600000  82.1710000  44.7780000  36.7070000  80.5970000  44.5130000
  38.3380000  81.8690000  45.0090000  39.0770000  81.2790000  44.6110000
  38.6100000  82.9010000  44.9420000  38.1620000  81.6020000  46.4790000
  37.4200000  82.3100000  46.9340000  37.8610000  80.5580000  46.6500000
  39.4140000  81.6960000  47.3040000  40.1400000  81.0180000  46.9780000
  39.7660000  82.7220000  47.1490000  39.1440000  81.3880000  48.7890000
  38.5630000  82.2180000  49.2430000  38.5250000  80.5450000  48.8720000
  40.3110000  80.9690000  49.7410000  40.8960000  81.8660000  49.9370000
  39.8120000  80.7620000  50.6830000  41.2660000  79.8080000  49.3260000
  42.1760000  80.1000000  48.7140000  41.8350000  79.5430000  50.2660000
  40.5490000  78.4830000  48.8350000  39.8840000  78.1400000  49.5470000
  39.9910000  78.6100000  47.9780000  41.4570000  77.2450000  48.5130000
  42.2450000  77.6110000  47.8740000  41.8630000  76.8360000  49.4400000
  40.6710000  76.1130000  47.7900000  40.1550000  76.4580000  46.9080000
  41.3870000  75.3320000  47.4880000  39.6470000  75.3970000  48.7080000
  38.9270000  76.1220000  49.0410000  39.1230000  74.6930000  48.1150000
  40.1900000  74.6390000  49.9240000  41.2880000  74.0850000  49.9250000
  39.3260000  74.7120000  50.9680000  39.6690000  74.0440000  52.2000000
  38.7660000  73.8390000  52.8360000  40.1440000  73.0510000  52.0260000
  40.6140000  75.0200000  52.9890000  41.5460000  75.2330000  52.4340000
  40.9380000  74.3230000  54.3170000  40.0750000  74.4450000  55.0260000
  40.8070000  73.2260000  54.1830000  42.2520000  74.7560000  54.8120000
  43.5580000  73.9520000  54.6520000  43.7700000  73.1650000  55.9890000
  42.9450000  72.1040000  56.3760000  42.6310000  71.5930000  55.5170000
  43.5620000  71.5050000  57.0600000  41.6850000  72.6570000  57.1670000
  41.9760000  72.9300000  58.1660000  41.3730000  73.5350000  56.7210000
  40.4810000  71.7360000  57.2960000  40.3440000  70.7660000  56.2170000
  39.5480000  70.0880000  56.5100000  39.8820000  71.0790000  55.3170000
  41.2630000  70.2330000  56.0850000  40.5400000  70.9840000  58.5860000
  40.4200000  71.7400000  59.4390000  39.6330000  70.4050000  58.6500000
  41.4810000  70.4140000  58.6240000  39.2220000  72.5990000  57.3940000
  38.3580000  72.0490000  57.6950000  39.1130000  73.1190000  56.4100000
  39.3770000  73.4270000  58.0930000  43.2670000  73.0120000  53.5680000
  44.6280000  74.9520000  54.6000000  39.8850000  76.2070000  53.2570000
  40.0660000  77.3690000  52.6270000  40.6020000  77.4590000  51.5830000
  39.6420000  78.6240000  53.4580000  39.4320000  78.4650000  54.4690000
  38.7710000  78.9410000  52.9730000  40.8850000  79.6480000  53.3560000
  40.9810000  79.9680000  52.3260000  41.7530000  79.1310000  53.6920000
  40.6730000  80.9700000  54.2220000  40.3400000  80.6180000  55.2720000
  39.8780000  81.5020000  53.7860000  41.9400000  81.9210000  54.3440000
  42.8120000  81.3840000  54.7240000  41.7660000  82.7930000  55.0110000
  42.3210000  82.5950000  52.9700000  42.8660000  83.4930000  53.3160000
  41.4200000  83.1250000  52.5880000  43.1950000  81.7240000  51.9970000
  42.5130000  81.0720000  51.3760000  43.8000000  81.0290000  52.6130000
  44.0850000  82.4650000  51.0300000  44.7320000  83.1990000  51.5470000
  43.4940000  83.0110000  50.2640000  44.9770000  81.4370000  50.3190000
  45.5260000  80.8270000  51.0930000  45.0660000  81.1740000  49.0360000
  45.7880000  80.4830000  48.6390000  44.3140000  81.8480000  47.9090000
  44.9000000  82.7150000  47.5590000  43.3710000  82.1970000  48.3520000
  44.1810000  80.8480000  46.7310000  43.8010000  79.8700000  47.1260000
  45.1640000  80.6370000  46.4020000  43.4500000  81.3860000  45.5470000
  43.7980000  82.3520000  45.3180000  42.4700000  81.5460000  45.8010000
  43.5150000  80.5440000  44.2550000  44.5350000  80.1530000  44.2360000
  43.2360000  81.1270000  43.3330000  42.5930000  79.3070000  44.2690000
  41.5830000  79.5660000  44.4340000  42.9190000  78.7420000  45.1440000
  42.7710000  78.5960000  42.9120000  42.1030000  77.7510000  42.8780000
  43.8210000  78.2680000  42.8060000  42.4500000  79.4010000  41.6290000
  43.1510000  80.2120000  41.5630000  41.5140000  79.9020000  41.6610000
  42.4120000  78.5180000  40.3280000  42.0660000  79.2210000  39.5390000
  41.6010000  77.7560000  40.4160000  43.3670000  78.0360000  40.0380000
  75.6140000 141.9490000  37.4520000  74.7980000 142.6220000  37.6740000
  75.4560000 141.1420000  36.6370000  76.3680000 142.6440000  37.0280000
  76.1220000 141.3090000  38.7310000  75.4890000 140.4660000  39.1360000
  77.1460000 140.9640000  38.5650000  76.1140000 142.2590000  39.9650000
  76.4790000 143.1870000  39.7190000  75.0900000 142.4920000  40.3290000
  76.7720000 141.7720000  41.2320000  76.7120000 142.6130000  41.8590000
  76.1130000 141.0550000  41.6900000  78.2410000 141.3730000  41.0770000
  78.3000000 140.6170000  40.2400000  78.7870000 142.2900000  40.8760000
  78.8260000 140.9380000  42.4640000  78.7310000 141.6350000  43.2160000
  78.3460000 140.0530000  42.7230000  80.3020000 140.5650000  42.2670000
  80.5340000 140.0470000  41.3360000  80.8520000 141.4680000  42.0670000
  80.9290000 139.8440000  43.4310000  80.4620000 138.8920000  43.5760000
  81.9770000 139.5840000  43.0890000  81.0010000 140.6080000  44.7540000
  81.5770000 141.5400000  44.6290000  79.9420000 140.8140000  45.0710000
  81.6660000 139.9040000  45.9560000  82.7450000 140.1240000  45.8220000
  81.4370000 140.3780000  46.9050000  81.3710000 138.3610000  46.0480000
  81.5290000 137.8740000  45.0600000  81.8930000 137.8960000  46.8680000
  79.9540000 138.1720000  46.5760000  79.7140000 138.8620000  47.3180000
  79.1510000 138.3270000  45.7840000  79.8000000 136.7210000  47.0860000
  79.9440000 136.0260000  46.2440000  80.6040000 136.3820000  47.7750000
  78.4440000 136.3600000  47.7310000  77.5730000 136.6100000  47.1040000
  78.3520000 135.3380000  47.9550000  78.2860000 137.1370000  49.0590000
  79.0600000 136.8640000  49.7540000  78.4060000 138.1870000  48.7570000
  76.9490000 136.8510000  49.6800000  76.2100000 137.7460000  49.9910000
  76.7060000 135.5630000  49.9140000  75.5800000 135.2570000  50.8620000
  75.4310000 136.0520000  51.5820000  74.6850000 135.1870000  50.2750000
  75.9180000 134.0180000  51.6240000  75.9780000 133.3390000  50.8210000
  74.7500000 133.7820000  52.5770000  73.8700000 133.7990000  51.9670000
  74.8240000 132.7540000  53.0700000  74.6250000 134.7830000  53.6620000
  74.9560000 134.3660000  55.1460000  75.5690000 135.7010000  55.7000000
  76.9690000 135.7470000  56.0270000  77.0940000 136.5800000  56.7480000
  77.3050000 134.8720000  56.5830000  77.8510000 136.0020000  54.8520000
  78.9590000 135.7590000  55.0340000  77.4370000 135.3620000  54.0980000
  77.7460000 137.2760000  53.9870000  78.4470000 137.1150000  52.6610000
  79.5050000 136.8790000  52.7040000  78.0070000 136.3390000  52.0500000
  78.2460000 138.0170000  52.1770000  76.2720000 137.6440000  53.7750000
  75.9840000 138.1370000  54.7220000  76.2250000 138.4700000  53.0150000
  75.6190000 136.8210000  53.3940000  78.4150000 138.4190000  54.6740000
  79.4690000 138.3020000  54.6710000  78.0890000 138.4890000  55.6760000
  78.1210000 139.3610000  54.1630000  73.6550000 134.0480000  55.7970000
  75.9720000 133.3020000  55.1040000  77.1900000 134.1410000  52.2960000
  77.8440000 132.9960000  52.4520000  77.4220000 131.8250000  52.1690000
  79.1990000 133.2460000  53.0180000  79.0720000 133.3260000  54.1050000
  79.5550000 134.1380000  52.4890000  80.1720000 132.1090000  52.7190000
  79.7470000 131.1560000  52.7870000  80.9070000 132.1590000  53.4590000
  80.8460000 132.3860000  51.4150000  81.4840000 131.4970000  51.2500000
  81.4730000 133.2960000  51.5600000  80.0360000 132.4400000  50.0890000
  79.3530000 133.2710000  50.1020000  79.3420000 131.6260000  50.0080000
  80.8900000 132.5880000  48.8130000  81.5070000 131.6930000  48.8030000
  81.3380000 133.5390000  48.7500000  79.9580000 132.5880000  47.6310000
  79.0780000 133.2980000  47.7450000  79.4800000 131.6350000  47.5030000
  80.7140000 132.9570000  46.3210000  81.5740000 132.3680000  46.1280000
  80.9720000 133.9730000  46.4810000  79.8190000 132.8160000  45.1880000
  78.9920000 132.0190000  45.2350000  79.8630000 133.5470000  44.0520000
  79.1600000 133.3690000  43.2890000  80.9250000 134.5450000  43.6750000
  81.6930000 134.3870000  44.4000000  80.5360000 135.5740000  43.8350000
  81.4000000 134.2740000  42.2340000  80.6030000 134.4400000  41.5390000
  81.8970000 133.3180000  42.1320000  82.4510000 135.2770000  41.7200000
  83.3230000 135.2840000  42.3390000  82.0940000 136.3400000  41.8490000
  82.8900000 134.7790000  40.3520000  82.0030000 134.6710000  39.6920000
  83.3120000 133.8030000  40.5040000  83.9300000 135.7540000  39.6910000
  84.7430000 135.9190000  40.4280000  83.4800000 136.7160000  39.5200000
  84.6070000 135.2800000  38.4120000  83.8020000 135.2190000  37.6150000
  84.9010000 134.3050000  38.4230000  85.7860000 136.1960000  38.0510000
  86.6090000 136.1400000  38.8200000  85.4330000 137.2250000  37.9760000
  86.3070000 135.7330000  36.6820000  85.5550000 135.7890000  35.9020000
  86.6060000 134.6590000  36.8340000  87.0950000 136.3610000  36.3450000
 135.9650000  29.0120000  38.0910000 136.2460000  30.0270000  37.8530000
 136.8670000  28.3830000  38.1930000 135.4770000  29.0600000  39.0430000
 135.0750000  28.4210000  37.0340000 135.7650000  28.2400000  36.1630000
 134.6410000  27.5450000  37.4260000 134.0530000  29.4520000  36.6650000
 133.4940000  29.6300000  37.6350000 134.4160000  30.3540000  36.2530000
 133.0180000  28.7730000  35.7120000 132.3610000  29.5580000  35.3920000
 133.5270000  28.3730000  34.8410000 132.1700000  27.6650000  36.2830000
 132.1490000  27.8590000  37.3120000 131.1180000  27.6550000  35.9910000
 132.6530000  26.1880000  36.0080000 132.8260000  26.0930000  34.9670000
 133.5200000  26.0670000  36.6000000 131.7620000  25.0920000  36.4870000
 130.8200000  25.3330000  35.9890000 132.0710000  24.1120000  36.1720000
 131.4010000  25.1060000  37.9750000 131.1960000  26.1690000  38.2820000
 130.5550000  24.4810000  38.1590000 132.4750000  24.4230000  38.8610000
 132.1960000  23.3780000  39.0530000 133.4700000  24.5840000  38.4480000
 132.4010000  25.0650000  40.2770000 131.3880000  25.1150000  40.6610000
 132.9790000  24.4520000  40.9410000 133.0250000  26.5310000  40.2140000
 134.0890000  26.4860000  39.9890000 132.6770000  27.1560000  39.3510000
 132.8680000  27.3620000  41.4950000 131.8220000  27.2840000  41.8220000
 133.2760000  26.8330000  42.3600000 133.4190000  28.8180000  41.4440000
 133.1370000  29.2130000  40.4740000 132.9330000  29.4730000  42.2310000
 134.9730000  28.7850000  41.7180000 135.4650000  27.9350000  41.2650000
 135.2930000  29.6570000  41.1910000 135.4160000  28.8830000  43.2260000
 134.8590000  29.6640000  43.7880000 135.0440000  27.9440000  43.6690000
 136.8730000  29.0890000  43.5300000 137.6840000  29.3800000  42.6620000
 137.0830000  29.0980000  44.8370000 138.3850000  29.6920000  45.2250000
 138.4990000  29.4840000  46.2890000 139.1600000  29.1770000  44.6850000
 138.4510000  31.2120000  45.0490000 139.0970000  31.4740000  44.2210000
 139.2170000  31.9280000  46.2300000 140.0620000  31.2450000  46.5230000
 139.6810000  32.8850000  45.8860000 138.3420000  32.3020000  47.3720000
 138.1540000  31.2450000  48.5400000 137.1720000  30.1060000  47.9460000
 135.7370000  30.2180000  47.9790000 135.3150000  30.2120000  49.0110000
 135.4430000  31.1730000  47.5360000 135.1520000  29.0990000  47.0990000
 134.0910000  29.1830000  47.0220000 135.5290000  29.1980000  46.0890000
 135.3680000  27.6470000  47.4920000 136.7870000  27.2570000  47.5000000
 137.3180000  28.0230000  48.0790000 136.8500000  26.2850000  48.0340000
 137.1250000  27.2480000  46.4430000 134.9430000  27.4120000  48.9190000
 133.9550000  27.7270000  49.0220000 135.0090000  26.3290000  49.0970000
 135.6320000  28.0030000  49.5450000 134.5140000  26.6500000  46.7430000
 134.7490000  25.6980000  47.1180000 134.8890000  26.6670000  45.7040000
 133.4330000  26.7400000  46.9480000 139.4120000  30.5270000  48.8780000
 137.4090000  32.0100000  49.5590000 137.1400000  31.7250000  44.8030000
 137.0380000  32.8490000  44.1460000 137.9810000  33.5250000  43.7760000
 135.6290000  33.0990000  43.7500000 135.3670000  34.1320000  43.9600000
 134.9110000  32.5440000  44.3650000 135.3760000  32.8200000  42.3620000
 135.5910000  31.7530000  42.1930000 135.9850000  33.3870000  41.7230000
 133.9490000  33.0260000  41.9900000 133.5750000  34.0610000  41.9720000
 133.2820000  32.4340000  42.5880000 133.8780000  32.6150000  40.5720000
 134.1430000  31.5630000  40.4290000 134.5200000  33.3160000  40.0610000
 132.4270000  32.7500000  40.0710000 132.0360000  33.6090000  40.5650000
 131.8490000  31.8200000  40.2950000 132.4030000  32.9580000  38.5300000
 132.8190000  32.1030000  38.0740000 132.8330000  33.9460000  38.3370000
 131.0070000  33.1410000  38.0420000 130.7120000  34.1430000  38.1630000
 130.3940000  32.5240000  38.6870000 130.8390000  32.9110000  36.5030000
 131.1210000  33.7160000  35.7400000 130.1910000  31.8440000  36.0100000
 129.9910000  31.8110000  35.0010000 129.6190000  30.6580000  36.7760000
 129.7230000  30.7640000  37.8790000 130.1490000  29.7150000  36.5480000
 128.1570000  30.4560000  36.3490000 127.5910000  31.3760000  36.5920000
 127.6840000  29.6910000  37.0200000 127.8860000  30.0990000  34.9010000
 128.3100000  30.7980000  34.2340000 126.8090000  30.3340000  34.7320000
 128.0550000  28.5860000  34.6380000 127.3370000  27.9540000  35.1530000
 128.9200000  28.1840000  35.0910000 128.1440000  28.1340000  33.1210000
 127.1800000  28.2480000  32.7040000 128.2350000  27.0390000  32.9700000
 129.2180000  28.8450000  32.3850000 129.1670000  29.8930000  32.6160000
 129.0490000  28.6850000  31.2860000 130.6340000  28.4610000  32.8430000
 130.7330000  27.4220000  32.9310000 130.8460000  28.9500000  33.8090000
 131.7110000  28.7980000  31.7780000 131.8690000  29.8840000  31.7070000
 131.3200000  28.4910000  30.7780000 132.6910000  28.4320000  31.9900000
 143.5720000   3.5720000  32.0550000 144.2670000   2.7570000  32.3690000
 143.8880000   4.4950000  32.4150000 143.6070000   3.7270000  30.9970000
 142.1060000   3.2310000  32.5270000 141.5290000   4.1010000  32.1150000
 141.7920000   2.3240000  31.9610000 141.8180000   3.1390000  34.0310000
 142.5760000   2.5680000  34.4910000 141.8910000   4.0950000  34.6010000
 140.4550000   2.4880000  34.3920000 139.7210000   2.8680000  33.7100000
 140.5230000   1.4070000  34.0780000 140.0560000   2.6260000  35.8200000
 140.6800000   2.0010000  36.4960000 140.1670000   3.6340000  36.1020000
 138.6060000   2.1130000  36.0430000 138.4090000   1.1570000  35.4510000
 138.4290000   1.9580000  37.1420000 137.6410000   3.2910000  35.7950000
 137.9050000   4.2330000  36.3060000 137.8140000   3.6020000  34.7540000
 136.1280000   3.1040000  36.0160000 135.4690000   3.5760000  35.2780000
 135.8350000   2.0620000  35.8810000 135.6190000   3.4470000  37.4190000
 136.1140000   4.3940000  37.6720000 134.5270000   3.5840000  37.3630000
 135.9130000   2.4610000  38.6070000 135.3330000   1.5360000  38.5790000
 136.9710000   2.3360000  38.6380000 135.5970000   3.0020000  39.9840000
 134.4690000   3.1870000  40.0870000 135.7070000   2.3060000  40.8280000
 136.4300000   4.2330000  40.2700000 137.5480000   3.9140000  40.2510000
 136.4470000   5.0070000  39.5160000 136.1340000   4.9180000  41.6430000
 135.0940000   5.1630000  41.5860000 136.2300000   4.2160000  42.4740000
 136.9770000   6.1150000  41.9150000 138.0160000   5.8130000  42.1390000
 137.0150000   6.8270000  41.1050000 136.3960000   6.9070000  43.1480000
 135.2780000   6.9650000  42.9470000 136.4810000   6.3100000  44.0460000
 136.9690000   8.3020000  43.2560000 136.5620000   9.1910000  42.6050000
 137.9240000   8.3840000  44.1800000 138.2200000   9.7220000  44.6490000
 139.2370000   9.6290000  44.9670000 138.0100000  10.5380000  43.8770000
 137.4660000  10.2940000  45.8880000 136.4170000  10.4460000  45.6080000
 138.0670000  11.6870000  46.3160000 137.8860000  12.5190000  45.6190000
 137.5590000  11.8720000  47.2180000 139.4580000  11.6150000  46.7420000
 139.8560000  12.1380000  48.2390000 141.4630000  12.3460000  48.1380000
 141.9690000  13.6650000  47.8610000 142.8540000  13.5650000  47.2380000
 141.2230000  14.0950000  47.2150000 142.0460000  14.4750000  49.1690000
 142.1570000  15.5050000  49.1180000 141.0550000  14.3930000  49.6530000
 142.9270000  13.8820000  50.2660000 144.2440000  13.4630000  49.7610000
 144.8170000  13.3410000  50.6590000 144.1860000  12.5530000  49.2730000
 144.6840000  14.2220000  49.0490000 143.2060000  14.8940000  51.2880000
 143.8360000  14.5260000  52.0490000 143.7450000  15.7090000  50.8430000
 142.3450000  15.2740000  51.8080000 142.1960000  12.8170000  51.0210000
 141.3970000  13.3050000  51.6340000 142.8200000  12.1600000  51.6500000
 141.7330000  12.0930000  50.2620000 139.2760000  13.4720000  48.3800000
 139.5920000  11.1500000  49.3370000 137.6050000   9.4260000  47.0870000
 136.7660000   9.5580000  48.1060000 135.6900000  10.1370000  48.0750000
 137.3810000   8.8770000  49.3430000 137.1840000   9.4830000  50.1950000
 138.4500000   8.8930000  49.3150000 136.7600000   7.5680000  49.6450000
 135.7410000   7.7690000  50.0430000 137.4660000   7.1490000  50.3450000
 136.7310000   6.5990000  48.4700000 136.0680000   7.0370000  47.7030000
 136.2290000   5.7430000  48.9050000 138.1250000   6.2640000  47.9080000
 138.7660000   6.1100000  48.7210000 138.4230000   7.1670000  47.4710000
 138.2580000   5.1490000  46.8970000 137.6960000   5.3220000  45.9520000
 137.7340000   4.3170000  47.3320000 139.7380000   4.7960000  46.7660000
 140.1950000   4.9890000  47.6960000 140.1830000   5.4830000  46.1380000
 140.1010000   3.3560000  46.2030000 139.4670000   3.1580000  45.4040000
 139.7600000   2.6950000  46.9400000 141.5150000   3.1620000  45.7240000
 142.3120000   3.1810000  46.5200000 141.8760000   3.0940000  44.4310000
 142.9410000   3.0100000  44.2680000 141.0060000   3.2810000  43.1850000
 139.9980000   3.7780000  43.4180000 140.9300000   2.2650000  42.7880000
 141.8260000   4.1540000  42.2180000 142.7320000   3.7630000  41.9990000
 142.0290000   5.0650000  42.6860000 141.0180000   4.2860000  40.9040000
 139.9890000   4.6220000  41.0850000 140.9390000   3.3080000  40.4460000
 141.6840000   5.1940000  39.8680000 141.9730000   6.1320000  40.2150000
 140.8460000   5.4360000  39.2630000 142.7110000   4.3890000  39.0680000
 142.1310000   3.6580000  38.5920000 143.4360000   3.9300000  39.7480000
 143.4160000   5.2350000  38.0150000 143.7600000   6.1010000  38.6430000
 142.7750000   5.8020000  37.3560000 144.5970000   4.6600000  37.1220000
 144.2280000   3.7540000  36.6110000 145.4290000   4.3820000  37.7260000
 144.7830000   5.7130000  35.9620000 144.7830000   6.7320000  36.2590000
 144.0260000   5.5580000  35.2510000 145.6960000   5.5860000  35.5020000
 106.4840000 103.8740000  34.9490000 107.1410000 104.6730000  35.1810000
 106.3400000 103.9360000  33.8590000 106.8310000 102.9450000  35.2450000
 105.1210000 104.0490000  35.6490000 104.3700000 103.2960000  35.2620000
 105.2550000 103.8030000  36.7170000 104.7200000 105.4690000  35.4770000
 105.5080000 106.1270000  35.7770000 104.5320000 105.6510000  34.4280000
 103.4100000 105.7330000  36.2010000 102.6070000 105.0950000  35.8990000
 103.6110000 105.6960000  37.2300000 102.9560000 107.1660000  35.9170000
 103.8570000 107.8090000  36.0050000 102.7000000 107.2550000  34.7990000
 101.7490000 107.6610000  36.7430000 102.0980000 107.6040000  37.7690000
 101.6230000 108.7350000  36.5590000 100.4600000 106.9290000  36.5840000
 100.0960000 107.0070000  35.5650000 100.6510000 105.8680000  36.7680000
  99.3720000 107.4280000  37.5330000  99.1750000 108.4580000  37.4750000
  98.4580000 106.9260000  37.2810000  99.6700000 107.1900000  39.0180000
 100.0390000 106.1320000  39.0970000 100.5190000 107.8170000  39.2500000
  98.3810000 107.5710000  39.7870000  98.2320000 108.6100000  39.4810000
  97.4820000 106.9460000  39.4200000  98.5900000 107.5120000  41.3150000
  99.4860000 107.8980000  41.7170000  97.7660000 108.0470000  41.8030000
  98.4140000 106.0650000  41.7740000  97.4420000 105.7440000  41.4470000
  99.1510000 105.3980000  41.3630000  98.4890000 105.9940000  43.3230000
  99.5490000 106.0710000  43.6160000  97.8860000 106.7760000  43.7710000
  97.9300000 104.6220000  43.8790000  96.9490000 104.3450000  43.5440000
  98.6050000 103.8450000  43.5220000  97.8940000 104.5660000  45.3430000
  98.8640000 104.8990000  45.6820000  97.1640000 105.2320000  45.7920000
  97.6360000 103.2110000  45.9850000  97.8250000 102.1570000  45.3660000
  97.2050000 103.3150000  47.2050000  97.6100000 102.2110000  48.0540000
  96.8770000 102.2430000  48.8490000  97.7250000 101.2600000  47.5020000
  99.0700000 102.4160000  48.6550000  99.3040000 101.5750000  49.3410000
  99.0910000 103.6600000  49.5400000  98.9210000 104.5720000  49.0600000
  98.3410000 103.6150000  50.2720000 100.3530000 103.5910000  50.2070000
 100.7220000 104.6440000  51.3560000 101.4990000 105.7420000  50.5430000
 102.8640000 105.9770000  50.4960000 103.3950000 105.0150000  50.3510000
 103.0940000 106.5880000  49.6300000 103.2470000 106.7710000  51.7930000
 102.6660000 107.7380000  51.8510000 102.8160000 106.2050000  52.6710000
 104.6950000 107.1440000  52.0050000 105.4030000 105.8370000  52.2590000
 104.9730000 105.3780000  53.1340000 105.4140000 105.2270000  51.3600000
 106.4400000 106.1340000  52.4320000 105.2980000 107.7670000  50.8640000
 106.1770000 108.3370000  51.1730000 105.7390000 106.9550000  50.2490000
 104.5810000 108.4330000  50.3650000 104.7510000 108.1420000  53.0650000
 104.2750000 107.8820000  54.0090000 104.1020000 108.9320000  52.6560000
 105.8020000 108.5260000  53.1140000  99.5070000 105.1840000  51.9190000
 101.7290000 104.1270000  52.2780000  99.9960000 102.6100000  47.5520000
 101.0640000 101.8470000  47.4180000 101.2980000 100.9270000  48.2060000
 101.8210000 102.2080000  46.1630000 102.6700000 102.8950000  46.5000000
 101.1890000 102.8240000  45.5710000 102.3710000 100.9700000  45.4360000
 101.4970000 100.3710000  45.2280000 103.0280000 100.4070000  46.0810000
 102.9990000 101.3920000  44.1310000 103.8700000 101.9640000  44.3430000
 102.3830000 102.1120000  43.5510000 103.4360000 100.1960000  43.1920000
 104.2420000  99.6180000  43.7620000 103.9420000 100.5650000  42.2810000
 102.4530000  99.1620000  42.6670000 101.4860000  99.7260000  42.4620000
 102.1440000  98.5710000  43.5010000 102.8900000  98.3320000  41.4450000
 102.3680000  97.3650000  41.3100000 103.9300000  98.1020000  41.6670000
 102.8420000  99.2260000  40.1960000 103.3120000 100.1840000  40.3130000
 101.8630000  99.4320000  39.8590000 103.5340000  98.4850000  39.0930000
 103.0110000  97.5470000  38.8010000 104.5700000  98.9560000  38.4550000
 105.0450000  98.4020000  37.6070000 105.3230000 100.1500000  38.8190000
 104.7780000 101.0110000  39.2610000 105.7840000 100.5860000  37.9350000
 106.5140000  99.6520000  39.7450000 107.1780000  99.0420000  39.1460000
 106.0670000  99.0140000  40.5290000 107.2070000 100.9270000  40.3210000
 107.4350000 101.6510000  39.5880000 108.1530000 100.4550000  40.7800000
 106.3770000 101.6880000  41.3740000 105.8700000 101.0070000  42.0780000
 105.7160000 102.3410000  40.7870000 107.2950000 102.6100000  42.1360000
 107.7890000 103.3380000  41.4920000 108.2340000 102.0890000  42.4280000
 106.5430000 103.2570000  43.2260000 105.9650000 102.5200000  43.8030000
 105.7180000 103.7640000  42.7340000 107.3590000 104.2920000  44.0540000
 107.7680000 105.1110000  43.4430000 108.1510000 103.8070000  44.5460000
 106.4860000 104.9880000  45.0310000 105.9570000 104.3400000  45.6760000
 105.6850000 105.4170000  44.4880000 107.0380000 105.7760000  45.5500000
  66.3470000 145.9620000  43.0880000  66.2760000 145.9150000  44.1740000
  65.4550000 145.4940000  42.7420000  66.4170000 146.9580000  42.6990000
  67.6950000 145.3420000  42.7860000  67.5470000 144.2860000  43.1560000
  67.8750000 145.2290000  41.6890000  68.8250000 145.9730000  43.5300000
  68.9340000 147.0400000  43.1970000  68.4420000 146.0410000  44.5480000
  70.1830000 145.2800000  43.5220000  70.2030000 144.4440000  44.1720000
  70.4170000 144.8580000  42.5670000  71.3150000 146.3280000  43.8210000
  71.1360000 147.1470000  43.1180000  71.2290000 146.5870000  44.8650000
  72.7460000 145.7480000  43.6800000  72.8740000 145.2430000  42.7100000
  73.3540000 146.6010000  43.7170000  73.2640000 144.7470000  44.7590000
  72.6510000 143.8560000  44.7650000  74.2320000 144.4040000  44.5750000
  73.3150000 145.2510000  46.2320000  72.3730000 145.6920000  46.5080000
  73.4990000 144.4890000  46.9490000  74.3350000 146.3820000  46.4350000
  75.3020000 145.9440000  46.3470000  74.2220000 147.2020000  45.6210000
  74.2790000 146.9590000  47.9110000  73.3210000 147.4650000  48.1230000
  74.3360000 146.0920000  48.5960000  75.2530000 148.1420000  48.1610000
  75.1390000 148.9670000  47.4050000  75.1110000 148.5320000  49.1670000
  76.6710000 147.6620000  48.1790000  76.7420000 146.7480000  48.7530000
  76.9230000 147.4750000  47.1770000  77.8240000 148.6980000  48.5490000
  78.3120000 149.1210000  47.6640000  77.4430000 149.4640000  49.1470000
  78.9480000 148.0390000  49.3620000  79.3710000 147.2550000  48.7200000
  79.6450000 148.8680000  49.5890000  78.4380000 147.3310000  50.6390000
  77.7730000 148.0030000  51.2850000  78.0090000 146.4050000  50.3220000
  79.5760000 146.9480000  51.6100000  79.4820000 146.0700000  52.4520000
  80.7020000 147.6700000  51.3010000  81.9100000 147.1420000  51.9180000
  82.5920000 147.9580000  51.8890000  81.6120000 146.8460000  52.8850000
  82.6750000 146.0490000  51.1320000  82.1410000 145.1190000  51.2260000
  84.1020000 145.9750000  51.6460000  84.8200000 145.5180000  50.8620000
  84.4350000 146.9680000  51.9490000  84.1490000 145.1460000  52.8270000
  84.3030000 143.5030000  52.7850000  82.8270000 143.0620000  52.2340000
  81.7850000 142.8070000  53.2080000  81.8910000 141.7990000  53.5590000
  82.0110000 143.5450000  54.0440000  80.3880000 143.0410000  52.6880000
  79.6780000 142.8660000  53.4970000  80.4020000 144.0710000  52.4660000
  79.7650000 142.3040000  51.5120000  78.7330000 143.2440000  50.9670000
  78.1270000 142.8010000  50.1600000  78.1230000 143.5340000  51.8060000
  79.1830000 144.1520000  50.7410000  80.7350000 141.9920000  50.3960000
  81.1980000 141.0410000  50.5810000  80.1830000 141.8910000  49.4780000
  81.4660000 142.8800000  50.4770000  79.1450000 140.9900000  51.9340000
  78.2520000 141.2990000  52.4750000  79.7920000 140.3770000  52.5140000
  78.7440000 140.5330000  51.0450000  85.3050000 143.1580000  51.7350000
  84.4430000 142.9010000  54.1200000  82.7200000 146.4640000  49.7840000
  82.0470000 145.8390000  48.8050000  81.2720000 144.9350000  49.0520000
  82.4280000 146.2850000  47.4380000  83.2780000 146.9700000  47.5670000
  81.6360000 146.8780000  46.9500000  82.8410000 145.1410000  46.5070000
  83.0430000 145.5950000  45.4970000  81.9700000 144.4560000  46.4590000
  84.0970000 144.4180000  46.9040000  84.1010000 144.3120000  47.9580000
  84.8720000 145.1150000  46.5260000  84.1770000 143.0600000  46.2330000
  83.2130000 142.5180000  46.3250000  84.8730000 142.4330000  46.7860000
  84.5790000 143.0400000  44.7130000  85.5420000 143.6230000  44.5460000
  83.8700000 143.4320000  44.0080000  84.8320000 141.5960000  44.1420000
  83.8480000 141.1380000  44.3150000  85.6710000 141.0590000  44.6340000
  85.1860000 141.6640000  42.6670000  85.9840000 142.4170000  42.4550000
  84.4210000 142.0780000  42.0630000  85.6370000 140.3350000  42.0210000
  86.5760000 139.9180000  42.3320000  84.9160000 139.6270000  41.1460000
  85.3280000 138.7090000  40.6500000  83.5720000 140.1090000  40.4570000
  83.0350000 140.9550000  40.9540000  82.8130000 139.3250000  40.4000000
  83.8680000 140.5480000  39.0220000  84.3870000 139.7190000  38.5550000
  84.5380000 141.4140000  39.0350000  82.4990000 140.8470000  38.3800000
  82.1950000 141.7370000  38.9510000  81.9070000 139.9670000  38.5010000
  82.6700000 141.2620000  36.8470000  83.1640000 140.3960000  36.4130000
  83.4160000 142.0840000  36.7270000  81.3850000 141.5950000  36.1400000
  81.5630000 141.4610000  35.1120000  81.1340000 142.6260000  36.3850000
  80.2230000 140.6470000  36.5120000  79.9770000 140.7050000  37.5250000
  80.4960000 139.6260000  36.3100000  78.9390000 141.0410000  35.7510000
  78.7400000 142.1220000  36.0140000  78.1160000 140.4000000  36.1570000
  78.9620000 140.7500000  34.2040000  77.9700000 140.8660000  33.7840000
  79.3340000 139.7090000  33.9750000  79.6690000 141.3780000  33.6590000
 127.1990000 127.7200000  40.7430000 126.8910000 127.3810000  41.7620000
 127.2350000 128.8280000  40.6190000 128.1530000 127.2470000  40.4690000
 126.1130000 127.3560000  39.7200000 125.1400000 127.6770000  40.0780000
 126.4180000 127.9130000  38.8300000 126.0200000 125.8420000  39.4070000
 127.0490000 125.5170000  39.1550000 125.6650000 125.2790000  40.3240000
 125.0770000 125.5950000  38.2270000 124.0780000 125.7860000  38.4530000
 125.3000000 126.2470000  37.3540000 125.0610000 124.2020000  37.7350000
 124.4490000 124.1570000  36.8260000 126.0880000 123.9440000  37.3400000
 124.6240000 123.0590000  38.7250000 124.8100000 122.1210000  38.2510000
 125.3630000 123.0630000  39.5590000 123.1550000 123.3480000  39.0430000
 123.0450000 124.2950000  39.5860000 122.7550000 123.5120000  38.0930000
 122.3310000 122.2390000  39.7330000 121.3570000 122.6800000  40.0880000
 122.2060000 121.3110000  39.0900000 122.9910000 121.8320000  41.0990000
 123.6090000 120.9660000  41.0210000 123.5690000 122.7170000  41.4660000
 122.0610000 121.2130000  42.1690000 121.5090000 120.3830000  41.7740000
 122.7070000 120.8410000  42.8910000 121.2040000 122.3540000  42.7660000
 120.5920000 122.8710000  42.0510000 120.5710000 121.8930000  43.5360000
 122.0000000 123.5000000  43.3590000 122.8220000 123.1900000  43.9660000
 122.3250000 124.1330000  42.5880000 120.9060000 124.2270000  44.2700000
 119.9710000 124.1390000  43.7490000 120.7920000 123.7130000  45.2010000
 121.2550000 125.7180000  44.4430000 122.2180000 125.7240000  44.9570000
 121.3960000 126.1640000  43.5250000 120.1090000 126.3390000  45.3490000
 119.8820000 127.3450000  44.9750000 119.0930000 125.8660000  45.1920000
 120.2760000 126.2960000  46.8240000 120.3470000 127.3640000  47.4740000
 120.5210000 125.1050000  47.3670000 120.5960000 124.8400000  48.7660000
 121.2740000 124.0430000  48.9450000 121.1880000 125.5840000  49.3150000
 119.1790000 124.6050000  49.3540000 118.5290000 125.4180000  49.0860000
 119.2050000 124.4050000  50.8830000 118.1650000 124.3300000  51.1670000
 119.7900000 123.4820000  51.1280000 119.7540000 125.5340000  51.6230000
 119.6720000 125.7030000  53.1680000 120.9310000 124.8590000  53.6340000
 122.2580000 125.4000000  53.2960000 122.2630000 125.3630000  52.1500000
 122.3310000 126.4610000  53.5880000 123.4800000 124.5560000  53.8040000
 124.4470000 125.0080000  53.5080000 123.3700000 124.3900000  54.8740000
 123.5570000 123.1790000  53.1400000 123.7350000 123.1640000  51.6640000
 123.5330000 122.1740000  51.2020000 123.0130000 123.9410000  51.3030000
 124.7600000 123.5290000  51.4300000 124.7680000 122.4300000  53.6740000
 124.7520000 122.6300000  54.7520000 124.5230000 121.3840000  53.4330000
 125.6140000 122.6480000  53.1280000 122.3510000 122.3110000  53.3820000
 122.1690000 122.2020000  54.4890000 122.5670000 121.2290000  52.9480000
 121.5330000 122.7680000  52.7910000 119.7700000 127.1280000  53.5620000
 118.4850000 124.9050000  53.7270000 118.6790000 123.3620000  48.6840000
 117.9650000 123.4360000  47.5340000 117.4660000 124.4800000  47.2120000
 117.6560000 122.1320000  46.9440000 117.1820000 121.5480000  47.6940000
 118.4960000 121.5510000  46.7490000 116.8300000 122.0980000  45.7480000
 115.8790000 122.5000000  45.8380000 116.7200000 121.0540000  45.5770000
 117.5630000 122.5910000  44.5180000 118.5070000 122.1400000  44.4980000
 117.7770000 123.6690000  44.6100000 116.7850000 122.3070000  43.2350000
 115.7410000 122.6410000  43.3270000 116.8510000 121.1750000  43.1990000
 117.3320000 122.9850000  42.0380000 116.6770000 122.7540000  41.2420000
 118.3850000 122.6480000  41.8040000 117.3440000 124.5300000  41.9170000
 117.8950000 124.9740000  42.7350000 116.3420000 125.0150000  41.9210000
 118.1020000 125.0320000  40.6510000 117.8820000 124.3520000  39.7850000
 119.1180000 125.1360000  40.6840000 117.5430000 126.4050000  40.2600000
 116.6210000 126.4070000  39.7520000 118.1760000 127.5880000  40.4680000
 117.8100000 128.5090000  40.0310000 119.3180000 127.7610000  41.4060000
 119.5760000 126.8530000  41.9300000 119.0950000 128.5730000  42.0440000
 120.7530000 128.2230000  40.8210000 121.3020000 128.6290000  41.6570000
 120.5820000 129.0470000  40.0320000 121.4820000 126.9780000  40.1690000
 121.3850000 126.0080000  40.8100000 122.5340000 127.2100000  40.0920000
 120.9730000 126.6360000  38.7840000 119.9100000 126.5440000  38.7530000
 121.3520000 125.6600000  38.4400000 121.1290000 127.7130000  37.6930000
 120.4910000 128.6540000  37.8020000 120.5880000 127.2620000  36.8620000
 122.5590000 128.0740000  37.2550000 122.9420000 127.1770000  36.7650000
 123.2270000 128.3980000  38.1290000 122.5460000 129.1160000  36.0650000
 122.1390000 130.0630000  36.4200000 121.8530000 128.7670000  35.3190000
 123.9540000 129.3610000  35.5020000 124.3760000 128.4750000  34.9220000
 124.6000000 129.7540000  36.2600000 123.8740000 130.1630000  34.7100000
 127.6340000  -1.3020000  35.2090000 128.2880000  -0.5420000  35.5860000
 126.7930000  -0.7020000  34.8710000 128.1050000  -1.8280000  34.3830000
 127.1850000  -2.3290000  36.2620000 126.5490000  -3.0480000  35.8100000
 128.0510000  -2.9270000  36.6780000 126.4790000  -1.7200000  37.5150000
 127.2680000  -1.0810000  37.9470000 125.6040000  -1.1220000  37.2350000
 126.0610000  -2.7830000  38.5910000 125.3730000  -3.3990000  38.1350000
 126.8850000  -3.4870000  38.8010000 125.5030000  -2.2380000  39.8090000
 124.5760000  -1.7130000  39.5520000 125.1170000  -3.0070000  40.4580000
 126.4230000  -1.3140000  40.6410000 127.2490000  -1.8640000  41.0170000
 126.8840000  -0.4400000  40.0560000 125.7160000  -0.7190000  41.9170000
 125.4220000  -1.4540000  42.7310000 126.5710000  -0.1830000  42.3270000
 124.5450000   0.2610000  41.5700000 124.9370000   0.9950000  40.9360000
 123.6440000  -0.2000000  41.0410000 124.0640000   0.9540000  42.8490000
 123.5290000   0.1710000  43.4170000 124.7970000   1.2230000  43.6180000
 122.9580000   2.0100000  42.5590000 122.2800000   1.7200000  41.7580000
 122.3750000   2.1710000  43.4600000 123.5650000   3.4380000  42.2730000
 124.1840000   3.4070000  41.3420000 122.7940000   4.1350000  42.0620000
 124.3180000   4.1630000  43.4160000 125.2200000   3.5990000  43.7790000
 124.6370000   5.1620000  43.0500000 123.5520000   4.3610000  44.7440000
 122.4260000   4.5540000  44.4940000 123.6480000   3.4510000  45.4090000
 124.0640000   5.6070000  45.5930000 125.0680000   5.9750000  45.2720000
 123.3080000   6.2720000  45.3630000 124.0620000   5.3380000  47.1290000
 123.0910000   4.7710000  47.4220000 124.8140000   4.6870000  47.4930000
 124.1820000   6.6610000  47.8010000 123.1880000   7.4040000  47.7880000
 125.2830000   6.9870000  48.4590000 125.3480000   8.2800000  49.0850000
 126.3000000   8.6070000  49.4440000 125.0070000   9.0990000  48.4250000
 124.4560000   8.0980000  50.3030000 123.5140000   7.6580000  50.0060000
 124.2130000   9.3700000  51.1600000 123.4350000   9.1680000  51.8600000
 125.0720000   9.5480000  51.8180000 123.7780000  10.5900000  50.4670000
 124.9000000  11.6610000  50.1120000 125.1200000  12.4190000  51.4860000
 124.6080000  13.7740000  51.6260000 125.2020000  14.2270000  52.4150000
 124.8310000  14.2770000  50.7900000 123.1230000  13.8290000  51.8170000
 122.8400000  14.8890000  51.7520000 122.5710000  13.4610000  50.9990000
 122.4300000  13.3910000  53.0590000 121.0870000  14.0180000  53.0170000
 120.6950000  13.6980000  52.1050000 120.4780000  13.6450000  53.8860000
 121.1730000  15.0800000  53.2350000 122.3940000  11.8990000  53.0510000
 123.4010000  11.3600000  53.0060000 121.8850000  11.5450000  53.9350000
 121.7560000  11.5870000  52.1820000 123.1250000  13.7660000  54.3370000
 122.4520000  13.4600000  55.1170000 123.2350000  14.8270000  54.3690000
 124.1040000  13.3110000  54.3530000 126.1350000  10.9740000  49.7320000
 124.2920000  12.6460000  49.2050000 125.1260000   7.2130000  51.2220000
 124.9160000   5.8690000  51.1990000 123.9070000   5.3540000  50.6840000
 126.0510000   5.1760000  51.8580000 125.7380000   4.2360000  52.2840000
 126.4230000   5.7430000  52.7390000 127.1690000   4.8910000  50.8800000
 128.0170000   4.5320000  51.5420000 127.4780000   5.8210000  50.3430000
 126.7530000   3.8090000  49.7960000 125.8470000   4.1240000  49.3960000
 126.4190000   2.9160000  50.3580000 127.8660000   3.3470000  48.7980000
 127.4300000   2.4340000  48.3950000 128.7810000   3.1270000  49.2580000
 128.1490000   4.2900000  47.6760000 128.8320000   5.0310000  48.0640000
 127.2140000   4.7010000  47.1230000 129.1040000   3.5650000  46.6510000
 130.0490000   3.3340000  47.1740000 129.3160000   4.3620000  45.9730000
 128.5440000   2.3140000  45.9690000 127.6060000   2.5450000  45.4740000
 128.2930000   1.5920000  46.7410000 129.4580000   1.7670000  44.9250000
 130.2260000   0.9890000  45.2670000 129.1190000   1.8360000  43.6410000
 129.7080000   1.2680000  42.8950000 128.0430000   2.7420000  43.0900000
 127.9970000   3.6700000  43.5540000 127.0810000   2.2790000  43.1670000
 128.3950000   3.1700000  41.7140000 128.5480000   2.4020000  41.0150000
 129.2790000   3.7730000  41.8870000 127.4070000   4.1980000  41.1130000
 127.4860000   5.1130000  41.7790000 126.4090000   3.7790000  41.1120000
 127.6490000   4.7920000  39.7010000 128.6130000   5.2360000  39.6460000
 126.9000000   5.5980000  39.5830000 127.4260000   3.7890000  38.5890000
 128.1650000   2.9410000  38.7240000 127.7810000   4.2100000  37.6640000
 126.0180000   3.3660000  38.3640000 125.4500000   4.2880000  38.1480000
 125.7470000   3.0220000  39.3310000 125.9170000   2.3320000  37.2300000
 126.5670000   1.4670000  37.3890000 126.3750000   2.8130000  36.3540000
 124.5430000   1.8480000  36.9010000 123.8850000   2.6010000  36.4770000
 123.9790000   1.4610000  37.7690000 124.5660000   1.0520000  36.1910000
  81.2710000  17.9700000  39.6660000  80.8940000  18.8880000  40.1210000
  80.9010000  17.2180000  40.3410000  80.7960000  17.7860000  38.6930000
  82.7950000  18.1390000  39.4290000  83.1800000  18.2160000  40.3900000
  83.0620000  17.1260000  38.9860000  83.2010000  19.3720000  38.5450000
  84.2390000  19.4070000  38.2310000  82.6510000  19.3410000  37.5720000
  82.9060000  20.7230000  39.2230000  81.8690000  20.9490000  39.3320000
  83.5110000  20.7340000  40.1060000  83.5260000  21.9080000  38.4910000
  84.5390000  21.5890000  38.4420000  83.1550000  22.0860000  37.4320000
  83.5940000  23.2250000  39.2590000  83.2260000  24.0050000  38.5640000
  83.1020000  23.1750000  40.1670000  85.0870000  23.6530000  39.4790000
  85.7470000  23.1340000  38.8200000  85.2520000  24.7030000  39.1900000
  85.5110000  23.4860000  40.9610000  85.3110000  22.4880000  41.4500000
  86.5580000  23.6050000  41.1240000  84.7240000  24.4890000  41.8550000
  84.9070000  25.4740000  41.4090000  83.6220000  24.3660000  41.7890000
  85.2380000  24.5200000  43.3050000  86.2890000  24.5280000  43.1820000
  84.8710000  25.4170000  43.9200000  84.7040000  23.3470000  44.0910000
  83.5560000  23.6130000  44.0580000  84.7840000  22.4530000  43.4400000
  85.2400000  23.2080000  45.5220000  86.2660000  22.8770000  45.3320000
  85.1660000  24.1940000  46.0490000  84.6420000  22.0640000  46.3430000
  83.7380000  22.3530000  46.6560000  84.5350000  21.1530000  45.7800000
  85.6010000  21.8030000  47.4780000  86.7120000  21.6370000  47.1880000
  85.6590000  22.6740000  48.0550000  85.2390000  20.7200000  48.4780000
  85.0790000  19.7660000  47.9550000  85.9770000  20.5350000  49.1740000
  83.9970000  21.0960000  49.2280000  83.8990000  22.0990000  49.9040000
  82.9520000  20.2630000  48.9530000  81.7750000  20.4560000  49.8670000
  82.1190000  20.2940000  50.8490000  81.3930000  21.4770000  49.7130000
  80.7540000  19.2920000  49.6210000  79.8800000  19.4500000  50.2150000
  81.3070000  17.8670000  49.9630000  80.5810000  17.2230000  49.6470000
  82.2150000  17.6350000  49.4070000  81.7320000  17.8180000  51.3610000
  80.6850000  17.4530000  52.5350000  80.9990000  15.8410000  52.7670000
  80.6970000  14.8870000  51.7140000  80.3110000  14.0200000  52.2130000
  79.8440000  15.2520000  51.1160000  81.8940000  14.4620000  50.7840000
  81.7820000  14.7780000  49.7710000  82.7420000  14.9480000  51.2110000
  82.2670000  13.0160000  50.7230000  83.5360000  12.8740000  49.9220000
  84.3360000  13.5260000  50.2420000  84.0490000  11.9060000  50.0010000
  83.3170000  13.1150000  48.8260000  82.6430000  12.5740000  52.0900000
  83.3620000  13.2400000  52.5510000  81.7470000  12.5410000  52.7330000
  83.1070000  11.6000000  51.9710000  81.2290000  12.0710000  50.2090000
  81.6140000  11.1190000  49.8220000  80.6960000  12.5740000  49.3860000
  80.5930000  11.9930000  51.0550000  81.0170000  18.1480000  53.7520000
  79.3520000  17.5630000  51.9630000  80.4110000  19.2420000  48.2230000
  79.5480000  20.1730000  47.8270000  79.1950000  21.1540000  48.5360000
  79.0260000  20.0570000  46.3870000  79.4470000  19.1460000  46.0220000
  79.2490000  20.9680000  45.8350000  77.5460000  19.9080000  46.3110000
  77.0630000  20.7600000  46.8080000  77.2440000  18.9330000  46.7870000
  77.1320000  19.9040000  44.8060000  77.5090000  20.7250000  44.1680000
  76.0250000  19.9670000  44.7240000  77.6220000  18.6090000  44.1580000
  77.4240000  17.7250000  44.7100000  78.6670000  18.5880000  44.0540000
  77.0270000  18.2070000  42.8060000  75.9110000  18.0280000  42.8610000
  77.3090000  17.2020000  42.5500000  77.5270000  19.0680000  41.6960000
  78.6420000  19.1710000  41.5910000  77.2330000  20.0820000  42.0020000
  76.9630000  18.6150000  40.3540000  75.8680000  18.7620000  40.4810000
  77.1380000  17.6030000  40.2140000  77.5440000  19.4430000  39.2320000
  78.1920000  20.2500000  39.5900000  77.4780000  19.1390000  37.9210000
  77.9690000  19.7800000  37.2310000  76.6910000  17.9500000  37.4240000
  76.2270000  18.2250000  36.4980000  75.9150000  17.6020000  38.0110000
  77.7540000  16.8590000  37.1880000  77.2470000  15.8520000  37.0110000
  78.2920000  16.6440000  38.1190000  78.7060000  17.1680000  36.0180000
  79.2250000  18.0690000  36.2290000  78.1960000  17.3230000  35.0960000
  79.8200000  16.1420000  35.6710000  79.5310000  15.1710000  35.2520000
  80.4590000  16.0560000  36.5730000  80.7170000  16.7710000  34.5650000
  81.3770000  17.5640000  34.9650000  80.1370000  17.2360000  33.7670000
  81.6380000  15.7750000  33.8080000  82.3210000  16.3200000  33.1550000
  81.1230000  15.1290000  33.0930000  82.4630000  14.9410000  34.8830000
  83.2290000  14.3950000  34.3370000  81.9010000  14.1600000  35.4140000
  83.2520000  15.7310000  35.8580000  83.6860000  16.5390000  35.3200000
  84.1230000  15.1110000  36.2140000  82.5610000  16.1090000  36.6590000
  15.1250000  38.5640000  40.5800000  15.6900000  38.6950000  39.6680000
  15.0150000  37.4770000  40.7620000  15.6500000  38.9140000  41.3770000
  13.7010000  39.2480000  40.3300000  13.8030000  40.2830000  40.0020000
  13.1550000  38.7350000  39.5240000  12.8290000  39.2900000  41.6020000
  11.7620000  39.4420000  41.2780000  12.8510000  38.3080000  42.1140000
  13.2130000  40.3760000  42.6190000  12.5440000  40.2660000  43.4150000
  14.2690000  40.2300000  42.8030000  12.9550000  41.8030000  42.1500000
  13.3570000  42.4720000  42.9110000  13.4650000  42.1590000  41.2740000
  11.4260000  42.2310000  42.0980000  10.8030000  41.5160000  41.5380000
  11.0130000  42.3890000  43.0830000  11.1260000  43.4770000  41.2540000
  11.4340000  43.4260000  40.2160000  10.0700000  43.4590000  41.1390000
  11.6940000  44.7410000  41.8300000  12.8140000  44.7010000  41.8240000
  11.3780000  45.5690000  41.2040000  11.1490000  45.0690000  43.2690000
  10.0610000  44.8570000  43.4000000  11.6580000  44.3930000  43.9880000
  11.2270000  46.5470000  43.7180000  10.6650000  47.0660000  42.9150000
  10.7070000  46.6980000  44.6640000  12.6740000  47.0640000  43.7690000
  12.9400000  47.1540000  42.6810000  12.7780000  48.0410000  44.2200000
  13.7210000  46.1430000  44.4340000  13.8320000  45.3350000  43.7580000
  14.7570000  46.5480000  44.3670000  13.5820000  45.7210000  45.8950000
  13.5230000  46.4850000  46.6200000  12.6820000  45.1950000  46.0120000
  14.7620000  44.7720000  46.1630000  14.8660000  44.1110000  45.2770000
  15.6510000  45.4140000  46.2830000  14.6260000  43.8060000  47.3770000
  13.6740000  43.1940000  47.1940000  15.4910000  43.0830000  47.4150000
  14.4830000  44.5430000  48.7090000  15.3470000  45.2280000  49.2390000
  13.1990000  44.4510000  49.0950000  12.7900000  45.0300000  50.3320000
  11.7520000  44.6730000  50.4360000  13.4380000  44.8030000  51.1220000
  12.7550000  46.5900000  50.3590000  13.7780000  46.9730000  50.1860000
  12.2170000  47.0910000  51.7150000  13.0460000  47.0410000  52.4200000
  11.9030000  48.1700000  51.6510000  11.1580000  46.2960000  52.2280000
  10.5620000  46.7300000  53.5930000   9.1200000  45.9370000  53.6210000
   7.9610000  46.5550000  53.0270000   7.0660000  46.1820000  53.5100000
   8.0230000  47.6430000  53.1410000   7.9160000  46.2190000  51.4930000
   7.0590000  46.7860000  51.2260000   8.7090000  46.6640000  50.9020000
   7.7320000  44.8040000  51.0130000   6.9810000  44.9350000  49.7290000
   6.0050000  45.2350000  50.1010000   7.5500000  45.6710000  49.0880000
   6.8760000  44.1090000  49.1370000   9.0680000  44.2610000  50.6760000
   9.0570000  43.1910000  50.4590000   9.3720000  44.6930000  49.7980000
   9.7080000  44.4880000  51.4800000   6.9820000  43.9120000  51.9210000
   6.9870000  42.9160000  51.5060000   5.9920000  44.3330000  52.1570000
   7.6720000  43.8390000  52.8060000  11.4720000  46.2910000  54.6810000
  10.1670000  48.1410000  53.4800000  11.9280000  47.1030000  49.2750000
  12.0950000  48.3390000  48.8610000  13.0400000  48.9890000  49.2560000
  10.9780000  48.7170000  47.8650000  10.0110000  48.2830000  48.1750000
  11.3140000  48.2540000  46.9250000  10.8480000  50.1960000  47.7270000
  11.1600000  50.7790000  48.5870000   9.7360000  50.3510000  47.6410000
  11.5820000  50.7380000  46.4730000  11.5030000  51.8810000  46.5490000
  11.0590000  50.4070000  45.5590000  13.0350000  50.3680000  46.3810000
  13.3060000  49.2670000  46.3220000  13.5850000  50.7730000  47.2770000
  13.8190000  51.1170000  45.2660000  13.7760000  52.2000000  45.3690000
  13.3970000  50.8720000  44.2960000  15.3140000  50.7460000  45.1790000
  15.8780000  50.9180000  46.0580000  15.7030000  51.2290000  44.2550000
  15.5860000  49.3400000  44.7600000  14.9030000  49.0940000  43.9480000
  15.3610000  48.6520000  45.5670000  17.0960000  49.2580000  44.4990000
  17.7190000  49.5440000  45.3310000  17.6900000  48.8200000  43.4090000
  18.7420000  48.9860000  43.4040000  17.0950000  48.3210000  42.1530000
  17.6020000  48.7550000  41.2470000  16.0000000  48.5170000  42.0330000
  17.1540000  46.6920000  42.0750000  16.5170000  46.3580000  42.9020000
  18.1350000  46.2630000  42.2430000  16.5240000  46.1590000  40.7700000
  17.0710000  46.4570000  39.7800000  15.5980000  46.6900000  40.6420000
  16.1600000  44.6980000  40.9800000  15.7290000  44.5200000  41.9740000
  17.0330000  44.1420000  41.0450000  15.2520000  44.0790000  39.9350000
  14.2800000  44.6090000  39.7420000  15.0640000  42.9940000  40.1100000
  16.0130000  43.9760000  38.6220000  16.6610000  43.1510000  38.8630000
  16.6210000  44.8130000  38.5210000  15.1530000  43.6720000  37.3930000
  14.4700000  42.8080000  37.6910000  15.7180000  43.2260000  36.6030000
  14.2370000  44.8810000  36.9770000  13.6200000  44.5100000  36.1410000
  14.8700000  45.6700000  36.5980000  13.6410000  45.2460000  37.8150000
  64.9950000  54.4970000  38.4300000  65.5500000  53.9040000  37.7950000
  64.1360000  55.0230000  37.9370000  64.6780000  53.7550000  39.1830000
  66.0430000  55.4900000  38.9790000  66.8260000  54.8120000  39.4360000
  66.4370000  55.9670000  38.1200000  65.6020000  56.5670000  39.9660000
  66.4310000  57.3140000  39.9700000  64.6780000  57.0270000  39.6070000
  65.2880000  55.9080000  41.3480000  64.4800000  55.1230000  41.1600000
  66.1860000  55.4010000  41.6270000  64.8980000  57.0610000  42.2680000
  65.7550000  57.6310000  42.6540000  64.1840000  57.7000000  41.7920000
  64.3860000  56.3610000  43.5790000  63.4340000  55.8640000  43.4600000
  65.1400000  55.7150000  44.0140000  64.2810000  57.3830000  44.7250000
  64.4780000  56.8710000  45.7270000  65.2010000  57.9870000  44.7740000
  63.0120000  58.1330000  44.8100000  62.2240000  57.3410000  44.7690000
  62.9260000  58.5600000  45.8510000  62.6970000  59.1370000  43.7040000
  63.6310000  59.5340000  43.2780000  62.2570000  58.5030000  42.9390000
  61.7550000  60.3550000  44.0510000  62.3180000  61.0470000  44.6140000
  61.4810000  60.9110000  43.1660000  60.5580000  59.8520000  44.8140000
  60.8090000  59.2120000  45.6080000  59.9240000  60.6280000  45.1870000
  59.6560000  59.1040000  43.7440000  59.4480000  59.7310000  42.8920000
  60.1510000  58.2600000  43.3040000  58.3810000  58.5520000  44.4080000
  58.5630000  57.8160000  45.1980000  57.8370000  59.3800000  44.8470000
  57.4320000  57.8460000  43.3810000  57.2650000  58.5080000  42.5280000
  57.9240000  56.9150000  42.9920000  56.0860000  57.4220000  43.9690000
  55.6110000  58.3530000  44.3450000  55.3780000  56.7610000  43.3190000
  56.3490000  56.6130000  45.2520000  56.4750000  57.1540000  46.3690000
  56.9190000  55.4320000  44.9930000  57.3870000  54.6080000  46.0740000
  56.6840000  54.6900000  46.8810000  57.5050000  53.6030000  45.7150000
  58.8050000  54.8790000  46.6130000  59.0510000  54.0560000  47.2910000
  58.9580000  56.0480000  47.5730000  59.1420000  56.9360000  46.8990000
  58.0720000  56.1840000  48.2370000  60.1440000  55.9320000  48.3050000
  60.5670000  56.9140000  49.6190000  61.5670000  58.0250000  48.9850000
  62.9330000  57.8430000  49.0520000  63.1320000  56.8380000  49.4070000
  63.3940000  57.9120000  48.0510000  63.5050000  58.9760000  50.0610000
  64.5610000  58.8440000  49.9630000  63.3270000  60.0310000  49.8020000
  63.2540000  58.9230000  51.5310000  64.1300000  59.8410000  52.2900000
  65.0890000  59.8760000  51.8190000  63.7370000  60.8690000  52.2160000
  64.0890000  59.5250000  53.3480000  61.8340000  59.2100000  51.9630000
  61.5870000  60.2530000  51.6010000  61.0850000  58.4460000  51.6140000
  61.8600000  59.1790000  53.0680000  63.5770000  57.5810000  52.0270000
  64.6190000  57.4230000  51.8750000  62.9520000  56.8230000  51.5020000
  63.3330000  57.5330000  53.1520000  59.4060000  57.5880000  50.2190000
  61.3510000  56.0410000  50.4960000  59.7910000  54.9680000  45.5410000
  60.2350000  53.8080000  44.9080000  60.4050000  52.7570000  45.5350000
  60.6300000  53.9650000  43.4160000  61.2940000  54.8380000  43.2770000
  59.7720000  54.1100000  42.8240000  61.3450000  52.7590000  42.8730000
  60.6530000  51.8900000  43.0970000  62.2090000  52.4160000  43.4630000
  61.7050000  52.7720000  41.4300000  62.2050000  53.7140000  41.1570000
  60.7200000  52.7120000  40.8990000  62.4500000  51.5830000  40.9620000
  61.9480000  50.7020000  41.3720000  63.3840000  51.5400000  41.5340000
  62.5880000  51.2980000  39.4740000  63.3600000  50.4240000  39.3170000
  62.9570000  52.2040000  38.9660000  61.2090000  50.8100000  38.9190000
  60.4720000  51.6250000  39.0810000  60.8850000  49.9350000  39.4330000
  61.3960000  50.3740000  37.4780000  62.2480000  49.7530000  37.2850000
  61.5500000  51.2610000  36.8700000  60.2350000  49.5350000  36.9640000
  59.7810000  48.8870000  37.6760000  59.6480000  49.6210000  35.7440000
  58.8480000  48.9510000  35.4990000  59.9790000  50.5800000  34.5920000
  60.6330000  51.3710000  34.9850000  59.0990000  51.1540000  34.4200000
  60.5670000  49.8650000  33.3130000  59.8880000  49.1270000  32.9180000
  61.4980000  49.4440000  33.6630000  60.9420000  50.9050000  32.2290000
  61.7560000  51.6100000  32.5800000  60.0330000  51.4210000  31.9470000
  61.5520000  50.2210000  31.0120000  60.7520000  49.4700000  30.7540000
  62.4330000  49.5940000  31.2060000  61.8710000  51.0690000  29.7580000
  62.5890000  51.8070000  29.9560000  61.0590000  51.7540000  29.5180000
  62.3190000  50.3680000  28.4370000  63.2130000  49.7870000  28.5310000
  62.5260000  51.1630000  27.6990000  61.2040000  49.4640000  27.8560000
  60.9830000  48.7460000  28.6220000  61.5630000  48.9080000  26.9440000
  59.9020000  50.2470000  27.3240000  59.3450000  49.4900000  26.7420000
  60.1400000  51.0350000  26.6960000  59.3390000  50.5460000  28.1950000
 125.9940000  82.5870000  33.7140000 125.7740000  81.5650000  33.6250000
 126.7840000  82.9670000  33.0000000 125.0470000  83.1000000  33.4860000
 126.4090000  82.9580000  35.1320000 127.4920000  82.7310000  35.2730000
 126.4140000  83.9950000  35.2540000 125.5230000  82.3540000  36.2550000
 125.8040000  82.8720000  37.1980000 124.3970000  82.5400000  36.0350000
 125.8310000  80.8350000  36.4270000 125.6670000  80.2960000  35.4980000
 126.9160000  80.8060000  36.6780000 125.0300000  80.1360000  37.4340000
 123.9390000  80.3500000  37.2170000 125.1530000  79.0470000  37.4440000
 125.4190000  80.5960000  38.8980000 126.5130000  80.5010000  38.9770000
 125.1510000  81.6680000  39.0390000 124.4430000  79.8280000  39.8840000
 123.4570000  79.7460000  39.3470000 124.8990000  78.8440000  40.0970000
 124.0890000  80.4500000  41.2370000 123.5120000  81.3530000  41.1030000
 123.3940000  79.7250000  41.6530000 125.3820000  80.6910000  42.0860000
 125.7220000  79.8220000  42.5780000 126.0760000  81.2560000  41.4410000
 124.9370000  81.6480000  43.2380000 124.6710000  82.5930000  42.8220000
 124.0190000  81.2190000  43.6720000 126.0540000  81.6040000  44.3390000
 126.1030000  80.5720000  44.6970000 126.9680000  81.8590000  43.8170000
 125.9410000  82.5600000  45.5490000 125.9980000  83.5880000  45.2090000
 125.0410000  82.3320000  46.0180000 127.1110000  82.3810000  46.5170000
 127.9500000  82.4070000  45.8980000 127.2680000  83.1630000  47.2260000
 127.1790000  81.0370000  47.2750000 127.0960000  80.1390000  46.6320000
 128.1980000  80.8520000  47.7040000 126.1780000  81.0570000  48.4430000
 125.1680000  80.9020000  48.0400000 126.2820000  80.3070000  49.1610000
 126.1650000  82.3200000  49.2730000 127.1600000  82.9890000  49.5570000
 124.9240000  82.6380000  49.6600000 124.7110000  83.8900000  50.3360000
 123.7740000  83.8530000  50.9840000 125.5880000  84.1590000  51.0060000
 124.5350000  85.0310000  49.2610000 125.4200000  85.0500000  48.5820000
 124.5740000  86.3580000  49.9720000 125.5910000  86.5590000  50.2910000
 124.1770000  87.2290000  49.3800000 123.7670000  86.2900000  51.1950000
 123.5080000  87.5110000  52.1120000 122.1470000  87.1160000  52.7870000
 120.8900000  87.7310000  52.4210000 120.1870000  87.5180000  53.1770000
 121.1160000  88.8240000  52.2610000 120.5700000  87.1410000  51.0440000
 119.8520000  87.8530000  50.6220000 121.4660000  87.0200000  50.5170000
 119.9750000  85.7650000  51.0320000 121.0200000  84.6700000  51.1540000
 121.5620000  84.9630000  52.0440000 120.5060000  83.7990000  51.3480000
 121.6280000  84.5240000  50.2930000 118.7400000  85.6540000  51.8690000
 118.9730000  85.8160000  52.9130000 118.0960000  86.4680000  51.5730000
 118.2030000  84.7360000  51.7320000 119.3460000  85.5870000  49.6510000
 118.4550000  84.9180000  49.8550000 120.1380000  85.1180000  48.9670000
 118.8970000  86.4820000  49.2320000 124.5680000  87.4980000  53.1260000
 123.2710000  88.6900000  51.2370000 123.3090000  84.9380000  48.5470000
 123.2050000  85.3970000  47.2870000 124.1790000  85.7330000  46.6750000
 121.8360000  85.2600000  46.6650000 121.1850000  86.0290000  47.1380000
 121.4620000  84.2290000  46.8880000 121.7170000  85.4730000  45.1690000
 122.2520000  86.3860000  44.8510000 120.6980000  85.6990000  44.9020000
 122.2460000  84.2690000  44.3860000 121.4360000  83.5370000  44.2200000
 123.0130000  83.7320000  44.9100000 122.9390000  84.6280000  43.0200000
 122.3580000  85.4160000  42.5110000 123.0010000  83.6620000  42.4390000
 124.3610000  85.2300000  43.2290000 125.0810000  84.6100000  43.7030000
 124.3910000  86.2130000  43.7700000 124.9740000  85.5650000  41.7930000
 124.5110000  86.5100000  41.4520000 124.8600000  84.6860000  41.0950000
 126.5140000  85.8270000  41.8830000 127.0320000  85.9400000  40.8810000
 126.9060000  84.9420000  42.3320000 126.8990000  86.9060000  42.9180000
 126.5790000  86.7500000  43.9860000 127.7330000  87.8950000  42.6710000
 128.1730000  88.4850000  43.4580000 128.4970000  88.1770000  41.4090000
 128.4550000  87.2550000  40.7080000 129.5240000  88.3970000  41.6260000
 127.8640000  89.3410000  40.6260000 127.7640000  90.2130000  41.2540000
 126.8750000  88.8970000  40.4390000 128.3950000  89.7640000  39.1770000
 127.8290000  90.6330000  39.0100000 128.1070000  88.9620000  38.4930000
 129.9330000  89.9730000  39.1680000 130.3220000  88.9830000  39.4550000
 130.2810000  90.7520000  39.8260000 130.4480000  90.4270000  37.8230000
 129.9700000  91.4010000  37.5280000 130.0780000  89.7500000  37.0410000
 131.9920000  90.3550000  37.8190000 132.2500000  89.3200000  37.9430000
 132.3000000  90.9640000  38.6620000 132.5200000  90.9800000  36.4730000
 131.9810000  90.6640000  35.5460000 133.5360000  90.7910000  36.2780000
 132.6150000  92.5390000  36.4790000 133.0650000  92.8680000  37.4110000
 131.6820000  93.1170000  36.3500000 133.3080000  92.8890000  35.6750000
 147.8620000  60.7740000  31.0160000 147.4460000  59.7650000  30.8060000
 148.4790000  61.1690000  30.1920000 147.0870000  61.4770000  31.0660000
 148.6370000  60.8080000  32.3760000 149.5010000  60.1720000  32.2800000
 148.9180000  61.7460000  32.8310000 147.6280000  60.2040000  33.3540000
 146.6440000  60.6380000  33.2130000 147.5540000  59.1650000  33.0830000
 147.9870000  60.3320000  34.8410000 148.9440000  59.8320000  34.9220000
 148.0830000  61.3380000  35.1800000 147.0820000  59.6040000  35.8560000
 146.0550000  60.0020000  35.6940000 147.0470000  58.5500000  35.6570000
 147.5440000  59.7410000  37.3630000 148.4730000  59.2460000  37.5640000
 147.6950000  60.7530000  37.6950000 146.4910000  59.2780000  38.3710000
 145.5800000  59.6890000  38.1210000 146.4410000  58.2170000  38.2310000
 146.9240000  59.5430000  39.8150000 147.6840000  58.8520000  40.0380000
 147.2900000  60.5860000  40.0630000 145.7050000  59.3240000  40.7190000
 144.8060000  59.7530000  40.3330000 145.5420000  58.2430000  40.7330000
 145.8150000  59.8750000  42.1760000 146.0690000  60.9920000  42.2530000
 144.9100000  59.7390000  42.6290000 146.9450000  59.2170000  42.9180000
 146.7470000  58.1000000  42.9910000 147.9270000  59.3380000  42.4370000
 147.0370000  59.6020000  44.4420000 146.1360000  59.3650000  44.9970000
 147.7250000  58.9900000  44.9500000 147.3290000  61.1190000  44.5510000
 148.1520000  61.3750000  43.8610000 146.3710000  61.6610000  44.3690000
 147.8480000  61.4710000  45.9690000 148.7470000  60.8360000  46.0540000
 148.1340000  62.5470000  46.0110000 146.8480000  60.9790000  47.0550000
 145.8100000  61.1330000  46.7100000 147.0090000  59.8710000  47.0350000
 147.1390000  61.5250000  48.4080000 147.7330000  62.5520000  48.5850000
 146.7970000  60.6000000  49.3490000 147.3270000  60.7980000  50.6850000
 147.3140000  59.8460000  51.1630000 148.2930000  61.2000000  50.6190000
 146.4720000  61.8410000  51.3880000 146.7800000  62.7990000  50.9090000
 146.8040000  61.8840000  52.9050000 147.8290000  61.9750000  53.1210000
 146.3220000  62.6990000  53.3780000 146.4840000  60.6260000  53.5290000
 145.1920000  60.4170000  54.5970000 144.6100000  58.8980000  54.3510000
 144.1540000  58.4640000  53.1020000 143.3360000  57.7410000  53.3990000
 143.7910000  59.3360000  52.5970000 145.1240000  57.8300000  52.1020000
 144.5270000  57.3290000  51.3060000 145.7340000  58.5880000  51.6490000
 146.1340000  56.8460000  52.5520000 146.6920000  56.0490000  51.4930000
 147.6020000  55.5680000  51.7920000 145.9420000  55.2950000  51.1690000
 146.8570000  56.7190000  50.6480000 147.2300000  57.6190000  53.2750000
 147.6230000  58.3730000  52.5780000 146.7330000  58.0240000  54.1470000
 148.0660000  57.0680000  53.6460000 145.5970000  55.8450000  53.5850000
 146.3220000  55.1430000  53.9170000 144.7690000  55.3500000  53.0500000
 145.1840000  56.1810000  54.5300000 145.7080000  60.4350000  55.9630000
 144.1710000  61.4010000  54.2520000 145.1160000  61.3950000  51.1880000
 144.1750000  62.3100000  51.3240000 144.2930000  63.5050000  51.5400000
 142.7510000  61.7040000  51.0930000 142.1180000  61.8030000  51.9970000
 142.9550000  60.6320000  50.7730000 141.9990000  62.3640000  49.8810000
 142.5420000  62.2750000  48.9210000 141.9130000  63.4850000  49.9180000
 140.6490000  61.7510000  49.4630000 139.9790000  61.8790000  50.3120000
 140.7910000  60.6900000  49.3860000 139.9860000  62.2720000  48.1790000
 139.9790000  63.3470000  48.1830000 138.9880000  61.9180000  48.0740000
 140.7760000  61.9010000  46.9200000 140.5250000  60.9100000  46.5920000
 141.8420000  61.8650000  47.1290000 140.4370000  62.8540000  45.7590000
 140.7640000  63.8810000  46.0170000 139.3400000  62.8000000  45.6440000
 141.0340000  62.3490000  44.4660000 140.5220000  62.9380000  43.6920000
 140.7920000  61.2550000  44.4370000 142.5100000  62.5280000  44.4580000
 143.0210000  62.3990000  45.4060000 143.1920000  62.9000000  43.4030000
 144.2530000  63.1580000  43.5300000 142.7580000  62.6420000  41.9450000
 141.7450000  62.2420000  41.8210000 143.5010000  61.9850000  41.4430000
 142.6270000  63.9710000  41.1530000 143.6340000  64.4880000  41.2780000
 141.8060000  64.6120000  41.5310000 142.4710000  63.6820000  39.6450000
 141.4750000  63.1780000  39.5090000 143.3250000  62.9420000  39.3110000
 142.5110000  64.9520000  38.7390000 143.5110000  65.4260000  38.4440000
 142.0000000  65.6620000  39.3220000 141.8340000  64.6900000  37.3560000
 140.7730000  64.5810000  37.4930000 142.1900000  63.7560000  36.9160000
 142.0280000  65.8600000  36.3250000 143.0440000  65.7730000  36.0420000
 141.8970000  66.9000000  36.7260000 141.3510000  65.9180000  34.9380000
 140.3050000  65.7960000  35.0140000 141.6420000  65.0390000  34.3740000
 141.7150000  67.3050000  34.2440000 140.9840000  67.6190000  33.5210000
 142.7140000  67.3170000  33.7970000 141.6570000  68.0740000  34.9950000
  69.5700000 116.5890000  35.4550000  69.4230000 117.5050000  34.8650000
  68.5810000 116.2690000  35.7090000  70.1280000 115.7990000  35.0160000
  70.2210000 116.8710000  36.8050000  69.6240000 117.7120000  37.2970000
  70.1940000 116.0700000  37.4800000  71.6590000 117.2280000  36.6640000
  72.2240000 116.5690000  36.0530000  71.7920000 118.1480000  36.1110000
  72.3020000 117.2290000  38.0630000  71.8510000 117.9770000  38.6490000
  72.2620000 116.2370000  38.4430000  73.7780000 117.6920000  37.9260000
  74.2950000 117.0870000  37.2240000  73.8880000 118.6370000  37.3820000
  74.5760000 117.8150000  39.2360000  74.7500000 116.7570000  39.5980000
  75.5730000 118.2050000  38.9860000  74.0630000 118.7670000  40.2990000
  73.9800000 119.7090000  39.8620000  73.0070000 118.6090000  40.6500000
  75.0440000 118.7480000  41.5540000  75.0240000 117.7050000  41.9000000
  76.0650000 118.9240000  41.2170000  74.5590000 119.5950000  42.7650000
  75.2010000 119.5140000  43.6670000  74.5860000 120.6800000  42.4830000
  73.1470000 119.2450000  43.4180000  73.1300000 119.7910000  44.4130000
  72.4160000 119.6730000  42.7920000  72.8850000 117.7200000  43.4240000
  72.8010000 117.3420000  42.4280000  73.7910000 117.2420000  43.8180000
  71.6000000 117.4060000  44.2690000  71.6300000 117.6970000  45.3240000
  70.8280000 117.9490000  43.7710000  71.1680000 115.9380000  44.2610000
  70.2580000 115.7270000  44.7950000  71.1590000 115.6940000  43.2030000
  72.1790000 114.9440000  44.9190000  73.0190000 114.7320000  44.2960000
  72.7050000 115.5690000  45.7260000  71.5010000 113.6940000  45.4840000
  70.9130000 114.0170000  46.3440000  70.8980000 113.1850000  44.6900000
  72.4550000 112.7280000  46.0380000  73.4570000 112.4730000  45.3840000
  72.0770000 112.2340000  47.2620000  72.9980000 111.2900000  47.7970000
  72.3350000 110.6620000  48.3670000  73.5370000 110.6890000  47.0290000
  74.0020000 111.9980000  48.8640000  74.7020000 111.2150000  49.1110000
  73.3700000 112.6750000  50.0530000  73.7380000 113.6730000  50.1930000
  72.3460000 112.6580000  49.8420000  73.7550000 111.9050000  51.2490000
  72.7610000 110.7500000  51.8410000  71.5510000 111.4940000  52.6080000
  71.6960000 111.9550000  53.9280000  71.4790000 111.0300000  54.5350000
  72.7200000 112.3890000  54.0180000  70.6530000 112.9640000  54.2070000
  70.6850000 112.9400000  55.2740000  71.0030000 113.8360000  53.7980000
  69.2330000 112.7050000  53.6900000  69.0300000 113.0370000  52.2820000
  69.4980000 112.3400000  51.5970000  67.9310000 112.9340000  52.1820000
  69.2010000 114.0630000  52.0250000  68.9410000 111.2870000  53.9780000
  67.9880000 110.9780000  53.5620000  69.7470000 110.6700000  53.5070000
  68.8980000 111.0940000  55.0910000  68.3270000 113.5290000  54.5610000
  67.4000000 113.3670000  54.0130000  68.7620000 114.5560000  54.4620000
  68.2400000 113.1700000  55.5740000  72.2610000 109.9550000  50.6730000
  73.4590000 110.0100000  52.9260000  74.6850000 113.0660000  48.1040000
  75.8970000 112.8810000  47.5130000  76.6110000 111.9530000  47.6610000
  76.3900000 114.0460000  46.6960000  77.3850000 114.2890000  47.0050000
  75.6220000 114.8570000  46.9430000  76.3290000 113.9440000  45.2300000
  75.2450000 113.8380000  44.8980000  76.7570000 113.0080000  44.7910000
  76.7980000 115.1830000  44.5340000  77.7710000 115.4340000  44.9660000
  76.0820000 116.0380000  44.8270000  77.1000000 115.1930000  42.9810000
  77.7540000 114.3130000  42.8040000  77.7500000 116.0440000  42.6570000
  75.8560000 115.1020000  42.1130000  76.1500000 115.6200000  41.2490000
  75.0200000 115.7010000  42.5190000  75.3790000 113.7190000  41.7920000
  75.2390000 113.2940000  42.8200000  76.2530000 113.2570000  41.2840000
  74.1360000 113.6430000  40.9000000  74.1840000 114.3650000  40.0960000
  73.2860000 113.9700000  41.5100000  73.8980000 112.2040000  40.3860000
  73.1720000 111.6480000  40.8980000  74.5260000 111.5870000  39.4100000
  74.2650000 110.5540000  39.1750000  75.4490000 112.1410000  38.3750000
  75.3070000 113.2340000  38.3950000  75.2490000 111.7170000  37.4230000
  76.9090000 111.7700000  38.6430000  77.0510000 110.8460000  38.0470000
  77.0430000 111.5260000  39.6960000  78.0330000 112.8170000  38.2090000
  77.6410000 113.7870000  38.5370000  78.1540000 112.8300000  37.1080000
  79.4000000 112.5260000  38.8530000  79.6990000 111.5870000  38.4050000
  79.1750000 112.3460000  39.9120000  80.4780000 113.5660000  38.7860000
  80.6050000 113.6910000  37.7410000  81.4170000 113.3390000  39.2910000
  79.9350000 114.8410000  39.4250000  79.4090000 114.6220000  40.3080000
  79.0560000 115.1280000  38.7660000  80.8810000 115.9960000  39.6850000
  81.6280000 115.6220000  40.3490000  80.3890000 116.8100000  40.1600000
  81.4220000 116.6840000  38.4040000  81.9670000 117.6300000  38.6240000
  80.4680000 116.8280000  37.7930000  82.0740000 115.9830000  37.8760000
  68.3100000 137.4200000  41.3580000  67.9680000 136.4440000  41.6380000
  69.3520000 137.4230000  41.1180000  67.7470000 137.9040000  40.5960000
  68.2070000 138.1060000  42.7530000  68.7330000 137.5680000  43.5560000
  68.6700000 139.0810000  42.5740000  66.7070000 138.1480000  43.1160000
  66.1230000 138.7600000  42.5190000  66.3040000 137.1560000  43.2960000
  66.3900000 138.8370000  44.5010000  66.7120000 138.2270000  45.3390000
  66.9290000 139.7930000  44.5610000  64.8970000 139.0730000  44.8350000
  64.5090000 139.6860000  44.0670000  64.3640000 138.2010000  44.5840000
  64.6230000 139.4540000  46.3250000  63.5560000 139.5270000  46.4490000
  65.0410000 138.6970000  46.9550000  65.3640000 140.7610000  46.7180000
  65.2180000 140.9740000  47.7780000  66.4670000 140.6620000  46.5580000
  64.9820000 141.9760000  45.8750000  65.1530000 141.7340000  44.8290000
  63.9180000 142.0920000  45.9600000  65.7470000 143.2430000  46.2410000
  66.8700000 143.0910000  46.0490000  65.5090000 144.0730000  45.5890000
  65.6820000 143.7280000  47.6490000  64.6190000 143.7400000  47.8700000
  66.2520000 143.1370000  48.3590000  66.2000000 145.2130000  47.8160000
  65.5650000 145.7490000  47.1170000  66.0560000 145.4790000  48.8450000
  67.7290000 145.4110000  47.4800000  67.8910000 144.9900000  46.4890000
  67.8960000 146.4570000  47.4050000  68.6790000 144.8130000  48.5640000
  68.3090000 145.1710000  49.5420000  68.5660000 143.7490000  48.6400000
  70.1740000 145.1550000  48.3140000  70.4700000 144.7120000  47.3480000
  70.2980000 146.2390000  48.2280000  71.0850000 144.6520000  49.5140000
  71.2800000 143.5380000  49.3430000  71.9300000 145.2750000  49.3460000
  70.5110000 144.7890000  50.9100000  69.9270000 143.9570000  51.5150000
  70.8860000 145.9760000  51.3820000  70.4780000 146.3220000  52.7680000
  69.6240000 145.7170000  53.0870000  71.3250000 146.1520000  53.5000000
  69.9090000 147.7390000  52.7040000  70.6870000 148.3350000  52.2130000
  69.4330000 148.3760000  54.0020000  70.3150000 148.6120000  54.6460000
  68.9280000 149.2610000  53.7040000  68.5770000 147.3310000  54.5610000
  68.9340000 146.3870000  55.8640000  67.9790000 147.1210000  57.0070000
  66.6250000 146.6750000  57.2680000  66.6480000 145.5670000  57.1830000
  66.3630000 147.0040000  58.2590000  65.6510000 147.0750000  56.1270000
  66.1120000 146.8050000  55.1860000  64.6870000 146.5580000  56.2570000
  65.1880000 148.4500000  56.0150000  64.1860000 148.7400000  57.1210000
  63.4690000 147.9600000  57.1670000  64.7880000 148.7290000  58.0420000
  63.7930000 149.7540000  56.8640000  66.3010000 149.4440000  56.1590000
  65.8770000 150.5100000  56.1240000  66.9200000 149.2070000  57.0560000
  66.9000000 149.3400000  55.2870000  64.5960000 148.7200000  54.7190000
  64.2460000 149.7370000  54.7350000  63.7900000 148.1060000  54.5500000
  65.3100000 148.6600000  53.9260000  68.3870000 145.0510000  55.5360000
  70.3800000 146.5970000  56.1180000  68.6250000 147.7270000  51.9410000
  68.3300000 148.8170000  51.2360000  69.1400000 149.7330000  51.1930000
  67.0870000 148.5920000  50.4090000  66.1310000 149.0810000  50.8350000
  66.7460000 147.5420000  50.3750000  67.3840000 149.0630000  48.9440000
  68.1420000 148.4570000  48.4860000  67.7710000 150.0080000  49.0310000
  66.0550000 149.0550000  48.0760000  65.2540000 149.6350000  48.5560000
  65.7260000 148.0410000  47.9280000  66.3310000 149.8090000  46.7280000
  67.0970000 150.6450000  46.7960000  65.4090000 150.3200000  46.4110000
  66.6500000 148.7860000  45.5940000  65.9390000 147.9950000  45.6510000
  67.6080000 148.3640000  45.8620000  66.5940000 149.5780000  44.2870000
  67.1740000 149.1800000  43.5430000  66.7840000 150.6590000  44.5060000
  65.1610000 149.4040000  43.7370000  64.4380000 150.0040000  44.3480000
  64.8340000 148.3730000  43.8290000  65.1080000 149.7850000  42.2510000
  65.9500000 150.4360000  41.8910000  64.1140000 149.3770000  41.4520000
  64.2090000 149.7420000  40.4670000  62.8230000 148.6740000  41.9100000
  62.3240000 149.1820000  42.6970000  62.9950000 147.6560000  42.3120000
  61.8200000 148.5720000  40.7840000  62.3620000 148.1840000  39.8870000
  61.4200000 149.5200000  40.4730000  60.5970000 147.5980000  41.1490000
  60.2340000 147.9390000  42.0980000  60.8740000 146.5890000  41.3380000
  59.4310000 147.5150000  40.1180000  59.0490000 148.4640000  39.9710000
  58.5950000 146.9420000  40.6420000  59.8610000 146.7890000  38.8210000
  60.4170000 145.8550000  39.0920000  60.6270000 147.3610000  38.2740000
  58.7770000 146.4430000  37.7910000  58.1660000 145.6880000  38.2490000
  59.3140000 145.9800000  36.9480000  57.9590000 147.6570000  37.3310000
  58.6030000 148.3700000  36.7240000  57.4520000 148.2210000  38.1710000
  56.8030000 147.1630000  36.4360000  57.2340000 146.6760000  35.5550000
  56.1910000 148.0250000  36.1110000  56.1720000 146.4040000  36.9230000
  35.1210000 116.7520000  38.9220000  34.8950000 116.8240000  37.9250000
  36.2380000 116.5910000  39.0100000  34.8470000 117.7010000  39.3750000
  34.3980000 115.6940000  39.7630000  33.3370000 115.7950000  39.5930000
  34.5860000 114.6580000  39.4920000  34.6770000 115.8340000  41.2500000
  35.7420000 115.9080000  41.4180000  34.2260000 116.7470000  41.4400000
  33.9990000 114.8120000  42.1910000  32.9300000 114.7980000  41.9460000
  34.5120000 113.9050000  41.9610000  34.0860000 114.9780000  43.7010000
  33.2170000 115.4700000  44.1330000  34.0780000 113.9950000  44.1760000
  35.4070000 115.6170000  44.1780000  36.3400000 115.0030000  44.0300000
  35.6110000 116.5340000  43.6490000  35.3470000 115.9930000  45.7000000
  35.0910000 115.0590000  46.2260000  36.4000000 116.3870000  46.0430000
  34.4260000 117.1750000  46.0720000  34.8050000 117.9300000  45.3590000
  33.4210000 117.0810000  45.8500000  34.6690000 117.7140000  47.5070000
  35.7350000 117.9680000  47.5320000  34.0950000 118.6600000  47.5630000
  34.2670000 116.7000000  48.5820000  33.2480000 116.3010000  48.4420000
  34.9930000 115.8730000  48.3870000  34.3750000 117.2790000  50.0290000
  35.3480000 117.7230000  50.1720000  33.7610000 118.1920000  50.1470000
  34.0300000 116.4380000  51.2120000  34.1310000 117.0900000  52.0860000
  33.0120000 116.1080000  51.1300000  34.8840000 115.1560000  51.1520000
  34.8000000 114.5810000  50.2670000  35.9840000 115.3660000  51.2600000
  34.4760000 114.1380000  52.2760000  33.5080000 113.7280000  52.0790000
  35.1770000 113.3570000  52.0950000  34.6580000 114.6460000  53.7080000
  33.8900000 115.3220000  53.8860000  34.5970000 113.8420000  54.4710000
  36.0060000 115.2560000  54.1050000  37.0260000 114.5830000  54.2680000
  35.9350000 116.6180000  54.1660000  37.1590000 117.3310000  54.4710000
  36.7570000 118.3350000  54.7510000  37.5040000 116.8840000  55.3700000
  38.3210000 117.3520000  53.4490000  38.9930000 116.4210000  53.3560000
  39.3690000 118.4850000  53.8410000  39.6900000 118.0610000  54.8070000
  40.2800000 118.6020000  53.2580000  38.6280000 119.7590000  54.0180000
  38.3740000 120.8820000  52.8530000  36.8810000 120.4810000  52.4560000
  35.7950000 121.1130000  53.1060000  34.9590000 120.4090000  53.2270000
  36.1510000 121.5760000  54.0380000  35.3290000 122.1950000  52.1160000
  34.6410000 122.8340000  52.5140000  36.1780000 122.8240000  51.8430000
  34.6700000 121.7930000  50.8090000  35.5360000 120.9310000  49.9990000
  35.6600000 120.0120000  50.5480000  35.0940000 120.7200000  49.0570000
  36.4530000 121.4320000  49.8250000  33.3940000 121.0630000  51.1090000
  32.9720000 120.8040000  50.1200000  33.4770000 120.1310000  51.6560000
  32.6180000 121.7340000  51.5600000  34.5010000 123.0060000  49.9970000
  34.1920000 122.6990000  48.9520000  35.4520000 123.5780000  49.9920000
  33.7600000 123.6140000  50.5630000  38.3630000 122.1230000  53.6570000
  39.2360000 120.5890000  51.7030000  37.8460000 117.5540000  52.1150000
  38.7360000 117.6300000  51.1110000  39.8340000 117.0930000  51.2280000
  38.1640000 118.1640000  49.8000000  37.3450000 118.8630000  49.9890000
  37.7410000 117.3090000  49.2970000  39.2750000 118.7790000  48.8830000
  40.2040000 118.2980000  49.0810000  39.3870000 119.8400000  49.0940000
  38.8650000 118.7940000  47.3950000  37.8700000 119.2650000  47.3910000
  38.6360000 117.7830000  46.8620000  39.9790000 119.4660000  46.4050000
  40.8980000 118.9280000  46.5180000  40.2070000 120.4680000  46.7250000
  39.4110000 119.6610000  44.9830000  40.1780000 120.2170000  44.5320000
  38.4520000 120.2410000  45.0060000  39.1430000 118.4120000  44.1040000
  38.4750000 117.7070000  44.6200000  40.0720000 117.8790000  43.7970000
  38.5020000 118.8580000  42.8120000  39.1180000 119.6630000  42.3410000
  37.4450000 119.2240000  42.9340000  38.4430000 117.6720000  41.9220000
  38.1380000 116.7730000  42.5000000  38.6810000 117.5940000  40.6480000
  38.5400000 116.6380000  40.1400000  39.1750000 118.7230000  39.7960000
  40.2620000 118.5910000  39.7650000  38.8920000 119.6890000  40.2390000
  38.6290000 118.5680000  38.3560000  37.5170000 118.6510000  38.3630000
  38.8390000 117.5340000  37.8850000  39.1430000 119.6260000  37.3600000
  40.2450000 119.5820000  37.4680000  38.7370000 120.5690000  37.5710000
  38.8210000 119.2690000  35.8910000  39.2900000 118.3660000  35.6340000
  39.2630000 119.9270000  35.2040000  37.3290000 119.1940000  35.5050000
  36.8730000 118.4510000  36.0490000  37.3860000 118.7890000  34.4710000
  36.5810000 120.5430000  35.2240000  37.2940000 121.1920000  34.7260000
  36.2510000 120.9410000  36.1560000  35.3110000 120.3860000  34.3540000
  35.5230000 119.8770000  33.4210000  34.9690000 121.3890000  34.0000000
  34.1520000 119.7100000  34.9860000  33.3900000 119.3670000  34.2930000
  33.7830000 120.3770000  35.7320000  34.5780000 118.8350000  35.4170000
 107.0210000  83.5460000  35.9400000 105.9950000  83.7400000  35.5450000
 107.6110000  83.7250000  35.0350000 107.2040000  84.3830000  36.6350000
 107.3330000  82.1870000  36.5860000 107.1520000  81.2700000  35.8650000
 108.3790000  82.2240000  36.7960000 106.6050000  82.0950000  37.8980000
 107.1640000  82.7160000  38.6020000 105.6480000  82.5900000  37.8080000
 106.5870000  80.7530000  38.6290000 106.1520000  80.9930000  39.6020000
 105.8840000  80.1090000  38.1750000 107.8900000  79.9630000  38.9240000
 107.6680000  79.0090000  39.2790000 108.3650000  79.8940000  38.0350000
 108.8330000  80.6330000  39.9420000 109.0570000  81.5300000  39.4930000
 108.4530000  80.9430000  40.8900000 110.1150000  79.7640000  40.1410000
 109.8390000  78.8240000  40.6890000 110.5350000  79.4950000  39.1670000
 111.2380000  80.4790000  41.0120000 110.8250000  81.0000000  41.9200000
 111.9540000  79.7940000  41.3240000 111.9370000  81.4820000  40.0240000
 112.2500000  80.9660000  39.1160000 111.2860000  82.2850000  39.6480000
 113.2310000  82.1110000  40.6320000 113.6310000  81.4380000  41.3900000
 113.9430000  82.2860000  39.8330000 112.9020000  83.4950000  41.2920000
 112.3940000  84.0920000  40.5220000 112.1130000  83.3720000  42.0870000
 114.1880000  84.1470000  41.7470000 114.5180000  83.6070000  42.6080000
 115.0360000  84.1820000  40.9910000 113.9490000  85.6150000  42.1360000
 113.4030000  86.0500000  41.3440000 113.3610000  85.7530000  43.0990000
 115.2800000  86.4070000  42.3310000 115.9560000  86.1620000  41.5560000
 115.0580000  87.5110000  42.2330000 116.0720000  86.1350000  43.6380000
 116.2850000  85.0930000  43.8240000 117.0390000  86.5680000  43.5250000
 115.5460000  86.6070000  44.9110000 114.5140000  87.2310000  44.8700000
 116.2550000  86.2890000  45.9950000 115.8480000  86.8800000  47.2650000
 116.7800000  87.0380000  47.8070000 115.5820000  87.9080000  46.9810000
 114.8820000  85.9480000  48.1690000 114.8530000  86.4310000  49.1660000
 115.4600000  84.5660000  48.3490000 115.3410000  84.1060000  47.3930000
 116.5260000  84.6040000  48.5600000 114.7920000  83.8650000  49.3730000
 115.2840000  83.8720000  50.8430000 116.4260000  82.7300000  50.9180000
 116.0780000  81.3650000  51.0140000 115.0440000  81.2520000  50.9660000
 116.5410000  80.8780000  50.1670000 116.5010000  80.6320000  52.2850000
 116.0670000  79.6750000  52.2760000 117.5660000  80.5060000  52.4050000
 115.9690000  81.2050000  53.6280000 116.5790000  80.2900000  54.6110000
 116.3640000  79.2300000  54.4860000 117.6640000  80.4920000  54.5950000
 116.1870000  80.5400000  55.6330000 116.5670000  82.5430000  53.9450000
 116.4170000  82.8590000  54.9660000 117.6550000  82.5200000  53.6890000
 116.0110000  83.1510000  53.2450000 114.5150000  81.1860000  53.6870000
 114.3660000  80.0940000  53.6550000 114.0550000  81.7320000  52.8560000
 114.2130000  81.6130000  54.6670000 115.9120000  85.1280000  51.2160000
 114.1290000  83.3920000  51.6710000 113.4990000  85.8580000  47.7020000
 112.7330000  86.9830000  47.7400000 113.0210000  87.9170000  48.4460000
 111.3460000  86.7370000  47.0730000 111.5140000  86.8430000  45.9990000
 110.7160000  87.5740000  47.3900000 110.7140000  85.3870000  47.2900000
 110.2980000  85.3050000  48.2780000 111.3800000  84.5540000  47.1530000
 109.5630000  85.1460000  46.2660000 110.0110000  85.1290000  45.3200000
 108.8570000  85.9720000  46.3910000 108.8460000  83.8580000  46.3720000
 108.4080000  83.8200000  47.3510000 109.5970000  83.0900000  46.3910000
 107.7760000  83.5900000  45.2980000 107.4590000  82.5270000  45.2410000
 107.9490000  84.0050000  44.3500000 106.5160000  84.3730000  45.7690000
 106.7170000  85.4490000  45.8590000 106.2580000  83.9740000  46.7280000
 105.2300000  84.2920000  44.8950000 104.3750000  84.7730000  45.3850000
 104.8630000  83.3020000  44.8200000 105.4820000  84.7450000  43.4910000
 105.8080000  85.7840000  43.3550000 105.3570000  84.0550000  42.3680000
 105.7150000  84.4960000  41.4240000 105.1420000  82.6590000  42.2320000
 105.5990000  81.9810000  42.9770000 105.6580000  82.4560000  41.2270000
 103.6140000  82.3250000  42.0230000 103.1790000  83.1590000  41.4350000
 103.1500000  82.4440000  43.0220000 103.2550000  80.9490000  41.4280000
 103.1760000  80.9670000  40.3920000 102.2890000  80.7010000  41.7430000
 104.2130000  79.7890000  41.9160000 104.3750000  79.9270000  43.0810000
 105.1410000  79.8150000  41.3890000 103.6230000  78.4100000  41.6730000
 102.6480000  78.4010000  41.1860000 103.4580000  78.0070000  42.5960000
 104.4750000  77.4910000  40.8020000 105.4630000  77.3150000  41.2490000
 104.5820000  78.1650000  39.9350000 103.8130000  76.1440000  40.3380000
 103.6340000  75.4260000  41.1340000 104.5410000  75.6770000  39.6140000
 102.4300000  76.3160000  39.7010000 102.0480000  75.3460000  39.3840000
 102.6640000  76.8770000  38.8080000 101.7730000  76.7210000  40.3870000
 141.6490000 137.3210000  36.7390000 141.0290000 138.2950000  36.7650000
 142.2690000 137.1910000  35.7860000 142.3960000 137.4440000  37.5650000
 140.7360000 136.1820000  36.8710000 140.2890000 136.1020000  35.8380000
 141.2180000 135.2490000  37.0230000 139.5510000 136.4300000  37.8070000
 139.9810000 136.2500000  38.7270000 139.2590000 137.4720000  37.8370000
 138.2620000 135.6040000  37.6500000 137.5380000 136.0680000  38.3220000
 137.9810000 135.8140000  36.6160000 138.4400000 134.1410000  38.0540000
 139.1520000 133.6580000  37.4420000 138.8040000 134.0770000  39.1310000
 137.1030000 133.3310000  37.9020000 136.6900000 133.6090000  36.8430000
 137.2530000 132.2310000  37.9500000 136.0410000 133.7250000  39.0210000
 136.5760000 134.2080000  39.8420000 135.3140000 134.4480000  38.6370000
 135.2410000 132.5640000  39.5110000 134.9880000 131.9180000  38.6740000
 135.9250000 131.8860000  40.1780000 133.9890000 133.0190000  40.2920000
 133.5440000 133.8310000  39.7420000 133.3590000 132.1650000  40.4270000
 134.4090000 133.4650000  41.7280000 134.3960000 132.5800000  42.3960000
 135.4300000 133.8220000  41.6570000 133.6970000 134.7140000  42.2290000
 133.8910000 135.5530000  41.5590000 132.5690000 134.5340000  42.1480000
 133.9470000 135.0370000  43.7470000 134.9730000 134.9050000  44.0340000
 133.6850000 136.0510000  43.8860000 133.0580000 134.1940000  44.6600000
 132.1130000 134.6730000  44.7260000 132.7590000 133.2690000  44.0990000
 133.6280000 133.8380000  46.0220000 134.6160000 133.3420000  46.0310000
 133.8330000 134.7750000  46.4730000 132.5830000 133.0380000  46.8620000
 132.3450000 133.5250000  47.8000000 131.6880000 132.9890000  46.2470000
 133.0180000 131.6350000  47.1560000 133.4780000 130.9700000  46.2740000
 132.7330000 131.2190000  48.3810000 133.2200000 129.8780000  48.7160000
 132.9200000 129.1130000  47.9040000 134.2840000 129.8620000  48.7660000
 132.4960000 129.2960000  49.9280000 132.7840000 129.9260000  50.7820000
 132.9850000 127.8820000  50.2000000 134.0730000 127.8020000  50.1810000
 132.6830000 127.5570000  51.1750000 132.3960000 126.9090000  49.2930000
 132.5480000 125.3070000  49.4620000 131.1790000 124.9560000  50.1960000
 129.9380000 125.3220000  49.5560000 129.8790000 126.3600000  49.2980000
 129.7870000 124.6820000  48.7510000 128.9780000 125.0920000  50.6940000
 127.9410000 125.3060000  50.4190000 128.9990000 124.0680000  51.0260000
 129.0740000 125.9820000  51.9800000 128.0630000 125.5040000  52.9010000
 128.2180000 124.4010000  53.0520000 128.1690000 126.0120000  53.8200000
 127.1130000 125.6100000  52.4240000 130.3480000 126.0480000  52.7010000
 130.6050000 125.0960000  53.2720000 131.0290000 126.3430000  51.9450000
 130.3240000 126.8420000  53.4190000 128.6680000 127.3120000  51.6490000
 128.4100000 127.8050000  52.5760000 127.7770000 127.2450000  51.0350000
 129.4340000 128.0090000  51.3260000 132.4710000 124.6850000  48.1520000
 133.6680000 124.9890000  50.3840000 131.0790000 129.3520000  49.6290000
 130.3660000 130.2310000  50.4080000 130.6660000 130.5640000  51.5230000
 129.0110000 130.6710000  49.7800000 128.6040000 129.8030000  49.2050000
 129.2660000 131.4170000  49.0140000 128.0530000 131.2410000  50.8300000
 128.4730000 132.1620000  51.2320000 127.7930000 130.4790000  51.5880000
 126.6250000 131.7200000  50.2080000 126.0710000 130.8870000  49.8160000
 125.9840000 132.1040000  50.9930000 126.8390000 132.8950000  49.1980000
 127.4740000 132.5590000  48.3790000 127.4110000 133.7440000  49.6560000
 125.5390000 133.3980000  48.5850000 124.7580000 133.4350000  49.3480000
 125.3220000 132.6250000  47.7740000 125.8090000 134.8350000  47.9710000
 126.4260000 135.4310000  48.6490000 124.8470000 135.3670000  47.7920000
 126.4640000 134.7450000  46.5790000 125.7090000 134.2130000  45.9130000
 127.3400000 133.9960000  46.6320000 126.7910000 136.1100000  46.1520000
 126.3470000 136.9230000  46.8570000 127.6960000 136.5260000  45.2400000
 127.6980000 137.6000000  44.9340000 128.7280000 135.6530000  44.4630000
 128.6760000 134.6350000  44.7080000 129.7730000 136.1020000  44.6370000
 128.3940000 135.7540000  42.9880000 128.2310000 136.8020000  42.8120000
 127.5760000 135.1380000  42.5960000 129.6480000 135.4360000  42.1330000
 129.8630000 134.3790000  42.1840000 130.5840000 135.9190000  42.4170000
 129.3470000 135.7600000  40.6330000 128.8630000 136.7260000  40.5360000
 128.5920000 135.0750000  40.2580000 130.5810000 135.6290000  39.8020000
 130.6590000 134.5000000  39.7300000 131.4920000 136.0320000  40.2220000
 130.3560000 136.0950000  38.3270000 130.5840000 137.1760000  38.2360000
 129.3380000 135.9520000  37.9530000 131.2550000 135.3990000  37.3030000
 132.2590000 135.2000000  37.7460000 131.3190000 136.0280000  36.4290000
 130.7180000 134.0540000  36.8790000 130.3770000 133.4480000  37.7590000
 131.4760000 133.6040000  36.2950000 129.8400000 134.2680000  36.2770000
  62.5230000  78.2060000  39.4040000  63.3720000  78.8410000  39.1370000
  62.8300000  77.1900000  39.4590000  62.2220000  78.5770000  40.3540000
  61.4980000  78.5180000  38.2910000  61.5630000  79.5790000  38.2600000
  61.8600000  78.0060000  37.4000000  60.0920000  78.0140000  38.6820000
  59.6480000  78.4930000  39.6160000  59.5070000  78.3460000  37.8610000
  59.9790000  76.4650000  38.9450000  60.6810000  76.0200000  38.2040000
  60.4120000  76.3110000  39.9380000  58.4980000  75.9820000  38.7540000
  57.8550000  76.6450000  39.3220000  58.1760000  75.9640000  37.7090000
  58.6450000  74.5100000  39.2580000  59.2600000  74.0210000  38.5350000
  59.1180000  74.4600000  40.2870000  57.3820000  73.6170000  39.2560000
  57.0010000  73.5000000  38.3150000  57.7880000  72.5810000  39.4140000
  56.2350000  73.9580000  40.2780000  55.7580000  74.8880000  39.9130000
  55.5620000  73.1590000  40.2270000  56.6540000  74.0890000  41.7520000
  57.1880000  73.2440000  42.1140000  57.3880000  74.8800000  41.8820000
  55.3580000  74.3690000  42.6020000  54.7010000  73.5530000  42.5450000
  55.6100000  74.4140000  43.6490000  54.5500000  75.6210000  42.3650000
  55.2700000  76.4290000  42.2380000  53.9950000  75.4920000  41.3470000
  53.5580000  75.8660000  43.5020000  53.0540000  74.8550000  43.6630000
  54.0980000  76.1040000  44.4020000  52.4820000  76.9380000  43.2120000
  52.2500000  76.7470000  42.1960000  51.6360000  76.9080000  43.9600000
  52.9180000  78.4310000  43.3550000  53.7600000  78.5860000  42.6700000
  52.0510000  78.9890000  42.9310000  53.2310000  78.9220000  44.7900000
  54.2300000  78.6190000  45.0960000  53.2840000  80.0010000  44.7880000
  52.1470000  78.5840000  45.7610000  51.0020000  78.9720000  45.6220000
  52.5400000  77.8970000  46.7810000  51.6050000  77.4330000  47.7940000
  52.2110000  77.1010000  48.6190000  50.9830000  78.2090000  48.1800000
  50.8220000  76.2270000  47.1760000  50.6130000  76.4950000  46.1310000
  49.4990000  76.0850000  47.9800000  48.8150000  76.8800000  47.6910000
  49.0470000  75.0990000  47.9100000  49.7520000  76.2910000  49.3990000
  48.5410000  76.3870000  50.4540000  48.4060000  74.9610000  51.1310000
  47.7740000  73.7850000  50.5630000  46.6740000  73.7700000  50.7810000
  47.9560000  73.7750000  49.4660000  48.5120000  72.5250000  51.1020000
  48.3550000  72.4770000  52.2350000  48.0600000  71.5980000  50.7890000
  50.0120000  72.3730000  50.7410000  50.5740000  71.1880000  51.4430000
  51.6510000  71.1430000  51.2320000  50.2860000  71.1830000  52.5190000
  50.0970000  70.2770000  50.9660000  50.0920000  72.2290000  49.2590000
  51.0260000  71.7420000  48.9580000  49.3230000  71.4990000  48.9360000
  49.9540000  73.1600000  48.7100000  50.7500000  73.5860000  51.1570000
  50.4270000  74.3280000  50.4380000  51.8360000  73.3370000  51.0080000
  50.6270000  73.9060000  52.2340000  48.8940000  77.3480000  51.5040000
  47.3130000  76.6090000  49.6330000  51.5900000  74.9930000  47.3030000
  51.6370000  74.2320000  46.2210000  51.2400000  74.4710000  45.0920000
  52.2800000  72.9460000  46.4400000  52.5350000  72.8530000  47.5170000
  53.1800000  72.7850000  45.8140000  51.4070000  71.7220000  46.1840000
  50.4220000  71.8990000  46.6700000  51.8840000  70.8380000  46.6660000
  51.2090000  71.2940000  44.6910000  52.1270000  70.8980000  44.3180000
  50.9560000  72.1880000  44.0850000  50.1440000  70.1860000  44.4300000
  49.1830000  70.6420000  44.5230000  50.2810000  69.4650000  45.2380000
  50.2110000  69.5410000  43.0160000  51.1400000  69.0080000  42.9410000
  50.3020000  70.3290000  42.2780000  49.0320000  68.6000000  42.8490000
  48.1390000  69.2450000  43.0560000  49.1880000  67.8460000  43.5990000
  48.8890000  68.0360000  41.4340000  48.6380000  68.8260000  40.7490000
  48.0260000  67.4080000  41.5220000  50.1190000  67.1980000  41.0340000
  50.5830000  66.5610000  41.7660000  50.7200000  67.2480000  39.8590000
  51.6280000  66.6730000  39.7140000  50.4040000  68.1960000  38.7410000
  49.2790000  68.2890000  38.6890000  50.7820000  67.8490000  37.7810000
  50.9300000  69.6100000  38.9560000  50.8430000  69.9480000  40.0100000
  50.2330000  70.2070000  38.3250000  52.4130000  69.8170000  38.5910000
  52.5530000  70.8570000  38.7650000  52.5070000  69.6600000  37.4730000
  53.5220000  69.0360000  39.3280000  53.4020000  67.9940000  39.0770000
  53.3820000  69.1030000  40.4850000  54.9510000  69.5570000  39.1940000
  55.5590000  69.1920000  39.9880000  55.0120000  70.6070000  39.2900000
  55.5760000  69.1090000  37.8430000  54.8900000  69.4280000  37.0660000
  55.6000000  67.9890000  37.8230000  57.0010000  69.7500000  37.6310000
  57.6790000  69.5360000  38.4600000  56.8930000  70.8320000  37.6800000
  57.7150000  69.2880000  36.3540000  57.1390000  69.8340000  35.5910000
  57.6610000  68.1930000  36.2020000  58.7500000  69.7390000  36.2300000
  45.2560000  57.0400000  43.0010000  46.2510000  57.4140000  42.7210000
  44.5440000  57.9020000  43.1420000  44.8220000  56.4840000  42.1840000
  45.3690000  56.1040000  44.2250000  44.4310000  55.6130000  44.3910000
  46.0100000  55.3090000  43.9210000  45.8190000  56.8970000  45.3850000
  46.7460000  57.2540000  45.1350000  45.1650000  57.7860000  45.4870000
  45.9490000  56.2220000  46.7300000  44.9230000  55.8960000  47.1140000
  46.4750000  55.3240000  46.5940000  46.5360000  57.1450000  47.8230000
  47.4760000  57.5770000  47.5160000  45.8500000  57.9710000  48.0400000
  46.7330000  56.3250000  49.1560000  47.3600000  55.4490000  48.9430000
  47.3700000  56.8630000  49.8830000  45.4880000  56.0050000  49.9860000
  44.7160000  56.7880000  49.9160000  44.9480000  55.1060000  49.5960000
  45.7280000  55.7710000  51.4740000  46.2750000  54.8410000  51.6150000
  46.3230000  56.6030000  51.8410000  44.4490000  55.6470000  52.3460000
  43.8340000  56.4700000  52.2960000  43.8290000  54.7240000  51.9150000
  44.7620000  55.2570000  53.8240000  45.4720000  54.4750000  53.8950000
  45.1530000  56.1540000  54.3880000  43.5470000  54.8230000  54.5340000
  43.1050000  53.9850000  54.0860000  43.6810000  54.5270000  55.5910000
  42.5620000  55.9120000  54.5920000  43.1320000  56.8080000  54.7270000
  42.1490000  55.9810000  53.6220000  41.4090000  55.8300000  55.5910000
  40.7450000  55.0480000  55.2680000  41.9040000  55.5100000  56.4580000
  40.6470000  57.1350000  55.9210000  41.3400000  57.9570000  55.7430000
  39.8060000  57.2030000  55.2870000  40.2370000  57.0660000  57.3850000
  41.0310000  56.5150000  58.0240000  40.2800000  58.0160000  57.9220000
  38.9890000  56.3280000  57.5790000  37.9340000  56.8970000  57.7480000
  39.1220000  54.9710000  57.4550000  37.8620000  54.2730000  57.3270000
  37.9480000  53.1800000  57.5820000  37.1260000  54.7430000  57.9620000
  37.4570000  54.2740000  55.8490000  37.4520000  55.3500000  55.4710000
  36.0490000  53.7550000  55.5420000  35.8310000  53.8420000  54.4690000
  35.8880000  52.6880000  55.7740000  35.1450000  54.6900000  56.2300000
  33.6260000  54.3420000  56.0880000  33.2730000  54.8380000  54.6200000
  33.2390000  53.9930000  53.4750000  34.1840000  53.9810000  52.9730000
  32.9970000  52.9540000  53.7280000  32.2560000  54.5340000  52.5020000
  32.4240000  55.5890000  52.2020000  32.1960000  53.9450000  51.6460000
  30.8710000  54.5570000  52.9760000  30.5030000  53.4430000  53.9780000
  30.7290000  52.4750000  53.3900000  31.0680000  53.4930000  54.8750000
  29.4500000  53.4780000  54.2770000  30.6260000  55.8840000  53.6210000
  29.6250000  56.2380000  53.3300000  30.6770000  55.7980000  54.6790000
  31.4160000  56.6180000  53.2840000  30.0020000  54.3540000  51.7760000
  30.1750000  53.3640000  51.4310000  30.1980000  54.9850000  51.0280000
  28.9830000  54.5820000  52.0420000  33.4670000  52.8640000  56.1720000
  32.7830000  55.2830000  56.9000000  38.3410000  53.4230000  55.0620000
  38.6680000  53.9140000  53.8890000  38.1710000  54.9240000  53.4180000
  39.5280000  52.9530000  53.1000000  39.0980000  51.9960000  53.1130000
  40.4820000  52.9610000  53.6500000  39.8020000  53.6170000  51.7030000
  40.3660000  54.5180000  51.8420000  38.9090000  53.9950000  51.2020000
  40.5470000  52.6180000  50.8150000  39.8260000  51.8320000  50.5670000
  41.2810000  52.1410000  51.3840000  41.2500000  53.3050000  49.6310000
  42.0740000  53.8570000  50.0600000  40.6310000  54.0570000  49.1600000
  41.7010000  52.4640000  48.4140000  40.8600000  52.2940000  47.7300000
  42.0550000  51.5040000  48.7140000  42.9060000  53.1430000  47.6990000
  43.6950000  53.3340000  48.4670000  42.6170000  54.0220000  47.1790000
  43.3170000  52.1410000  46.6180000  42.6090000  52.1520000  45.7970000
  43.3190000  51.1780000  47.0670000  44.6700000  52.6620000  46.0140000
  44.8620000  53.7180000  46.0190000  45.6380000  51.9370000  45.4970000
  46.4520000  52.4150000  45.1410000  45.7230000  50.4500000  45.4170000
  44.7880000  49.9250000  45.6990000  46.4460000  50.0460000  46.0450000
  46.2850000  49.9960000  43.9880000  45.7600000  50.4170000  43.1400000
  46.1600000  48.9020000  43.9260000  47.8390000  50.3490000  43.7420000
  48.5530000  49.8550000  44.4200000  47.9200000  51.3870000  44.0200000
  48.3210000  50.0860000  42.3070000  47.5620000  49.4100000  41.8770000
  49.2840000  49.6010000  42.3680000  48.5540000  51.2790000  41.3130000
  49.0340000  50.8590000  40.4100000  49.2950000  52.0110000  41.6810000
  47.1610000  51.9580000  40.9220000  46.7460000  52.5970000  41.7500000
  46.3790000  51.1850000  40.8060000  47.3710000  52.9140000  39.7040000
  47.4730000  52.3450000  38.7970000  48.3680000  53.2760000  39.9460000
  46.4070000  54.0990000  39.5670000  45.4360000  53.6190000  39.7090000
  46.5250000  54.5010000  38.6240000  46.4480000  54.7680000  40.3610000
  23.0770000  66.1250000  41.2440000  23.4890000  65.4180000  40.5250000
  23.5510000  65.8240000  42.1570000  23.3070000  67.1330000  41.1290000
  21.5520000  66.1960000  41.2640000  21.1420000  65.1720000  41.1300000
  21.2420000  66.5840000  42.2160000  21.0570000  67.1470000  40.1270000
  21.5870000  68.1440000  39.9800000  21.1120000  66.6030000  39.1200000
  19.5270000  67.4280000  40.3600000  18.9700000  67.6400000  39.4530000
  19.0350000  66.4670000  40.7500000  19.4390000  68.6430000  41.3090000
  20.0420000  68.2200000  42.0730000  19.9570000  69.4940000  40.7770000
  17.9420000  68.8920000  41.7490000  17.2600000  69.1800000  40.9190000
  17.6150000  67.9950000  42.2580000  17.8230000  70.1140000  42.6220000
  18.2410000  70.9530000  41.9890000  16.7510000  70.3590000  42.7470000
  18.5940000  70.0960000  43.8910000  19.6750000  69.9350000  43.6910000
  18.3310000  71.1310000  44.2650000  18.2150000  69.0290000  44.9410000
  17.1410000  69.1130000  45.1970000  18.4310000  68.0040000  44.5210000
  19.1030000  69.1730000  46.1620000  18.8190000  70.1850000  46.6610000
  18.9580000  68.4360000  46.9510000  20.6130000  69.1500000  45.9630000
  21.0100000  69.8090000  45.1990000  21.0710000  69.4960000  46.8940000
  21.1100000  67.7720000  45.7760000  20.9280000  67.2420000  46.6880000
  20.4940000  67.3160000  45.0260000  22.6020000  67.5680000  45.3330000
  22.5630000  68.0380000  44.3000000  23.2280000  68.1350000  46.0670000
  23.1270000  66.0940000  45.1660000  22.4550000  65.5450000  44.4330000
  24.1830000  66.0550000  44.7640000  23.1940000  65.2210000  46.4150000
  22.1750000  65.1310000  46.7900000  23.7140000  64.2320000  46.3430000
  23.9970000  65.8620000  47.5220000  24.8700000  66.7080000  47.3310000
  23.6760000  65.4630000  48.7720000  24.4680000  65.9270000  49.9420000
  24.5250000  65.1810000  50.7700000  25.5230000  66.1800000  49.7250000
  23.7500000  67.1250000  50.5640000  24.3900000  67.4080000  51.3980000
  22.4180000  66.6010000  51.1510000  21.7700000  66.3580000  50.3000000
  22.6010000  65.7250000  51.8140000  21.7640000  67.5740000  51.9180000
  22.2110000  67.9770000  53.4000000  21.0330000  67.2370000  54.2950000
  19.8600000  67.8740000  54.6630000  19.4630000  67.4060000  55.5690000
  20.0520000  68.8950000  54.9590000  18.8040000  67.8550000  53.4490000
  18.0880000  68.5870000  53.7560000  19.2900000  68.1170000  52.4890000
  18.0740000  66.6410000  53.0870000  17.2480000  66.8620000  51.8880000
  17.8990000  67.0150000  51.0030000  16.5840000  65.9820000  51.7940000
  16.6150000  67.7410000  52.0780000  18.9500000  65.4850000  52.9270000
  19.5620000  65.6180000  52.0220000  19.5990000  65.5140000  53.8140000
  18.3500000  64.5290000  52.9330000  17.2050000  66.3380000  54.2560000
  17.7910000  66.2090000  55.2220000  16.6730000  65.4040000  54.0760000
  16.4960000  67.0790000  54.3790000  23.4980000  67.3240000  53.6070000
  22.1820000  69.4390000  53.5230000  23.5310000  68.2170000  49.7060000
  24.5980000  69.0190000  49.6200000  25.6620000  68.8620000  50.1340000
  24.2980000  70.3020000  48.8340000  24.4250000  71.2200000  49.3760000
  23.2770000  70.3830000  48.5440000  25.2480000  70.3080000  47.6090000
  24.9550000  69.5460000  46.8840000  26.2570000  70.0190000  47.8760000
  25.1670000  71.6920000  46.7920000  25.6440000  71.5920000  45.8260000
  25.6670000  72.4430000  47.3900000  23.7430000  72.2630000  46.6580000
  23.5480000  72.8640000  47.5940000  23.0620000  71.3500000  46.5280000
  23.5900000  73.2380000  45.4560000  24.1490000  74.1300000  45.5350000
  22.5890000  73.6350000  45.4850000  23.7720000  72.6470000  44.0130000
  24.6660000  72.1400000  43.8200000  23.7630000  73.4900000  43.2530000
  22.6950000  71.6040000  43.6730000  21.7310000  72.0360000  43.8190000
  22.7770000  70.6800000  44.3430000  22.8800000  71.1640000  42.2590000
  23.5440000  70.3260000  42.2240000  22.4720000  71.7200000  41.0860000
  22.7800000  71.3340000  40.0880000  21.5950000  72.9810000  40.9410000
  21.9940000  73.8060000  40.4350000  21.3490000  73.2190000  42.0390000
  20.2760000  72.5810000  40.2040000  19.6830000  71.9900000  40.8880000
  20.6490000  71.9290000  39.3490000  19.5300000  73.7390000  39.6630000
  20.2540000  74.3060000  39.1420000  19.1330000  74.3000000  40.5530000
  18.4860000  73.4010000  38.6340000  17.8240000  72.6420000  39.0780000
  18.9250000  72.9210000  37.7720000  17.6650000  74.6220000  38.0170000
  16.7610000  74.1440000  37.6510000  17.9920000  75.1600000  37.0900000
  17.3980000  75.7280000  39.0700000  18.3150000  75.9700000  39.6000000
  16.6790000  75.4170000  39.8180000  16.8710000  77.0520000  38.3590000
  17.7240000  77.2900000  37.6540000  16.7850000  77.9590000  39.0370000
  15.5420000  76.9170000  37.5650000  15.1270000  77.8140000  37.2710000
  14.8400000  76.4510000  38.2240000  15.6750000  76.1920000  36.7670000
 150.4580000  40.7200000  34.7130000 149.7010000  41.5600000  34.5000000
 150.2210000  39.9110000  34.0890000 151.3780000  41.1290000  34.2530000
 150.7110000  40.1870000  36.1650000 151.4820000  39.4000000  35.9780000
 151.0020000  40.9670000  36.8690000 149.4640000  39.5550000  36.6530000
 149.0020000  38.8610000  35.9440000 149.7370000  38.9430000  37.5590000
 148.2950000  40.5150000  36.9160000 148.6740000  41.2060000  37.7390000
 148.1090000  41.1420000  36.0490000 146.9540000  39.7990000  37.2630000
 146.6440000  39.0490000  36.4910000 147.0610000  39.3290000  38.2580000
 145.7630000  40.7500000  37.3630000 145.9750000  41.3730000  38.2230000
 145.7440000  41.4100000  36.4680000 144.4000000  40.1210000  37.5660000
 144.0320000  39.8970000  36.5590000 144.2970000  39.2850000  38.2540000
 143.4340000  41.2840000  38.1100000 143.7020000  42.2520000  37.7240000
 142.3720000  41.0870000  37.8100000 143.4640000  41.3710000  39.6630000
 143.1800000  40.4390000  40.0550000 144.5860000  41.4440000  39.8540000
 142.6210000  42.5570000  40.1860000 141.8690000  42.8280000  39.4090000
 141.9620000  42.1660000  40.9460000 143.4560000  43.7330000  40.6550000
 144.3500000  43.8550000  40.0820000 142.9900000  44.6850000  40.5070000
 143.8220000  43.6120000  42.1090000 144.4020000  42.7230000  42.1940000
 144.4150000  44.4240000  42.5100000 142.6470000  43.4470000  43.0470000
 142.0360000  44.3100000  42.8430000 142.1490000  42.4950000  42.8440000
 142.9840000  43.3860000  44.5720000 143.3830000  44.3100000  44.8810000
 142.0500000  43.1460000  45.0780000 144.0640000  42.3440000  44.8860000
 143.8160000  41.3180000  44.6090000 145.0290000  42.5720000  44.4120000
 144.2460000  42.3050000  46.4280000 144.0120000  43.1840000  47.2470000
 144.7160000  41.0530000  46.7260000 144.6580000  40.5950000  48.0720000
 144.8120000  41.3600000  48.7490000 143.6110000  40.2770000  48.2020000
 145.5810000  39.4600000  48.3630000 145.3490000  38.7440000  47.5130000
 145.3530000  38.6150000  49.6790000 145.8340000  37.6750000  49.6800000
 145.7670000  39.1230000  50.5270000 143.9610000  38.2490000  49.9980000
 143.0190000  39.1310000  50.9250000 142.6640000  38.0800000  52.0750000
 141.3310000  37.5590000  52.0930000 141.1610000  37.1050000  53.0490000
 140.6380000  38.3960000  51.9500000 141.2330000  36.5250000  50.9630000
 140.1660000  36.4000000  50.8530000 141.5570000  36.9600000  49.9620000
 141.9260000  35.1420000  51.0470000 141.6380000  34.3470000  49.8310000
 141.7980000  35.0100000  48.9880000 142.3290000  33.4940000  49.8220000
 140.6480000  34.0180000  49.8630000 143.4040000  35.1950000  51.2360000
 143.8650000  34.2040000  51.1680000 143.7530000  35.7730000  50.3830000
 143.6470000  35.6930000  52.1600000 141.3140000  34.4700000  52.1950000
 141.6450000  33.4420000  52.2960000 140.1560000  34.3620000  51.9140000
 141.5620000  35.0390000  53.1090000 143.8370000  40.2140000  51.5080000
 141.7980000  39.4480000  50.1440000 146.8790000  40.0370000  48.4920000
 147.8340000  39.6020000  47.7220000 147.7330000  38.8350000  46.7650000
 149.1170000  40.3260000  47.9520000 149.9010000  39.6410000  47.9120000
 149.0610000  40.8320000  48.8860000 149.4530000  41.3680000  46.8240000
 149.3970000  40.8630000  45.8520000 150.5450000  41.5280000  46.9370000
 148.6230000  42.5820000  46.9560000 148.7010000  42.8260000  48.0370000
 147.6650000  42.2410000  46.7670000 148.9790000  43.7400000  46.0580000
 150.0920000  43.7270000  45.9480000 148.6470000  44.6770000  46.4600000
 148.4220000  43.5690000  44.6380000 147.3900000  43.2940000  44.6980000
 148.9800000  42.8280000  44.1130000 148.4940000  44.9310000  43.8920000
 149.4590000  45.3770000  43.7450000 147.8990000  45.6220000  44.4820000
 147.9760000  44.7230000  42.4490000 147.7550000  45.6830000  42.0130000
 147.1140000  44.1090000  42.3590000 149.0680000  44.1420000  41.6240000
 149.9540000  43.9580000  42.1330000 149.0040000  43.7640000  40.3580000
 149.9420000  43.3320000  39.9720000 147.7730000  43.8810000  39.4770000
 146.9890000  44.2200000  40.1900000 147.5360000  42.8000000  39.1780000
 147.8770000  44.9130000  38.3070000 148.7410000  44.6100000  37.7180000
 148.0910000  45.9350000  38.6460000 146.5900000  44.8330000  37.3890000
 145.6660000  45.0130000  38.0030000 146.4850000  43.8650000  36.8990000
 146.5460000  45.9300000  36.3020000 147.3980000  45.9290000  35.6890000
 146.5030000  46.8810000  36.8270000 145.3330000  45.8640000  35.4220000
 144.4050000  45.9360000  36.0080000 145.3550000  44.8760000  34.9240000
 145.3490000  46.8410000  34.2600000 144.3980000  46.5610000  33.8410000
 146.1830000  46.5400000  33.6080000 145.2490000  48.3240000  34.6550000
 146.1360000  48.6140000  35.2510000 144.4990000  48.5920000  35.3900000
 144.8430000  49.2590000  33.4830000 143.9640000  48.9900000  32.9780000
 145.6800000  49.3320000  32.7840000 144.6220000  50.2970000  33.7730000
  41.6280000  13.2870000  40.0130000  41.2630000  14.2880000  39.6580000
  41.4660000  13.3890000  41.0780000  40.8610000  12.5850000  39.7040000
  43.0420000  12.8310000  39.6290000  43.1330000  12.7900000  38.5110000
  43.8020000  13.5110000  39.9590000  43.3830000  11.3750000  40.1720000
  42.4780000  10.7790000  39.8590000  44.2380000  10.9530000  39.6960000
  43.5090000  11.1500000  41.6330000  44.4080000  11.5650000  41.9650000
  42.8520000  11.8500000  42.1340000  43.4260000   9.7300000  42.2120000
  43.5860000   9.9000000  43.3000000  42.3610000   9.3750000  42.0190000
  44.4810000   8.7410000  41.5770000  44.2660000   8.5540000  40.4860000
  45.4300000   9.2700000  41.5920000  44.8720000   7.4050000  42.2450000
  44.2540000   6.6010000  42.0350000  45.7530000   7.1120000  41.8160000
  45.1030000   7.5970000  43.7730000  44.1950000   7.8600000  44.3280000
  45.4390000   6.6360000  44.1760000  46.2590000   8.5090000  44.1160000
  47.1200000   7.9630000  43.8450000  46.2620000   9.4430000  43.4860000
  46.1910000   9.0160000  45.6460000  46.3540000   8.1860000  46.2950000
  47.0390000   9.6590000  45.7750000  44.9510000   9.8230000  46.0540000
  44.0220000   9.3400000  45.7540000  44.7510000   9.8440000  47.1120000
  45.0350000  11.2660000  45.3720000  45.8410000  11.8760000  45.8150000
  45.3810000  11.1720000  44.3210000  43.6790000  11.9760000  45.4270000
  43.0280000  11.3390000  44.8490000  43.4250000  12.1680000  46.4120000
  43.6140000  13.3610000  44.7820000  44.1200000  13.2800000  43.8500000
  42.6140000  13.7180000  44.5490000  44.3810000  14.4080000  45.5920000
  45.1530000  13.9100000  46.1890000  44.7600000  15.2110000  44.9120000
  43.4890000  15.1340000  46.5100000  42.9990000  16.2390000  46.2980000
  43.2080000  14.3620000  47.5490000  42.1950000  14.7850000  48.5080000
  42.2680000  14.0150000  49.2590000  42.4780000  15.7260000  48.9540000
  40.8000000  14.8690000  47.8970000  40.8570000  15.7800000  47.2080000
  39.6620000  14.7760000  48.9950000  39.6720000  15.7470000  49.5990000
  38.7410000  14.5390000  48.5050000  39.9510000  13.6800000  49.9400000
  39.0710000  12.4230000  49.9930000  40.2820000  11.3420000  50.3170000
  41.0600000  10.8030000  49.2110000  40.4810000  10.1020000  48.6360000
  41.3120000  11.6560000  48.5380000  42.2880000  10.2320000  49.8790000
  41.9040000   9.6930000  50.7440000  42.8370000   9.5950000  49.1240000
  43.3470000  11.2060000  50.3670000  44.4080000  10.4060000  51.0230000
  44.0840000   9.9910000  51.9760000  44.6330000   9.5600000  50.3170000
  45.2850000  11.0530000  51.1160000  43.9720000  11.8190000  49.1720000
  44.4580000  12.7430000  49.4880000  44.7700000  11.2150000  48.7880000
  43.2630000  11.9600000  48.4480000  42.9220000  12.2540000  51.3170000
  42.0570000  12.7050000  50.7700000  43.7290000  12.9120000  51.5800000
  42.4840000  11.7010000  52.1610000  38.1150000  12.5760000  51.0800000
  38.6020000  12.2010000  48.6220000  40.6370000  13.7490000  47.0320000
  39.6890000  13.8090000  46.1020000  38.8940000  14.7450000  45.9800000
  39.7580000  12.5700000  45.2240000  39.3140000  11.7760000  45.7760000
  40.6920000  12.2510000  44.8540000  39.0020000  12.7290000  43.9140000
  39.4600000  13.5270000  43.2760000  37.9780000  13.0310000  43.9850000
  39.1240000  11.5250000  42.9680000  38.6430000  10.6310000  43.4860000
  40.1890000  11.3180000  42.6910000  38.2980000  11.8760000  41.6630000
  38.6170000  12.8080000  41.2070000  37.2310000  11.9710000  41.8040000
  38.3270000  10.7850000  40.6160000  37.8460000   9.8710000  41.0510000
  39.3920000  10.6370000  40.3920000  37.5240000  11.2460000  39.3250000
  37.9670000  12.1710000  38.8680000  36.4810000  11.5180000  39.5260000
  37.4700000  10.1950000  38.1660000  37.1390000   9.2680000  38.5760000
  38.5030000  10.0300000  37.7870000  36.6060000  10.7130000  36.9790000
  35.5460000  10.5730000  36.9770000  37.1270000  11.3170000  35.9030000
  36.4340000  11.6150000  35.0910000  38.5110000  11.8410000  35.6890000
  38.8570000  11.5220000  34.7300000  39.2290000  11.4380000  36.3620000
  38.5890000  13.3480000  35.7900000  38.1210000  13.6960000  36.7170000
  37.9890000  13.8680000  34.9920000  40.0730000  13.8650000  35.7410000
  40.7030000  13.4120000  36.4910000  40.1170000  14.9290000  35.8960000
  40.6380000  13.7650000  34.2810000  39.8180000  14.1830000  33.6030000
  40.8000000  12.7200000  33.9140000  41.9280000  14.5850000  34.0760000
  41.6600000  15.6810000  33.9460000  42.3640000  14.2640000  33.1920000
  42.9050000  14.5200000  35.2090000  43.0470000  13.4300000  35.5110000
  42.5930000  15.1750000  36.0360000  44.4200000  14.8410000  34.8520000
  44.5750000  15.8860000  34.8200000  44.6900000  14.3390000  33.9190000
  45.4050000  14.5000000  36.0150000  46.5210000  14.6310000  35.7230000
  45.2730000  13.3820000  36.2380000  45.0020000  14.9190000  36.9450000
 140.3440000 142.0750000  41.4540000 139.5270000 142.5860000  41.0240000
 140.2030000 140.9840000  41.3680000 141.2100000 142.3700000  40.8800000
 140.5780000 142.4390000  42.9770000 141.6160000 142.0040000  43.1600000
 140.5320000 143.5200000  43.1630000 139.5180000 141.8580000  43.9390000
 138.4840000 142.2020000  43.7270000 139.5760000 140.7570000  43.8680000
 139.8140000 142.2560000  45.3750000 140.8310000 142.2610000  45.7520000
 139.5220000 143.2720000  45.3470000 138.8330000 141.5010000  46.2680000
 139.1220000 140.4880000  46.2340000 138.9060000 141.9700000  47.3150000
 137.4000000 141.5460000  45.8700000 137.1240000 142.5660000  45.6430000
 137.2670000 141.0600000  44.9240000 136.6590000 140.7940000  47.0810000
 137.0990000 139.8440000  47.3660000 136.8260000 141.4530000  47.9170000
 135.1390000 140.5770000  46.7740000 134.7360000 140.2210000  47.6890000
 134.6820000 141.5540000  46.6300000 134.8110000 139.5310000  45.6600000
 135.0550000 139.9480000  44.7070000 135.4360000 138.5820000  45.8570000
 133.3400000 139.1730000  45.5670000 132.6670000 140.0130000  45.6790000
 133.0570000 138.6650000  44.6850000 132.9820000 138.2200000  46.7050000
 133.7910000 137.5440000  46.6610000 133.0490000 138.6530000  47.6820000
 131.5610000 137.6230000  46.5500000 130.9100000 138.4070000  46.2150000
 131.5680000 136.9660000  45.7380000 131.0990000 137.0040000  47.8820000
 131.7520000 136.1810000  48.1450000 131.1510000 137.6450000  48.7540000
 129.6850000 136.5050000  47.9320000 129.5660000 135.6190000  47.3040000
 129.0860000 137.3390000  47.6930000 129.2780000 136.0630000  49.4040000
 129.3340000 136.8340000  50.1170000 128.1780000 135.8370000  49.3640000
 129.9620000 134.8230000  49.8570000 129.9410000 133.8160000  49.2160000
 130.4500000 135.0330000  51.0650000 131.2300000 133.9340000  51.6620000
 131.4320000 134.2090000  52.6300000 130.6260000 133.0710000  51.7400000
 132.5790000 133.5880000  50.8750000 132.4060000 132.9550000  49.9670000
 133.5210000 132.7060000  51.7830000 133.1180000 131.8160000  52.2100000
 134.5120000 132.4500000  51.3400000 133.7440000 133.3760000  53.0810000
 134.7740000 134.4700000  53.4690000 133.8490000 135.7620000  53.8240000
 134.1410000 137.0750000  53.3210000 134.4780000 137.8500000  54.1300000
 135.0470000 136.9420000  52.6720000 132.9440000 137.4830000  52.4550000
 133.1300000 138.4520000  51.9310000 132.6760000 136.7120000  51.6820000
 131.7740000 137.8710000  53.2930000 131.0440000 136.7870000  53.9440000
 130.7570000 136.1570000  53.0970000 131.6160000 136.2720000  54.6810000
 130.2100000 137.1710000  54.4360000 132.0620000 138.9350000  54.2630000
 132.6930000 138.5180000  55.0260000 132.5490000 139.7940000  53.7890000
 131.0930000 139.2360000  54.6120000 130.6710000 138.3660000  52.3480000
 130.5180000 137.7670000  51.4980000 130.9590000 139.4010000  52.0170000
 129.7370000 138.4780000  52.8650000 135.4690000 134.1550000  54.7290000
 135.6400000 134.8760000  52.3590000 133.2210000 134.8270000  50.5860000
 134.2710000 134.8580000  49.7260000 134.7420000 133.9280000  49.1170000
 134.8060000 136.3000000  49.5110000 134.6790000 136.8830000  50.4440000
 134.1350000 136.8530000  48.8520000 136.2700000 136.3180000  49.1100000
 136.8460000 135.7170000  49.8470000 136.6850000 137.3140000  49.3390000
 136.6250000 135.8980000  47.6680000 136.1610000 136.5420000  46.9080000
 136.1270000 134.9310000  47.4950000 138.1470000 135.8720000  47.6070000
 138.5070000 135.0480000  48.2260000 138.5800000 136.7880000  48.0540000
 138.6140000 135.7580000  46.1400000 139.7380000 135.5780000  46.0800000
 138.4100000 136.7050000  45.6770000 137.9690000 134.5980000  45.3530000
 136.9100000 134.5260000  45.5650000 138.5200000 133.7590000  45.8180000
 138.1140000 134.3900000  43.8090000 137.4250000 133.5190000  43.5710000
 139.0880000 134.1390000  43.5610000 137.5700000 135.6030000  42.9930000
 136.5840000 136.0230000  43.1790000 138.3730000 136.4130000  42.2540000
 137.9680000 137.4730000  42.0450000 139.8320000 136.1930000  41.9300000
 139.8670000 135.7000000  40.9710000 140.2780000 135.4820000  42.5330000
 140.7660000 137.3900000  42.0110000 140.5050000 137.9470000  42.9650000
 140.5790000 138.0350000  41.1900000 142.2830000 137.0430000  41.9570000
 142.5620000 136.2730000  42.6810000 142.7550000 137.9670000  42.2030000
 142.7800000 136.5670000  40.5240000 142.3550000 137.2710000  39.7740000
 142.3260000 135.6180000  40.3840000 144.2480000 136.3350000  40.3090000
 144.8420000 135.6670000  40.9370000 144.6890000 137.3220000  40.3670000
 144.5830000 135.8540000  38.8760000 144.1270000 136.5280000  38.0930000
 144.1400000 134.8850000  38.6400000 146.1270000 135.8100000  38.5860000
 146.5240000 135.1780000  39.2590000 146.6060000 136.7490000  38.8940000
 146.4530000 135.4190000  37.1180000 145.8470000 134.5580000  36.8340000
 147.5080000 135.1270000  37.0170000 146.1990000 136.3290000  36.5110000
  42.8550000  24.7500000  35.2060000  41.8090000  24.7080000  35.0190000
  43.2300000  24.7110000  34.1770000  43.1060000  25.5990000  35.7660000
  43.2600000  23.5090000  36.0580000  42.7400000  22.5740000  35.7840000
  44.2980000  23.4250000  36.0480000  42.9890000  23.7500000  37.5720000
  43.4900000  24.6100000  38.0160000  41.9060000  23.9680000  37.8130000
  43.4860000  22.5880000  38.4430000  43.0710000  21.6570000  38.0980000
  44.5830000  22.4490000  38.3890000  43.0900000  22.7970000  39.9160000
  43.6100000  21.8750000  40.3390000  43.6120000  23.6400000  40.3420000
  41.5990000  22.7780000  40.2880000  41.1350000  23.6610000  39.8670000
  41.2130000  21.8400000  39.9410000  41.4430000  22.8010000  41.8360000
  41.7110000  21.8730000  42.3130000  42.1020000  23.6640000  42.1370000
  40.0370000  23.3040000  42.3310000  39.6920000  24.1320000  41.7020000
  39.3630000  22.4680000  42.2170000  40.0790000  23.8020000  43.8060000
  40.2240000  22.9630000  44.4960000  41.0190000  24.4870000  43.7390000
  38.8850000  24.7760000  44.1170000  38.7740000  25.6050000  43.3890000
  38.0040000  24.1920000  44.2020000  38.9760000  25.4360000  45.5090000
  38.1560000  26.1340000  45.4950000  38.7790000  24.6960000  46.2760000
  40.3120000  26.1750000  45.7170000  41.0710000  25.4210000  45.7150000
  40.3530000  26.8660000  44.9180000  40.3680000  26.9400000  47.0350000
  39.5230000  27.6050000  47.2140000  40.4740000  26.1980000  47.8700000
  41.6220000  27.8750000  47.1110000  41.3830000  28.7090000  46.4150000
  41.7020000  28.4020000  48.0770000  43.0020000  27.1680000  46.8170000
  43.0100000  26.5970000  45.9060000  43.8100000  27.9160000  46.6890000
  43.4120000  26.2490000  48.0480000  44.1510000  26.6350000  48.8890000
  42.7190000  25.0330000  48.1010000  42.6990000  24.4350000  49.4140000
  43.7680000  24.3750000  49.8230000  42.1000000  25.0170000  50.1100000
  42.1290000  22.9610000  49.4990000  42.0760000  22.7330000  50.5270000
  43.0250000  21.9760000  48.7460000  42.5140000  21.3580000  47.9770000
  43.8420000  22.4260000  48.1960000  43.5930000  21.0350000  49.7370000
  44.8450000  21.4090000  50.6380000  44.8160000  20.2190000  51.6320000
  43.7990000  20.1400000  52.7300000  44.1770000  19.4020000  53.4760000
  43.6340000  21.0880000  53.1480000  42.3690000  19.5970000  52.2300000
  41.7670000  19.2850000  53.1200000  41.7640000  20.3700000  51.7300000
  42.3710000  18.2890000  51.5020000  40.9170000  17.9490000  51.3320000
  40.8930000  17.2910000  50.5020000  40.4960000  17.4570000  52.2440000
  40.3810000  18.8920000  51.1590000  42.8680000  18.4630000  50.1300000
  42.0650000  19.0520000  49.5360000  43.8270000  18.9330000  50.1120000
  43.0290000  17.5260000  49.6830000  43.1960000  17.2510000  52.0740000
  42.8210000  16.2360000  51.8300000  43.2120000  17.3800000  53.1610000
  44.2450000  17.2520000  51.6780000  46.0760000  21.2510000  49.7580000
  44.5480000  22.7010000  51.3410000  40.7900000  22.9050000  48.9980000
  40.1240000  21.8270000  49.3140000  40.5140000  21.0530000  50.1310000
  38.8450000  21.5960000  48.6270000  38.8570000  20.5640000  48.2670000
  38.7650000  22.3480000  47.8470000  37.6740000  21.8360000  49.5790000
  37.8340000  22.7090000  50.1830000  37.6300000  20.9620000  50.2880000
  36.3390000  22.0880000  48.8670000  35.5130000  21.9680000  49.5720000
  36.3320000  21.2930000  48.0600000  36.1630000  23.4690000  48.1010000
  35.2700000  23.4260000  47.5310000  36.9380000  23.5220000  47.3560000
  36.2020000  24.7950000  48.9270000  37.1910000  24.8550000  49.4170000
  35.4160000  24.7120000  49.6270000  36.1430000  26.0400000  48.0910000
  37.0070000  26.0980000  47.4110000  36.1950000  27.0210000  48.6770000
  34.8670000  26.0660000  47.2490000  33.9720000  25.8620000  47.8880000
  34.7880000  25.2420000  46.5680000  34.6170000  27.4250000  46.7160000
  34.0960000  28.1170000  47.4300000  34.9250000  27.8870000  45.4990000
  34.7200000  28.9390000  45.2540000  35.6770000  27.0870000  44.4490000
  35.7380000  25.9660000  44.6240000  36.6950000  27.3250000  44.4880000
  35.2540000  27.5570000  43.0600000  35.2710000  28.6670000  42.9720000
  34.1770000  27.3290000  42.7760000  35.9950000  27.0570000  41.7790000
  37.0690000  27.3770000  41.8420000  35.6440000  27.5670000  40.8360000
  36.0510000  25.5290000  41.5860000  34.9740000  25.1410000  41.4520000
  36.4720000  24.9700000  42.4600000  36.7760000  25.1370000  40.3010000
  37.7260000  25.7730000  40.2730000  36.1890000  25.4070000  39.4090000
  37.0410000  23.6020000  40.2010000  36.0690000  23.1250000  39.9450000
  37.2850000  23.2830000  41.1970000  38.1200000  23.1580000  39.1610000
  38.5440000  22.1500000  39.3070000  38.9740000  23.8630000  39.3760000
  37.7480000  23.3840000  37.6850000  38.6730000  23.4520000  37.1600000
  37.3070000  24.4000000  37.4230000  37.1860000  22.5420000  37.2850000
  52.2630000   7.7070000  35.4710000  51.2330000   7.6360000  35.6180000
  52.7340000   6.6910000  35.3910000  52.4230000   8.2180000  34.5700000
  52.8730000   8.3930000  36.6760000  52.5280000   7.9940000  37.6180000
  53.9090000   8.2640000  36.6660000  52.5620000   9.9640000  36.8430000
  53.1790000  10.5740000  36.1960000  51.5160000  10.1650000  36.6080000
  52.8180000  10.3810000  38.2780000  51.9680000   9.9700000  38.8650000
  53.6920000   9.9010000  38.6360000  53.0390000  11.8720000  38.5660000
  53.7960000  12.0990000  39.3280000  53.5560000  12.3470000  37.7300000
  51.7610000  12.7340000  38.9530000  50.9710000  12.7070000  38.2420000
  51.1940000  12.2460000  39.7670000  52.0030000  14.0980000  39.4630000
  52.3760000  14.7410000  38.6080000  50.9870000  14.5570000  39.7040000
  52.8520000  14.3180000  40.7350000  53.5680000  13.4960000  40.7980000
  53.3910000  15.3190000  40.7060000  52.0050000  14.1260000  42.0320000
  51.0170000  14.6130000  41.8190000  51.7820000  13.0530000  42.1130000
  52.6450000  14.4320000  43.3910000  52.7400000  15.4480000  43.6510000
  52.0120000  13.9990000  44.1630000  54.0270000  13.9300000  43.6540000
  54.5900000  14.5970000  43.0090000  54.2450000  14.1930000  44.6990000
  54.4200000  12.4470000  43.5230000  53.8860000  11.7980000  44.2250000
  54.3110000  12.0460000  42.4810000  55.9450000  12.3860000  43.7650000
  56.5500000  12.8330000  43.0110000  56.2260000  13.1140000  44.6270000
  56.5720000  10.9980000  43.9890000  56.1810000  10.3400000  43.1840000
  57.6830000  11.1000000  44.0320000  56.2000000  10.2840000  45.2250000
  55.1340000  10.3540000  45.3270000  56.5000000   9.2520000  45.1620000
  56.8650000  10.9720000  46.4520000  58.0810000  11.0990000  46.7130000
  55.9360000  11.5160000  47.1640000  56.2740000  11.9350000  48.5240000
  56.4420000  11.0560000  49.1440000  57.1160000  12.5600000  48.5740000
  55.1120000  12.7650000  49.1870000  55.3450000  13.0630000  50.2270000
  53.8480000  11.9110000  49.1370000  53.1800000  12.5410000  48.5430000
  54.0040000  10.9980000  48.5700000  53.3050000  11.6300000  50.4250000
  53.8260000  10.3510000  51.1900000  52.9980000   9.1340000  50.6580000
  51.7070000   8.9310000  51.2530000  51.2470000   9.8460000  51.6610000
  51.0620000   8.3910000  50.6120000  51.9570000   7.9520000  52.5020000
  51.6800000   6.9620000  52.2390000  52.9200000   8.1650000  52.8410000
  51.0130000   8.1130000  53.6420000  49.6660000   8.2320000  53.1490000
  49.0720000   8.0860000  53.9920000  49.5460000   9.1850000  52.7200000
  49.5150000   7.4110000  52.3380000  51.0800000   6.9360000  54.5430000
  50.3910000   7.0630000  55.4020000  50.7910000   6.0350000  53.9980000
  52.1530000   6.8340000  54.6450000  51.2450000   9.4040000  54.3490000
  51.1280000  10.2010000  53.6660000  52.2450000   9.2560000  54.7750000
  50.4830000   9.5600000  55.1840000  55.2400000  10.0680000  50.8380000
  53.4570000  10.6000000  52.6270000  54.8750000  14.0390000  48.4100000
  54.2880000  15.0950000  49.0060000  53.7630000  15.1120000  50.0710000
  54.4260000  16.4030000  48.2620000  55.3710000  16.4310000  47.7520000
  54.2630000  17.2120000  49.0150000  53.4570000  16.5180000  47.0760000
  52.4810000  16.3910000  47.5650000  53.6020000  15.8460000  46.2510000
  53.6070000  17.8880000  46.4350000  53.4520000  18.6110000  47.2220000
  52.7450000  18.0430000  45.7880000  54.9800000  18.2580000  45.8300000
  55.7550000  18.3110000  46.5810000  54.9380000  19.2560000  45.4980000
  55.3830000  17.4180000  44.6780000  54.7090000  17.6110000  43.8130000
  55.3420000  16.3350000  44.9160000  56.8200000  17.5350000  44.1010000
  57.5610000  17.4900000  44.8810000  56.9360000  18.4160000  43.4920000
  57.1070000  16.3870000  43.1320000  56.5040000  16.4090000  42.2790000
  56.9300000  15.4840000  43.5560000  58.4880000  16.6090000  42.6620000
  59.1180000  16.9390000  43.4720000  58.9540000  16.3790000  41.4650000
  60.0310000  16.5620000  41.3720000  58.1690000  15.9150000  40.2240000
  57.2560000  15.3850000  40.4030000  58.7900000  15.1800000  39.6950000
  57.9080000  17.0220000  39.2680000  57.3620000  17.7250000  39.8250000
  57.1570000  16.7240000  38.4870000  59.1360000  17.5650000  38.5420000
  59.5330000  16.7550000  38.0320000  59.8540000  17.8860000  39.3460000
  58.8720000  18.7770000  37.6340000  58.2400000  18.5080000  36.6720000
  59.8370000  19.1130000  37.1620000  58.2820000  20.0420000  38.3350000
  59.0200000  20.2910000  39.0970000  57.3100000  19.9320000  38.7400000
  58.1230000  21.3440000  37.4140000  57.4260000  21.0810000  36.6160000
  59.1050000  21.6720000  36.8990000  57.5020000  22.5700000  38.0780000
  58.1240000  22.7880000  38.8980000  56.4720000  22.3370000  38.4450000
  57.2990000  23.7950000  37.1830000  56.7420000  24.4130000  37.8440000
  56.5350000  23.5150000  36.4020000  58.2320000  24.2810000  36.8070000
 117.2150000 126.1690000  36.9070000 118.1050000 126.5050000  37.4440000
 116.3160000 125.9410000  37.4260000 116.9300000 127.0530000  36.3530000
 117.7080000 125.0510000  35.9560000 116.9180000 124.5610000  35.4260000
 118.4690000 125.4880000  35.3220000 118.2450000 123.9660000  36.9560000
 119.0920000 124.4060000  37.4810000 117.4680000 123.8730000  37.7290000
 118.7070000 122.7160000  36.2850000 117.8410000 122.4680000  35.6420000
 119.5750000 122.9210000  35.6020000 119.3490000 121.5920000  37.1380000
 119.7020000 120.8940000  36.4110000 120.3390000 121.8630000  37.5060000
 118.4880000 120.9600000  38.2570000 118.2520000 121.7610000  39.0170000
 117.5470000 120.5900000  37.7120000 119.3080000 119.8440000  38.8940000
 119.6720000 119.1210000  38.1220000 120.1280000 120.1960000  39.4780000
 118.3770000 118.9490000  39.7210000 117.5260000 118.6290000  39.1370000
 119.0650000 118.1480000  40.0220000 117.9590000 119.5670000  41.0380000
 118.8830000 119.8120000  41.5920000 117.3560000 120.5180000  40.9410000
 117.1680000 118.5250000  41.8180000 117.7210000 117.6500000  42.0260000
 116.9680000 118.9640000  42.8180000 115.8530000 117.9090000  41.1800000
 116.0630000 117.4110000  40.1940000 115.4970000 117.1030000  41.8730000
 114.7350000 118.9360000  40.8880000 114.8870000 119.4800000  39.9440000
 113.9040000 118.2920000  40.5870000 114.2400000 119.9770000  41.9170000
 115.1050000 120.6180000  42.2470000 113.5410000 120.5920000  41.4540000
 113.5320000 119.3540000  43.1430000 112.7600000 118.6750000  42.8100000
 114.3950000 118.9270000  43.7230000 112.9320000 120.5100000  44.0820000
 113.5470000 121.4760000  44.0150000 111.8280000 120.7490000  43.7370000
 112.7360000 120.0310000  45.4880000 111.6030000 119.9520000  45.9790000
 113.9090000 119.9630000  46.1680000 113.8470000 120.0590000  47.5800000
 114.9160000 120.3830000  47.8910000 113.2510000 120.8910000  48.0130000
 113.5890000 118.7160000  48.2850000 112.5040000 118.5590000  48.4270000
 114.2350000 118.6900000  49.6880000 115.0050000 117.9660000  49.7600000
 114.7720000 119.6230000  49.8500000 113.2490000 118.4980000  50.7520000
 112.5060000 119.8230000  51.3710000 113.6340000 120.5690000  52.0570000
 114.3250000 119.9720000  53.1240000 113.9780000 120.2640000  54.0640000
 114.2960000 118.8990000  53.1070000 115.7560000 120.4120000  52.8580000
 116.4400000 120.0260000  53.5760000 116.1390000 120.2970000  51.8440000
 116.0480000 121.8570000  53.1000000 117.5150000 122.1010000  53.0660000
 118.0630000 121.4690000  53.8140000 117.9740000 121.8140000  52.1310000
 117.5560000 123.1250000  53.3590000 115.4360000 122.7580000  52.1280000
 115.6350000 122.4990000  51.1230000 114.3990000 122.8100000  52.2140000
 115.7670000 123.7150000  52.4290000 115.6170000 122.1640000  54.5010000
 114.5240000 122.1240000  54.6530000 115.9350000 123.1930000  54.6010000
 116.0610000 121.4950000  55.1680000 111.9220000 120.6480000  50.3370000
 111.6380000 119.2510000  52.4290000 114.1100000 117.5620000  47.5240000
 113.5500000 116.3860000  47.5830000 112.9060000 116.1040000  48.5900000
 113.4530000 115.6330000  46.2480000 113.6320000 114.5260000  46.4210000
 114.3760000 115.8960000  45.7190000 112.1220000 116.0540000  45.4910000
 112.1280000 117.1270000  45.6200000 111.2270000 115.6940000  46.0110000
 111.9310000 115.5820000  44.0030000 111.8980000 114.4930000  43.8610000
 112.7370000 116.0080000  43.3880000 110.5490000 116.1050000  43.4370000
 110.5110000 117.1900000  43.7080000 109.7560000 115.6110000  43.9890000
 110.2610000 116.0070000  41.9670000 109.2170000 116.2550000  41.8770000
 110.3380000 114.9610000  41.7210000 111.2200000 116.7790000  41.1070000
 112.2200000 116.4430000  41.3010000 111.0180000 117.8140000  41.2500000
 110.9450000 116.5900000  39.6050000 109.9400000 117.0350000  39.3780000
 110.8250000 115.5360000  39.4330000 111.9400000 117.2300000  38.6570000
 111.7160000 118.2610000  38.2910000 113.0190000 116.7150000  38.1290000
 113.5420000 117.2380000  37.3310000 113.6270000 115.3600000  38.5480000
 112.8230000 114.7880000  39.0410000 114.5020000 115.3240000  39.1690000
 113.9810000 114.4470000  37.3310000 114.6930000 115.0160000  36.6530000
 113.0620000 114.2710000  36.8090000 114.6270000 113.2190000  37.8060000
 113.8050000 112.7940000  38.5300000 115.4740000 113.6480000  38.2280000
 115.0700000 112.2020000  36.7330000 115.4580000 112.6470000  35.8590000
 114.1270000 111.7550000  36.4310000 116.0350000 111.2130000  37.3430000
 116.9680000 111.6960000  37.4280000 116.3000000 110.4510000  36.6470000
 115.6490000 110.5780000  38.7240000 114.6120000 110.2460000  38.7300000
 115.8800000 111.3310000  39.5370000 116.5210000 109.3230000  38.9640000
 116.4950000 108.7610000  38.0810000 116.0370000 108.6880000  39.6940000
 117.9840000 109.4770000  39.2920000 118.5590000 109.7620000  38.3960000
 118.3750000 108.4860000  39.4310000 118.1190000 110.1150000  40.1490000
 124.1660000   7.2530000  41.0940000 124.8930000   6.5290000  40.8330000
 123.3140000   7.1310000  40.3540000 123.7270000   6.9680000  42.0660000
 124.7610000   8.5960000  41.1300000 125.3420000   8.8090000  40.2120000
 123.9610000   9.2670000  41.0840000 125.6590000   8.9980000  42.3150000
 124.9290000   8.9590000  43.1450000 126.5460000   8.3410000  42.4180000
 126.2210000  10.4540000  42.1500000 126.8430000  10.3880000  41.2040000
 125.3140000  11.0590000  42.0250000 127.0930000  11.0100000  43.3790000
 126.5050000  10.7660000  44.2630000 128.0610000  10.4490000  43.4290000
 127.4650000  12.5320000  43.3800000 128.2980000  12.7540000  42.6880000
 126.6050000  13.1160000  43.0930000 127.9020000  12.9230000  44.8060000
 127.0740000  12.5890000  45.4250000 128.8740000  12.4550000  45.1220000
 128.0300000  14.4620000  44.9950000 127.1520000  14.9370000  44.6300000
 128.0550000  14.5950000  45.9680000 129.2090000  15.1230000  44.2750000
 130.1430000  14.6290000  44.4370000 129.0290000  15.0450000  43.2290000
 129.2670000  16.6190000  44.6710000 128.2600000  17.0400000  44.4290000
 129.6070000  16.6290000  45.7010000 130.4600000  17.3210000  43.8400000
 131.4370000  16.9260000  44.0580000 130.2650000  17.0960000  42.8250000
 130.5320000  18.8100000  44.2370000 129.8030000  19.3870000  43.6990000
 130.4240000  18.9600000  45.3000000 131.9540000  19.3950000  43.7620000
 132.6650000  18.6790000  44.2490000 132.0430000  19.2920000  42.6400000
 132.2090000  20.8490000  44.2670000 131.8390000  21.0010000  45.2640000
 133.2810000  20.8450000  44.3010000 131.7250000  21.8770000  43.2590000
 132.2810000  21.8100000  42.3220000 130.7350000  21.6390000  42.9380000
 131.6930000  23.3090000  43.7950000 132.5070000  24.1850000  43.4910000
 130.5610000  23.4810000  44.5630000 130.3630000  24.7470000  45.2360000
 131.2920000  25.4130000  45.4450000 129.5700000  25.2060000  44.6150000
 129.7000000  24.4200000  46.5820000 129.6890000  25.2630000  47.2390000
 130.4500000  23.1960000  47.2110000 130.1460000  22.2390000  46.6560000
 131.5350000  23.3310000  47.1700000 129.9490000  23.0380000  48.5800000
 130.3010000  24.1140000  49.7590000 129.0400000  25.0720000  49.8210000
 127.9070000  24.7040000  50.6420000 127.6800000  23.7330000  50.3030000
 128.2570000  24.6220000  51.7100000 126.8470000  25.7420000  50.2660000
 127.3180000  26.6910000  50.5190000 126.6310000  25.5760000  49.1910000
 125.5630000  25.6120000  50.9980000 125.0830000  24.2300000  51.0540000
 125.2380000  23.8310000  50.0210000 125.7260000  23.7250000  51.7360000
 124.0780000  24.1190000  51.3830000 125.7980000  26.3250000  52.3730000
 126.7020000  25.9060000  52.7670000 125.9830000  27.3340000  52.0610000
 124.9340000  26.3200000  53.0420000 124.5590000  26.3680000  50.1270000
 123.8020000  26.6810000  50.7990000 124.0990000  25.7060000  49.3840000
 124.9790000  27.3160000  49.7040000 130.4140000  23.2570000  51.0300000
 131.4130000  24.9920000  49.2810000 128.2990000  24.1180000  46.5410000
 127.4120000  25.2060000  46.3250000 127.7620000  26.3110000  46.0690000
 125.9740000  24.8590000  46.4780000 125.4150000  25.5750000  47.0980000
 125.9430000  23.7830000  46.8060000 125.2980000  24.7870000  45.0730000
 125.5410000  23.8530000  44.5570000 125.7740000  25.5450000  44.4430000
 123.7210000  25.0680000  45.0520000 123.5440000  26.0210000  45.4650000
 123.2470000  24.3620000  45.7000000 123.1870000  24.9690000  43.5620000
 123.9770000  25.3900000  42.9660000 122.2570000  25.4900000  43.4700000
 123.0740000  23.5280000  43.2110000 122.2160000  23.2380000  43.6980000
 123.8690000  22.9040000  43.5610000 122.8500000  23.2880000  41.7060000
 122.0490000  23.8640000  41.3750000 122.6740000  22.3230000  41.5670000
 124.0950000  23.6260000  40.9250000 124.9190000  23.2360000  41.3900000
 124.2800000  24.7310000  40.9710000 123.8570000  23.2680000  39.5090000
 123.1830000  24.0680000  39.1030000 124.3500000  22.2980000  38.8020000
 124.1330000  22.2160000  37.7060000 125.3290000  21.2220000  39.2500000
 125.7570000  21.5350000  40.1830000 126.0770000  21.1740000  38.4570000
 124.4710000  19.9960000  39.6630000 123.8910000  19.6420000  38.8050000
 123.8620000  20.2840000  40.4130000 125.2760000  18.7760000  40.2250000
 125.6630000  18.9840000  41.2450000 126.0500000  18.5300000  39.5160000
 124.3900000  17.5200000  40.2200000 124.0540000  17.4180000  39.1660000
 123.4460000  17.4980000  40.7690000 125.2200000  16.3100000  40.6120000
 125.8290000  16.1600000  39.7460000 124.6270000  15.4200000  40.6930000
 126.0200000  16.3800000  42.0200000 126.7460000  17.1150000  41.7600000
 126.5670000  15.4920000  42.2770000 125.1010000  17.0080000  43.1280000
 124.8280000  18.0420000  42.8910000 125.7770000  17.0900000  44.0530000
 123.9150000  16.0990000  43.4040000 123.2810000  16.2070000  42.5530000
 123.4290000  16.3360000  44.3280000 124.1470000  15.0770000  43.5120000
   5.3760000  92.6150000  28.1710000   6.4080000  93.0350000  27.9170000
   4.6050000  93.3790000  27.9430000   5.1670000  91.8170000  27.5130000
   5.3340000  92.1850000  29.6560000   4.3240000  91.7650000  29.9210000
   6.0240000  91.2970000  29.9260000   5.8710000  93.3760000  30.5310000
   6.9760000  93.5090000  30.2550000   5.3870000  94.2370000  30.0230000
   5.7290000  93.0670000  32.0460000   6.1900000  92.0580000  32.2450000
   6.2340000  93.8500000  32.5900000   4.2980000  93.1220000  32.5140000
   3.7560000  93.9460000  32.0340000   3.7650000  92.2760000  32.0750000
   4.1570000  93.0420000  34.0460000   4.3960000  94.0400000  34.3860000
   3.1230000  92.8090000  34.2810000   5.0900000  92.0030000  34.6940000
   5.0840000  90.9870000  34.2370000   6.0950000  92.3540000  34.6280000
   4.6470000  91.6660000  36.1660000   3.5820000  91.3310000  36.1790000
   5.2290000  90.7720000  36.5460000   4.7130000  92.8480000  37.1850000
   5.7020000  93.1570000  37.4040000   4.1430000  93.6470000  36.7140000
   4.1960000  92.4360000  38.5650000   3.1000000  92.1380000  38.5510000
   4.7010000  91.6520000  39.0000000   4.2450000  93.4720000  39.6710000
   5.2500000  93.9420000  39.5400000   3.4850000  94.2140000  39.4470000
   4.0740000  92.9820000  41.1200000   2.9660000  92.9700000  41.3590000
   4.4690000  91.9780000  41.1730000   4.6800000  93.8520000  42.1750000
   5.7210000  93.8280000  41.8650000   4.3880000  94.8690000  42.0590000
   4.5890000  93.4690000  43.6370000   4.8850000  92.4360000  43.7700000
   5.3420000  94.0790000  44.1640000   3.1830000  93.6410000  44.1720000
   2.7720000  94.6680000  44.0110000   2.5330000  92.9160000  43.6820000
   2.8840000  93.5170000  45.6190000   3.5380000  92.8350000  46.4150000
   1.7420000  94.0970000  45.9810000   1.2490000  94.0540000  47.3200000
   1.1440000  93.0150000  47.6470000   1.9330000  94.5990000  47.9460000
  -0.1080000  94.7880000  47.3160000   0.0640000  95.8260000  47.0750000
  -0.8020000  94.7830000  48.7130000  -0.4880000  95.6370000  49.3060000
  -1.9120000  94.9100000  48.5840000  -0.6120000  93.4820000  49.4280000
  -1.7450000  92.6330000  50.0740000  -1.5370000  93.0320000  51.6170000
  -0.7970000  92.2220000  52.5620000  -0.6440000  92.9130000  53.3920000
  -1.3980000  91.3700000  52.8300000   0.6460000  91.8170000  52.0200000
   0.9300000  90.8540000  52.4610000   0.4390000  91.5050000  50.9640000
   1.8290000  92.8180000  51.9630000   1.3900000  94.1550000  51.3590000
   2.1650000  94.8820000  51.6690000   1.3230000  94.1090000  50.2700000
   0.4300000  94.4060000  51.7860000   2.3300000  93.0530000  53.2820000
   1.7120000  93.6970000  53.9000000   2.3600000  92.0850000  53.7770000
   3.3050000  93.6160000  53.1810000   2.9560000  92.2580000  51.1390000
   3.5110000  91.5580000  51.7680000   3.6240000  93.0160000  50.7700000
   2.5520000  91.6790000  50.2990000  -3.0430000  93.0650000  49.5370000
  -1.4010000  91.1660000  49.9640000  -1.0050000  94.2500000  46.3500000
  -1.8250000  94.9970000  45.6450000  -2.1290000  96.1170000  45.8820000
  -2.5540000  94.1330000  44.6590000  -3.5150000  93.7390000  45.0750000
  -1.8940000  93.2440000  44.5120000  -2.7800000  94.9120000  43.2520000
  -3.4380000  95.7920000  43.4580000  -3.3480000  94.2360000  42.6440000
  -1.5350000  95.3940000  42.5340000  -1.3160000  94.7400000  41.6950000
  -0.6230000  95.2800000  43.1600000  -1.5690000  96.8420000  42.0330000
  -1.6880000  97.5410000  42.7950000  -2.4020000  96.9060000  41.2860000
  -0.3200000  97.2200000  41.2920000  -0.0650000  96.4190000  40.6460000
   0.4400000  97.3680000  42.0740000  -0.4260000  98.4400000  40.4150000
  -0.7620000  99.2830000  41.0520000  -1.2160000  98.3150000  39.6310000
   0.8760000  98.9900000  39.7910000   1.1550000  98.2990000  39.0600000
   1.7090000  99.1210000  40.5480000   0.6520000 100.3410000  39.1630000
   0.6430000 101.1700000  39.9430000   0.6430000 100.6130000  37.8580000
   0.5640000 101.6290000  37.4680000   0.7080000  99.5760000  36.6920000
  -0.0540000  99.9060000  36.0210000   0.6260000  98.5180000  36.9850000
   2.0290000  99.6750000  35.7750000   2.9170000  99.5940000  36.4180000
   2.1020000 100.6680000  35.3970000   1.9530000  98.5840000  34.7400000
   1.0760000  98.6870000  34.0880000   1.7950000  97.5950000  35.1890000
   3.2040000  98.5170000  33.8250000   4.0820000  98.3210000  34.4490000
   3.3420000  99.4740000  33.3050000   3.1030000  97.3070000  32.8870000
   2.9760000  96.3650000  33.4450000   4.0670000  97.1670000  32.4690000
   2.1390000  97.4600000  31.6670000   2.3460000  98.4530000  31.1700000
   1.0690000  97.4990000  32.0730000   2.0920000  96.3540000  30.5660000
   3.1560000  96.2530000  30.2520000   1.5240000  96.6630000  29.6740000
   1.4840000  95.0210000  31.1240000   1.9490000  94.8210000  32.0830000
   1.7260000  94.1710000  30.4080000   0.4260000  95.1390000  31.1950000
 102.2100000  20.3630000  38.8170000 101.3040000  20.7130000  38.3360000
 102.8460000  19.6740000  38.1780000 102.8550000  21.2530000  39.0750000
 101.9340000  19.6200000  40.0880000 101.4510000  18.6490000  39.8450000
 102.8390000  19.4400000  40.6230000 100.9740000  20.4160000  41.0110000
 100.1910000  20.8900000  40.4920000 100.4400000  19.6850000  41.6630000
 101.6040000  21.4880000  41.9730000 101.8140000  20.9930000  42.8980000
 102.5730000  21.8390000  41.6250000 100.6470000  22.7680000  42.1470000
 101.1690000  23.4870000  42.7660000 100.5260000  23.3130000  41.1850000
  99.2510000  22.4100000  42.7910000  98.8340000  21.7160000  42.0530000
  99.5080000  21.8430000  43.6950000  98.3930000  23.6860000  43.0330000
  98.5900000  24.4480000  42.3050000  97.3460000  23.3610000  42.8820000
  98.4400000  24.2820000  44.3840000  99.5120000  24.4750000  44.7020000
  97.9130000  25.2660000  44.3850000  97.8670000  23.3330000  45.4230000
  96.8040000  23.1760000  45.1460000  98.4700000  22.3620000  45.4070000
  97.8290000  23.9260000  46.8780000  97.0650000  24.6820000  46.8410000
  97.4210000  23.1070000  47.5420000  99.1330000  24.3690000  47.3890000
  99.4620000  25.1440000  46.7160000  99.0820000  24.7710000  48.3740000
 100.2570000  23.3970000  47.4150000 100.0880000  22.8040000  48.3070000
 100.2000000  22.7280000  46.5490000 101.7420000  23.9250000  47.2370000
 101.7070000  24.3850000  46.2210000 102.0220000  24.7420000  47.9210000
 102.8710000  22.8900000  47.1940000 102.8990000  22.2080000  46.3490000
 103.8610000  23.3720000  47.1590000 102.9360000  22.0250000  48.4350000
 102.0370000  21.4470000  48.4870000 103.7980000  21.3180000  48.3900000
 103.0690000  22.8620000  49.7120000 104.1840000  23.0320000  50.2160000
 101.9410000  23.2850000  50.2070000 101.8320000  23.7980000  51.5510000
 101.9600000  23.0270000  52.3260000 102.5920000  24.6430000  51.6820000
 100.3830000  24.3570000  51.5720000 100.2170000  24.7070000  52.5560000
  99.3110000  23.3460000  51.1270000  98.4970000  23.9150000  50.6310000
  99.6840000  22.5370000  50.4480000  98.6440000  22.8040000  52.3250000
  97.0720000  22.9520000  52.5620000  96.9290000  24.5030000  52.9530000
  96.0760000  25.4140000  52.2450000  96.3720000  26.4040000  52.6680000
  96.4490000  25.4720000  51.1960000  94.5600000  25.1900000  52.4470000
  94.0680000  25.9590000  51.8800000  94.4020000  24.1800000  52.0450000
  93.9830000  25.2600000  53.8240000  92.4350000  25.3300000  53.6770000
  92.1270000  24.3660000  53.1940000  92.0130000  25.3680000  54.6400000
  92.2780000  26.2270000  53.0310000  94.3400000  24.1310000  54.5970000
  95.4230000  24.1850000  54.6020000  93.9460000  24.1770000  55.6130000
  94.0280000  23.2560000  54.1050000  94.5090000  26.4680000  54.5270000
  94.1100000  27.2390000  53.9560000  95.5720000  26.5140000  54.5400000
  94.3070000  26.3670000  55.5450000  96.3250000  22.6290000  51.3580000
  96.6740000  22.2420000  53.7940000 100.2220000  25.4470000  50.5880000
 100.6560000  26.6430000  50.9600000 101.1670000  26.9010000  52.0090000
 100.4530000  27.7360000  49.9030000 100.5690000  28.6400000  50.4110000
  99.4180000  27.7970000  49.4590000 101.4100000  27.7100000  48.6650000
 101.6010000  26.6750000  48.4150000 102.3600000  28.1110000  48.9860000
 100.8090000  28.5840000  47.5740000 101.0260000  29.6030000  47.7040000
  99.6990000  28.4390000  47.4600000 101.4130000  28.1580000  46.2370000
 101.4480000  27.0300000  46.1200000 102.4360000  28.5510000  46.2790000
 100.7250000  28.8030000  45.0670000 100.6730000  29.8910000  45.2690000
  99.6980000  28.4340000  44.9850000 101.4900000  28.8230000  43.7590000
 102.5900000  28.9800000  43.9440000 101.1200000  29.6350000  43.1370000
 101.2520000  27.4960000  42.9990000 100.1610000  27.3380000  42.8850000
 101.6360000  26.7330000  43.7300000 102.1010000  27.3910000  41.7520000
 103.0590000  26.8400000  41.7850000 101.7280000  27.9310000  40.5780000
 102.3240000  27.7780000  39.7280000 100.2800000  28.4670000  40.3100000
 100.3490000  29.5130000  40.0170000  99.5590000  28.4230000  41.1740000
  99.6350000  27.6820000  39.0860000 100.0940000  27.9350000  38.1380000
  98.5790000  27.9320000  38.8690000  99.5880000  26.1720000  39.3200000
  99.1270000  26.0230000  40.2450000 100.5910000  25.8080000  39.3730000
  98.8240000  25.5080000  38.2030000  99.3250000  25.6410000  37.1990000
  97.8790000  25.9670000  38.1570000  98.5530000  24.0540000  38.6390000
  97.9310000  23.9830000  39.5400000  99.4800000  23.5220000  38.6060000
  97.7530000  23.4340000  37.4150000  98.3510000  23.4510000  36.4840000
  96.7650000  23.8910000  37.4140000  97.4400000  21.9420000  37.6710000
  98.3700000  21.3860000  37.6740000  96.9060000  21.6460000  36.7890000
  96.6790000  21.6110000  38.9840000  95.6760000  22.0700000  39.1480000
  97.3020000  22.0530000  39.8060000  96.5900000  20.5410000  39.1830000
  67.7180000  23.7820000  38.2390000  67.0530000  24.3640000  38.8200000
  68.3320000  23.2360000  38.9860000  67.0320000  23.1780000  37.5690000
  68.6590000  24.6240000  37.3430000  69.4140000  25.1600000  37.9750000
  69.3210000  23.9310000  36.7270000  68.0410000  25.6410000  36.3710000
  68.9150000  26.3410000  36.1190000  67.6960000  25.1580000  35.3810000
  66.9170000  26.5700000  36.8820000  66.7870000  27.3440000  36.1440000
  65.9880000  25.9440000  36.9730000  67.3000000  27.2220000  38.2420000
  67.5620000  26.4200000  38.9810000  68.2090000  27.7910000  38.0410000
  66.2800000  28.2750000  38.6730000  66.1610000  28.9140000  37.8320000
  65.3420000  27.8280000  38.9430000  66.7370000  29.1290000  39.8190000
  67.6820000  29.6100000  39.4980000  65.9630000  29.8800000  39.9710000
  67.0290000  28.4200000  41.1080000  68.0170000  27.9270000  40.9650000
  67.3260000  29.2430000  41.8390000  65.8880000  27.5560000  41.6890000
  64.9020000  28.0910000  41.7000000  65.7020000  26.6250000  41.1460000
  66.2380000  27.2820000  43.2540000  66.5220000  28.2630000  43.6310000
  65.3750000  26.8870000  43.7330000  67.3760000  26.2580000  43.3260000
  68.2200000  26.7430000  42.7670000  67.5790000  26.2570000  44.3950000
  67.0130000  24.8330000  42.8340000  66.0620000  24.4990000  43.4140000
  66.6440000  24.7420000  41.7280000  68.1590000  23.8070000  42.9900000
  68.9980000  24.0130000  42.3140000  68.5360000  23.9170000  44.0280000
  67.5940000  22.3560000  42.9410000  66.7740000  22.1950000  43.7220000
  67.2740000  22.2620000  41.9130000  68.6950000  21.2750000  43.0510000
  68.4140000  20.2750000  42.7480000  69.4760000  21.5330000  42.4010000
  69.2790000  21.1230000  44.4730000  69.9130000  20.2600000  44.8890000
  68.8930000  22.0690000  45.2830000  69.7700000  22.5870000  46.4060000
  69.1860000  23.1720000  47.0490000  70.1330000  21.8100000  47.0590000
  70.9610000  23.3570000  45.7950000  71.6200000  22.6540000  45.3090000
  71.8710000  24.0060000  46.9200000  72.2450000  23.2400000  47.6030000
  72.7190000  24.5340000  46.4960000  71.0540000  24.8040000  47.7710000
  70.6580000  26.3090000  47.5310000  69.2680000  26.0960000  46.9250000
  68.3240000  27.2310000  46.9930000  68.6100000  27.9100000  47.8030000
  68.4200000  27.8480000  46.0700000  66.9160000  26.7120000  47.1940000
  66.2620000  27.5600000  47.1040000  66.6260000  26.0960000  46.3720000
  66.6550000  26.0200000  48.5970000  65.1850000  26.1400000  48.8740000
  64.7830000  27.1380000  49.1530000  64.6420000  25.7100000  48.0300000
  64.9670000  25.5620000  49.7690000  66.9640000  24.5440000  48.5560000
  66.7540000  23.9730000  49.4490000  66.1620000  24.1790000  47.8860000
  67.9900000  24.3430000  48.2950000  67.5090000  26.5520000  49.7260000
  68.5630000  26.2860000  49.5950000  67.0460000  26.0640000  50.6190000
  67.4320000  27.5860000  49.7670000  70.4050000  27.0190000  48.7810000
  71.5860000  26.7900000  46.5260000  70.5680000  24.4100000  44.9640000
  71.4940000  24.9940000  44.1230000  72.6050000  24.6660000  43.8830000
  70.9250000  26.2500000  43.5600000  70.1510000  26.7100000  44.2140000
  70.3950000  25.9650000  42.6650000  71.8640000  27.3940000  43.3360000
  72.6330000  27.0050000  42.6990000  72.2570000  27.7180000  44.2890000
  71.1910000  28.5720000  42.6130000  71.8200000  29.4210000  42.7670000
  70.2890000  28.8780000  43.1410000  70.9910000  28.3640000  41.1120000
  70.0460000  27.7680000  41.0010000  71.8260000  27.8490000  40.6270000
  70.8410000  29.6350000  40.3850000  71.7860000  30.1780000  40.4420000
  70.2080000  30.3200000  40.9630000  70.4040000  29.4780000  38.8920000
  69.3480000  29.2340000  38.9200000  70.8240000  28.5600000  38.4330000
  70.7180000  30.7790000  38.0770000  71.8070000  30.9550000  38.2130000
  70.1370000  31.5550000  38.4460000  70.3830000  30.4660000  36.6950000
  71.1460000  29.9160000  36.1550000  69.1920000  30.7130000  36.1720000
  69.0250000  30.3340000  35.1520000  67.9760000  31.4120000  36.7000000
  68.0370000  31.6200000  37.7570000  67.0070000  30.8770000  36.5120000
  67.5570000  32.6540000  35.9290000  66.5940000  33.0670000  36.4080000
  67.1730000  32.4940000  34.8940000  68.6300000  33.6520000  35.9950000
  69.4790000  33.4430000  35.4220000  69.0380000  33.8390000  37.0180000
  68.1820000  35.0080000  35.5430000  67.4550000  35.5650000  36.1780000
  67.8200000  34.9880000  34.5290000  69.4830000  35.9250000  35.5790000
  70.3780000  35.4920000  35.1350000  69.7160000  36.0810000  36.6220000
  69.1180000  37.3030000  34.9210000  68.3910000  37.7580000  35.6420000
  68.4330000  37.1660000  34.0970000  70.4240000  38.1320000  34.6260000
  70.9050000  37.6120000  33.7650000  71.1550000  38.0500000  35.4240000
  70.1670000  39.6160000  34.2490000  69.4970000  40.1630000  34.9620000
  69.5960000  39.6120000  33.2450000  71.0310000  40.2270000  33.9990000
 109.4080000 131.3530000  36.0010000 108.6440000 131.6770000  35.3880000
 109.2990000 131.4740000  37.0900000 109.4680000 130.2690000  35.9240000
 110.7680000 131.9270000  35.5960000 110.9150000 131.7940000  34.5130000
 110.7630000 133.0060000  35.7210000 111.9870000 131.2660000  36.2810000
 112.0410000 130.1670000  36.2990000 112.8570000 131.4300000  35.7130000
 112.3790000 131.8220000  37.6570000 112.5490000 132.9070000  37.5990000
 111.5440000 131.7930000  38.3440000 113.5970000 131.1210000  38.2760000
 113.3790000 130.0370000  38.1820000 114.5830000 131.4230000  37.8410000
 113.6880000 131.3610000  39.7710000 113.5670000 132.4560000  40.0020000
 112.7460000 130.9470000  40.1780000 114.9330000 130.7650000  40.5080000
 115.8250000 131.1440000  40.0120000 114.9720000 131.1910000  41.5620000
 114.9810000 129.1880000  40.5110000 115.1020000 128.9080000  39.4670000
 115.9010000 129.0210000  41.1130000 113.7070000 128.5430000  41.1670000
 112.8140000 128.7790000  40.5420000 113.8340000 127.5380000  41.1640000
 113.3380000 128.9780000  42.5590000 113.4860000 130.0040000  42.7210000
 112.3190000 128.6910000  42.8260000 114.2610000 128.3160000  43.6040000
 115.2430000 128.7030000  43.3660000 114.1260000 128.8370000  44.5950000
 113.9730000 126.8380000  43.6540000 112.9290000 126.5850000  43.6160000
 114.5170000 126.4200000  42.8200000 114.5720000 126.2860000  44.9470000
 115.6650000 126.5240000  45.0570000 114.0570000 126.7220000  45.8350000
 114.3850000 124.7540000  45.0700000 114.4550000 124.2180000  44.1480000
 115.1590000 124.5450000  45.7720000 113.0450000 124.2000000  45.6350000
 112.1820000 124.8110000  45.3560000 112.7980000 123.2080000  45.1930000
 113.0250000 124.0670000  47.1050000 113.8950000 123.4540000  47.6980000
 111.9160000 124.6840000  47.6140000 111.8800000 124.7630000  49.0540000
 110.9990000 125.3490000  49.3600000 111.9110000 123.7460000  49.4740000
 113.1070000 125.4460000  49.7350000 113.9050000 124.6560000  49.8080000
 112.6920000 125.9830000  51.1570000 112.9840000 127.0360000  51.3530000
 111.6290000 126.1240000  51.1450000 113.1100000 125.0080000  52.1960000
 112.5560000 125.1610000  53.7010000 113.3650000 126.3590000  54.2660000
 114.6590000 126.1520000  54.8580000 114.7350000 126.8760000  55.6090000
 114.8040000 125.1410000  55.2210000 115.7650000 126.4300000  53.8320000
 116.7150000 126.1150000  54.2830000 115.3920000 125.8980000  52.9450000
 116.0310000 127.8680000  53.5250000 114.7510000 128.6460000  53.2310000
 114.0830000 128.7670000  54.1020000 115.1690000 129.6970000  53.1000000
 114.2240000 128.1980000  52.4950000 116.7660000 128.3950000  54.7290000
 116.6770000 129.4010000  54.5180000 116.2710000 128.2040000  55.6100000
 117.7940000 128.0210000  54.7200000 117.0450000 128.0820000  52.4410000
 116.6070000 127.6840000  51.5770000 118.0300000 127.5910000  52.6400000
 117.2620000 129.1610000  52.4420000 111.1470000 125.4430000  53.6060000
 112.9560000 123.9730000  54.4270000 113.7290000 126.5310000  49.0210000
 115.0950000 126.6110000  49.1730000 115.8400000 125.9670000  49.8140000
 115.6290000 127.8430000  48.3990000 115.5440000 128.7320000  49.0910000
 115.0230000 127.9400000  47.4890000 117.0580000 127.5720000  47.8780000
 117.0360000 126.6840000  47.1880000 117.7620000 127.4670000  48.6210000
 117.6700000 128.8330000  47.0760000 118.5760000 128.4870000  46.5820000
 117.9760000 129.6240000  47.7500000 116.8410000 129.3360000  45.9520000
 115.9590000 129.6480000  46.4030000 116.6770000 128.5340000  45.2260000
 117.5590000 130.3500000  45.0900000 118.4320000 129.9560000  44.5830000
 117.8340000 131.1300000  45.7670000 116.6460000 130.8780000  44.0040000
 115.6090000 131.1220000  44.4270000 116.5000000 130.0950000  43.2330000
 117.1320000 132.1500000  43.2900000 116.4060000 132.4290000  42.5050000
 118.0330000 132.0160000  42.6360000 117.3870000 133.2970000  44.2150000
 117.5630000 133.0030000  45.2590000 117.4270000 134.5850000  43.9350000
 117.5380000 135.3250000  44.7260000 117.4130000 135.1550000  42.5590000
 116.3730000 135.5460000  42.3620000 117.5700000 134.3570000  41.7440000
 118.4040000 136.2960000  42.6140000 119.3970000 135.9520000  42.9700000
 118.0870000 137.1520000  43.2560000 118.6580000 136.7540000  41.1130000
 117.6850000 137.2490000  40.7200000 118.7690000 135.9270000  40.4930000
 119.8050000 137.7640000  40.8530000 120.7330000 137.1660000  40.9950000
 119.7960000 138.5830000  41.6000000 119.6280000 138.3770000  39.4720000
 118.6720000 138.8930000  39.5110000 119.5880000 137.6140000  38.7270000
 120.8520000 139.3450000  39.2270000 120.8570000 139.8010000  38.2320000
 121.7680000 138.7990000  39.2780000 121.0410000 140.4960000  40.2630000
 122.0050000 141.0020000  40.0480000 121.0350000 140.0710000  41.3060000
 119.8760000 141.4830000  40.2040000 118.9780000 141.0720000  40.6070000
 119.7130000 141.8110000  39.1870000 120.1780000 142.3620000  40.7790000
  34.0980000  71.1760000  36.0060000  33.6140000  71.9240000  35.3990000
  33.4170000  70.3290000  36.2090000  34.7790000  70.7460000  35.3390000
  34.7190000  71.8070000  37.2860000  35.4940000  72.4660000  36.9030000
  33.9990000  72.5310000  37.8000000  35.5580000  70.8120000  38.1080000
  34.9980000  69.8690000  38.3610000  36.4640000  70.5090000  37.4990000
  36.0320000  71.4490000  39.3990000  35.1270000  71.7860000  39.9080000
  36.4970000  70.7290000  40.0740000  37.0650000  72.5120000  39.1880000
  37.7870000  72.0960000  38.4960000  36.6450000  73.4120000  38.6700000
  37.9020000  73.0010000  40.3680000  38.2960000  72.0640000  40.8200000
  38.8100000  73.5180000  39.9860000  37.2020000  73.8590000  41.4080000
  36.7670000  74.7330000  40.9130000  36.2550000  73.5120000  41.7350000
  38.1280000  74.2630000  42.6150000  39.1510000  74.5230000  42.2220000
  37.8290000  75.1460000  43.1300000  38.1570000  73.0810000  43.6110000
  37.1220000  72.7670000  43.6770000  38.7310000  72.2900000  43.1360000
  38.7210000  73.3560000  44.9930000  38.1930000  74.1300000  45.5380000
  38.5830000  72.4200000  45.6070000  40.1310000  73.8900000  44.8970000
  40.1660000  75.0190000  44.6400000  40.4790000  73.8750000  45.9150000
  41.1120000  73.1310000  44.0090000  40.9560000  72.0920000  44.1440000
  40.8410000  73.2690000  42.9130000  42.6170000  73.4620000  44.1230000
  42.8060000  74.4710000  44.2880000  42.9940000  72.9470000  44.9640000
  43.4800000  73.1980000  42.8050000  43.1440000  73.7780000  41.9320000
  44.4690000  73.5530000  43.0130000  43.4830000  71.6770000  42.4980000
  42.5750000  71.1650000  42.7770000  43.6410000  71.5400000  41.4780000
  44.6690000  71.0270000  43.1220000  45.7990000  71.0680000  42.5700000
  44.4040000  70.3210000  44.2950000  45.5150000  69.8260000  45.0490000
  45.1440000  69.1480000  45.7610000  46.0900000  69.2720000  44.3200000
  46.3310000  70.9560000  45.7290000  46.7920000  71.5820000  44.9080000
  47.2360000  70.2420000  46.7270000  47.7890000  69.5630000  46.1130000
  47.8470000  71.1100000  47.1440000  46.6100000  69.4740000  47.7690000
  46.5760000  70.0310000  49.2670000  45.3870000  69.2580000  49.9500000
  44.0920000  69.3280000  49.2500000  44.0680000  70.1840000  48.5840000
  44.0760000  68.4300000  48.5590000  42.9000000  69.3730000  50.2650000
  42.0450000  69.7580000  49.7080000  42.6240000  68.4690000  50.7490000
  42.9700000  70.4130000  51.3730000  41.6570000  70.6880000  51.9650000
  41.8370000  71.3780000  52.7810000  41.0890000  71.2300000  51.2150000
  41.2460000  69.7070000  52.3100000  43.8030000  69.8710000  52.4740000
  43.4140000  70.1650000  53.4280000  43.7440000  68.8120000  52.3140000
  44.7620000  70.1900000  52.2640000  43.5590000  71.6940000  50.8080000
  43.2710000  72.5570000  51.3750000  43.0920000  71.7790000  49.8550000
  44.6580000  71.6730000  50.6780000  47.7890000  69.6320000  49.9790000
  46.2310000  71.4660000  49.3450000  45.4090000  71.8840000  46.4560000
  45.8350000  73.0580000  46.9070000  46.9220000  73.4580000  46.7230000
  44.6100000  73.7090000  47.4970000  44.3570000  73.2650000  48.5210000
  43.7560000  73.6540000  46.8560000  44.7830000  75.2160000  47.7850000
  45.6720000  75.3110000  48.2970000  43.9500000  75.4620000  48.5320000
  44.7820000  76.1600000  46.5430000  44.4910000  77.0860000  47.0190000
  44.0670000  75.8850000  45.7570000  46.2110000  76.3670000  45.9830000
  46.5890000  75.4640000  45.4250000  46.9010000  76.6410000  46.7780000
  46.2010000  77.5780000  45.0170000  45.6670000  78.4030000  45.4690000
  45.7850000  77.3330000  44.0770000  47.6230000  77.9480000  44.7950000
  48.1920000  77.0330000  44.7120000  48.0250000  78.4330000  45.7270000
  47.9100000  78.8160000  43.5590000  48.8390000  79.2670000  43.6500000
  47.2690000  79.7260000  43.5750000  47.9420000  78.0500000  42.2230000
  48.5750000  77.1890000  42.0890000  47.2010000  78.3410000  41.1310000
  47.1400000  77.6640000  40.2520000  46.2520000  79.5150000  41.0290000
  46.6770000  80.3980000  41.4590000  45.2820000  79.3310000  41.4430000
  46.0040000  79.7800000  39.5270000  45.7500000  78.9070000  38.9010000
  46.9640000  80.0250000  39.1790000  44.9850000  80.9290000  39.3340000
  45.4230000  81.7980000  39.8160000  44.0780000  80.6600000  39.7970000
  44.7400000  81.2830000  37.9180000  45.6260000  81.7850000  37.6540000
  43.9360000  82.0130000  37.8720000  44.5640000  80.1930000  36.8860000
  43.6000000  79.6150000  36.9750000  45.3750000  79.4640000  36.9430000
  44.7080000  80.6970000  35.4940000  45.5270000  81.3880000  35.3600000
  43.7470000  81.2280000  35.3470000  44.9000000  79.5850000  34.4790000
  44.3210000  78.6870000  34.6680000  46.0040000  79.3070000  34.4630000
  44.3820000  80.2000000  33.1600000  44.7670000  81.1930000  32.9350000
  43.2620000  80.1730000  33.1860000  44.6040000  79.4960000  32.2810000
  12.4350000 158.7800000  36.3440000  12.1640000 158.8370000  35.2840000
  12.2480000 159.7670000  36.7620000  11.8090000 158.1680000  36.8840000
  13.7410000 158.1480000  36.7140000  14.5060000 158.8340000  36.3380000
  13.8480000 157.9980000  37.7980000  13.9290000 156.8030000  35.9440000
  13.1720000 156.1060000  36.2800000  13.6920000 157.0500000  34.8490000
  15.3320000 156.2210000  36.2400000  15.9990000 156.8940000  35.7350000
  15.7000000 156.1190000  37.2680000  15.5060000 154.8640000  35.5650000
  15.3270000 155.0980000  34.5150000  16.5680000 154.5920000  35.5380000
  14.7000000 153.6270000  36.0020000  14.9870000 153.4160000  37.0610000
  13.5930000 153.8540000  36.0870000  14.8040000 152.3830000  35.1150000
  14.3320000 152.7410000  34.1640000  15.8210000 152.1550000  34.7950000
  14.0120000 151.1300000  35.6970000  13.1770000 151.5580000  36.2670000
  13.6340000 150.4040000  35.0190000  14.9960000 150.2920000  36.5060000
  15.8250000 149.9350000  35.8420000  15.5130000 150.9020000  37.2610000
  14.5010000 149.0860000  37.2890000  13.7720000 148.6640000  36.6390000
  15.2010000 148.2900000  37.4470000  13.7670000 149.3210000  38.6100000
  12.9100000 149.9620000  38.3040000  13.4260000 148.3060000  38.9320000
  14.5690000 149.9980000  39.7440000  15.5880000 149.5710000  39.8420000
  14.8070000 151.0400000  39.5050000  13.8190000 149.9640000  41.1380000
  12.8960000 150.4560000  40.9310000  13.5700000 148.9640000  41.5080000
  14.6690000 150.7640000  42.1040000  15.2870000 151.4480000  41.5650000
  13.8680000 151.3240000  42.6750000  15.5980000 149.9130000  43.0090000
  16.2140000 149.1860000  42.4290000  16.3210000 150.6530000  43.3610000
  15.0150000 149.2040000  44.1310000  15.4170000 149.2220000  45.2610000
  13.7910000 148.5900000  43.9080000  13.1240000 147.8390000  44.9560000
  12.5290000 147.0870000  44.4330000  13.9730000 147.3640000  45.4930000
  12.1950000 148.7320000  45.8910000  12.7250000 149.3930000  46.4310000
  11.2630000 147.8960000  46.7610000  10.6290000 148.4790000  47.4400000
  10.4530000 147.3710000  46.2350000  12.0560000 146.8150000  47.4880000
  12.6480000 147.0100000  48.9790000  14.1740000 147.0190000  48.6840000
  15.0120000 145.8060000  49.0310000  14.3840000 144.9980000  49.3830000
  15.5500000 145.4850000  48.1050000  16.0320000 146.3100000  50.1420000
  16.6760000 145.4170000  50.1740000  16.6270000 147.2160000  49.8180000
  15.6480000 146.6060000  51.5480000  16.7960000 146.8340000  52.3900000
  17.5060000 146.0070000  52.3960000  17.1860000 147.8130000  52.0620000
  16.4880000 146.9970000  53.3880000  14.7800000 147.7900000  51.5370000
  13.7580000 147.5080000  51.5360000  15.0780000 148.4250000  52.4160000
  15.0180000 148.3830000  50.6670000  14.7870000 145.4660000  52.0260000
  13.9690000 145.4230000  51.3120000  14.3790000 145.7040000  53.0440000
  15.4920000 144.5900000  52.0790000  12.3350000 148.2900000  49.4470000
  12.2570000 145.8010000  49.7550000  11.2740000 149.5430000  45.0930000
  11.7090000 150.6950000  44.6610000  12.7140000 151.2990000  45.1210000
  10.8360000 151.3270000  43.6000000  10.1870000 150.5060000  43.1980000
  11.4930000 151.7770000  42.8550000   9.8740000 152.4380000  44.0930000
   9.5570000 152.8740000  43.1920000  10.3960000 153.2220000  44.5880000
   8.6460000 151.9520000  44.7890000   7.9930000 151.2200000  44.1820000
   8.0030000 152.8650000  44.9630000   8.8300000 151.3330000  46.1220000
   9.7460000 151.8500000  46.5090000   9.0440000 150.2080000  46.0750000
   7.7140000 151.5990000  47.1220000   6.7690000 151.5190000  46.6640000
   7.7550000 152.6730000  47.4580000   7.7960000 150.7170000  48.3590000
   7.2140000 151.1570000  49.1850000   8.7820000 150.6530000  48.7270000
   7.1470000 149.2920000  48.0830000   7.3600000 148.7050000  48.9700000
   7.6550000 148.9150000  47.1490000   5.6610000 149.3540000  47.9350000
   5.1160000 149.4390000  48.8310000   4.9610000 149.4850000  46.8160000
   3.9510000 149.6860000  46.9300000   5.5140000 149.4450000  45.3750000
   5.3460000 148.5190000  44.8580000   6.6180000 149.6750000  45.3800000
   4.7200000 150.5410000  44.7050000   4.9570000 151.4220000  45.2270000
   3.6160000 150.4680000  44.9410000   4.8170000 150.7310000  43.1990000
   4.7060000 149.7010000  42.7320000   5.8090000 151.2150000  43.0710000
   3.6250000 151.6290000  42.7420000   3.6980000 152.5760000  43.1710000
   2.7800000 151.1630000  43.1860000   3.5340000 151.7380000  41.2120000
   2.5080000 151.8890000  40.9730000   3.8860000 150.8000000  40.8450000
   4.3940000 152.8400000  40.4640000   4.3690000 152.5580000  39.4630000
   5.3620000 152.5760000  40.8620000   4.0280000 154.3490000  40.6380000
   4.6880000 154.9360000  39.9970000   4.3050000 154.5970000  41.6840000
   2.5760000 154.7060000  40.1220000   2.3410000 155.7550000  40.2930000
   1.8040000 154.0830000  40.6540000   2.5100000 154.4960000  39.0570000
   1.2010000  72.8510000  46.5340000   1.8470000  71.9790000  46.5350000
   1.4340000  73.2250000  45.5330000   0.1030000  72.6090000  46.4970000
   1.4320000  73.9690000  47.6070000   2.2730000  74.5570000  47.4320000
   0.6280000  74.6490000  47.5950000   1.3420000  73.5010000  49.1460000
   1.4590000  74.3520000  49.8520000   0.4480000  73.0700000  49.4800000
   2.3530000  72.3860000  49.5260000   2.3010000  72.1320000  50.6020000
   1.9550000  71.5750000  48.9830000   3.7900000  72.7630000  49.0980000
   3.7920000  73.1130000  48.0380000   4.0920000  73.6090000  49.7530000
   4.7850000  71.6180000  49.2180000   4.4810000  70.8800000  48.5580000
   5.7190000  72.0670000  48.9160000   4.9580000  71.0400000  50.6430000
   3.9650000  70.8270000  51.0300000   5.5310000  70.1200000  50.6070000
   5.5800000  71.9420000  51.7160000   4.9930000  72.8240000  51.8510000
   5.5890000  71.3680000  52.6030000   7.1020000  72.2960000  51.3840000
   7.7510000  71.4150000  51.2480000   7.1880000  72.8650000  50.4300000
   7.8040000  73.0460000  52.5300000   7.9040000  72.3600000  53.3210000
   8.7650000  73.3020000  52.2270000   7.1390000  74.2950000  53.2330000
   6.2550000  74.0130000  53.8380000   7.8760000  74.6350000  54.0180000
   6.8220000  75.3810000  52.2080000   7.4540000  75.2940000  51.2980000
   5.8180000  75.1650000  51.9070000   6.8820000  76.7860000  52.9420000
   7.8980000  77.0930000  53.0340000   6.4930000  77.5560000  52.2570000
   6.1270000  76.9270000  54.2590000   5.2900000  76.2570000  54.2720000
   6.8350000  76.5560000  54.9890000   5.5660000  78.3240000  54.5480000
   4.9420000  78.7000000  53.8360000   4.9390000  78.3060000  55.4590000
   6.6410000  79.3140000  54.6970000   7.7350000  79.0510000  55.2130000
   6.2730000  80.5480000  54.1820000   7.0560000  81.7740000  54.6250000
   8.0980000  81.5350000  54.6350000   6.8300000  82.5730000  53.9420000
   6.6820000  82.2620000  56.0220000   6.6380000  83.3620000  55.9720000
   7.7220000  81.9190000  57.0990000   7.3870000  81.4080000  57.9940000
   8.6230000  81.4170000  56.6940000   8.2630000  83.2230000  57.5340000
   9.3360000  83.9910000  56.6120000  10.7270000  83.6250000  57.1320000
  11.8870000  84.0890000  56.4650000  12.7000000  83.3770000  56.7900000
  11.7460000  83.9290000  55.3840000  12.1640000  85.5290000  56.8080000
  12.9370000  85.9670000  56.0920000  11.3850000  86.1590000  56.5900000
  12.5470000  85.7620000  58.2030000  13.6670000  84.9390000  58.7190000
  14.4510000  85.1230000  58.0000000  13.9780000  85.1890000  59.7280000
  13.3280000  83.8800000  58.8000000  12.9480000  87.2040000  58.3530000
  13.4240000  87.4200000  59.3360000  13.7270000  87.3800000  57.5170000
  12.0490000  87.8640000  58.1010000  11.3220000  85.5900000  59.0890000
  11.1540000  84.5690000  59.2860000  10.5100000  86.0940000  58.5520000
  11.5000000  86.1130000  60.0070000   9.2580000  83.5120000  55.1800000
   9.1470000  85.4090000  56.9150000   5.3410000  81.7700000  56.3300000
   4.3580000  82.5440000  55.8600000   4.5630000  83.5640000  55.1560000
   3.0270000  82.0860000  56.3820000   2.6850000  82.5930000  57.3170000
   3.0560000  80.9810000  56.6520000   1.8070000  82.2090000  55.3690000
   1.8260000  83.2510000  54.9230000   0.8540000  82.2350000  55.9420000
   1.7350000  81.0940000  54.3230000   0.7580000  81.1420000  53.8680000
   1.8220000  80.0070000  54.7400000   2.8300000  81.3410000  53.2670000
   3.8430000  81.2700000  53.7360000   2.7140000  82.3240000  52.8570000
   2.6940000  80.4020000  52.1200000   1.8100000  80.5760000  51.5660000
   2.6750000  79.4250000  52.6190000   3.9410000  80.4950000  51.1880000
   4.7660000  80.2450000  51.7990000   4.0800000  81.5320000  50.8000000
   3.7830000  79.5780000  49.9210000   4.5860000  79.6170000  49.2510000
   2.8340000  79.8940000  49.4540000   3.5970000  78.1320000  50.3390000
   2.8050000  77.7490000  50.9070000   4.3740000  77.1250000  49.9110000
   4.1000000  76.1410000  50.2420000   5.6280000  77.2480000  48.9970000
   6.5020000  77.1590000  49.6490000   5.6650000  78.1990000  48.3730000
   5.6680000  75.9720000  48.1100000   4.8130000  75.8720000  47.5410000
   5.7110000  75.1020000  48.7460000   6.9420000  75.9630000  47.3080000
   7.8290000  76.0550000  47.8900000   6.9470000  76.9020000  46.6830000
   7.2260000  74.6540000  46.5320000   7.1820000  73.7480000  47.1740000
   8.2080000  74.6270000  46.1460000   6.2560000  74.4020000  45.4120000
   6.3630000  75.2480000  44.8180000   5.2230000  74.5210000  45.8350000
   6.4130000  73.1030000  44.6690000   6.9390000  72.3850000  45.3060000
   7.0070000  73.2400000  43.7700000   5.1020000  72.6270000  44.1360000
   4.8100000  73.2620000  43.2800000   4.2310000  72.6630000  44.7560000
   5.1340000  71.1950000  43.5740000   4.7890000  70.5520000  44.4450000
   6.0650000  70.9090000  43.3080000   4.4650000  70.9660000  42.7010000
 110.4350000 154.4280000  37.8440000 110.2020000 154.7630000  36.7950000
 109.7800000 155.0900000  38.4090000 110.0000000 153.4050000  37.8410000
 111.9710000 154.3350000  38.1290000 112.3930000 153.7810000  37.2700000
 112.3820000 155.3330000  38.0490000 112.3350000 153.7320000  39.4880000
 112.2850000 152.5950000  39.4750000 113.4560000 153.8890000  39.6660000
 111.5130000 154.2750000  40.6590000 111.7160000 155.3460000  40.9370000
 110.4370000 154.1990000  40.4940000 111.6750000 153.3660000  41.8820000
 111.4830000 152.2930000  41.6830000 112.6320000 153.2190000  42.1650000
 110.9760000 153.7110000  43.1540000 110.9500000 154.7580000  43.3360000
 109.9560000 153.3660000  43.0440000 111.4450000 153.0480000  44.4770000
 111.1420000 152.0550000  44.5010000 112.5300000 153.0150000  44.4310000
 111.0970000 153.7410000  45.7650000 111.1820000 154.8240000  45.6860000
 110.0960000 153.5130000  45.9640000 111.9460000 153.1840000  46.9590000
 111.9490000 152.1250000  47.0120000 112.9510000 153.3150000  46.7090000
 111.6090000 153.7590000  48.3100000 110.6050000 153.5050000  48.5460000
 111.7300000 154.8500000  48.2870000 112.4230000 153.2910000  49.4450000
 113.4620000 153.4250000  49.1160000 112.1940000 154.0300000  50.2750000
 112.0810000 151.7930000  49.8070000 111.0310000 151.6290000  49.8910000
 112.4460000 151.0780000  49.0780000 112.8340000 151.4260000  51.1300000
 113.8850000 151.5320000  51.0390000 112.4460000 152.1230000  51.8910000
 112.6620000 149.9710000  51.6950000 112.9780000 149.1880000  50.9500000
 113.1870000 149.9640000  52.6500000 111.2320000 149.6870000  52.0150000
 110.7030000 150.3970000  52.7160000 110.7330000 149.7040000  51.0270000
 110.8750000 148.3140000  52.6850000 111.5380000 147.8100000  53.6040000
 109.6310000 147.8480000  52.2950000 109.0980000 146.7560000  53.0390000
 108.2850000 146.3830000  52.4560000 109.9420000 146.0410000  52.9760000
 108.4490000 147.1790000  54.3600000 109.1340000 147.3260000  55.2340000
 107.3930000 146.1090000  54.7850000 106.8570000 146.4500000  55.6650000
 106.5970000 146.0860000  54.0010000 107.9950000 144.8010000  54.8980000
 108.7630000 144.3830000  56.2890000 110.2640000 144.6770000  55.8720000
 111.0670000 143.7590000  55.2750000 111.2960000 143.1260000  56.0670000
 110.4710000 143.2820000  54.4620000 112.3160000 144.4630000  54.6970000
 112.9040000 143.6800000  54.2410000 111.9660000 145.1530000  53.9630000
 113.2270000 145.1230000  55.6390000 114.3980000 145.5470000  54.7480000
 114.0990000 146.4310000  54.1870000 115.2860000 145.6880000  55.3540000
 114.6070000 144.7760000  54.0200000 112.6860000 146.2800000  56.3170000
 112.0170000 145.8300000  57.0670000 113.4900000 146.9280000  56.6630000
 112.0350000 146.8720000  55.5730000 113.8860000 144.1230000  56.5960000
 113.2240000 143.8520000  57.4240000 114.6650000 144.7050000  57.0620000
 114.4470000 143.2480000  56.1230000 108.3760000 145.2860000  57.3910000
 108.5720000 142.9650000  56.5050000 107.5720000 148.3750000  54.1970000
 108.0700000 149.6600000  54.1370000 109.2680000 149.8970000  54.3530000
 107.0310000 150.7680000  53.8730000 106.8010000 151.4140000  54.7460000
 106.0080000 150.4460000  53.6390000 107.5730000 151.6040000  52.6760000
 108.5600000 151.9060000  52.9870000 106.8560000 152.4660000  52.5760000
 107.5530000 150.6950000  51.3940000 106.4720000 150.4120000  51.2070000
 108.2330000 149.8370000  51.4780000 107.9410000 151.5260000  50.1530000
 108.8170000 152.1040000  50.2710000 107.1430000 152.3000000  50.1200000
 108.2150000 150.8190000  48.7970000 108.8950000 149.9630000  48.9280000
 108.6420000 151.5970000  48.1290000 106.9660000 150.3930000  47.9640000
 106.3340000 151.2670000  47.7680000 106.4410000 149.5750000  48.5060000
 107.4110000 149.8000000  46.6080000 108.2060000 149.1370000  46.8790000
 107.8650000 150.4960000  45.9540000 106.2570000 149.0160000  45.9590000
 106.2260000 147.9290000  46.1930000 105.5270000 149.4870000  44.9780000
 104.9840000 148.8200000  44.4230000 105.4430000 150.9920000  44.6290000
 105.9640000 151.5240000  45.4020000 104.3860000 151.3100000  44.6560000
 105.8250000 151.2840000  43.2390000 105.5220000 152.3540000  43.0350000
 105.1960000 150.7680000  42.5180000 107.2450000 151.0310000  42.8740000
 107.3940000 149.9450000  42.8510000 107.9610000 151.4340000  43.5490000
 107.5090000 151.5020000  41.4420000 107.2540000 152.5760000  41.4540000
 106.7470000 151.0650000  40.7610000 108.9850000 151.2570000  40.9490000
 109.6390000 151.4190000  41.7750000 109.1950000 152.0540000  40.2200000
 109.1850000 149.8420000  40.4580000 108.6140000 149.6200000  39.6120000
 108.8990000 149.0630000  41.2390000 110.7240000 149.7150000  40.1460000
 111.3770000 150.0630000  41.0230000 111.0640000 150.4410000  39.4140000
 111.1090000 148.2580000  39.7950000 112.1980000 148.1920000  39.9710000
 110.7730000 147.9270000  38.8170000 110.7490000 147.4860000  40.4880000
  30.8440000 112.1240000  38.9390000  31.0040000 111.6420000  37.9780000
  30.6260000 111.4740000  39.8030000  31.6990000 112.7500000  39.1170000
  29.7310000 113.1460000  38.8120000  29.7940000 113.5400000  37.7880000
  28.8120000 112.6220000  38.9270000  29.8470000 114.2080000  39.9240000
  30.6390000 114.9150000  39.7020000  28.8830000 114.6960000  39.8700000
  30.1290000 113.6080000  41.3760000  29.7190000 112.6190000  41.4490000
  31.2380000 113.4550000  41.4360000  29.5210000 114.5410000  42.4930000
  29.9790000 115.4830000  42.5480000  28.4110000 114.6730000  42.2870000
  29.7630000 114.1090000  43.8950000  29.2890000 113.1630000  44.0420000
  30.8440000 113.8420000  43.9980000  29.4260000 115.0140000  45.0960000
  29.8150000 115.9750000  44.7230000  28.3850000 114.9950000  45.1800000
  30.0530000 114.6350000  46.4670000  31.1580000 114.9080000  46.4570000
  29.7970000 115.2630000  47.3850000  29.8570000 113.1940000  46.8810000
  28.8650000 113.0970000  47.2400000  29.8570000 112.4620000  46.0450000
  30.7560000 112.6830000  48.0310000  30.5270000 113.3370000  48.8280000
  30.4820000 111.7370000  48.3530000  32.2870000 112.6440000  47.6960000
  32.5520000 113.6520000  47.3540000  32.8170000 112.5530000  48.6520000
  32.5460000 111.4560000  46.8290000  32.0420000 110.5420000  47.2060000
  32.1470000 111.6140000  45.8690000  34.0500000 111.1370000  46.6980000
  34.5250000 112.1050000  46.3780000  34.4160000 111.0240000  47.7110000
  34.4550000 109.9510000  45.7690000  34.1620000 110.1510000  44.7460000
  35.5250000 109.7730000  45.6740000  33.8530000 108.5820000  46.1160000
  32.6960000 108.7360000  46.3120000  33.8560000 107.9030000  45.2730000
  34.4940000 107.9960000  47.4320000  35.2920000 107.0620000  47.4700000
  33.9170000 108.5680000  48.5130000  34.4650000 108.4190000  49.8620000
  33.9100000 107.6100000  50.3350000  35.4440000 108.1310000  49.7070000
  34.2800000 109.6330000  50.7630000  34.7080000 109.5790000  51.7880000
  32.7890000 110.0520000  50.8300000  32.5430000 110.2360000  49.7740000
  32.1320000 109.1780000  51.1780000  32.4550000 111.2540000  51.5300000
  32.3460000 111.2330000  53.1570000  31.4710000 109.9110000  53.4330000
  32.0430000 108.7630000  53.9780000  31.8490000 107.9070000  53.3660000
  33.1010000 108.8640000  54.2260000  31.1670000 108.5250000  55.2870000
  30.1930000 108.2750000  55.0270000  31.6300000 107.7460000  55.8020000
  30.9970000 109.6140000  56.2480000  32.2780000 110.3500000  56.5220000
  32.2550000 110.9510000  57.4470000  32.9580000 109.6150000  56.7750000
  32.6090000 110.9100000  55.6800000  29.9840000 110.5850000  55.7870000
  29.0740000 110.1240000  55.5560000  29.8030000 111.3920000  56.5640000
  30.3180000 110.9880000  54.8270000  30.5930000 109.1380000  57.6420000
  30.5160000 110.0870000  58.2770000  31.4100000 108.5130000  58.0010000
  29.6730000 108.5730000  57.5790000  33.6610000 111.0670000  53.7850000
  31.5820000 112.3580000  53.6520000  34.9510000 110.7610000  50.1990000
  36.3410000 110.7720000  50.2940000  36.8980000 109.9600000  50.9810000
  37.0560000 111.8090000  49.3900000  36.3220000 112.4720000  48.7250000
  37.7540000 111.2740000  48.6890000  37.9700000 112.7150000  50.3040000
  38.7940000 112.0240000  50.6140000  37.4220000 113.0560000  51.1930000
  38.5650000 113.9810000  49.6130000  39.3100000 114.4980000  50.2870000
  37.7560000 114.6490000  49.3340000  39.2590000 113.7840000  48.3120000
  38.7130000 113.1840000  47.6390000  40.2180000 113.2570000  48.5300000
  39.5550000 115.1890000  47.6520000  39.7520000 115.9090000  48.4780000
  38.6020000 115.4310000  47.1640000  40.5630000 115.2210000  46.4690000
  41.4470000 114.7240000  46.8500000  40.9230000 116.2530000  46.2910000
  40.3350000 114.5510000  45.1020000  41.2450000 114.8850000  44.6010000
  39.4810000 115.0720000  44.5940000  40.3060000 113.0290000  45.1570000
  41.2370000 112.6250000  45.3730000  39.2540000 112.2530000  44.8900000
  39.3820000 111.1640000  44.9190000  37.8510000 112.6700000  44.5420000
  37.7180000 113.7380000  44.7680000  37.1440000 112.1000000  45.1540000
  37.4730000 112.3970000  43.0550000  38.1950000 112.7310000  42.3210000
  36.5680000 113.0330000  42.8310000  37.2190000 110.8920000  42.7210000
  36.4380000 110.5240000  43.3570000  38.1200000 110.2130000  42.9460000
  36.9130000 110.6600000  41.2280000  37.5510000 111.2350000  40.5250000
  35.8630000 111.0250000  40.9130000  37.0320000 109.1460000  40.8460000
  36.4250000 108.6040000  41.5640000  38.0410000 108.7910000  41.0340000
  36.7270000 108.6430000  39.4050000  37.2620000 109.3230000  38.7460000
  35.6110000 108.7280000  39.1770000  37.2630000 107.1400000  39.1140000
  38.3360000 107.2440000  39.0490000  36.9930000 106.6740000  38.1830000
  36.8940000 106.1000000  40.2840000  37.2630000 105.0450000  40.1310000
  35.8780000 106.1410000  40.5100000  37.3060000 106.3780000  41.2320000
  21.3290000  81.3350000  40.8090000  22.2900000  80.8260000  40.7430000
  20.9870000  81.3270000  41.8330000  21.4170000  82.3820000  40.3920000
  20.3500000  80.5280000  39.9200000  19.3380000  80.9760000  40.0310000
  20.6290000  80.6390000  38.8840000  20.3100000  79.0000000  40.2310000
  19.7120000  78.4990000  39.4400000  21.3490000  78.4990000  40.1100000
  19.6970000  78.6310000  41.6450000  20.1080000  79.0730000  42.5310000
  18.6690000  78.9160000  41.6470000  19.6860000  77.1050000  41.9990000
  18.8870000  76.9820000  42.7990000  19.2580000  76.5220000  41.2430000
  21.0080000  76.3510000  42.2800000  20.7200000  75.4260000  41.9840000
  21.8590000  76.6850000  41.6560000  21.4500000  76.2190000  43.7190000
  20.6890000  75.6960000  44.3460000  22.2970000  75.6130000  43.8600000
  21.8470000  77.5800000  44.4080000  21.0120000  78.3160000  44.3450000
  22.0240000  77.4200000  45.4990000  23.1590000  78.2050000  43.8130000
  24.0090000  77.4930000  43.7190000  23.0950000  78.5520000  42.7570000
  23.5800000  79.4170000  44.6550000  23.3200000  79.3370000  45.6660000
  24.6520000  79.5280000  44.6160000  22.8840000  80.6800000  44.1170000
  23.3690000  80.9010000  43.1620000  21.8810000  80.4290000  43.8530000
  22.8750000  81.8900000  45.1120000  22.2460000  81.6090000  45.9510000
  23.8090000  82.0520000  45.6060000  22.4260000  83.2590000  44.5420000
  21.3690000  83.2290000  44.1090000  22.3150000  83.9630000  45.3650000
  23.5040000  83.7780000  43.4950000  23.6520000  82.9780000  42.7880000
  23.0200000  84.5610000  42.9220000  24.8410000  84.1610000  44.0650000
  25.3420000  83.3070000  44.5470000  25.4820000  84.4810000  43.2640000
  24.6050000  85.3240000  44.9530000  24.5630000  86.4780000  44.5140000
  24.1790000  84.9850000  46.1230000  24.2050000  85.9470000  47.2430000
  24.5870000  85.4270000  48.1460000  24.9970000  86.6860000  47.0810000
  22.8120000  86.5000000  47.7290000  22.4080000  86.9420000  46.8040000
  23.0280000  87.5140000  48.8450000  23.3890000  88.3860000  48.3520000
  22.0710000  87.7080000  49.2840000  24.0720000  87.0150000  49.7740000
  24.0280000  87.1970000  51.3370000  23.1110000  86.0020000  51.7360000
  21.9910000  86.1460000  52.5850000  22.0500000  85.3500000  53.3420000
  21.9090000  87.0860000  53.1080000  20.7480000  86.0380000  51.6670000
  20.7690000  87.0680000  51.2010000  20.8750000  85.2110000  50.9260000
  19.4920000  85.7180000  52.3390000  18.3260000  85.8750000  51.4690000
  18.2920000  86.9100000  51.1320000  18.3100000  85.1500000  50.6220000
  17.4250000  85.7230000  52.0470000  19.4070000  84.4100000  53.1040000
  20.3120000  84.1850000  53.6300000  18.5060000  84.4670000  53.6920000
  19.1800000  83.6760000  52.3930000  19.2960000  86.6920000  53.3700000
  19.5090000  87.6740000  52.9990000  19.9400000  86.4160000  54.2620000
  18.3120000  86.5660000  53.8080000  25.3500000  87.0410000  51.8690000
  23.2310000  88.4300000  51.5770000  22.0080000  85.3550000  48.1660000
  20.6850000  85.3580000  47.9350000  20.0300000  86.3480000  47.6590000
  20.0620000  83.9790000  48.0990000  19.3390000  83.9620000  48.9150000
  20.8820000  83.3770000  48.3580000  19.4900000  83.4640000  46.7910000
  20.1040000  83.6760000  45.9040000  18.7090000  84.2500000  46.5950000
  18.9250000  82.0740000  46.6170000  18.5160000  81.7570000  47.5320000
  19.8280000  81.4510000  46.3550000  17.9270000  81.9660000  45.4610000
  18.4430000  82.3150000  44.5560000  17.0920000  82.5940000  45.5180000
  17.3680000  80.5240000  45.2730000  17.1730000  80.0830000  46.2240000
  18.1960000  79.9970000  44.8510000  16.0610000  80.3640000  44.4530000
  15.2870000  80.9660000  44.9320000  15.6680000  79.3720000  44.6340000
  16.1430000  80.6610000  42.9740000  17.0190000  80.0770000  42.6010000
  16.3410000  81.7270000  42.7770000  14.9600000  80.1860000  42.1370000
  14.2570000  80.9740000  41.8380000  14.7590000  78.9400000  41.5860000
  13.9210000  78.7570000  41.0070000  15.6410000  77.7600000  41.8170000
  16.6960000  78.1280000  41.7320000  15.6080000  77.0990000  40.9810000
  15.2130000  76.9600000  43.0570000  14.2680000  76.4800000  42.7370000
  15.0620000  77.6160000  43.9020000  16.1700000  75.8370000  43.4500000
  16.9860000  76.2990000  44.0480000  16.6290000  75.3590000  42.5580000
  15.4930000  74.7930000  44.3590000  14.7040000  74.3450000  43.8130000
  15.0750000  75.3200000  45.2500000  16.3590000  73.6180000  44.8050000
  16.9560000  73.2080000  43.9460000  15.6560000  72.9010000  45.1950000
  17.2330000  74.1480000  45.9450000  16.6030000  74.3600000  46.7920000
  17.8460000  74.9240000  45.5700000  18.2230000  73.0920000  46.4700000
  17.7380000  72.1480000  46.4290000  18.4970000  73.3500000  47.4650000
  19.5930000  72.9470000  45.8200000  20.2730000  73.8560000  45.9260000
  19.5930000  72.7430000  44.7090000  20.1400000  72.0920000  46.2060000
  20.3210000  86.8670000  36.9420000  21.0760000  86.1930000  36.7740000
  20.7930000  87.7910000  37.2450000  19.8890000  87.1910000  36.0040000
  19.2700000  86.3800000  38.0210000  18.5640000  85.7330000  37.4680000
  18.5850000  87.1290000  38.2870000  19.9120000  85.8610000  39.2640000
  20.6050000  85.0430000  39.0430000  20.7050000  86.4520000  39.7860000
  18.8930000  85.3840000  40.2480000  18.3050000  86.2510000  40.5660000
  18.2390000  84.7240000  39.6660000  19.4570000  84.6790000  41.5120000
  18.6340000  84.3500000  42.1230000  20.0280000  83.8200000  41.1880000
  20.2450000  85.6210000  42.3750000  20.6500000  85.0680000  43.2720000
  21.1630000  85.9690000  41.8310000  19.5880000  86.9100000  42.8180000
  19.5000000  87.5690000  41.9490000  18.6330000  86.5680000  43.1440000
  20.3240000  87.6460000  43.9430000  19.9890000  87.4210000  44.9320000
  21.3430000  87.4090000  43.8590000  20.2780000  89.1800000  43.7560000
  20.3030000  89.4070000  42.7270000  19.4050000  89.6260000  44.1830000
  21.5090000  89.8740000  44.3230000  22.3700000  89.2940000  43.9820000
  21.4340000  90.8220000  43.7930000  21.6510000  90.0210000  45.8630000
  21.1330000  90.8910000  46.2100000  21.3200000  89.1190000  46.4250000
  23.1640000  90.2290000  46.0590000  23.4190000  90.3050000  47.0790000
  23.6860000  89.3410000  45.7440000  24.0010000  91.3820000  45.4030000
  23.7640000  91.3600000  44.3440000  23.7240000  92.3960000  45.7040000
  25.4720000  91.2510000  45.5670000  25.8730000  90.4230000  45.0050000
  25.9240000  92.2360000  45.2250000  25.9240000  91.0650000  47.0410000
  25.4690000  90.1610000  47.5730000  26.9900000  90.7860000  47.1410000
  25.8270000  92.3020000  47.8810000  26.2460000  93.3640000  47.6110000
  25.0620000  91.9800000  48.8930000  25.0480000  92.8250000  50.1400000
  24.4730000  92.2880000  50.9390000  26.0630000  92.9950000  50.5100000
  24.3830000  94.1840000  49.9300000  25.1740000  94.7360000  49.3630000
  24.1670000  95.0470000  51.1960000  25.0500000  95.4890000  51.6040000
  23.6210000  95.9880000  50.9380000  23.3940000  94.4910000  52.3160000
  24.1020000  93.6320000  53.4020000  23.1330000  92.3320000  53.4810000
  21.7370000  92.5360000  53.7820000  21.4840000  91.6730000  54.3840000
  21.7560000  93.4000000  54.4670000  20.9330000  92.7530000  52.4880000
  19.9060000  93.0850000  52.7750000  21.2490000  93.5840000  51.8770000
  20.7290000  91.5060000  51.5380000  19.8110000  91.9100000  50.3900000
  18.8450000  91.7430000  50.8100000  20.0270000  92.9050000  50.1170000
  19.7890000  91.2950000  49.5610000  22.0750000  91.1370000  50.8520000
  22.7340000  90.5940000  51.5200000  21.8290000  90.6990000  49.9100000
  22.5690000  92.1270000  50.6590000  20.3330000  90.3380000  52.2690000
  20.2440000  89.4720000  51.5940000  19.3670000  90.4600000  52.7320000
  21.1230000  90.2020000  53.0230000  25.4110000  93.2140000  52.8820000
  24.0740000  94.3670000  54.6830000  23.1060000  93.9480000  49.2360000
  22.5600000  94.8880000  48.4180000  22.9150000  96.0110000  48.2500000
  21.3280000  94.3360000  47.7310000  20.5320000  94.8180000  48.2400000
  21.2550000  93.2490000  47.9460000  21.2160000  94.7320000  46.2370000
  22.1910000  94.4680000  45.8540000  21.0070000  95.8490000  46.2170000
  20.0490000  94.0620000  45.4850000  19.1070000  94.1900000  45.9690000
  20.2080000  92.9600000  45.4710000  19.7310000  94.5200000  44.0640000
  20.6710000  94.5140000  43.4590000  19.3650000  95.5550000  44.0970000
  18.6980000  93.7320000  43.2860000  17.7480000  93.8220000  43.6030000
  18.9260000  92.6680000  43.4450000  18.7000000  93.8990000  41.7620000
  19.6530000  93.5700000  41.5400000  18.6570000  94.9050000  41.4410000
  17.6180000  93.0680000  41.0880000  16.7640000  93.6720000  41.2120000
  17.5620000  92.1740000  41.5920000  17.7770000  92.8630000  39.6100000
  17.9220000  93.7190000  39.0990000  17.9480000  91.6780000  38.9540000
  18.0620000  91.7060000  37.8890000  17.9870000  90.1960000  39.5220000
  18.1390000  90.3050000  40.5870000  18.8370000  89.6680000  39.1360000
  16.6920000  89.3570000  39.4300000  16.9210000  88.3710000  39.7570000
  16.4850000  89.2900000  38.3920000  15.4830000  89.9230000  40.2070000
  15.2330000  90.8750000  39.7520000  15.7820000  89.9920000  41.3160000
  14.2460000  88.9970000  40.3540000  13.3790000  89.5380000  40.8300000
  14.6180000  88.3130000  41.1600000  13.8410000  88.0760000  39.1340000
  14.7030000  87.4510000  38.8580000  13.6720000  88.6910000  38.3080000
  12.6490000  87.1120000  39.4160000  12.3620000  86.5790000  38.4890000
  11.7400000  87.7130000  39.6260000  12.9920000  86.0570000  40.4490000
  13.0020000  86.5440000  41.4140000  13.9550000  85.6270000  40.2920000
  11.9120000  84.9820000  40.6860000  11.8180000  84.2880000  39.8370000
  10.9560000  85.5100000  40.8920000  12.2100000  84.3510000  41.5240000
  16.4320000 129.4180000  41.8040000  17.0080000 130.3220000  41.6460000
  16.3690000 129.2550000  42.8940000  15.4100000 129.5270000  41.4830000
  16.9150000 128.2980000  40.9380000  16.3020000 127.3810000  40.8880000
  17.0380000 128.6440000  39.8530000  18.3160000 127.8770000  41.4370000
  18.6840000 127.1120000  40.7660000  18.9670000 128.7600000  41.5240000
  18.2450000 127.1380000  42.8180000  17.7170000 127.8480000  43.4720000
  17.6350000 126.2450000  42.7690000  19.5480000 126.8440000  43.6120000
  20.1510000 126.0470000  43.2080000  20.2150000 127.6880000  43.6530000
  19.2730000 126.3880000  45.0580000  18.6180000 127.1510000  45.4970000
  18.6700000 125.4950000  44.9990000  20.4120000 126.1270000  46.0860000
  20.9610000 127.0430000  46.2510000  19.9780000 125.9490000  47.0430000
  21.4060000 124.9890000  45.7280000  21.7870000 125.2040000  44.7780000
  22.1740000 125.0210000  46.4890000  20.7170000 123.5370000  45.8120000
  20.2900000 123.4370000  46.8500000  19.9020000 123.5050000  45.1480000
  21.6130000 122.2780000  45.5580000  22.2380000 122.4200000  44.6360000
  22.3480000 122.2040000  46.3610000  20.7180000 121.0080000  45.3990000
  20.0360000 120.9460000  46.2260000  20.1640000 121.0860000  44.4730000
  21.4810000 119.6370000  45.4170000  20.7840000 118.7580000  45.2100000
  22.2120000 119.7350000  44.6770000  22.2590000 119.3230000  46.7160000
  22.8150000 118.4240000  46.5270000  22.9480000 120.2030000  46.7970000
  21.4720000 119.2680000  48.1140000  20.6370000 118.6050000  48.0630000
  22.0350000 118.6850000  48.8560000  21.2080000 120.6020000  48.7900000
  22.1870000 121.0390000  48.9480000  20.6260000 121.2920000  48.1890000
  20.4700000 120.5610000  50.1150000  19.6720000 119.6970000  50.4270000
  20.8200000 121.6120000  50.9070000  20.4950000 121.5010000  52.3330000
  20.7650000 122.4460000  52.8340000  19.4830000 121.2500000  52.4460000
  21.2130000 120.3790000  53.1180000  20.8710000 119.3650000  52.7510000
  20.8710000 120.5140000  54.6150000  21.3610000 121.4370000  55.0020000
  19.7830000 120.7950000  54.7510000  21.2360000 119.3520000  55.4620000
  20.8210000 117.8000000  55.2930000  22.1670000 117.0930000  54.9060000
  23.0970000 116.4140000  55.8920000  23.2910000 116.9490000  56.7750000
  22.7320000 115.4100000  56.1080000  24.4310000 116.1210000  55.1920000
  25.0520000 115.8080000  56.0090000  24.3150000 115.3460000  54.4840000
  25.1660000 117.2880000  54.4990000  24.6650000 117.3460000  53.1900000
  23.7420000 117.9350000  53.2600000  25.3870000 118.0170000  52.6480000
  24.6300000 116.4030000  52.6700000  25.0620000 118.5170000  55.2630000
  25.7590000 119.1820000  54.7190000  24.0460000 118.9310000  55.2450000
  25.3910000 118.3480000  56.2960000  26.6050000 116.8870000  54.4970000
  26.6960000 116.1060000  53.6950000  26.8540000 116.4640000  55.4430000
  27.2770000 117.7310000  54.2760000  20.4080000 117.2570000  56.5560000
  19.9250000 117.6610000  54.1410000  22.6980000 120.5600000  52.8680000
  23.2500000 120.0020000  51.8240000  22.7300000 119.1290000  51.2140000
  24.6240000 120.5420000  51.5210000  25.2050000 119.7090000  51.0790000
  25.0130000 120.8520000  52.4700000  24.4870000 121.8010000  50.6040000
  23.6870000 122.5170000  50.9810000  24.1000000 121.4140000  49.6600000
  25.8790000 122.4680000  50.3390000  26.6560000 122.1910000  51.0810000
  25.5700000 123.5770000  50.3830000  26.5180000 122.0790000  48.9790000
  26.6350000 121.0170000  49.0180000  27.4600000 122.4960000  48.8390000
  25.7110000 122.5090000  47.7170000  25.7210000 123.5990000  47.5740000
  24.6840000 122.1940000  47.8750000  26.2570000 121.8820000  46.3680000
  26.2490000 120.7910000  46.4360000  27.3460000 122.1040000  46.2300000
  25.4450000 122.2900000  45.1230000  25.6570000 123.3090000  44.9380000
  24.3800000 122.1490000  45.3940000  25.8160000 121.3570000  43.9690000
  26.4030000 120.4810000  44.2070000  25.5060000 121.6820000  42.7000000
  25.6700000 120.8820000  41.9450000  24.9990000 123.0020000  42.2340000
  25.6670000 123.5150000  41.5640000  24.9410000 123.7260000  42.9990000
  23.5390000 122.9740000  41.5810000  22.8060000 122.7820000  42.3150000
  23.4760000 122.1920000  40.8520000  23.2090000 124.3450000  40.9700000
  23.9300000 124.5360000  40.1630000  23.2890000 125.1060000  41.8280000
  21.8420000 124.5170000  40.2650000  21.7990000 125.4710000  39.7810000
  21.0650000 124.5600000  40.9950000  21.5320000 123.3910000  39.2570000
  21.3590000 122.4570000  39.8310000  22.3070000 123.2620000  38.4930000
  20.1560000 123.4820000  38.4440000  19.2690000 123.0840000  38.9650000
  20.3050000 122.7380000  37.6470000  19.9150000 124.9480000  37.8070000
  20.6040000 125.1160000  36.9950000  20.1600000 125.7420000  38.5480000
  18.4880000 125.0540000  37.3670000  18.2470000 125.9630000  36.8370000
  17.7200000 124.9800000  38.1340000  18.3330000 124.2080000  36.6680000
  41.4770000 120.9830000  40.9120000  41.4330000 119.9190000  40.9820000
  40.7330000 121.2310000  40.0760000  41.0710000 121.3960000  41.7990000
  42.8350000 121.5710000  40.6330000  43.3830000 121.0230000  39.8720000
  42.6390000 122.6050000  40.3300000  43.8760000 121.4420000  41.8480000
  44.0070000 120.3930000  42.1210000  44.8680000 121.6770000  41.5000000
  43.6440000 122.3790000  43.0090000  42.6280000 122.4890000  43.3230000
  44.2070000 122.1490000  43.8880000  44.0690000 123.8490000  42.5790000
  45.1580000 123.8600000  42.5180000  43.7560000 124.1120000  41.5450000
  43.8170000 124.9100000  43.6020000  42.7510000 124.8660000  43.8880000
  44.4530000 124.9000000  44.4970000  43.8910000 126.3890000  43.0960000
  44.8780000 126.4790000  42.6920000  43.2320000 126.4940000  42.1930000
  43.7190000 127.4100000  44.1420000  44.4080000 127.3440000  44.9680000
  44.0690000 128.3390000  43.6530000  42.2650000 127.4140000  44.7370000
  41.5640000 127.9320000  44.1000000  41.9150000 126.4580000  45.0220000
  42.1180000 128.3530000  45.8900000  42.5840000 129.3100000  45.6240000
  41.0450000 128.5070000  45.9250000  42.7130000 127.7120000  47.2210000
  43.7760000 127.5290000  47.2180000  42.5340000 128.5860000  47.8570000
  42.0700000 126.3770000  47.7370000  41.9570000 126.3480000  48.8550000
  41.1220000 126.3780000  47.4600000  42.7550000 125.0750000  47.1920000
  42.8260000 125.0270000  46.0990000  43.8250000 125.2130000  47.5720000
  42.1410000 123.7080000  47.5250000  42.1890000 123.5450000  48.6480000
  41.1010000 123.5960000  47.0980000  42.9080000 122.5190000  46.8360000
  42.4710000 121.4910000  47.0830000  42.8800000 122.5800000  45.8180000
  44.3740000 122.4770000  47.2660000  45.3330000 122.7170000  46.5790000
  44.4400000 122.2430000  48.5390000  45.6270000 122.4750000  49.3190000
  45.5380000 121.8630000  50.2060000  46.5480000 122.1750000  48.7900000
  45.7850000 123.9310000  49.8660000  46.6600000 124.0380000  50.5550000
  44.5680000 124.3060000  50.8150000  43.9540000 125.0660000  50.3810000
  43.8450000 123.5290000  51.0380000  45.1460000 124.8640000  52.0160000
  45.6170000 123.8410000  53.1560000  44.3040000 123.5250000  53.8790000
  43.7680000 124.5410000  54.7590000  43.7990000 124.1140000  55.8030000
  44.4710000 125.4180000  54.7440000  42.3400000 125.0040000  54.3630000
  42.0090000 125.7160000  55.1260000  42.3340000 125.6350000  53.4610000
  41.1900000 124.0630000  54.2480000  41.3950000 123.0320000  53.1430000
  40.4900000 122.3940000  53.1040000  41.5040000 123.6720000  52.2760000
  42.2430000 122.3190000  53.3120000  40.9080000 123.4940000  55.5930000
  40.7730000 124.3200000  56.3610000  40.0650000 122.8010000  55.4960000
  41.7540000 122.9170000  55.7490000  40.0000000 124.8470000  53.9560000
  39.1890000 124.1010000  53.8910000  40.1170000 125.2840000  53.0270000
  39.8850000 125.6480000  54.7040000  46.1510000 122.6780000  52.4510000
  46.4280000 124.5870000  54.1860000  45.9140000 124.9670000  48.8180000
  47.0450000 124.9700000  48.0190000  48.0630000 124.3530000  48.3370000
  46.8340000 125.8290000  46.8020000  46.4130000 126.7940000  47.0520000
  46.0870000 125.2960000  46.2060000  48.0590000 125.9720000  45.9300000
  48.7820000 126.2670000  46.6430000  47.9600000 126.8090000  45.2640000
  48.4240000 124.7080000  45.1900000  47.5810000 124.4650000  44.4610000
  48.5160000 123.8730000  45.8430000  49.6410000 124.8860000  44.2280000
  50.4650000 125.1950000  44.8840000  49.4300000 125.6560000  43.5340000
  49.8180000 123.5610000  43.4080000  48.9490000 123.3350000  42.7870000
  49.9270000 122.8270000  44.0910000  51.0490000 123.5720000  42.4220000
  50.9800000 122.6010000  41.9400000  51.9980000 123.5790000  42.8740000
  50.9160000 124.7280000  41.4390000  51.1100000 125.6590000  42.0000000
  49.9880000 124.8040000  40.8890000  52.0240000 124.7330000  40.3330000
  53.0540000 124.8380000  40.6250000  51.7660000 124.8960000  39.0360000
  52.5960000 125.0760000  38.4730000  50.4360000 124.7990000  38.3360000
  49.8170000 124.0540000  38.7370000  50.6530000 124.4520000  37.3360000
  49.6090000 126.1020000  38.4040000  49.9780000 126.9760000  37.7740000
  49.4500000 126.4820000  39.3890000  48.2630000 125.7530000  37.8130000
  47.9110000 124.7580000  38.2440000  48.2150000 125.5110000  36.6930000
  47.3150000 126.8840000  38.0250000  47.7560000 127.7590000  37.4890000
  47.3250000 127.1350000  39.0640000  45.8800000 126.5510000  37.5440000
  45.5720000 125.5460000  37.8920000  45.7840000 126.5490000  36.4740000
  44.9130000 127.7130000  37.8900000  43.9290000 127.6220000  37.4240000
  45.3180000 128.5970000  37.4450000  44.6870000 127.9470000  39.4160000
  45.6090000 128.2760000  39.8050000  44.6080000 126.9870000  39.9540000
  43.5260000 128.8770000  39.8340000  43.1690000 128.5890000  40.8420000
  42.6500000 128.6390000  39.1840000  43.8050000 129.9940000  39.7140000
  20.1510000   3.8010000  32.5110000  21.1630000   3.6010000  32.8800000
  19.4590000   4.0350000  33.3810000  20.0530000   4.6450000  31.8010000
  19.5850000   2.5340000  31.8670000  18.6030000   2.7180000  31.4900000
  20.1730000   2.3610000  30.9580000  19.6380000   1.1500000  32.5810000
  18.9110000   0.4310000  32.0650000  20.6290000   0.7300000  32.4860000
  19.3260000   1.2680000  34.0660000  20.0270000   1.9640000  34.6490000
  18.3000000   1.6320000  34.0630000  19.3780000  -0.1350000  34.7190000
  18.8650000  -0.8620000  34.0850000  20.3840000  -0.4990000  34.7860000
  18.6200000  -0.2700000  36.0210000  17.5660000   0.1230000  36.0210000
  18.5940000  -1.3630000  36.4010000  19.2690000   0.4830000  37.2050000
  20.3210000   0.1310000  37.1860000  19.2640000   1.5430000  37.2660000
  18.6650000  -0.0250000  38.5360000  17.7090000   0.3920000  38.6410000
  18.6760000  -1.1510000  38.5010000  19.4300000   0.5250000  39.7570000
  20.4730000   0.2460000  39.7060000  19.2400000   1.5550000  39.7880000
  18.7870000  -0.0540000  40.9600000  17.6900000   0.1850000  40.8850000
  18.8530000  -1.1260000  40.9470000  19.0720000   0.5450000  42.3750000
  18.7870000   1.6120000  42.4400000  18.2850000  -0.0200000  42.9810000
  20.5120000   0.3260000  42.8250000  20.7770000  -0.7600000  42.8640000
  21.1510000   0.7200000  42.0270000  20.6210000   1.0370000  44.1890000
  20.5570000   2.1020000  44.1860000  19.7990000   0.6560000  44.7590000
  21.9070000   0.7890000  44.9780000  22.7500000   0.8960000  44.3720000
  22.0210000   1.5700000  45.7440000  21.9530000  -0.5090000  45.7290000
  21.6740000  -1.4100000  45.1370000  22.9700000  -0.6530000  46.0390000
  21.1680000  -0.4120000  47.0920000  21.7360000  -0.3130000  48.1910000
  19.8460000  -0.3800000  47.0050000  19.0920000   0.0250000  48.2380000
  18.0190000  -0.2600000  48.2230000  19.5450000  -0.4300000  49.0980000
  19.1930000   1.5570000  48.4360000  20.2340000   1.9290000  48.5190000
  18.4510000   2.0580000  49.6670000  18.7850000   1.4440000  50.5110000
  18.6770000   3.0770000  49.8930000  16.9930000   1.8240000  49.6760000
  16.0160000   3.0700000  49.4760000  14.5990000   2.3360000  49.0160000
  14.5550000   1.8110000  47.7000000  13.5560000   1.6840000  47.4070000
  15.0040000   2.4460000  46.9560000  15.1750000   0.3870000  47.6610000
  14.9670000  -0.0710000  46.7030000  16.2860000   0.3300000  47.8900000
  14.5460000  -0.5990000  48.5990000  15.1140000  -1.9580000  48.2890000
  14.8670000  -2.1930000  47.3160000  16.1940000  -1.9220000  48.4430000
  14.7260000  -2.6330000  48.9920000  14.8650000  -0.3920000  50.0660000
  14.3190000   0.4940000  50.4270000  14.6650000  -1.2620000  50.6650000
  15.9200000  -0.1920000  50.0500000  13.0790000  -0.7020000  48.4670000
  12.7470000   0.1900000  48.9630000  12.6610000  -1.6330000  48.9380000
  12.8560000  -0.7010000  47.4250000  15.7330000   3.6360000  50.7410000
  16.4720000   3.9300000  48.3550000  18.6350000   2.1520000  47.2570000
  19.0980000   3.3080000  46.8060000  19.9200000   3.9610000  47.3540000
  18.3370000   3.7810000  45.6130000  17.3610000   3.3000000  45.7220000
  18.8080000   3.4070000  44.6990000  18.2150000   5.3300000  45.4520000
  19.1100000   5.8970000  45.5890000  17.5080000   5.6870000  46.2160000
  17.5570000   5.8170000  44.1790000  16.5580000   5.4270000  44.1770000
  18.0170000   5.4270000  43.2310000  17.5280000   7.3580000  44.1550000
  18.5140000   7.8200000  44.4490000  16.6820000   7.6740000  44.8280000
  17.0990000   7.8260000  42.7380000  16.4160000   7.1620000  42.2920000
  17.9930000   7.8560000  42.0970000  16.5430000   9.2450000  42.7070000
  15.9680000   9.4540000  43.6190000  15.7740000   9.4940000  41.9430000
  17.5950000  10.3380000  42.7760000  17.0700000  11.2530000  42.8190000
  18.0930000  10.4040000  41.8270000  18.4620000  10.4170000  44.0650000
  18.0390000  10.9270000  44.8950000  19.7540000  10.1950000  44.0640000
  20.3940000  10.2760000  44.9980000  20.4710000   9.5710000  42.9410000
  19.8180000   9.3460000  42.1250000  20.9190000   8.6710000  43.3020000
  21.5710000  10.3830000  42.4650000  22.1540000  10.7670000  43.2700000
  21.1700000  11.2460000  41.9800000  22.5890000   9.6290000  41.5280000
  23.1150000   8.9030000  42.1140000  23.2980000  10.2880000  41.0670000
  22.0120000   8.9100000  40.3100000  21.5690000   9.6100000  39.6160000
  21.2150000   8.1990000  40.6700000  23.1120000   8.2950000  39.5710000
  23.6290000   7.6970000  40.2910000  23.9170000   9.0310000  39.2210000
  22.6740000   7.4470000  38.3880000  21.8310000   6.7090000  38.5610000
  23.6170000   6.7780000  38.1580000  22.3530000   8.1230000  37.0640000
  23.1560000   8.8170000  36.6960000  21.5470000   8.8220000  37.1660000
  22.0250000   7.2120000  35.8970000  22.5980000   6.2640000  35.9810000
  22.2720000   7.5910000  34.9930000  20.9640000   6.9840000  35.9080000
  35.1180000  86.4300000  50.4070000  35.6080000  85.5900000  50.9510000
  35.8750000  87.2320000  50.1960000  34.7340000  86.0620000  49.4570000
  33.9520000  86.9360000  51.1800000  34.2550000  87.1450000  52.2320000
  33.5480000  87.8360000  50.6460000  32.8710000  85.8900000  51.2590000
  31.9580000  86.3590000  51.5540000  32.7740000  85.2640000  50.3790000
  33.1540000  84.9030000  52.3760000  34.2390000  84.6810000  52.5580000
  32.8520000  85.2710000  53.3100000  32.3700000  83.5830000  52.0690000
  31.3120000  83.6610000  52.0350000  32.7100000  83.2330000  51.1340000
  32.7000000  82.6050000  53.1610000  33.7960000  82.5360000  53.3310000
  32.2770000  82.9500000  54.1440000  32.1700000  81.1510000  52.9660000
  31.0610000  81.1720000  52.9140000  32.4280000  80.7030000  51.9910000
  32.7280000  80.0890000  53.9550000  32.7520000  79.1790000  53.3220000
  33.7450000  80.2370000  54.3920000  31.6390000  79.8960000  55.0700000
  31.3600000  80.9220000  55.2950000  30.8020000  79.4620000  54.5740000
  31.9820000  79.0250000  56.3090000  32.7030000  78.3010000  55.9130000
  32.5790000  79.6050000  56.9600000  30.7500000  78.5040000  56.9780000
  30.1300000  79.3950000  57.1680000  30.2720000  77.8440000  56.3250000
  31.0400000  77.8470000  58.3290000  31.7450000  78.5170000  58.9080000
  30.1530000  77.7100000  58.9380000  31.7270000  76.4290000  58.3100000
  30.9960000  75.6810000  58.1610000  32.3070000  76.3120000  57.3730000
  32.5390000  76.1350000  59.6010000  33.2420000  76.9710000  59.7220000
  32.0190000  76.1430000  60.5270000  33.2160000  74.7580000  59.5380000
  33.7480000  74.5690000  60.4300000  32.4620000  74.0530000  59.3550000
  34.2280000  74.6350000  58.4130000  33.9440000  74.1090000  57.3450000
  35.3850000  75.2470000  58.7010000  36.5100000  75.1300000  57.7060000
  36.8090000  74.0850000  57.7880000  35.9880000  75.3390000  56.7460000
  37.7240000  76.1020000  58.0470000  38.3460000  76.1290000  57.1620000
  38.5550000  75.5550000  59.2300000  38.4280000  76.3810000  60.0030000
  38.1460000  74.5200000  59.5890000  39.8630000  75.2180000  58.8280000
  41.1890000  75.9290000  59.4280000  41.4700000  77.0720000  58.4080000
  42.2250000  76.8020000  57.1730000  42.5300000  75.7240000  57.0450000
  41.5700000  76.9610000  56.3020000  43.5340000  77.5810000  57.0890000
  43.9310000  77.4440000  56.0750000  43.3690000  78.6310000  57.1790000
  44.6680000  77.1440000  58.0140000  45.7800000  78.0670000  57.5810000
  46.0420000  77.5650000  56.6960000  45.4670000  79.0660000  57.4000000
  46.4900000  77.9080000  58.3000000  44.3950000  77.3030000  59.4860000
  43.8430000  76.4460000  59.8370000  45.3140000  77.2440000  60.0420000
  43.9040000  78.2530000  59.7730000  45.0900000  75.7330000  57.7780000
  44.9150000  75.4540000  56.7900000  44.4440000  75.1780000  58.4120000
  46.1900000  75.6430000  58.0710000  40.9580000  76.5060000  60.8390000
  42.2370000  74.9350000  59.2770000  37.1510000  77.3520000  58.4690000
  36.5790000  78.1600000  57.5740000  36.6170000  77.8990000  56.3670000
  35.8160000  79.2550000  58.2350000  35.9150000  79.0650000  59.3110000
  34.7730000  79.1900000  57.9230000  36.2640000  80.6690000  57.7670000
  37.2640000  80.8810000  58.2630000  35.5370000  81.3640000  58.1810000
  36.3460000  80.9490000  56.2000000  35.4200000  80.5700000  55.7610000
  37.1760000  80.3810000  55.7210000  36.5550000  82.4490000  55.9480000
  37.2560000  82.9190000  56.6590000  35.5550000  82.6620000  56.2710000
  36.8410000  82.8020000  54.4860000  36.0160000  82.5030000  53.8750000
  37.6470000  82.1380000  54.1570000  37.2070000  84.2180000  54.2090000
  38.1510000  84.3230000  54.6800000  36.4390000  84.9630000  54.5030000
  37.4860000  84.4620000  52.7490000  36.5940000  84.2780000  52.1350000
  38.1820000  83.6050000  52.4760000  38.1150000  85.8610000  52.5790000
  37.5810000  86.6170000  53.1160000  39.1910000  86.2020000  51.8710000
  39.4850000  87.2950000  51.8000000  39.9310000  85.2210000  50.9180000
  39.5460000  84.2490000  51.0500000  40.9740000  85.3440000  51.2390000
  39.8340000  85.5800000  49.4320000  40.4360000  84.8880000  48.8410000
  40.2800000  86.5580000  49.3230000  38.4090000  85.4500000  48.8680000
  37.7290000  86.1460000  49.4130000  38.0890000  84.4230000  49.0000000
  38.2610000  85.7240000  47.3300000  38.5360000  84.8320000  46.8100000
  38.9500000  86.4360000  46.8950000  36.7070000  85.9610000  47.0720000
  36.5330000  87.0170000  47.3360000  36.1610000  85.3810000  47.8390000
  36.2080000  85.5720000  45.7350000  36.4990000  84.5450000  45.6130000
  36.6880000  86.1720000  44.9680000  34.6750000  85.4620000  45.5230000
  34.1900000  86.4430000  45.5690000  34.2960000  84.9040000  46.3730000
  34.3590000  84.6150000  44.2440000  34.7490000  83.5910000  44.2730000
  34.8650000  85.1090000  43.3390000  33.2500000  84.5850000  44.0680000
  72.4540000  33.6200000  34.8390000  73.0590000  33.7750000  33.9390000
  72.5670000  34.4220000  35.5600000  71.4000000  33.8190000  34.6040000
  72.7170000  32.2420000  35.4080000  72.1610000  32.1130000  36.3400000
  72.2880000  31.5460000  34.6840000  74.2080000  31.8310000  35.5650000
  74.3180000  30.7860000  35.8330000  74.6530000  31.9280000  34.5940000
  75.0200000  32.6220000  36.5700000  75.2170000  33.5910000  36.2790000
  74.3690000  32.7290000  37.4760000  76.3190000  31.8320000  36.9810000
  76.0900000  30.8020000  37.3350000  77.1080000  31.7780000  36.2120000
  76.9560000  32.5410000  38.2640000  77.1390000  33.5970000  38.0380000
  76.1270000  32.5240000  39.0200000  78.1820000  31.9870000  38.9700000
  78.9580000  31.8590000  38.2180000  78.5940000  32.7170000  39.6880000
  77.7300000  30.7180000  39.7850000  77.3160000  29.9630000  39.1460000
  78.6890000  30.3350000  40.1990000  76.7330000  30.8200000  40.9720000
  77.0500000  31.6300000  41.6610000  75.8170000  31.1460000  40.5610000
  76.6310000  29.4860000  41.7780000  77.6130000  29.1640000  42.0560000
  76.0900000  29.5710000  42.7010000  75.9220000  28.3960000  41.0570000
  74.9620000  28.8400000  40.9450000  76.3930000  28.2370000  40.1530000
  75.7750000  27.1270000  41.8830000  75.5510000  27.4360000  42.9410000
  75.0440000  26.4080000  41.4820000  77.1650000  26.3620000  41.8680000
  77.3640000  26.1810000  40.7520000  77.9000000  26.9530000  42.3320000
  77.1810000  24.8870000  42.4680000  76.6690000  24.2500000  41.7930000
  78.2020000  24.4850000  42.5820000  76.4320000  24.9410000  43.8500000
  76.4590000  25.9820000  44.1560000  75.4080000  24.5560000  43.8370000
  77.2540000  24.1880000  44.9310000  77.9820000  23.2630000  44.7270000
  77.0480000  24.6850000  46.1650000  77.8770000  24.3580000  47.2720000
  77.2450000  24.7400000  48.0990000  77.9400000  23.2990000  47.3900000
  79.2370000  24.8860000  47.2980000  79.7530000  24.4450000  46.4340000
  80.0450000  24.4910000  48.5510000  80.4760000  23.4910000  48.2270000
  80.9280000  25.1170000  48.7910000  79.1090000  24.4150000  49.6370000
  78.8910000  25.5450000  50.7230000  78.0720000  26.7380000  49.9200000
  76.5780000  26.8080000  50.0660000  76.1770000  25.7890000  50.0020000
  76.2530000  27.2290000  50.9570000  76.1780000  27.6330000  48.8200000
  76.3320000  28.6960000  49.0860000  76.8630000  27.3650000  48.0380000
  74.7440000  27.4170000  48.4760000  74.4370000  28.2870000  47.3350000
  75.1980000  28.1180000  46.5740000  73.3900000  28.2200000  47.0600000
  74.5710000  29.2420000  47.7990000  74.4180000  26.0660000  47.9830000
  73.3150000  26.1600000  47.8110000  74.9220000  25.8460000  47.0430000
  74.6200000  25.2810000  48.6770000  73.7930000  27.7420000  49.5430000
  73.9920000  28.8350000  49.5620000  74.0920000  27.1810000  50.4250000
  72.7180000  27.5880000  49.2180000  78.0070000  24.8560000  51.6960000
  80.3180000  25.8580000  51.0930000  79.2440000  26.3180000  47.1830000
  79.0880000  26.8820000  45.9990000  79.1280000  26.2960000  44.9340000
  78.9340000  28.3650000  46.0800000  79.8910000  28.8780000  46.2690000
  78.4510000  28.5460000  47.0110000  78.1070000  28.9560000  44.9030000
  77.3020000  28.3220000  44.6290000  78.8250000  29.0440000  44.0260000
  77.6140000  30.3990000  45.2420000  77.0310000  30.1920000  46.1470000
  76.8580000  30.7350000  44.5350000  78.7130000  31.3940000  45.4820000
  79.5530000  30.9910000  46.0880000  78.3220000  32.2250000  46.0520000
  79.3650000  31.8840000  44.1370000  78.6470000  32.4110000  43.5120000
  79.6040000  30.9890000  43.5480000  80.6140000  32.6700000  44.3180000
  81.0430000  32.8050000  43.2890000  81.3450000  31.9670000  44.8710000
  80.6010000  34.0080000  45.0220000  81.6050000  34.3820000  44.9720000
  80.2760000  33.8780000  46.0730000  79.6360000  34.9450000  44.4470000
  78.6720000  34.8050000  44.9800000  79.9080000  35.9510000  43.6340000
  79.1670000  36.6420000  43.2650000  81.2030000  36.0340000  42.8770000
  81.6590000  35.0650000  42.7270000  81.8560000  36.6170000  43.4830000
  81.1470000  36.7090000  41.4420000  82.1780000  37.0070000  41.1110000
  80.5870000  37.6340000  41.6460000  80.3920000  35.8320000  40.4810000
  79.3520000  35.5330000  40.8550000  80.8570000  34.8950000  40.4130000
  80.2760000  36.3050000  39.0150000  81.0790000  36.9890000  38.6580000
  79.3700000  36.9190000  38.9390000  80.1020000  35.0560000  38.1470000
  79.0920000  34.7210000  38.2800000  80.6680000  34.1740000  38.4930000
  80.2390000  35.3310000  36.6340000  81.2620000  35.6610000  36.4080000
  79.5570000  36.1270000  36.2720000  80.0290000  34.1620000  35.7130000
  79.1150000  33.6450000  35.8420000  80.8690000  33.5080000  35.8550000
  80.1630000  34.5930000  34.2210000  80.1390000  33.7870000  33.5680000
  81.1800000  34.9780000  34.1020000  79.4100000  35.3310000  33.8600000
 129.2550000  68.4030000  37.2890000 129.4850000  69.4670000  36.9560000
 128.5420000  68.5910000  38.1220000 128.8480000  67.8420000  36.4710000
 130.5290000  67.6870000  37.6310000 130.3240000  66.6160000  37.9360000
 131.1920000  67.6170000  36.7940000 131.2810000  68.3140000  38.8690000
 132.3430000  67.9510000  38.8230000 131.3140000  69.3650000  38.7750000
 130.7360000  68.0000000  40.2640000 130.4370000  68.9210000  40.7530000
 129.9130000  67.2550000  40.2700000 131.7530000  67.7000000  41.3220000
 132.3400000  66.8000000  41.1240000 132.4990000  68.4710000  41.5000000
 131.0980000  67.4550000  42.7060000 130.6260000  68.3050000  43.1820000
 130.3340000  66.6140000  42.6520000 132.2120000  67.0060000  43.7040000
 132.2480000  65.9250000  43.6640000 133.1920000  67.3560000  43.4560000
 131.8920000  67.2860000  45.1610000 131.5690000  68.4150000  45.2880000
 131.0570000  66.6850000  45.5160000 133.0790000  67.1370000  46.1290000
 133.9380000  67.5440000  45.5890000 132.9410000  67.7360000  47.0230000
 133.3650000  65.6750000  46.5260000 133.0830000  65.0400000  45.6410000
 134.4100000  65.6470000  46.6770000 132.4880000  65.2270000  47.7930000
 131.4220000  65.2740000  47.4450000 132.6840000  64.1600000  48.0400000
 132.5830000  66.0320000  49.1180000 133.6680000  65.9980000  49.4270000
 132.3080000  67.0970000  48.9220000 131.6360000  65.4850000  50.2100000
 130.7000000  65.3510000  49.6930000 131.9330000  64.4690000  50.4490000
 131.2210000  66.3440000  51.4830000 130.9370000  67.2700000  50.9780000
 130.3530000  65.9940000  52.0260000 132.5040000  66.7010000  52.3500000
 133.2380000  67.1480000  51.7270000 132.1760000  67.4330000  53.1860000
 133.0700000  65.4130000  52.9890000 132.5600000  64.8740000  53.9990000
 134.0860000  64.8720000  52.2950000 134.4700000  63.4790000  52.5370000
 134.7810000  63.2710000  53.5500000 133.6570000  62.8170000  52.3720000
 135.6370000  63.1240000  51.5730000 135.7610000  62.0820000  51.8600000
 137.0040000  63.8450000  51.8620000 137.8110000  63.4940000  51.1750000
 136.9580000  64.9280000  51.6920000 137.4400000  63.6110000  53.2660000
 138.1800000  64.7750000  54.1040000 139.1070000  65.4690000  53.0460000
 140.1610000  64.6960000  52.3140000 140.2700000  63.6570000  52.5940000
 139.8780000  64.7250000  51.2340000 141.5600000  65.4210000  52.4000000
 142.1630000  65.1220000  51.6160000 141.4160000  66.5040000  52.1590000
 142.2990000  65.4550000  53.7300000 143.6880000  65.9010000  53.4310000
 143.5240000  66.8860000  53.0200000 144.1970000  65.7780000  54.4590000
 144.0790000  65.1550000  52.7100000 141.6450000  66.3710000  54.7530000
 141.6430000  67.3570000  54.3650000 140.6430000  66.1140000  54.9660000
 142.2000000  66.2330000  55.6570000 142.3970000  64.1860000  54.2830000
 142.7820000  63.3910000  53.6280000 141.4180000  63.8750000  54.6740000
 143.0510000  64.3030000  55.1480000 137.0670000  65.7580000  54.4070000
 138.9210000  64.1410000  55.2240000 135.2130000  63.3220000  50.2480000
 135.7880000  62.5250000  49.3260000 136.7340000  61.7510000  49.5870000
 135.2330000  62.7130000  47.8740000 135.0810000  63.7190000  47.7170000
 134.2850000  62.2120000  47.7250000 136.1550000  62.1870000  46.7610000
 136.0600000  61.1330000  46.9500000 137.1080000  62.6360000  46.9740000
 135.7210000  62.5350000  45.3180000 136.4890000  62.3050000  44.6590000
 135.5560000  63.6430000  45.1500000 134.4160000  61.8280000  44.9320000
 133.6300000  62.1550000  45.5930000 134.5040000  60.7370000  45.0720000
 134.0350000  62.1070000  43.4660000 134.8430000  61.9200000  42.7920000
 133.8120000  63.1800000  43.3140000 132.7860000  61.2230000  43.0310000
 132.9940000  60.1820000  43.1480000 132.6840000  61.4410000  41.9680000
 131.5190000  61.7570000  43.6840000 131.6390000  62.8550000  43.7560000
 131.3390000  61.3550000  44.5890000 130.3640000  61.3070000  42.7990000
 130.2840000  60.2740000  42.6770000 129.4310000  62.1440000  42.2350000
 128.6970000  61.5630000  41.6770000 129.3920000  63.6200000  42.1960000
 129.9450000  64.0830000  43.0460000 128.3180000  63.9200000  42.3370000
 129.9020000  64.0840000  40.8250000 129.8380000  65.2060000  40.8110000
 129.1450000  63.6690000  40.1060000 131.3350000  63.7400000  40.4430000
 131.4580000  62.6780000  40.3340000 131.9910000  64.0470000  41.2310000
 131.8240000  64.4450000  39.1750000 131.8160000  65.5780000  39.2940000
 131.1260000  64.1940000  38.3300000 133.3200000  64.1430000  38.7810000
 134.0000000  64.3980000  39.5800000 133.5310000  64.8630000  37.9850000
 133.4570000  62.6480000  38.2570000 133.3610000  61.9890000  39.1100000
 134.4720000  62.4720000  37.9840000 132.4730000  62.1890000  37.0590000
 131.4620000  62.2900000  37.3000000 132.7630000  61.1610000  36.7030000
 132.7410000  63.0850000  35.8130000 132.1540000  62.9630000  34.9150000
 133.7490000  62.9320000  35.5120000 132.6860000  64.1350000  36.1410000
  70.4180000   4.9850000  43.6380000  69.9910000   5.8780000  43.2740000
  70.1700000   4.2230000  42.9380000  71.5090000   5.1180000  43.6350000
  70.1100000   4.7710000  45.1490000  70.5090000   3.7990000  45.3350000
  70.6120000   5.5210000  45.7800000  68.5870000   4.7270000  45.3560000
  68.1710000   3.9260000  44.7470000  68.4820000   4.2750000  46.3900000
  67.8430000   6.0930000  45.3560000  67.9880000   6.6380000  44.3220000
  66.7890000   5.8150000  45.4590000  68.2070000   7.1110000  46.4430000
  68.6950000   6.5910000  47.2820000  68.7770000   7.9320000  45.9290000
  66.9320000   7.7760000  47.0070000  66.2950000   8.1850000  46.2610000
  66.3600000   7.0690000  47.6870000  67.2280000   9.0040000  47.9490000
  67.4540000   9.8380000  47.3160000  66.4320000   9.3350000  48.5220000
  68.3040000   8.9540000  49.0130000  69.2480000   8.7410000  48.4610000
  68.4960000   9.9180000  49.4930000  68.0260000   7.9120000  50.0880000
  67.0800000   8.2040000  50.5690000  67.7550000   6.9970000  49.5680000
  69.1280000   7.6250000  51.1780000  69.6560000   8.5860000  51.4550000
  68.7080000   7.2320000  52.0520000  70.4180000   6.7670000  50.7070000
  70.9850000   7.3070000  49.9460000  71.0220000   6.6390000  51.6200000
  70.0180000   5.4010000  50.2060000  69.3570000   5.5080000  49.3000000
  70.8920000   4.9900000  49.6950000  69.4170000   4.4320000  51.3300000
  70.2370000   4.3400000  52.0830000  68.5340000   4.9500000  51.7840000
  68.8940000   3.0460000  50.7550000  69.8310000   2.5590000  50.4050000
  68.4410000   2.5050000  51.6420000  67.8490000   3.1360000  49.6300000
  67.2990000   4.1000000  49.8620000  68.2860000   3.2000000  48.6270000
  66.8320000   2.0790000  49.7500000  66.9840000   1.0160000  49.2670000
  65.7510000   2.4320000  50.4710000  64.7900000   1.3790000  50.7850000
  63.8740000   1.7990000  51.2210000  64.5050000   0.9270000  49.8760000
  65.3050000   0.2600000  51.7530000  65.9770000  -0.3980000  51.2200000
  64.1460000  -0.6230000  52.4200000  63.6390000  -1.1540000  51.6070000
  64.6400000  -1.3840000  53.0280000  63.1800000   0.2970000  53.0300000
  62.9450000   0.3090000  54.6230000  62.7720000   1.8410000  55.0600000
  63.8750000   2.7620000  55.1620000  63.6200000   3.4550000  55.9860000
  64.7800000   2.1190000  55.4040000  64.0830000   3.5080000  53.8800000
  65.0630000   4.0040000  53.9400000  64.1690000   2.7240000  53.1380000
  62.9960000   4.3750000  53.3400000  63.5050000   4.9310000  52.0540000
  64.3720000   5.4940000  52.3450000  63.9170000   4.1200000  51.3960000
  62.6980000   5.4580000  51.5050000  61.7090000   3.5830000  53.0010000
  60.9240000   4.1810000  52.6010000  61.9980000   2.9000000  52.1840000
  61.4000000   3.0140000  53.8590000  62.5880000   5.5800000  54.2450000
  63.2510000   6.4290000  54.1120000  62.5930000   5.3540000  55.3150000
  61.6000000   5.9010000  53.9770000  61.6750000  -0.3500000  54.8730000
  64.1670000  -0.2600000  55.2620000  66.0630000   0.9930000  52.7960000
  67.0280000   0.3520000  53.4360000  67.1340000  -0.8280000  53.3260000
  67.8500000   1.3110000  54.2820000  67.2480000   1.5980000  55.1640000
  67.8500000   2.2920000  53.7530000  69.2530000   0.7420000  54.6770000
  69.0950000  -0.0960000  55.2640000  69.6280000   1.4740000  55.3530000
  70.2130000   0.4170000  53.5250000  70.3060000   1.2830000  52.8120000
  69.9080000  -0.4670000  52.9690000  71.5270000   0.1310000  54.2780000
  71.4920000  -0.8650000  54.7890000  71.6820000   0.8320000  55.0930000
  72.8630000   0.1320000  53.5050000  73.5610000  -0.1250000  54.3300000
  73.0670000   1.1300000  53.1250000  73.0200000  -0.9260000  52.4030000
  72.1400000  -0.9640000  51.8910000  72.9530000  -1.9150000  52.8440000
  74.1740000  -0.7920000  51.3370000  73.8800000  -1.5640000  50.5850000
  75.1750000  -0.9810000  51.7760000  74.3370000   0.6410000  50.8300000
  74.9890000   1.3100000  51.4750000  73.8240000   1.1490000  49.7310000
  74.1240000   2.2100000  49.5490000  73.1030000   0.4010000  48.6450000
  73.5160000  -0.5810000  48.5400000  73.1850000   0.9200000  47.6480000
  71.6090000   0.2130000  48.8460000  71.2530000   1.2420000  48.7540000
  71.3210000  -0.0700000  49.8780000  70.9210000  -0.6910000  47.8130000
  70.7180000  -0.1840000  46.8860000  69.8980000  -1.0570000  48.2470000
  71.7540000  -2.0070000  47.4670000  72.0310000  -2.5960000  48.3630000
  72.7020000  -1.8340000  46.8920000  70.9710000  -3.0030000  46.6600000
  70.1580000  -3.3640000  47.2760000  71.5680000  -3.9080000  46.4250000
  70.3500000  -2.5030000  45.3730000  69.5550000  -1.7680000  45.5170000
  69.9080000  -3.3750000  44.8190000  71.3390000  -1.8600000  44.3320000
  72.2680000  -2.5400000  44.2840000  71.5700000  -0.8850000  44.6980000
  70.6430000  -1.7110000  42.9620000  71.2620000  -1.2900000  42.1300000
  69.8490000  -1.0300000  43.1580000  70.0890000  -2.5830000  42.6140000
 156.1440000  61.3720000  37.9650000 155.8290000  62.1500000  37.2460000
 155.8110000  60.4030000  37.7370000 157.2090000  61.4270000  37.9280000
 155.9190000  61.9270000  39.4000000 156.4570000  62.8850000  39.4970000
 154.8740000  62.1340000  39.6250000 156.5460000  60.9920000  40.5270000
 157.2900000  60.2600000  40.1320000 157.0370000  61.6840000  41.2060000
 155.5030000  60.3470000  41.4070000 155.9450000  60.0540000  42.3980000
 154.8730000  61.2150000  41.5120000 154.6330000  59.2650000  40.8320000
 154.1700000  58.6560000  41.6330000 153.7640000  59.8270000  40.3750000
 155.3660000  58.3240000  39.8880000 156.0690000  58.9190000  39.2080000
 155.9390000  57.6760000  40.5460000 154.5080000  57.4300000  38.9440000
 153.9180000  58.1230000  38.4160000 155.2760000  57.0400000  38.2370000
 153.7460000  56.2430000  39.6750000 152.9650000  56.6520000  40.3110000
 153.2370000  55.6600000  38.9130000 154.5570000  55.2900000  40.5140000
 155.4440000  55.1790000  39.9330000 154.9760000  55.8890000  41.3190000
 153.9020000  53.9260000  40.8630000 153.3690000  53.5810000  39.9940000
 154.6650000  53.2200000  40.9670000 152.9010000  53.8040000  42.0350000
 152.0310000  54.3480000  41.7990000 152.5880000  52.7610000  42.0190000
 153.3570000  54.1650000  43.4550000 154.2880000  53.7800000  43.6210000
 153.5640000  55.2690000  43.5190000 152.2180000  53.8040000  44.4810000
 151.2960000  53.9920000  43.9950000 152.2570000  52.7230000  44.7100000
 152.1710000  54.5960000  45.8180000 152.2050000  55.5970000  45.6400000
 151.1940000  54.4270000  46.3340000 153.3160000  54.2990000  46.8740000
 153.2760000  53.1980000  47.0510000 154.3230000  54.6160000  46.5080000
 153.0400000  55.0430000  48.2150000 153.3210000  56.2270000  48.3670000
 152.2820000  54.2280000  49.0350000 151.9460000  54.6810000  50.3890000
 151.6730000  53.8150000  51.0620000 152.7950000  55.0470000  50.9470000
 150.8760000  55.7970000  50.4750000 151.3160000  56.7630000  50.1860000
 150.3810000  55.8380000  51.9090000 151.2360000  55.9560000  52.6770000
 149.6490000  56.6510000  52.0770000 149.7670000  54.6070000  52.2870000
 149.5480000  54.3370000  53.8460000 149.0390000  52.7960000  53.8390000
 147.6600000  52.4340000  53.9560000 147.5650000  51.3420000  54.3850000
 147.0280000  53.0330000  54.6250000 146.9490000  52.3080000  52.6460000
 146.0400000  51.7910000  52.9670000 146.7330000  53.3560000  52.3190000
 147.5570000  51.5790000  51.4800000 146.4450000  51.0760000  50.5960000
 145.9490000  50.2100000  50.9150000 145.7910000  51.9640000  50.3980000
 146.8590000  50.7340000  49.6440000 148.4660000  52.3570000  50.6360000
 147.9200000  53.2070000  50.2080000 149.2570000  52.6700000  51.2660000
 148.9410000  51.6750000  49.8520000 148.3070000  50.3870000  51.8470000
 149.2010000  50.7390000  52.2620000 148.5580000  49.9140000  50.8670000
 147.7110000  49.8240000  52.4360000 150.8900000  54.3810000  54.4440000
 148.5280000  55.1860000  54.3350000 149.7840000  55.4480000  49.5750000
 149.0630000  56.4580000  49.0370000 148.8420000  57.5260000  49.6470000
 148.4260000  56.0540000  47.7520000 147.4350000  56.3540000  47.5950000
 148.5700000  54.9500000  47.5760000 149.2680000  56.8180000  46.7110000
 150.2790000  56.7390000  47.0880000 148.8960000  57.7890000  46.8080000
 149.0710000  56.1240000  45.3650000 147.9980000  56.2970000  45.1360000
 149.1360000  55.0080000  45.4030000 149.8830000  56.7320000  44.2190000
 150.9510000  56.6630000  44.3550000 149.6130000  57.7900000  44.1670000
 149.5470000  56.2010000  42.7960000 148.4640000  56.3040000  42.6060000
 149.8340000  55.1220000  42.6890000 150.2530000  57.0010000  41.6810000
 151.2890000  56.6140000  41.7190000 150.1560000  58.1090000  41.8980000
 149.7220000  56.7860000  40.2600000 150.1810000  57.6550000  39.7640000
 148.6440000  56.9410000  40.5190000 150.1610000  55.4840000  39.6480000
 150.1670000  54.5610000  40.2410000 150.4230000  55.2520000  38.3600000
 150.7900000  54.2960000  37.9920000 150.5080000  56.2720000  37.2540000
 151.5180000  56.6790000  37.2330000 149.7800000  57.0600000  37.5180000
 150.1670000  55.6270000  35.9180000 149.0790000  55.2890000  36.0690000
 150.7480000  54.6760000  35.8950000 150.5120000  56.4840000  34.6450000
 151.5820000  56.7220000  34.6280000 150.0270000  57.4510000  34.6780000
 150.1420000  55.7790000  33.3680000 149.0700000  55.6050000  33.3580000
 150.6840000  54.8410000  33.5010000 150.5570000  56.3440000  32.0320000
 150.1990000  55.7270000  31.1850000 151.6540000  56.3220000  32.0510000
 150.1530000  57.7420000  31.8720000 150.6060000  58.4160000  32.5740000
 149.0850000  57.6730000  31.9800000 150.5910000  58.1590000  30.3990000
 151.6670000  57.9130000  30.2340000 150.5350000  59.2700000  30.2950000
 149.7790000  57.4000000  29.2480000 148.6810000  57.5220000  29.3010000
 149.9730000  56.3240000  29.1440000 150.0680000  57.8040000  28.2850000
   5.7480000  60.8890000  34.0570000   5.4330000  60.2370000  34.8630000
   6.3850000  60.3690000  33.3380000   4.8200000  61.2320000  33.5110000
   6.5560000  62.0340000  34.5700000   6.7450000  62.7210000  33.6890000
   5.9770000  62.6310000  35.2920000   7.8260000  61.4360000  35.2340000
   8.2830000  60.6170000  34.6740000   8.6630000  62.1460000  35.0810000
   7.5940000  61.1460000  36.7370000   7.1380000  62.0350000  37.1870000
   6.8660000  60.4040000  36.8500000   8.8310000  60.7590000  37.4360000
   9.2170000  59.8310000  37.0060000   9.5720000  61.5590000  37.3340000
   8.5750000  60.6830000  38.9160000   8.4880000  61.7040000  39.3680000
   7.6860000  60.1140000  39.1200000   9.8000000  60.0160000  39.6280000
  10.0060000  59.1180000  39.0960000  10.6880000  60.5940000  39.6890000
   9.4600000  59.6130000  41.0780000   8.7140000  58.9000000  40.9840000
  10.3230000  59.0970000  41.5830000   9.0570000  60.7460000  41.9680000
   9.7700000  61.5830000  41.9590000   8.0790000  61.1470000  41.6290000
   8.8700000  60.2210000  43.3640000   9.8640000  59.9510000  43.8500000
   8.4810000  61.0600000  43.9420000   8.0080000  58.9680000  43.6670000
   8.7030000  58.1260000  43.3980000   7.9680000  58.9240000  44.7380000
   6.6650000  58.8370000  42.9800000   6.2140000  59.8140000  42.9440000
   6.8860000  58.6540000  41.9840000   5.6040000  57.7870000  43.4740000
   5.3020000  58.1790000  44.3950000   4.7920000  57.7010000  42.7270000
   6.1640000  56.3790000  43.7200000   6.6830000  56.0310000  42.7980000
   6.9170000  56.4790000  44.5870000   4.9880000  55.4130000  44.1430000
   4.3080000  55.9670000  44.9050000   4.3910000  55.1950000  43.2150000
   5.4800000  54.0880000  44.6880000   6.3850000  53.4390000  44.2020000
   4.7250000  53.8210000  45.7460000   5.3360000  52.8380000  46.6840000
   4.5390000  52.1940000  47.0830000   6.1920000  52.3050000  46.2650000
   5.8880000  53.6500000  47.8810000   6.2550000  52.9270000  48.6620000
   4.8610000  54.6780000  48.4780000   5.3260000  55.2010000  49.2830000
   4.6040000  55.3670000  47.7200000   3.7220000  53.8270000  48.8930000
   3.6770000  53.2730000  50.4590000   4.6970000  52.0710000  50.2940000
   5.9070000  52.0070000  51.0360000   6.4790000  52.9630000  50.9220000
   5.7030000  51.7360000  52.0760000   6.7630000  50.9010000  50.4110000
   6.1560000  49.9500000  50.4380000   7.2030000  50.9720000  49.4430000
   8.0980000  50.7460000  51.2300000   8.7860000  49.4550000  50.7460000
   8.9310000  49.4660000  49.6890000   9.7900000  49.3790000  51.2840000
   8.2330000  48.5530000  50.9930000   9.0250000  51.8930000  50.9680000
  10.0620000  51.5700000  51.4060000   9.2160000  52.0300000  49.8890000
   8.7530000  52.7930000  51.5520000   8.0430000  50.6880000  52.6940000
   7.4380000  51.4820000  53.2020000   9.0890000  50.6030000  52.9410000
   7.6300000  49.7180000  52.9380000   4.2640000  54.2990000  51.3240000
   2.3140000  52.7920000  50.7530000   6.9870000  54.5230000  47.3630000
   8.2150000  54.0440000  47.4410000   8.4460000  52.9340000  47.9280000
   9.1620000  54.9780000  46.8100000  10.0110000  55.1400000  47.5270000
   8.6740000  55.9050000  46.7760000   9.6500000  54.5560000  45.4590000
   8.8430000  54.6510000  44.6850000   9.9020000  53.4620000  45.4760000
  10.9610000  55.2870000  44.9790000  11.8170000  55.0270000  45.6550000
  10.9040000  56.3620000  45.0380000  11.3470000  54.8690000  43.5440000
  11.0800000  53.8550000  43.4480000  12.4650000  54.7760000  43.3600000
  10.6740000  55.6920000  42.4500000  11.1600000  56.6970000  42.5160000
   9.6240000  55.6920000  42.7510000  10.9420000  55.0930000  41.0620000
  10.5010000  54.0720000  41.0660000  11.9950000  55.0110000  40.7950000
  10.2130000  55.9310000  39.8790000  10.5590000  55.7840000  38.8720000
  10.5060000  56.9370000  39.9540000   8.7440000  55.8020000  40.0150000
   8.2150000  56.6940000  40.3620000   8.0340000  54.7200000  39.6870000
   7.0100000  54.6870000  39.7540000   8.6310000  53.4550000  39.1110000
   8.6080000  52.6810000  39.8900000   9.6950000  53.5300000  38.8220000
   7.7350000  53.1380000  37.8820000   7.6970000  54.0010000  37.2250000
   6.7200000  52.8580000  38.2850000   8.2930000  51.9610000  37.0860000
   8.5830000  51.2470000  37.8850000   9.2280000  52.3100000  36.6410000
   7.3430000  51.5600000  35.9540000   6.9550000  52.4850000  35.6280000
   6.4810000  50.9450000  36.3050000   7.9150000  50.8940000  34.7090000
   8.5190000  51.6530000  34.1240000   7.0610000  50.4860000  34.0980000
   8.7310000  49.6320000  34.9990000   8.0970000  49.0460000  35.5870000
   9.6400000  49.9160000  35.5590000   9.1200000  48.8090000  33.7390000
   9.5960000  49.4370000  33.0040000   8.2070000  48.4040000  33.2780000
  10.0040000  47.6370000  33.9920000  10.0450000  47.0010000  33.0770000
   9.7190000  47.0080000  34.8330000  11.0450000  48.0190000  34.1330000
 112.1550000  42.5050000  43.8080000 111.9040000  41.4590000  43.9860000
 111.6480000  43.1350000  44.5590000 113.2310000  42.6060000  43.9410000
 111.8130000  42.9500000  42.4500000 112.1970000  43.9760000  42.2560000
 112.1180000  42.1880000  41.7860000 110.2550000  43.1350000  42.2940000
 109.8320000  42.1790000  41.9780000 109.8700000  43.1770000  43.2910000
 109.7590000  44.3210000  41.4440000 109.9740000  45.1700000  42.1060000
 110.3760000  44.4390000  40.5510000 108.2410000  44.3110000  41.2300000
 107.7840000  44.4050000  42.2380000 108.0580000  45.0930000  40.5200000
 107.7030000  42.9800000  40.5790000 108.1230000  42.9350000  39.6610000
 107.9900000  42.1380000  41.1890000 106.2570000  42.8620000  40.2700000
 106.0020000  43.5090000  39.4650000 106.0490000  41.8820000  39.7820000
 105.4210000  43.1780000  41.5160000 105.7730000  44.1970000  41.8820000
 104.3830000  43.3130000  41.2660000 105.5420000  42.1120000  42.6250000
 104.9300000  41.2090000  42.4680000 106.5540000  41.7330000  42.7630000
 104.9700000  42.6000000  44.0120000 104.1540000  43.3300000  43.7910000
 104.6350000  41.8220000  44.6620000 106.0140000  43.3970000  44.7840000
 106.2790000  44.2920000  44.2080000 105.4660000  43.6470000  45.7170000
 107.3090000  42.7110000  45.1180000 107.0810000  41.6940000  45.5500000
 107.8210000  42.5710000  44.1120000 108.1280000  43.5180000  46.1050000
 108.5300000  44.4230000  45.6720000 107.4470000  43.7920000  46.8710000
 109.3060000  42.6820000  46.6490000 108.9990000  42.0800000  47.4640000
 109.8130000  42.1630000  45.8310000 110.3230000  43.6100000  47.3320000
 110.6290000  44.2320000  46.4830000 109.7840000  44.1360000  48.1570000
 111.5260000  42.7870000  47.7860000 112.3470000  42.3280000  47.0250000
 111.6730000  42.8750000  49.1360000 112.6950000  42.1340000  49.7260000
 112.3850000  41.9470000  50.8120000 112.8580000  41.2100000  49.1440000
 114.0850000  42.8000000  49.7810000 114.5570000  42.8510000  48.8190000
 115.0050000  42.2470000  50.8330000 115.2810000  41.2850000  50.4350000
 115.8630000  42.9290000  50.8340000 114.4580000  42.0240000  52.1460000
 114.9460000  40.8380000  53.0690000 114.2670000  39.5200000  52.4340000
 112.8460000  39.3030000  52.5360000 112.4320000  40.0920000  53.1040000
 112.4720000  39.4200000  51.5430000 112.4880000  37.9420000  53.0700000
 111.4530000  38.0180000  53.1820000 112.8390000  37.2540000  52.3210000
 113.0110000  37.4940000  54.4000000 112.7270000  38.4220000  55.5770000
 113.1220000  37.8540000  56.4530000 113.3150000  39.3450000  55.4350000
 111.6860000  38.7540000  55.6450000 112.4330000  36.1040000  54.7620000
 111.3860000  36.2470000  54.6640000 112.7180000  35.3790000  53.9940000
 112.8400000  35.8190000  55.7780000 114.5670000  37.3180000  54.2720000
 114.9840000  38.2950000  54.1510000 114.7410000  36.5980000  53.4520000
 114.9540000  36.8210000  55.2860000 116.3890000  40.6690000  52.9080000
 114.3990000  41.0610000  54.3930000 113.7410000  44.2000000  50.1760000
 114.5590000  45.2040000  49.8130000 115.6780000  45.0420000  49.4200000
 113.9560000  46.5790000  50.1120000 114.5760000  47.0410000  50.8960000
 112.9470000  46.3530000  50.4850000 114.0470000  47.4720000  48.8020000
 115.0290000  47.9950000  48.7990000 113.3050000  48.3330000  48.9420000
 113.6720000  46.7220000  47.5190000 112.6080000  46.3910000  47.6310000
 114.3610000  45.9720000  47.3210000 113.7130000  47.5610000  46.2670000
 114.7830000  47.8780000  46.1720000 113.1260000  48.4320000  46.2700000
 113.2120000  46.7030000  45.0500000 112.2450000  46.1650000  45.2520000
 113.9770000  45.9800000  44.7880000 112.9450000  47.5410000  43.7770000
 113.8940000  48.2240000  43.6740000 112.1300000  48.1860000  43.9200000
 112.9190000  46.8510000  42.4390000 112.5490000  47.5710000  41.7660000
 112.1720000  46.1020000  42.4800000 114.2870000  46.1950000  42.0730000
 114.6640000  45.3340000  42.7220000 115.0130000  46.5780000  40.9880000
 115.9460000  45.9940000  40.7840000 114.7270000  47.6130000  39.9040000
 115.5550000  48.0060000  39.3770000 114.2700000  48.3860000  40.4460000
 113.7950000  47.0790000  38.8140000 113.0230000  46.5720000  39.3110000
 114.2640000  46.3600000  38.1860000 113.1990000  48.1910000  38.0020000
 113.9870000  48.9190000  37.7570000 112.4850000  48.7690000  38.7390000
 112.5290000  47.5290000  36.7920000 112.0110000  46.6490000  37.1120000
 113.2980000  47.3010000  36.0910000 111.4570000  48.4550000  36.1690000
 111.8430000  49.4940000  35.9980000 110.6330000  48.5020000  36.8830000
 111.0690000  48.0160000  34.7800000 110.7120000  46.9800000  34.8390000
 111.8840000  48.1250000  34.1320000 109.8410000  48.8980000  34.2640000
 109.9430000  48.9380000  33.2060000 109.9700000  49.9250000  34.4980000
 108.4580000  48.3620000  34.7040000 107.7420000  49.1830000  34.5870000
 108.5120000  48.0770000  35.7610000 108.1690000  47.4590000  34.1700000
 102.4900000   6.2020000  31.5830000 101.7860000   6.7140000  30.8260000
 102.3800000   5.1060000  31.4220000 103.5040000   6.5740000  31.4290000
 102.1220000   6.4640000  33.0360000 102.9090000   6.0780000  33.7040000
 102.0700000   7.5430000  33.0880000 100.7830000   6.0540000  33.5120000
 100.0900000   6.5150000  32.8730000 100.6060000   5.0560000  33.3690000
 100.5270000   6.4860000  34.9700000 100.4920000   7.5710000  35.0960000
  99.4770000   6.1780000  35.0340000 101.4620000   5.9640000  36.0820000
 101.7530000   4.8800000  35.8600000 102.3860000   6.5440000  35.9620000
 101.0090000   6.0410000  37.5420000 100.6600000   7.0640000  37.7300000
 100.1630000   5.3530000  37.6790000 102.1330000   5.5550000  38.5660000
 102.3710000   4.5020000  38.5170000 103.1260000   6.0330000  38.4160000
 101.7390000   5.8390000  40.0010000 100.8990000   5.1490000  40.3140000
 102.6430000   5.5480000  40.5880000 101.3080000   7.2560000  40.3390000
 102.0660000   7.9470000  39.9340000 100.3110000   7.4660000  40.0210000
 101.4440000   7.5960000  41.8310000 102.4760000   7.4010000  42.1550000
 101.2310000   8.6110000  42.0000000 100.4980000   6.7260000  42.6600000
  99.4460000   6.7930000  42.3570000 100.7790000   5.6750000  42.5330000
 100.6650000   6.9760000  44.1690000 100.2510000   6.0290000  44.5990000
 101.7650000   7.1800000  44.4490000  99.6480000   8.0960000  44.7500000
  99.7750000   8.9940000  44.1410000  98.6140000   7.7230000  44.7680000
 100.0000000   8.3510000  46.2370000 100.7960000   9.0090000  46.1710000
  99.2150000   8.9870000  46.7030000 100.2600000   7.2980000  47.3160000
 100.7950000   6.4830000  46.9820000 100.6950000   7.7190000  48.2550000
  98.9950000   6.5870000  47.7190000  97.8700000   6.9270000  47.3340000
  99.2170000   5.5050000  48.5300000  98.1710000   4.9530000  49.3640000
  98.5530000   4.3650000  50.2430000  97.6340000   5.8660000  49.7430000
  97.1820000   3.9540000  48.6720000  96.5060000   4.5720000  48.0530000
  96.3000000   3.2210000  49.6040000  95.8850000   2.4050000  49.0030000
  96.7920000   2.7190000  50.5050000  95.2230000   4.0170000  50.1090000
  95.2640000   4.4580000  51.6970000  95.0100000   3.0790000  52.5570000
  94.0810000   3.0130000  53.5920000  94.2020000   2.0690000  54.1460000
  94.2800000   3.8620000  54.2690000  92.6180000   3.0070000  53.1750000
  92.0510000   3.2840000  54.0380000  92.5480000   3.7530000  52.3550000
  92.1320000   1.7760000  52.5820000  90.7560000   2.0250000  52.1540000
  90.0900000   2.2070000  53.0170000  90.6250000   2.8470000  51.4370000
  90.4500000   1.1170000  51.7900000  92.8660000   1.3150000  51.3790000
  92.8780000   2.0810000  50.5180000  93.9020000   1.1240000  51.5370000
  92.2810000   0.4870000  50.9850000  92.1350000   0.6390000  53.6070000
  93.1440000   0.2280000  53.7620000  91.4160000  -0.1200000  53.2040000
  91.7590000   0.9580000  54.5960000  96.6560000   4.8020000  51.9120000
  94.2610000   5.4930000  51.9310000  97.9030000   3.0120000  47.8860000
  97.6620000   2.8260000  46.5620000  96.6270000   3.0900000  46.0260000
  98.8660000   2.3200000  45.9710000  99.2760000   1.5470000  46.5800000
  99.5790000   3.1590000  46.0280000  98.6720000   1.7530000  44.5290000
  98.0120000   0.9000000  44.4290000  99.6120000   1.3580000  44.2840000
  98.1790000   2.7630000  43.4720000  98.7770000   3.6990000  43.5130000
  97.1050000   2.8950000  43.6100000  98.2920000   2.0020000  42.0740000
  97.5630000   1.1550000  42.0350000  99.2960000   1.6140000  41.8930000
  97.9870000   2.9920000  40.8940000  98.7900000   3.7080000  40.6620000
  97.1500000   3.6050000  41.2560000  97.4810000   2.3130000  39.5970000
  96.5670000   1.7820000  39.9140000  98.2850000   1.7540000  39.1200000
  97.0300000   3.3780000  38.6190000  97.8040000   4.0620000  38.3290000
  96.1740000   3.9920000  39.0650000  96.2030000   2.7980000  37.5330000
  95.2060000   2.4840000  37.7530000  96.6500000   2.6820000  36.3130000
  95.9670000   2.2350000  35.6190000  98.0510000   2.8550000  35.7730000
  98.7740000   3.2470000  36.4960000  98.0700000   3.5210000  34.9230000
  98.6510000   1.5720000  35.2630000  98.0010000   1.2340000  34.4220000
  98.4690000   0.8920000  36.1010000 100.0990000   1.6850000  34.7910000
 100.2010000   2.4480000  34.0180000 100.3450000   0.6860000  34.4550000
 101.2060000   1.8870000  35.9290000 101.0740000   1.2600000  36.7970000
 101.1650000   2.9490000  36.2670000 102.6770000   1.5970000  35.4380000
 102.8240000   0.5800000  35.0530000 103.3430000   1.6560000  36.2480000
 103.1920000   2.4820000  34.2870000 103.1360000   3.6010000  34.5530000
 102.4210000   2.3200000  33.4810000 104.6290000   2.2680000  33.7620000
 104.7060000   1.2350000  33.4450000 105.2360000   2.4720000  34.6460000
 105.0350000   3.1230000  32.5530000 106.1400000   3.1120000  32.5420000
 104.7840000   4.1660000  32.6560000 104.6110000   2.9030000  31.5350000
  97.6780000 136.4520000  35.7200000  96.9250000 135.7290000  35.4450000
  97.8920000 137.1630000  34.8880000  97.1690000 137.0720000  36.5030000
  98.9810000 135.7620000  36.1480000  98.8870000 135.3000000  37.1280000
  99.1520000 134.9320000  35.4820000 100.3110000 136.6110000  36.1640000
 101.1240000 136.0290000  35.8190000 100.1540000 137.4550000  35.5510000
 100.6510000 137.0750000  37.5810000 101.4210000 137.8080000  37.4550000
  99.7620000 137.5900000  38.0110000 101.1380000 135.9830000  38.5580000
 100.5330000 135.0560000  38.3460000 102.1910000 135.7540000  38.2920000
 100.9610000 136.2440000  40.0820000  99.8710000 136.1680000  40.3660000
 101.2940000 135.3170000  40.5790000 101.8240000 137.3840000  40.7610000
 102.8030000 137.1020000  40.4410000 101.5450000 138.3740000  40.3370000
 101.7570000 137.4320000  42.2730000 102.4190000 138.2910000  42.5660000
 100.7490000 137.6330000  42.5170000 102.2220000 136.1970000  43.0450000
 102.1480000 136.4480000  44.1030000 101.4710000 135.4660000  42.8630000
 103.5810000 135.6520000  42.6210000 103.7110000 135.4870000  41.5060000
 104.3380000 136.3760000  42.9480000 104.0020000 134.3760000  43.4290000
 103.3370000 134.2000000  44.2980000 103.9690000 133.5670000  42.6650000
 105.5240000 134.4030000  43.6740000 105.8970000 134.5740000  42.6360000
 105.7660000 135.2040000  44.3490000 106.1450000 133.0620000  44.0920000
 106.1860000 132.3730000  43.2450000 107.1260000 133.4650000  44.3250000
 105.6330000 132.3760000  45.3720000 104.6300000 131.9540000  45.2720000
 106.2490000 131.4820000  45.4890000 105.6550000 133.1880000  46.7090000
 106.0540000 134.2190000  46.4800000 104.5650000 133.3770000  46.9310000
 106.3760000 132.4750000  47.7810000 107.3020000 131.7460000  47.6870000
 105.7100000 132.7130000  48.9560000 106.0870000 132.0050000  50.1780000
 105.4150000 132.2580000  51.0310000 106.0980000 130.9310000  50.0100000
 107.4650000 132.4990000  50.6910000 108.1910000 132.1780000  49.9590000
 107.7990000 131.9030000  52.1290000 107.6460000 130.7840000  52.1260000
 108.8140000 132.1190000  52.4130000 106.7970000 132.4360000  53.0440000
 106.6570000 131.8200000  54.4430000 105.7130000 130.5250000  54.2230000
 104.2610000 130.7280000  54.2660000 103.8320000 130.6390000  55.2480000
 104.0460000 131.6280000  53.7780000 103.7460000 129.5190000  53.4850000
 102.8080000 129.7020000  53.0050000 104.5180000 129.2440000  52.7420000
 103.5520000 128.2270000  54.1380000 104.7210000 127.8910000  54.9410000
 104.4320000 126.9220000  55.3510000 105.5860000 127.7280000  54.2880000
 104.8930000 128.6460000  55.7430000 102.3180000 128.2290000  55.1830000
 101.3940000 128.6580000  54.7630000 102.1280000 127.1820000  55.5270000
 102.6860000 128.8710000  55.9800000 103.3490000 127.2030000  53.1430000
 104.2390000 127.2570000  52.4610000 102.4900000 127.2860000  52.5840000
 103.2920000 126.2770000  53.6470000 108.0370000 131.4180000  54.8300000
 105.9460000 132.7940000  55.3240000 107.4970000 133.9540000  50.7370000
 108.6160000 134.6270000  51.0040000 109.7150000 134.0860000  51.1120000
 108.2630000 136.1060000  51.2080000 109.1440000 136.8390000  51.2890000
 107.7610000 136.2040000  52.2010000 107.3010000 136.6180000  50.1170000
 106.2790000 136.2410000  50.2840000 107.7190000 136.3260000  49.1110000
 107.1630000 138.1350000  50.0730000 108.1140000 138.6250000  50.2590000
 106.4350000 138.5550000  50.7560000 106.6700000 138.6910000  48.6820000
 105.5930000 138.5370000  48.4750000 107.2190000 138.1690000  47.9140000
 106.8680000 140.2150000  48.4890000 106.4700000 140.7830000  49.2910000
 106.3040000 140.6130000  47.6280000 108.3940000 140.5590000  48.2440000
 108.8210000 140.2320000  47.2430000 109.1230000 140.0220000  48.8960000
 108.5210000 142.1640000  48.3520000 108.2550000 142.4510000  49.3440000
 107.7530000 142.5850000  47.6160000 109.9750000 142.5330000  47.9720000
 110.6540000 142.6940000  48.8350000 110.5280000 142.8280000  46.8020000
 111.6010000 143.0350000  46.7470000 109.8320000 142.8210000  45.4420000
 109.9180000 143.7190000  44.8670000 108.7890000 142.6800000  45.5020000
 110.3640000 141.6570000  44.5630000 110.2410000 140.6900000  45.0000000
 111.4340000 141.8410000  44.5120000 109.9040000 141.5290000  43.1480000
 110.2400000 142.4620000  42.5660000 108.8380000 141.5330000  43.0250000
 110.5720000 140.2810000  42.5330000 110.4950000 139.4220000  43.2190000
 111.6390000 140.4810000  42.4560000 110.0850000 139.9430000  41.1520000
 110.3910000 140.7830000  40.4520000 108.9940000 139.8580000  41.1270000
 110.7260000 138.5510000  40.7980000 110.3840000 137.7750000  41.5260000
 111.8360000 138.5480000  40.8870000 110.5210000 137.9390000  39.3510000
 109.5330000 137.4850000  39.2420000 111.2290000 137.1110000  39.2970000
 110.7050000 138.9450000  38.2510000 111.6940000 139.2800000  38.2900000
 109.9670000 139.8140000  38.1610000 110.6590000 138.2090000  37.4110000
 155.5210000  18.7200000  35.5720000 156.3630000  19.1430000  34.9830000
 155.7130000  17.7020000  35.7530000 155.3810000  19.1510000  36.6090000
 154.2560000  18.8170000  34.7500000 153.9200000  19.8590000  34.6760000
 154.2530000  18.4850000  33.7810000 153.0570000  18.1260000  35.4960000
 152.9980000  18.5880000  36.4470000 152.1230000  18.3680000  35.0140000
 153.1330000  16.6160000  35.6980000 152.7420000  16.0700000  34.8880000
 154.1630000  16.3070000  35.8920000 152.3040000  16.1680000  36.8850000
 152.3490000  15.1160000  36.7700000 152.8510000  16.4720000  37.7770000
 150.8290000  16.5910000  36.9640000 150.7710000  17.6310000  37.0440000
 150.3200000  16.1770000  36.0600000 150.1660000  16.1960000  38.2700000
 150.0830000  15.0980000  38.2950000 150.8230000  16.5590000  39.0950000
 148.7750000  16.8840000  38.5590000 149.0050000  17.8270000  39.0790000
 148.3590000  17.1020000  37.6070000 147.6230000  16.0820000  39.2600000
 147.7470000  14.9890000  39.0050000 147.7510000  16.1810000  40.3460000
 146.1110000  16.4800000  38.8540000 145.9710000  16.1420000  37.7910000
 145.4280000  15.8900000  39.4820000 145.6510000  17.9290000  38.9580000
 146.2710000  18.5310000  38.2250000 144.6580000  18.0140000  38.5140000
 145.6980000  18.4510000  40.4310000 146.6290000  18.3530000  40.9500000
 145.6130000  19.6070000  40.4310000 144.5570000  17.9370000  41.2840000
 143.5850000  18.1030000  40.6920000 144.5830000  16.7690000  41.4060000
 144.6520000  18.5170000  42.7140000 144.7220000  19.5800000  42.5710000
 143.6620000  18.3050000  43.1540000 145.8640000  18.0200000  43.6140000
 146.1610000  17.0640000  43.2170000 146.6310000  18.7190000  43.4150000
 145.4050000  18.0170000  45.0360000 145.6520000  18.8920000  45.8790000
 144.7870000  16.8820000  45.4130000 144.1460000  16.9100000  46.6780000
 143.6700000  15.9850000  46.9010000 144.9270000  16.9670000  47.4450000
 143.0420000  17.9620000  46.8240000 143.4920000  18.8280000  47.2070000
 141.9300000  17.6920000  47.8400000 141.1620000  18.3920000  47.5020000
 141.4590000  16.7340000  47.7150000 142.3190000  17.9220000  49.2490000
 141.1850000  18.0590000  50.3580000 140.1690000  19.0630000  49.6430000
 140.3400000  20.4780000  49.6530000 141.3050000  20.7980000  50.1020000
 140.2200000  20.8730000  48.5940000 139.2730000  21.1470000  50.4880000
 139.4280000  22.1870000  50.2180000 138.2750000  20.8260000  50.1730000
 139.3080000  20.9690000  52.0140000 138.2590000  21.8510000  52.5790000
 137.3160000  21.6270000  52.1510000 138.3540000  21.7460000  53.5870000
 138.4420000  22.8930000  52.2240000 138.8850000  19.6400000  52.4900000
 139.4960000  18.9870000  51.8770000 139.0810000  19.5480000  53.5630000
 137.8600000  19.4830000  52.2840000 140.5970000  21.4300000  52.5780000
 141.3390000  20.6180000  52.7330000 140.4900000  21.8630000  53.5910000
 140.9860000  22.2030000  51.8240000 140.5550000  16.7400000  50.5120000
 141.7990000  18.7340000  51.5330000 142.5090000  18.2240000  45.5420000
 141.7460000  19.3080000  45.3110000 141.7340000  20.2620000  46.0690000
 140.8520000  19.1350000  44.1330000 139.8700000  18.7880000  44.4890000
 141.2300000  18.3420000  43.4440000 140.7170000  20.4600000  43.2890000
 141.6780000  20.9570000  43.1730000 140.1890000  21.1500000  43.8000000
 140.2220000  20.3570000  41.8500000 139.1430000  20.1830000  41.9280000
 140.6830000  19.4950000  41.3980000 140.5080000  21.7120000  41.0730000
 140.3390000  22.5680000  41.6860000 139.7960000  21.7090000  40.2300000
 141.9450000  21.7800000  40.5280000 142.6360000  21.4760000  41.3380000
 142.1370000  22.9300000  40.3980000 142.3370000  21.0550000  39.2580000
 141.5110000  20.9530000  38.5690000 142.6590000  20.0000000  39.4960000
 143.4700000  21.7130000  38.4320000 143.0850000  22.6790000  38.0250000
 143.8170000  21.1940000  37.5040000 144.6900000  21.9310000  39.2320000
 144.6220000  22.1700000  40.2960000 145.9230000  21.9190000  38.6870000
 146.7670000  22.0430000  39.3480000 146.2400000  21.6290000  37.2300000
 145.7670000  22.3150000  36.6090000 145.9180000  20.5670000  37.1460000
 147.7740000  21.7630000  36.9980000 148.1500000  21.1000000  37.7770000
 148.2030000  22.7330000  37.2130000 148.2480000  21.1140000  35.6550000
 147.5780000  21.5780000  34.8730000 148.0760000  20.0170000  35.7560000
 149.7830000  21.3890000  35.5360000 150.2000000  21.0690000  36.5600000
 149.9020000  22.4750000  35.5190000 150.4590000  20.6790000  34.3310000
 150.2410000  19.5860000  34.3760000 151.5400000  20.8210000  34.5410000
 150.1990000  21.2130000  32.9170000 149.2650000  20.9090000  32.5570000
 150.9280000  20.8030000  32.2430000 150.3550000  22.7820000  32.8420000
 151.3490000  23.0210000  33.0630000 149.7070000  23.2950000  33.6150000
 149.9020000  23.3750000  31.4920000 150.0690000  24.4020000  31.4700000
 148.7590000  23.3920000  31.3800000 150.3970000  22.9620000  30.6840000
  74.0070000 127.9170000  39.9070000  75.0010000 127.7720000  40.3520000
  74.0370000 128.9740000  39.6540000  73.7430000 127.2750000  39.0250000
  72.8680000 127.7520000  40.9100000  71.9320000 127.9560000  40.4650000
  72.8260000 126.6930000  41.1830000  72.9370000 128.5730000  42.2020000
  73.8660000 128.4270000  42.7440000  72.8890000 129.5820000  41.9600000
  71.8310000 128.2080000  43.2080000  70.8650000 128.5230000  42.8740000
  71.7990000 127.1550000  43.2180000  71.9930000 128.7160000  44.7220000
  72.9790000 128.4480000  45.0240000  71.8400000 129.7600000  44.7200000
  71.0470000 127.9980000  45.6900000  70.0090000 128.2930000  45.5400000
  71.0950000 126.9750000  45.4910000  71.4160000 128.3240000  47.1970000
  72.4930000 128.1990000  47.4290000  71.2440000 129.3480000  47.3970000
  70.5390000 127.4730000  48.2360000  70.6310000 127.8420000  49.2400000
  69.4970000 127.5120000  47.8830000  70.9210000 125.9650000  48.2080000
  70.3410000 125.3930000  48.9250000  70.6260000 125.4930000  47.2990000
  72.4250000 125.6480000  48.5010000  72.9600000 126.0180000  47.6090000
  72.7460000 126.2480000  49.3730000  72.7670000 124.2000000  48.7870000
  72.6530000 123.7110000  47.8690000  73.8740000 123.9680000  48.9590000
  72.1340000 123.6440000  50.0280000  71.8370000 124.4500000  50.7540000
  71.1960000 123.2800000  49.5910000  72.7290000 122.3880000  50.7690000
  73.4530000 121.8610000  50.1250000  73.3010000 122.6890000  51.7250000
  71.6640000 121.3340000  51.2190000  72.1860000 120.5730000  51.7890000
  71.2580000 120.8330000  50.3430000  70.5990000 122.0510000  52.0930000
  70.0680000 122.8450000  51.5760000  69.8600000 121.3400000  52.4290000
  71.0950000 122.8880000  53.2330000  71.7330000 122.5020000  54.2120000
  70.7690000 124.1900000  53.1630000  71.2530000 125.2100000  54.1810000
  70.4190000 125.6350000  54.7230000  71.8990000 124.8520000  54.9570000
  71.9360000 126.4180000  53.4870000  72.3130000 127.0180000  54.3380000
  70.9500000 127.2190000  52.5420000  70.8910000 126.4890000  51.6970000
  69.9760000 127.3130000  52.9840000  71.6170000 128.4650000  52.1500000
  71.7360000 129.8310000  53.0490000  70.5440000 130.8420000  52.7220000
  69.4930000 130.9950000  53.6860000  68.6260000 131.4610000  53.3350000
  69.3050000 129.9350000  53.9690000  70.0190000 131.8100000  54.9000000
  69.3630000 131.7320000  55.7220000  71.0350000 131.3500000  55.2390000
  70.3570000 133.2700000  54.7260000  71.5410000 133.4080000  53.7640000
  72.3680000 132.8950000  54.2140000  71.2810000 133.1150000  52.7190000
  71.8600000 134.4760000  53.7820000  69.1730000 134.0670000  54.2970000
  69.5800000 135.1490000  54.1940000  68.7780000 133.7320000  53.3780000
  68.5000000 133.9780000  55.1880000  70.8930000 133.7900000  56.0580000
  71.4980000 132.9980000  56.4850000  70.1820000 134.2490000  56.6980000
  71.5130000 134.6160000  55.8760000  71.5930000 129.3310000  54.4560000
  73.0060000 130.4730000  52.6490000  73.0660000 125.9610000  52.6420000
  74.2860000 125.9690000  53.2220000  74.4740000 125.8470000  54.4000000
  75.4000000 126.0680000  52.1940000  75.3830000 125.2520000  51.5220000
  76.3210000 125.9650000  52.7620000  75.3130000 127.3740000  51.4470000
  75.5790000 128.1620000  52.2010000  74.2790000 127.6350000  51.1570000
  76.2080000 127.5490000  50.2250000  76.2960000 126.6480000  49.6340000
  77.2210000 127.6360000  50.5990000  75.9740000 128.7770000  49.2390000
  74.8840000 128.9030000  49.1540000  76.3950000 128.4920000  48.2680000
  76.5230000 130.1280000  49.7860000  77.4830000 129.9100000  50.2640000
  75.8070000 130.5650000  50.5350000  76.7800000 131.0910000  48.6990000
  77.4950000 130.7110000  47.9180000  77.3040000 131.9160000  49.1400000
  75.5300000 131.6590000  47.9800000  75.9360000 132.4890000  47.3450000
  74.7540000 132.1990000  48.6550000  74.8560000 130.6620000  47.0260000
  74.2130000 129.9430000  47.5640000  75.1070000 130.3590000  45.7340000
  74.6780000 129.5080000  45.2400000  75.7390000 131.4320000  44.8340000
  76.8140000 131.3990000  44.9350000  75.3490000 132.4010000  45.1090000
  75.3130000 131.2540000  43.4590000  74.2160000 131.2610000  43.4370000
  75.6830000 130.2660000  43.0310000  75.9660000 132.2880000  42.4120000
  76.2390000 133.1990000  42.9520000  75.1960000 132.6490000  41.7160000
  77.1040000 131.8000000  41.6030000  76.8330000 130.8470000  41.1150000
  77.8930000 131.4550000  42.2380000  77.6420000 132.8680000  40.6550000
  77.8920000 133.7580000  41.1920000  76.7990000 133.2890000  40.0900000
  78.7300000 132.4560000  39.5930000  79.6030000 131.8470000  39.9690000
  79.1730000 133.3640000  39.1290000  78.1830000 131.6100000  38.4330000
  77.7030000 130.8060000  39.0500000  78.9460000 131.1050000  37.8810000
  77.1920000 132.3970000  37.5490000  77.7840000 133.1580000  37.0300000
  76.3430000 132.8880000  38.0760000  76.7080000 131.7480000  36.8190000
  14.8530000  36.3990000  37.7660000  14.3770000  36.4030000  36.7650000
  15.7450000  37.0280000  37.8530000  14.1550000  36.7010000  38.4660000
  15.1100000  34.8790000  38.0410000  14.1820000  34.2700000  38.0800000
  15.6850000  34.4130000  37.2660000  15.8530000  34.5510000  39.3630000
  16.6780000  35.3170000  39.3500000  15.3300000  34.7840000  40.3090000
  16.4770000  33.1710000  39.4680000  15.6410000  32.5280000  39.2630000
  17.2240000  33.0040000  38.6950000  17.0570000  32.9630000  40.9000000
  17.8370000  33.7130000  41.0040000  16.2210000  33.0670000  41.6120000
  17.6890000  31.5240000  41.0530000  16.8260000  30.7940000  40.8490000
  18.3990000  31.4900000  40.2620000  18.3320000  31.2970000  42.4460000
  18.7050000  30.2680000  42.4680000  19.2270000  31.9040000  42.6010000
  17.4130000  31.6920000  43.6170000  17.1760000  32.7230000  43.4270000
  16.4880000  31.0800000  43.4560000  18.1390000  31.4750000  44.9340000
  18.4040000  30.3790000  44.8540000  19.0750000  32.0310000  44.8920000
  17.4840000  31.7090000  46.3260000  17.0140000  30.7440000  46.5800000
  18.3240000  31.6850000  47.0420000  16.4810000  32.7990000  46.5530000
  15.8640000  32.8540000  45.6220000  15.8300000  32.4510000  47.3860000
  17.0390000  34.1810000  47.0150000  17.6970000  34.6890000  46.2660000
  16.2070000  34.8760000  47.2040000  17.8240000  34.0600000  48.2950000
  17.1740000  33.4700000  48.9710000  18.7070000  33.4990000  48.1070000
  18.3070000  35.3800000  48.8510000  19.0400000  35.8250000  48.1320000
  17.4280000  36.0640000  48.8770000  18.9140000  35.4370000  50.2470000
  19.9110000  34.9940000  50.2090000  19.1550000  36.4570000  50.5120000
  18.1320000  34.7220000  51.2710000  17.0370000  35.1020000  51.5310000
  18.7630000  33.6250000  51.7650000  18.0110000  32.8930000  52.7860000
  18.6860000  32.3280000  53.5180000  17.3270000  33.5290000  53.3200000
  17.2480000  31.8160000  51.9960000  16.6890000  32.2730000  51.1190000
  16.1950000  31.0610000  52.9080000  15.6940000  30.3870000  52.2470000
  16.7230000  30.5840000  53.7570000  15.2310000  31.9500000  53.5190000
  13.7670000  32.1220000  52.8870000  14.0270000  33.0800000  51.6910000
  12.9730000  33.7010000  50.9350000  13.3520000  33.9010000  49.9460000
  12.1640000  32.9770000  50.7400000  12.3370000  34.8870000  51.6390000
  11.5060000  35.2620000  51.0180000  11.9410000  34.6010000  52.6040000
  13.1850000  36.0590000  51.9070000  14.2920000  35.6480000  52.8240000
  14.9990000  34.9990000  52.2990000  14.6810000  36.6020000  53.2230000
  13.8870000  35.0480000  53.6530000  13.7300000  36.6200000  50.6380000
  12.9590000  36.6770000  49.8650000  14.1390000  37.5900000  50.8510000
  14.5690000  35.8560000  50.3930000  12.3380000  37.1450000  52.4800000
  11.6630000  37.4200000  51.7290000  12.9450000  38.0040000  52.7720000
  11.9170000  36.6300000  53.3340000  13.3090000  30.9080000  52.1630000
  12.8760000  32.8070000  53.8590000  18.2340000  30.8760000  51.5180000
  17.9480000  30.2840000  50.3380000  16.8610000  30.4310000  49.7730000
  18.9360000  29.2600000  49.8660000  19.6350000  28.9760000  50.6300000
  19.5350000  29.6820000  49.0640000  18.3510000  27.9110000  49.3200000
  17.5360000  27.5670000  50.0390000  19.1780000  27.1620000  49.3260000
  17.7660000  28.0210000  47.9120000  18.3920000  28.5020000  47.2500000
  16.9130000  28.7010000  47.9110000  17.2580000  26.6380000  47.3830000
  16.2570000  26.4840000  47.8350000  17.8850000  25.9150000  47.8410000
  17.0360000  26.3340000  45.9430000  16.3890000  25.4280000  45.9370000
  17.9370000  26.1590000  45.2830000  16.2020000  27.5020000  45.3410000
  16.9610000  28.2670000  45.1240000  15.3930000  27.8490000  46.0570000
  15.5420000  27.0950000  43.9970000  15.0410000  26.1410000  44.1570000
  16.2930000  26.8690000  43.2800000  14.5290000  28.0660000  43.4320000
  14.0490000  28.7880000  44.1140000  14.2080000  28.1280000  42.1520000
  13.3700000  28.8290000  41.9100000  14.6810000  27.2410000  41.0450000
  13.8610000  26.4830000  40.7760000  15.6170000  26.7380000  41.2740000
  14.8560000  28.1340000  39.8200000  15.6260000  28.8350000  39.9220000
  13.8850000  28.6720000  39.7470000  14.9570000  27.4230000  38.4520000
  14.1280000  26.7050000  38.4140000  15.8980000  26.9210000  38.4510000
  14.9160000  28.4480000  37.2660000  14.0310000  29.0000000  37.2850000
  14.8830000  28.0230000  36.2800000  16.0940000  29.4390000  37.3210000
  16.1030000  30.0140000  38.2760000  15.8950000  30.2550000  36.6020000
  17.5320000  28.9220000  37.1410000  17.6700000  28.5980000  36.1650000
  17.8320000  28.1720000  37.8280000  18.5310000  30.0210000  37.4920000
  18.7110000  30.0850000  38.5410000  18.2070000  31.0410000  37.1270000
  19.9440000  29.7130000  36.9720000  20.1910000  28.7400000  37.3820000
  20.5910000  30.4890000  37.2850000  19.8840000  29.7860000  35.8750000
  12.7550000  47.8700000  38.3250000  13.5780000  47.4550000  37.6930000
  12.3230000  48.5940000  37.6490000  11.9950000  47.0840000  38.4690000
  13.1150000  48.6430000  39.5610000  12.1610000  48.9820000  39.9050000
  13.5370000  47.9450000  40.3270000  14.0900000  49.7840000  39.5320000
  15.1350000  49.4490000  39.6660000  13.9560000  50.2290000  38.5220000
  13.6880000  50.8670000  40.5550000  12.6660000  51.2470000  40.3200000
  13.5030000  50.3390000  41.4970000  14.6420000  51.9860000  40.7590000
  15.4670000  51.6540000  41.3340000  15.0900000  52.1370000  39.7830000
  14.0340000  53.2650000  41.3210000  13.6390000  53.8070000  40.4120000
  13.2940000  52.9650000  42.0540000  14.9820000  54.2730000  41.9080000
  15.7910000  54.4400000  41.1840000  14.5320000  55.2480000  41.9660000
  15.6060000  53.8890000  43.2850000  14.8080000  53.7360000  43.9580000
  16.2450000  53.0010000  43.1210000  16.5150000  55.0050000  43.8400000
  17.5040000  54.7720000  43.4880000  16.2270000  55.9470000  43.4130000
  16.5370000  55.1190000  45.3640000  16.5360000  54.0780000  45.8050000
  17.3060000  55.7210000  45.7470000  15.2580000  55.8840000  45.7450000
  15.3530000  56.7970000  45.1890000  14.3870000  55.3440000  45.3870000
  15.0960000  56.2580000  47.2890000  15.8540000  57.0170000  47.5810000
  14.0930000  56.6120000  47.3830000  15.2620000  55.0740000  48.2420000
  14.6210000  54.1970000  48.0210000  16.2870000  54.7690000  48.2090000
  14.9430000  55.3530000  49.6850000  13.8740000  55.6770000  49.8520000
  14.9160000  54.4050000  50.3090000  15.8010000  56.4780000  50.3810000
  15.5630000  57.5040000  50.0930000  15.5810000  56.4190000  51.4420000
  17.3020000  56.2980000  50.1830000  17.9150000  56.8350000  49.2880000
  17.7690000  55.3720000  51.0090000  19.2110000  55.2150000  51.1080000
  19.5040000  54.6410000  50.2940000  19.6260000  56.2020000  51.1440000
  19.6760000  54.4900000  52.3850000  19.2310000  53.4220000  52.3270000
  19.3080000  55.2460000  53.7150000  18.2260000  55.1620000  53.8600000
  19.7400000  54.7280000  54.5560000  19.6960000  56.6610000  53.5130000
  19.5190000  57.6730000  54.6250000  20.5860000  57.2280000  55.6630000
  22.0290000  57.5060000  55.4220000  22.5740000  56.7120000  55.8920000
  22.1730000  57.4350000  54.3370000  22.3750000  58.9240000  55.8650000
  23.3410000  59.2410000  55.6660000  21.7670000  59.5230000  55.2760000
  22.1360000  59.3130000  57.2820000  22.6550000  60.6300000  57.6250000
  22.3240000  60.9170000  58.6100000  23.7040000  60.5030000  57.5940000
  22.4790000  61.3400000  56.7960000  20.6400000  59.3760000  57.5640000
  20.1120000  58.4080000  57.6870000  20.4920000  60.1040000  58.3350000
  20.2420000  59.9970000  56.7410000  22.6910000  58.2770000  58.1760000
  23.7550000  58.2050000  58.0280000  22.1990000  57.3960000  57.9510000
  22.5010000  58.5480000  59.2170000  19.9080000  59.0390000  54.2100000
  18.1110000  57.5990000  55.1440000  21.1100000  54.3330000  52.3660000
  21.5760000  53.2650000  53.0320000  20.8990000  52.3770000  53.4280000
  23.0900000  53.1550000  53.0530000  23.4430000  53.1730000  54.0900000
  23.6310000  53.9620000  52.5220000  23.4880000  51.7820000  52.3970000
  22.8020000  50.9910000  52.8180000  24.4660000  51.5240000  52.7770000
  23.4800000  51.9130000  50.8960000  24.1250000  52.6590000  50.4600000
  22.4530000  52.0490000  50.5920000  23.6820000  50.5420000  50.2060000
  23.0740000  49.7160000  50.5560000  24.6780000  50.2730000  50.4240000
  23.5360000  50.5280000  48.6660000  22.6420000  51.1330000  48.4250000
  23.4540000  49.4780000  48.2710000  24.8320000  51.1170000  48.0170000
  25.6800000  50.4850000  48.3620000  25.0890000  52.1490000  48.3160000
  24.6670000  51.2030000  46.4960000  25.4690000  51.7190000  46.1090000
  23.8170000  51.8690000  46.2990000  24.4560000  49.8840000  45.7730000
  25.3650000  49.3260000  45.5920000  23.3300000  49.3330000  45.3510000
  23.3580000  48.4050000  44.8830000  21.9090000  49.9120000  45.4600000
  21.9990000  50.8010000  45.9740000  21.4050000  49.1980000  46.1350000
  21.0810000  50.1540000  44.2080000  20.0760000  50.5570000  44.5900000
  20.9100000  49.2400000  43.6600000  21.6090000  51.1230000  43.1820000
  22.6470000  50.9900000  43.1350000  21.4490000  52.0640000  43.5860000
  20.8740000  51.0730000  41.7230000  19.7720000  50.7630000  41.9190000
  21.4650000  50.3620000  41.0880000  20.9000000  52.5160000  41.1090000
  21.9330000  52.6870000  40.9680000  20.5630000  53.2120000  41.8770000
  20.1480000  52.6930000  39.7950000  20.2660000  51.7250000  39.2200000
  20.6190000  53.4790000  39.1940000  18.5850000  52.9110000  39.9460000
  18.5220000  53.9660000  40.2990000  18.2100000  52.1980000  40.7010000
  17.6780000  52.7990000  38.7270000  17.4960000  51.7280000  38.3920000
  17.9950000  53.3430000  37.9560000  16.6930000  53.1310000  38.9950000
  81.3580000 121.3510000  40.4550000  81.7870000 120.3450000  40.2820000
  82.0850000 122.1580000  40.2570000  80.4620000 121.4670000  39.7950000
  80.9580000 121.4700000  41.9670000  80.6060000 120.4710000  42.2630000
  81.8140000 121.6850000  42.6040000  79.8860000 122.5620000  42.2020000
  80.3030000 123.5190000  42.2600000  79.1300000 122.4840000  41.4690000
  79.1670000 122.2720000  43.5980000  78.8130000 121.2130000  43.6340000
  79.7840000 122.2510000  44.4780000  77.8760000 123.0380000  43.8800000
  78.0170000 124.0090000  43.3380000  77.1110000 122.4600000  43.3060000
  77.5050000 123.1120000  45.3710000  76.4580000 123.3780000  45.4030000
  77.6560000 122.1130000  45.8020000  78.3070000 124.1320000  46.1990000
  79.3420000 124.1530000  45.7810000  77.9650000 125.1260000  46.0000000
  78.3660000 123.8310000  47.6460000  78.7430000 122.8140000  47.7000000
  79.2160000 124.3290000  48.1350000  77.0810000 123.9310000  48.4850000
  76.8340000 124.9890000  48.6400000  76.2040000 123.4850000  48.0030000
  77.0930000 123.2220000  49.8540000  78.0710000 123.4340000  50.3500000
  76.2550000 123.5370000  50.4850000  77.1350000 121.6220000  49.6830000
  78.0970000 121.1560000  49.4140000  76.9180000 121.2450000  50.7100000
  76.0070000 121.1370000  48.6950000  75.1170000 121.7770000  48.7420000
  76.4080000 121.2930000  47.6930000  75.6930000 119.6410000  48.8190000
  76.6870000 119.1270000  49.0520000  75.1250000 119.3900000  49.7070000
  74.9010000 119.0270000  47.6370000  75.3450000 119.4010000  46.7570000
  74.9980000 117.9520000  47.5730000  73.4250000 119.5290000  47.6380000
  73.2320000 120.4490000  48.1540000  73.0070000 119.6530000  46.6520000
  72.6090000 118.4240000  48.4500000  72.0010000 117.4920000  48.0120000
  72.7000000 118.7940000  49.7150000  71.9480000 117.8640000  50.6790000
  71.8990000 118.3220000  51.6840000  70.9680000 117.6270000  50.3440000
  72.6270000 116.4540000  50.9780000  72.7760000 115.9060000  50.0710000
  71.7350000 115.5470000  51.9550000  70.8190000 115.1740000  51.3840000
  72.4850000 114.7780000  52.2390000  71.3780000 116.1720000  53.1970000
  69.9920000 116.9210000  53.3390000  70.5430000 118.4140000  53.5530000
  70.7510000 118.8400000  54.8830000  70.7870000 119.9630000  54.9250000
  69.9060000 118.5250000  55.5540000  72.1400000 118.3070000  55.3690000
  71.9830000 118.1450000  56.3920000  72.3270000 117.3240000  54.9400000
  73.3450000 119.1090000  55.2700000  74.5120000 118.2220000  55.6510000
  75.4750000 118.6670000  55.3020000  74.5520000 118.2020000  56.7250000
  74.4300000 117.2820000  55.0760000  73.6270000 119.6570000  53.9220000
  74.5210000 120.1850000  53.8820000  73.7170000 118.7620000  53.3070000
  72.9090000 120.3850000  53.5810000  73.3830000 120.2790000  56.2340000
  73.2960000 119.9810000  57.2760000  72.6420000 121.0940000  56.0920000
  74.4070000 120.6340000  56.2480000  69.3690000 116.7460000  52.0080000
  69.2800000 116.5120000  54.5690000  73.8150000 116.8130000  51.7080000
  74.9740000 116.5490000  51.1500000  75.1660000 116.1370000  50.0310000
  76.0850000 116.9010000  52.0860000  75.7110000 116.7020000  53.0810000
  76.2850000 117.9440000  52.1590000  77.4050000 116.0840000  51.9390000
  77.2230000 115.0480000  51.4970000  77.7780000 115.9470000  52.9540000
  78.4990000 116.7680000  51.1560000  79.4840000 116.4550000  51.5770000
  78.3470000 117.8480000  51.3950000  78.3740000 116.5340000  49.6660000
  77.4790000 116.9600000  49.3270000  78.3820000 115.4320000  49.4160000
  79.4740000 117.2010000  48.7170000  80.3940000 116.6590000  48.6650000
  79.7670000 118.2340000  48.9740000  78.9170000 117.1840000  47.3390000
  77.8870000 117.6080000  47.2760000  78.8810000 116.2020000  46.9330000
  79.6940000 118.0820000  46.3810000  80.7180000 117.8020000  46.4860000
  79.6960000 119.1510000  46.6590000  79.1930000 117.9840000  45.0010000
  78.1580000 117.8120000  44.9540000  79.9450000 118.0040000  43.9100000
  79.4770000 117.8760000  42.9170000  81.4500000 118.2010000  43.9330000
  81.9410000 118.6560000  44.8110000  81.7170000 118.8370000  43.0640000
  82.1290000 116.8040000  43.7200000  81.8680000 116.4720000  42.6770000
  81.6430000 116.0090000  44.3310000  83.6930000 116.7090000  43.8020000
  84.0470000 116.7670000  44.7960000  84.1160000 117.6270000  43.3070000
  84.4030000 115.4430000  43.2000000  84.1650000 114.6440000  43.9050000
  85.4640000 115.6080000  43.2910000  84.1650000 114.9780000  41.7080000
  83.1310000 115.1370000  41.6890000  84.3950000 113.9380000  41.6570000
  84.8060000 115.7590000  40.5820000  84.7050000 116.8430000  40.6820000
  84.2560000 115.6000000  39.6630000  86.2830000 115.3870000  40.3010000
  86.2780000 114.4010000  39.7740000  86.7560000 115.3360000  41.2960000
  86.9070000 116.4900000  39.4060000  86.3240000 116.7200000  38.4640000
  87.7840000 116.0520000  38.9240000  87.0840000 117.3860000  40.0390000
 154.8030000  57.5610000  32.9300000 153.9040000  57.5190000  32.3380000
 154.8110000  56.5340000  33.3530000 155.6550000  57.6920000  32.2560000
 154.7730000  58.6210000  34.0320000 155.5660000  58.5700000  34.7840000
 154.9100000  59.6150000  33.6480000 153.3610000  58.5310000  34.6290000
 152.6370000  58.7370000  33.8570000 153.1570000  57.5310000  35.0710000
 153.4270000  59.5490000  35.7300000 154.1290000  59.2070000  36.5240000
 153.8090000  60.5360000  35.3190000 152.0590000  59.7140000  36.4320000
 151.3390000  60.2460000  35.7850000 151.5890000  58.7520000  36.7310000
 152.2350000  60.6190000  37.6800000 152.9120000  60.1740000  38.4620000
 152.7090000  61.4890000  37.4440000 150.8290000  60.9890000  38.1910000
 150.2750000  61.3860000  37.3040000 150.3920000  59.9920000  38.3900000
 150.5060000  61.9570000  39.3400000 150.9840000  62.9470000  39.0420000
 149.4790000  62.0410000  39.4560000 151.2000000  61.4610000  40.5780000
 150.7270000  60.5340000  40.8460000 152.2290000  61.2580000  40.2230000
 151.1920000  62.2620000  41.8410000 151.4870000  63.3520000  41.6810000
 150.1870000  62.3880000  42.2630000 151.9890000  61.6510000  42.9940000
 152.9680000  61.2330000  42.7470000 152.0700000  62.5040000  43.6670000
 151.2200000  60.4700000  43.6350000 150.2110000  60.7990000  43.8780000
 151.1370000  59.6490000  42.9120000 151.8060000  60.0270000  44.9870000
 151.5120000  60.7150000  45.8380000 151.2330000  59.1100000  45.1830000
 153.3060000  59.6180000  45.0600000 153.7190000  59.3500000  44.0940000
 153.8270000  60.5680000  45.3080000 153.8020000  58.6210000  46.0680000
 153.2740000  57.6360000  45.7970000 154.8670000  58.4510000  45.7990000
 153.5980000  58.9380000  47.5740000 154.5690000  59.3090000  48.2720000
 152.3060000  58.8480000  47.9890000 152.1380000  59.2480000  49.3780000
 151.1130000  58.9710000  49.7530000 152.7530000  58.5720000  50.0510000
 152.4480000  60.7360000  49.6740000 153.4470000  60.9630000  49.3320000
 152.4030000  61.0970000  51.1950000 153.4560000  60.9600000  51.6130000
 152.1150000  62.1260000  51.2500000 151.4350000  60.3030000  51.9200000
 151.8690000  59.5550000  53.2820000 150.5710000  58.6990000  53.6010000
 150.6560000  57.7790000  54.8150000 149.7280000  57.2200000  54.7660000
 151.5800000  57.1650000  54.6760000 150.6190000  58.7130000  56.0810000
 150.8500000  58.0960000  56.8920000 151.3250000  59.4760000  55.9830000
 149.2470000  59.2910000  56.4270000 148.2280000  58.2890000  56.9120000
 148.1670000  57.3720000  56.2550000 148.2860000  57.9980000  57.9340000
 147.2410000  58.7530000  56.8230000 149.4630000  60.1430000  57.6050000
 150.1730000  60.9510000  57.3480000 148.4330000  60.5670000  57.9530000
 150.0000000  59.5900000  58.3220000 148.7290000  60.1820000  55.3120000
 148.7640000  59.5080000  54.4950000 149.3860000  61.0400000  55.1170000
 147.7250000  60.4970000  55.5250000 152.9580000  58.7190000  52.9430000
 152.0420000  60.6660000  54.2880000 151.5070000  61.6000000  48.9760000
 151.9510000  62.4350000  48.0470000 153.1560000  62.4820000  47.7280000
 150.8820000  63.3550000  47.5700000 150.4050000  63.6900000  48.5120000
 150.2420000  62.8970000  46.9270000 151.4560000  64.5570000  46.8000000
 152.2400000  64.1430000  46.1560000 151.9840000  65.2870000  47.4630000
 150.4670000  65.2110000  45.8150000 149.6290000  65.6510000  46.3380000
 150.1670000  64.4520000  45.1830000 151.0620000  66.3040000  44.9290000
 152.0400000  65.9960000  44.6010000 151.2810000  67.2470000  45.5100000
 150.1170000  66.8600000  43.7790000 149.2150000  67.3760000  44.1200000
 149.7830000  65.9750000  43.2230000 150.8950000  67.7480000  42.8060000
 151.8330000  67.2770000  42.4410000 151.1410000  68.6560000  43.2670000
 150.1120000  68.0150000  41.4440000 149.1550000  68.4630000  41.5940000
 149.8260000  67.0330000  40.9170000 150.9300000  68.9090000  40.4900000
 150.9890000  69.9780000  40.7200000 151.6200000  68.5740000  39.3760000
 152.0740000  69.3760000  38.8060000 151.8600000  67.2610000  38.8120000
 151.5260000  66.4000000  39.4950000 152.9120000  67.1730000  38.5340000
 151.1550000  66.9630000  37.4860000 151.4760000  67.5850000  36.7240000
 150.1210000  67.2080000  37.7640000 151.1130000  65.5120000  36.9970000
 150.6810000  64.9140000  37.8470000 152.0810000  65.1530000  36.7210000
 150.1480000  65.4840000  35.7990000 150.4570000  66.2810000  35.0260000
 149.1390000  65.8610000  36.0620000 150.1550000  64.0900000  35.0660000
 149.5720000  64.1900000  34.1930000 149.7340000  63.2930000  35.7310000
 151.5130000  63.6890000  34.4390000 152.2220000  63.3400000  35.1810000
 151.8690000  64.6150000  33.9940000 151.4580000  62.5080000  33.4390000
 150.7730000  62.9300000  32.6850000 151.0030000  61.6440000  34.0310000
 152.6870000  62.1200000  32.6360000 153.4230000  61.7720000  33.2870000
 153.1020000  63.0370000  32.2120000 152.4840000  61.3850000  31.8550000
  77.3550000  24.0370000  34.6260000  77.0500000  24.1800000  33.6160000
  77.1590000  22.9880000  34.9350000  78.4230000  24.2990000  34.7590000
  76.4860000  24.8880000  35.6110000  76.5300000  25.9370000  35.4110000
  75.4600000  24.6000000  35.5800000  76.9140000  24.5590000  37.0720000
  76.6220000  23.5410000  37.1310000  77.9940000  24.7020000  37.1540000
  76.3160000  25.3420000  38.2000000  76.6870000  24.9190000  39.1460000
  76.9870000  26.2530000  38.1090000  74.7210000  25.6070000  38.2680000
  74.5100000  26.1690000  39.1960000  74.4150000  26.2970000  37.5280000
  73.9010000  24.3050000  38.1260000  73.9330000  23.8270000  37.1140000
  74.1910000  23.6090000  38.9230000  72.4330000  24.6680000  38.3290000
  72.1250000  25.5520000  37.6640000  71.8310000  23.7930000  38.0720000
  72.1920000  25.0310000  39.7970000  72.6090000  25.9700000  40.1210000
  71.1270000  25.2780000  39.9160000  72.5580000  23.8710000  40.7880000
  73.6570000  23.7310000  40.7790000  72.1330000  24.2120000  41.7050000
  71.8270000  22.5460000  40.3390000  70.8020000  22.7410000  40.0990000
  72.3410000  22.2050000  39.4080000  71.8920000  21.3790000  41.3570000
  71.4980000  21.7940000  42.2420000  71.3140000  20.5450000  40.9310000
  73.2950000  20.9100000  41.5230000  73.6630000  20.4900000  40.5610000
  73.9820000  21.7270000  41.6560000  73.5020000  19.7750000  42.4630000
  72.7920000  18.9940000  42.0630000  74.5020000  19.3360000  42.3540000
  73.1850000  20.1960000  43.9020000  73.9380000  20.9340000  44.3160000
  72.2350000  20.6000000  43.9400000  73.0800000  19.0340000  44.9310000
  72.3750000  18.2770000  44.6840000  74.0440000  18.5600000  45.1250000
  72.7170000  19.5110000  46.2940000  72.8220000  20.6310000  46.6910000
  72.5400000  18.4880000  47.1360000  72.7060000  18.7970000  48.5350000
  72.9170000  17.8310000  49.0090000  73.5860000  19.4300000  48.6610000
  71.4130000  19.3540000  49.1270000  71.2160000  20.3350000  48.6680000
  71.4480000  19.4900000  50.6780000  70.5550000  20.0810000  50.9930000
  71.4380000  18.5570000  51.3100000  72.5460000  20.2990000  51.1680000
  74.0690000  19.7900000  51.4220000  75.0570000  20.5340000  50.3840000
  75.3910000  21.9060000  50.5270000  74.8560000  22.3230000  49.6520000
  74.9750000  22.3830000  51.4260000  76.9520000  21.9800000  50.4740000
  77.2570000  21.4390000  49.6180000  77.0840000  23.0790000  50.3640000
  77.7090000  21.4730000  51.6250000  79.2070000  21.8300000  51.5800000
  79.3210000  22.8690000  51.4850000  79.6400000  21.4370000  52.4630000
  79.6640000  21.5140000  50.6150000  77.0650000  22.2170000  52.7820000
  76.1460000  21.6270000  52.9280000  77.7050000  22.2000000  53.6290000
  76.8360000  23.2920000  52.5490000  77.6330000  20.0020000  51.6520000
  77.8560000  19.8850000  50.5800000  76.6690000  19.7710000  51.9550000
  78.4420000  19.5470000  52.2340000  74.4810000  20.1870000  52.7070000
  74.0080000  18.3920000  51.1690000  70.4240000  18.4200000  48.7870000
  69.2430000  18.7390000  48.3850000  69.0200000  19.8590000  48.0540000
  68.2840000  17.6060000  48.1310000  67.2530000  17.8590000  48.4040000
  68.6200000  16.7300000  48.7550000  68.2890000  17.0610000  46.7030000
  67.9880000  17.8440000  45.9840000  67.4780000  16.3160000  46.5840000
  69.6620000  16.3920000  46.2200000  69.9140000  15.7730000  47.0100000
  70.3780000  17.1490000  46.1540000  69.5210000  15.5000000  44.9790000
  68.7650000  14.6930000  45.2400000  70.4540000  14.9780000  44.7890000
  69.0690000  16.3250000  43.7810000  69.9120000  16.8860000  43.4410000
  68.3360000  17.0950000  44.0900000  68.5560000  15.5480000  42.6180000
  67.6460000  14.9430000  42.8790000  69.2800000  14.7670000  42.4460000
  68.3070000  16.3450000  41.3590000  68.1570000  15.6850000  40.4950000
  69.1790000  16.8580000  41.1660000  67.0800000  17.1680000  41.4310000
  66.4730000  16.9290000  42.2430000  66.6770000  18.0180000  40.5110000
  65.7640000  18.5590000  40.8490000  67.3600000  18.2170000  39.1100000
  66.6380000  18.5820000  38.3420000  67.6940000  17.2730000  38.7160000
  68.5360000  19.2930000  39.0620000  69.3720000  18.9520000  39.6460000
  68.0700000  20.2030000  39.5170000  69.0180000  19.4950000  37.6390000
  69.3010000  18.5770000  37.1320000  69.8870000  20.1200000  37.6290000
  68.0790000  20.2250000  36.7230000  67.5440000  21.1570000  37.1020000
  67.2230000  19.5790000  36.5870000  68.7730000  20.7360000  35.3970000
  69.1640000  19.7910000  34.8320000  69.6710000  21.3480000  35.5000000
  67.7470000  21.6150000  34.5220000  67.5690000  22.5900000  35.1050000
  66.8350000  20.9920000  34.4640000  68.2740000  21.9980000  33.1710000
  68.6030000  21.1030000  32.5980000  69.1850000  22.5190000  33.3470000
  67.3040000  22.9160000  32.4170000  67.3810000  23.9970000  32.6380000
  66.2350000  22.6460000  32.6530000  67.5490000  22.8080000  31.4370000
 114.8800000   6.2520000  40.3550000 115.3750000   5.4950000  39.7680000
 115.3620000   7.1140000  39.9340000 113.8330000   6.4210000  40.2450000
 115.1250000   6.0020000  41.8210000 116.1760000   6.0260000  41.9150000
 114.6870000   6.8900000  42.3710000 114.5350000   4.6620000  42.3730000
 113.4030000   4.7950000  42.5110000 114.7580000   3.9060000  41.5560000
 115.1970000   4.2250000  43.6920000 114.8820000   3.1740000  43.8700000
 116.2820000   4.3870000  43.5280000 114.7850000   5.0720000  44.9470000
 115.0580000   6.1350000  44.7460000 113.7780000   4.9060000  45.0610000
 115.3880000   4.6600000  46.3430000 115.1480000   3.6450000  46.5300000
 116.4400000   4.5820000  46.2200000 114.9530000   5.5740000  47.4690000
 115.3670000   6.5630000  47.1020000 113.7900000   5.6020000  47.5890000
 115.5020000   5.2320000  48.8890000 116.6160000   5.2870000  48.8850000
 115.1310000   5.9730000  49.5340000 114.9680000   3.8720000  49.4050000
 113.8520000   3.8270000  49.2030000 115.3490000   3.1260000  48.7280000
 115.2560000   3.6400000  50.8960000 114.4530000   4.0950000  51.4690000
 115.1430000   2.6130000  51.1770000 116.6630000   4.0190000  51.3740000
 117.4120000   3.4700000  50.8030000 116.9000000   5.0610000  51.1910000
 116.8850000   3.5480000  52.8030000 116.0750000   3.8900000  53.4370000
 116.7970000   2.4650000  52.8060000 118.2720000   3.9270000  53.4010000
 118.9660000   3.2620000  52.9270000 118.5810000   4.8740000  53.0040000
 118.2690000   3.7730000  54.8630000 118.1470000   2.7350000  55.0910000
 119.3030000   3.7830000  55.2020000 117.4000000   4.6800000  55.7890000
 116.4250000   4.9620000  55.3910000 117.1140000   4.1220000  56.7470000
 118.2450000   5.8470000  56.3540000 119.1680000   5.6790000  57.1180000
 117.7450000   7.0570000  56.0720000 118.5380000   8.1820000  56.3130000
 117.9090000   8.9950000  56.0100000 118.8150000   8.2910000  57.3380000
 119.7880000   8.2850000  55.3080000 120.4040000   7.3800000  55.5090000
 120.7880000   9.4190000  55.8440000 121.3190000   8.9820000  56.6300000
 121.4750000   9.8160000  55.0240000 120.1210000  10.5480000  56.5270000
 119.5280000  11.8010000  55.6640000 118.0200000  11.9620000  56.2080000
 117.8310000  12.7860000  57.3640000 116.8260000  12.6040000  57.7700000
 118.5640000  12.3750000  58.1050000 117.9730000  14.2790000  57.0320000
 117.8950000  14.8660000  57.9410000 119.0390000  14.3860000  56.7210000
 117.1780000  14.9400000  55.9180000 117.2790000  14.2650000  54.5770000
 116.9240000  13.2360000  54.7080000 116.6250000  14.7120000  53.7980000
 118.2670000  14.1730000  54.2240000 115.7120000  14.8850000  56.2380000
 115.3730000  15.4730000  57.0830000 115.2470000  15.1290000  55.3280000
 115.4910000  13.8850000  56.4600000 117.7270000  16.2880000  55.5840000
 117.7580000  16.8660000  56.4800000 117.0450000  16.7920000  54.9640000
 118.7330000  16.2090000  55.1430000 120.3250000  13.0000000  55.9920000
 119.3380000  11.3670000  54.2670000 119.3820000   8.4350000  53.9910000
 120.2750000   8.1820000  53.0090000 121.4560000   8.2140000  53.2150000
 119.7260000   7.7820000  51.6510000 119.6460000   8.7380000  51.1110000
 118.7390000   7.3480000  51.8080000 120.5420000   6.7140000  50.9240000
 120.7480000   5.8940000  51.6080000 121.4130000   7.2400000  50.6070000
 119.7060000   6.0460000  49.7890000 119.5550000   6.6470000  48.9160000
 118.7160000   5.8600000  50.1350000 120.2440000   4.6400000  49.2070000
 120.3710000   3.8560000  50.0200000 121.2620000   4.6610000  48.9230000
 119.2650000   4.2130000  48.0230000 119.0960000   5.1120000  47.4010000
 118.2930000   3.8310000  48.4500000 119.8990000   3.1850000  47.1160000
 120.1360000   2.2810000  47.6610000 120.9070000   3.5570000  46.7920000
 118.7930000   2.8220000  46.0630000 118.4720000   3.6570000  45.4270000
 117.9360000   2.5930000  46.6720000 119.2040000   1.7210000  45.1990000
 119.4220000   0.7990000  45.8000000 119.7260000   1.8710000  43.9700000
 120.2030000   1.0060000  43.5200000 119.5980000   3.0760000  43.1310000
 120.4880000   3.6580000  43.2200000 118.7740000   3.6830000  43.4600000
 119.3590000   2.7730000  41.5960000 118.4740000   2.0680000  41.5520000
 120.2730000   2.3420000  41.1240000 118.7540000   3.8930000  40.7640000
 119.6510000   4.5530000  40.7320000 118.0090000   4.3850000  41.4250000
 118.3710000   3.6370000  39.2640000 119.1440000   3.1310000  38.6040000
 118.0530000   4.6560000  38.8610000 117.1160000   2.7790000  38.9840000
 116.1960000   3.3540000  39.3510000 117.1600000   1.8050000  39.4310000
 116.8600000   2.5920000  37.5060000 117.7310000   2.0370000  37.0500000
 116.7600000   3.5810000  37.1010000 115.5880000   1.7950000  37.3050000
 114.7690000   2.3360000  37.7250000 115.6410000   0.8840000  37.9670000
 115.3280000   1.4530000  35.8030000 115.0950000   2.2640000  35.1520000
 114.5330000   0.8560000  35.6970000 116.2550000   1.0560000  35.3830000
 113.6800000  39.0810000  33.9460000 113.6070000  39.7560000  33.0790000
 112.9390000  39.4690000  34.6480000 113.3330000  38.0930000  33.6140000
 115.0170000  39.0860000  34.6450000 115.6990000  38.4600000  33.9520000
 115.3970000  40.1460000  34.7270000 114.9190000  38.6200000  36.1140000
 114.1770000  39.0780000  36.7360000 114.5430000  37.5890000  36.0400000
 116.3630000  38.7600000  36.7230000 117.1220000  38.1980000  36.0860000
 116.6670000  39.8010000  36.5800000 116.4800000  38.5040000  38.1900000
 115.6910000  38.9980000  38.7610000 116.4140000  37.4190000  38.2850000
 117.8470000  38.9220000  38.5710000 118.6200000  38.4120000  38.0760000
 117.9900000  40.0210000  38.3450000 117.9540000  38.7570000  40.1180000
 117.3810000  39.4230000  40.7560000 117.5900000  37.7470000  40.3180000
 119.4750000  38.8570000  40.5090000 119.9850000  38.1220000  39.8700000
 119.8550000  39.8800000  40.2850000 119.6410000  38.5510000  42.0640000
 119.0270000  37.7050000  42.2620000 120.6200000  38.2380000  42.1500000
 119.3530000  39.7760000  42.9950000 118.3620000  40.1690000  42.7970000
 119.3140000  39.4170000  44.0140000 120.2440000  40.9690000  42.7300000
 120.2480000  41.2950000  41.7240000 119.7390000  41.7950000  43.1920000
 121.6430000  40.7070000  43.2800000 121.4640000  40.5720000  44.3850000
 121.9930000  39.7300000  42.9790000 122.7030000  41.7930000  43.0000000
 122.6650000  42.0240000  41.9330000 122.4830000  42.7020000  43.5630000
 124.0880000  41.3400000  43.3020000 124.4850000  40.4090000  42.8240000
 124.6580000  42.1890000  43.0360000 124.3510000  41.0100000  44.7790000
 123.7540000  40.1170000  45.1390000 125.3870000  40.5910000  44.9070000
 124.2530000  42.1860000  45.7230000 124.7460000  43.2700000  45.4410000
 123.7370000  41.8390000  46.9390000 123.4340000  42.9100000  47.9010000
 124.2710000  42.9410000  48.5660000 123.1770000  43.8730000  47.4770000
 122.2700000  42.3210000  48.8470000 122.0200000  43.1440000  49.5490000
 122.6190000  40.9930000  49.6110000 121.7840000  40.6930000  50.1950000
 122.8460000  40.3140000  48.8300000 123.7920000  41.2630000  50.5450000
 123.6160000  41.3380000  52.1660000 122.9490000  42.7720000  52.3250000
 121.6560000  43.0620000  53.0410000 121.6230000  42.4840000  53.9950000
 121.5870000  44.1310000  53.1410000 120.5450000  42.6730000  52.0990000
 120.7320000  43.2100000  51.1580000 120.6160000  41.5960000  51.9080000
 119.1990000  42.8450000  52.6380000 119.0080000  44.2850000  52.9730000
 119.6210000  44.5290000  53.8490000 119.3160000  44.8330000  52.1310000
 117.9400000  44.4980000  53.0980000 118.3000000  42.4130000  51.6780000
 117.2810000  42.3880000  52.0680000 118.3230000  43.0890000  50.8450000
 118.6160000  41.4190000  51.4550000 118.8590000  42.0790000  53.8790000
 117.7750000  42.1390000  54.1190000 119.4340000  42.5600000  54.5930000
 119.0880000  41.0050000  53.6440000 122.6570000  40.3630000  52.6330000
 124.9440000  41.4340000  52.8810000 121.1390000  42.0520000  47.9400000
 119.9390000  42.4480000  48.2590000 119.7030000  43.1820000  49.2100000
 118.9170000  42.0130000  47.2610000 118.6110000  40.9630000  47.4880000
 119.3640000  42.0590000  46.2680000 117.7000000  42.8720000  47.2380000
 117.9500000  43.8900000  46.8460000 117.2660000  43.0050000  48.2520000
 116.6280000  42.1800000  46.3470000 115.7330000  42.7410000  46.3790000
 116.4320000  41.1340000  46.7050000 116.9220000  42.2880000  44.8260000
 116.2530000  41.6770000  44.2090000 117.9660000  41.9450000  44.6940000
 116.8400000  43.7170000  44.1070000 117.4560000  44.4010000  44.7470000
 115.7840000  43.9900000  44.1920000 117.2100000  43.7250000  42.5850000
 118.2480000  43.4110000  42.4530000 117.2150000  44.7080000  42.1760000
 116.3320000  42.8430000  41.6310000 115.3430000  43.2900000  41.4750000
 116.1310000  41.8270000  41.9840000 117.1460000  42.6090000  40.3850000
 118.1980000  42.4180000  40.6220000 116.8130000  42.9400000  39.1200000
 117.5650000  42.9130000  38.2900000 115.3640000  43.2010000  38.6540000
 115.3580000  43.9290000  37.8140000 114.7950000  43.7080000  39.5340000
 114.7190000  41.8270000  38.1840000 114.9280000  41.0640000  38.9720000
 115.1840000  41.3800000  37.2720000 113.1870000  41.9580000  38.0100000
 112.9060000  42.4430000  38.9940000 112.7530000  40.9610000  37.8300000
 112.7980000  42.8940000  36.8370000 113.4000000  42.6250000  35.9500000
 112.9700000  43.9170000  37.1890000 111.3140000  42.6310000  36.5440000
 110.8060000  42.7360000  37.4780000 111.2730000  41.5890000  36.1840000
 110.6780000  43.5570000  35.5610000 111.1750000  43.4960000  34.5830000
 110.7220000  44.5530000  35.9510000 109.1970000  43.1950000  35.3920000
 108.5520000  43.3410000  36.2730000 109.1400000  42.1290000  35.0960000
 108.6440000  43.9360000  34.2390000 108.6350000  45.0240000  34.4320000
 107.6030000  43.5940000  34.0330000 109.2730000  43.7550000  33.3570000
 154.1800000  73.8550000  42.0140000 154.0610000  72.8870000  42.3730000
 155.1320000  73.9500000  41.6470000 153.2890000  74.0450000  41.2930000
 154.1860000  74.7840000  43.2020000 154.8020000  74.3280000  43.9580000
 154.7330000  75.6420000  42.8270000 152.7880000  75.3520000  43.6430000
 152.0200000  74.6130000  43.6350000 152.7950000  75.6080000  44.7200000
 152.3590000  76.4430000  42.7050000 153.2180000  77.1580000  42.6550000
 152.2060000  75.9120000  41.7700000 151.1160000  77.2660000  42.9970000
 151.0780000  78.1210000  42.2220000 150.2020000  76.6620000  42.7980000
 151.1020000  77.8760000  44.4050000 151.1380000  77.1280000  45.2330000
 151.9370000  78.5920000  44.4090000 149.8130000  78.7350000  44.6340000
 149.8260000  79.5330000  43.9580000 148.8680000  78.1910000  44.4380000
 149.6500000  79.3070000  46.0840000 149.4920000  78.4600000  46.7850000
 150.5380000  79.8450000  46.3890000 148.3490000  80.2570000  46.1650000
 148.6200000  81.1840000  45.5560000 147.4570000  79.9070000  45.6260000
 147.9960000  80.7510000  47.5620000 148.9750000  81.1160000  48.0710000
 147.4620000  81.6700000  47.5480000 147.3320000  79.7290000  48.4840000
 147.8130000  78.7370000  48.2900000 147.5770000  80.0950000  49.4650000
 145.8080000  79.4880000  48.2870000 145.3490000  80.5050000  48.3410000
 145.5470000  79.0410000  47.3110000 145.2480000  78.4990000  49.3270000
 145.8080000  77.5340000  49.3260000 145.3210000  78.9500000  50.2680000
 143.7460000  78.1040000  49.0560000 143.5820000  77.7370000  48.0220000
 143.6200000  77.2350000  49.6910000 142.7230000  79.1870000  49.1980000
 143.0730000  80.1460000  48.8570000 141.8200000  78.8170000  48.6510000
 142.3950000  79.4370000  50.6790000 141.7430000  78.6580000  51.3110000
 142.9330000  80.5690000  51.1450000 142.4880000  81.0400000  52.4700000
 142.7680000  82.0680000  52.6510000 141.4370000  80.9010000  52.5770000
 143.1700000  80.2470000  53.5420000 142.6240000  79.3640000  53.6700000
 143.1840000  80.9190000  54.9430000 142.1770000  80.7810000  55.4290000
 143.9400000  80.4980000  55.5480000 143.3140000  82.4180000  54.9220000
 144.6830000  83.2020000  54.8400000 145.0210000  83.0360000  53.3400000
 146.3310000  82.6420000  52.9400000 147.0990000  82.7800000  53.7200000
 146.2930000  81.6780000  52.7070000 146.7290000  83.3870000  51.6590000
 147.8130000  83.0940000  51.4940000 146.0680000  83.0360000  50.8540000
 146.5490000  84.9220000  51.6610000 145.2160000  85.4880000  51.5260000
 145.1630000  86.5770000  51.4850000 144.9130000  85.0140000  50.6240000
 144.5770000  84.9870000  52.2250000 147.1260000  85.4880000  52.9800000
 147.1850000  86.5530000  52.8170000 146.5510000  85.3520000  53.9050000
 148.1760000  85.1410000  53.1550000 147.5340000  85.4470000  50.6410000
 147.3940000  84.8780000  49.7120000 148.4790000  85.2940000  51.0980000
 147.2550000  86.4630000  50.5410000 144.5270000  84.6320000  55.1440000
 145.6500000  82.3870000  55.6210000 144.5800000  79.8870000  53.2910000
 144.9520000  78.6510000  53.0500000 144.2460000  77.6720000  52.8580000
 146.5190000  78.6120000  52.9940000 146.7860000  79.3040000  52.1860000
 146.8790000  77.6400000  52.8440000 147.0620000  79.1610000  54.3700000
 146.5530000  78.5380000  55.1120000 146.7370000  80.1820000  54.5690000
 148.5170000  79.1450000  54.6030000 148.8420000  78.1040000  54.7490000
 148.6880000  79.8120000  55.4520000 149.3370000  79.8140000  53.4740000
 150.1960000  80.3260000  53.9340000 148.6610000  80.5530000  53.0770000
 149.8190000  78.8260000  52.3850000 148.8900000  78.4670000  51.9900000
 150.4540000  78.0170000  52.6230000 150.6200000  79.6410000  51.3160000
 151.6060000  79.9650000  51.6060000 149.9670000  80.5060000  51.1410000
 150.9590000  78.8280000  50.0550000 151.5220000  79.5110000  49.4100000
 150.0590000  78.5040000  49.5300000 151.7910000  77.5930000  50.4010000
 152.8090000  77.8770000  50.7080000 151.3260000  76.3800000  50.5800000
 152.0120000  75.5890000  50.9910000 149.8580000  75.9140000  50.3660000
 149.2270000  76.8240000  50.2380000 149.5240000  75.2400000  51.1600000
 149.8210000  75.1740000  49.0560000 150.4410000  74.3200000  49.0790000
 150.2230000  75.8170000  48.2990000 148.3980000  74.7060000  48.8410000
 147.6290000  75.4860000  48.8540000 148.1220000  74.0250000  49.6740000
 148.2140000  73.9400000  47.5110000 147.4190000  73.1790000  47.6370000
 149.0820000  73.3350000  47.3840000 147.9880000  74.7660000  46.3200000
 148.1860000  74.1510000  45.4200000 148.7710000  75.6130000  46.3510000
 146.6030000  75.4090000  46.2610000 146.5680000  76.3850000  46.8870000
 145.8960000  74.6200000  46.6460000 146.0360000  75.8430000  44.8650000
 146.1330000  75.0880000  44.0700000 146.5520000  76.6640000  44.4480000
 144.5890000  76.2270000  45.0720000 144.1080000  75.3780000  45.5020000
 144.1400000  76.3690000  44.1170000 144.5400000  77.1240000  45.6950000
  41.0650000 104.5470000  39.5260000  41.9090000 104.3940000  38.8390000
  40.3230000 105.2540000  39.1440000  40.5020000 103.6230000  39.5490000
  41.4890000 104.9500000  40.9430000  41.9360000 104.0970000  41.4930000
  42.3320000 105.6950000  40.8870000  40.2690000 105.4980000  41.6500000
  39.7520000 106.1710000  41.0350000  39.7440000 104.5910000  41.8180000
  40.6800000 106.2930000  42.9590000  41.1980000 105.5710000  43.6500000
  41.4310000 106.9650000  42.7210000  39.5660000 106.9840000  43.7830000
  38.8540000 107.5580000  43.1250000  38.9740000 106.1210000  44.0690000
  39.9360000 107.7120000  45.0970000  40.7000000 107.1220000  45.5890000
  40.5470000 108.6130000  44.7610000  38.7100000 108.0740000  45.9830000
  38.0170000 108.6790000  45.4070000  38.2510000 107.1390000  46.2960000
  39.2210000 108.8280000  47.2580000  39.6420000 109.7620000  46.9750000
  38.3250000 109.1380000  47.8760000  40.2150000 108.0930000  48.1040000
  39.9210000 107.0290000  48.1050000  41.1780000 108.1170000  47.7120000
  40.3710000 108.7260000  49.5050000  39.4100000 108.7950000  49.9060000
  40.9680000 108.0350000  50.1600000  40.9780000 110.1560000  49.5950000
  41.8270000 110.2580000  48.9300000  40.2200000 110.9100000  49.2800000
  41.3580000 110.6040000  51.0280000  40.4960000 110.6210000  51.6760000
  42.0670000 109.8590000  51.3390000  42.0160000 112.0460000  51.0240000
  41.1680000 112.8270000  50.9730000  42.4710000 112.1210000  52.0200000
  43.1760000 112.3140000  49.9940000  42.7810000 112.4880000  49.0030000
  43.5770000 113.2490000  50.2820000  44.4690000 111.4350000  49.9590000
  44.2110000 110.3690000  49.7240000  45.2220000 111.7380000  49.2400000
  45.1270000 111.5370000  51.2920000  45.9690000 112.3950000  51.6090000
  44.6260000 110.5870000  52.1530000  45.0910000 110.4620000  53.4570000
  45.0910000 109.4460000  53.8440000  46.1260000 110.7300000  53.3550000
  44.4760000 111.4090000  54.5560000  45.1480000 111.6720000  55.3480000
  43.2300000 110.8940000  55.3830000  43.6260000 109.9940000  55.9470000
  42.9030000 111.6620000  56.1570000  42.1930000 110.4400000  54.5340000
  41.1380000 109.2710000  54.9680000  40.3030000 109.8500000  56.1940000
  39.1520000 110.6660000  55.8250000  38.8610000 111.2750000  56.7060000
  39.3380000 111.2870000  54.9740000  37.9700000 109.6830000  55.4150000
  38.3190000 109.0940000  54.5850000  37.6830000 109.0790000  56.3150000
  36.7690000 110.2950000  54.7700000  35.9790000 109.0940000  54.2610000
  36.5130000 108.8140000  53.3010000  35.9250000 108.3140000  55.0300000
  34.9170000 109.3510000  53.9560000  35.9390000 110.9390000  55.7710000
  35.0980000 111.3470000  55.1550000  35.5560000 110.1590000  56.4170000
  36.4710000 111.7940000  56.1870000  37.0650000 111.3180000  53.6920000
  37.6000000 110.8560000  52.8930000  37.4610000 112.2130000  54.0780000
  36.0750000 111.4930000  53.3260000  40.2300000 109.0140000  53.8400000
  41.9150000 108.1760000  55.5260000  44.0470000 112.6580000  53.9100000
  44.8830000 113.6730000  53.9430000  45.9110000 113.7060000  54.6140000
  44.3340000 114.8140000  53.0940000  43.7770000 115.4780000  53.8020000
  43.5160000 114.4020000  52.4720000  45.4400000 115.6230000  52.3510000
  45.8580000 114.8700000  51.6690000  46.2050000 115.9380000  53.0780000
  44.9030000 116.8460000  51.6100000  45.6390000 117.0660000  50.8560000
  44.7290000 117.5740000  52.2890000  43.5420000 116.7390000  50.7900000
  42.7440000 116.3400000  51.3970000  43.7320000 115.9690000  50.0220000
  43.0770000 118.1090000  50.2740000  42.9780000 118.8400000  51.1020000
  42.0590000 118.0820000  49.9110000  43.9810000 118.6840000  49.1930000
  44.9710000 119.0090000  49.6060000  43.5670000 119.6380000  48.8460000
  44.2210000 117.9970000  47.8580000  43.2040000 117.8100000  47.4960000
  44.6430000 117.0560000  47.9890000  44.9370000 118.9120000  46.9330000
  45.4980000 119.6330000  47.5040000  44.7990000 119.1250000  45.6360000
  45.3630000 119.8830000  45.1550000  43.9790000 118.2380000  44.6810000
  43.0580000 118.7800000  44.4020000  43.7430000 117.2810000  45.0900000
  44.8190000 117.9370000  43.4450000  45.7740000 117.6240000  43.7890000
  45.0770000 118.9010000  43.0000000  44.2130000 116.9540000  42.3560000
  43.7760000 116.0710000  42.8700000  45.0190000 116.7000000  41.6710000
  43.1700000 117.5460000  41.4170000  43.8120000 118.1420000  40.7400000
  42.4080000 118.1910000  41.9710000  42.4200000 116.4960000  40.5840000
  43.1010000 115.7570000  40.0870000  41.9180000 117.0010000  39.8820000
  41.3640000 115.7660000  41.5090000  40.7910000 116.6070000  41.8260000
  41.8210000 115.3050000  42.4460000  40.4200000 114.8380000  40.7700000
  40.2000000 115.2730000  39.8290000  39.4050000 114.9430000  41.2290000
  40.8630000 113.4150000  40.7370000  40.7890000 113.1010000  41.8020000
  41.8440000 113.3700000  40.3350000  40.1160000 112.7900000  40.2940000
 154.5860000  54.0420000  36.7900000 155.1450000  53.4820000  36.0780000
 155.2230000  54.1410000  37.6770000 154.4130000  55.0600000  36.3920000
 153.1980000  53.4080000  37.1520000 152.7110000  54.0340000  37.8450000
 152.5350000  53.4740000  36.3000000 153.4110000  51.9390000  37.7310000
 153.7270000  51.2460000  36.9490000 154.2350000  51.9960000  38.4460000
 152.2420000  51.4070000  38.4730000 152.0760000  52.1330000  39.2510000
 151.4410000  51.3600000  37.7260000 152.4230000  49.9920000  39.0420000
 152.5010000  49.2820000  38.2330000 153.4030000  50.0050000  39.5880000
 151.2550000  49.5350000  39.9710000 150.3170000  49.5880000  39.4280000
 151.3270000  48.4890000  40.2550000 151.2430000  50.3590000  41.2830000
 152.3100000  50.4890000  41.6460000 150.8870000  51.3570000  40.9520000
 150.3630000  49.7760000  42.3650000 149.3740000  49.5190000  41.9800000
 150.8350000  48.8410000  42.6840000 150.2690000  50.7510000  43.5620000
 151.2880000  50.7900000  44.0470000 149.8880000  51.6650000  43.1510000
 149.1940000  50.2410000  44.6400000 148.2380000  50.4240000  44.1750000
 149.3730000  49.1550000  44.7920000 149.2520000  51.0460000  45.9250000
 149.2880000  52.0630000  45.6970000 148.3040000  50.9650000  46.5460000
 150.5280000  50.6390000  46.6950000 150.6410000  49.5870000  46.6990000
 151.4770000  51.0150000  46.1740000 150.5550000  51.0870000  48.1390000
 150.3040000  52.1500000  48.1520000 149.8700000  50.5940000  48.7740000
 151.8880000  50.9870000  48.8030000 152.6970000  51.4760000  48.1490000
 151.8810000  51.6360000  49.6680000 152.4410000  49.6390000  49.2120000
 152.4970000  49.0450000  48.2860000 153.4240000  49.7400000  49.6790000
 151.5330000  48.8400000  50.1440000 151.0060000  49.2980000  51.1120000
 151.3270000  47.5480000  49.6590000 150.4840000  46.6960000  50.5250000
 150.4780000  45.6930000  50.1180000 150.8410000  46.7560000  51.5610000
 148.9900000  47.1070000  50.3890000 148.8790000  48.1540000  50.7360000
 148.0370000  46.1930000  51.2150000 148.2660000  45.1340000  51.0240000
 148.0820000  46.4220000  52.3130000 146.6860000  46.2630000  50.7720000
 145.6620000  47.1300000  51.6520000 145.2940000  46.0600000  52.8080000
 143.9570000  45.6830000  53.2090000 144.0430000  44.9520000  54.0770000
 143.3740000  46.5770000  53.4950000 143.1380000  45.0240000  52.0890000
 142.0900000  44.9060000  52.4130000 142.9910000  45.6700000  51.2600000
 143.7150000  43.7610000  51.4830000 144.5840000  43.9910000  50.2940000
 145.5230000  44.3670000  50.6080000 144.8270000  42.9980000  49.9230000
 144.1900000  44.6400000  49.4850000 144.4220000  42.9230000  52.4700000
 145.2720000  43.4570000  52.8900000 143.7630000  42.5540000  53.2500000
 144.9140000  42.0550000  51.9530000 142.5840000  42.9260000  50.9590000
 141.9630000  43.4670000  50.2070000 141.9630000  42.6810000  51.8650000
 143.0160000  42.0090000  50.5840000 146.3200000  48.2680000  52.3510000
 144.4920000  47.3060000  50.7920000 148.7240000  46.8780000  48.9660000
 147.8670000  47.7880000  48.5090000 147.8800000  48.9590000  48.7390000
 146.7880000  47.0670000  47.7930000 145.9210000  47.0510000  48.4220000
 146.9810000  45.9940000  47.6240000 146.5800000  47.6130000  46.3770000
 147.4470000  47.2780000  45.7600000 146.5530000  48.6720000  46.4980000
 145.3280000  47.1290000  45.5860000 144.3810000  47.4790000  46.1620000
 145.3300000  46.0440000  45.5940000 145.3880000  47.7600000  44.2030000
 146.2560000  47.2890000  43.6920000 145.5370000  48.8230000  44.2340000
 144.0970000  47.4650000  43.4340000 143.2980000  48.0140000  43.9690000
 143.7640000  46.4370000  43.5050000 144.0430000  47.9990000  41.9530000
 144.0150000  49.1020000  41.9750000 143.1220000  47.6060000  41.4870000
 145.1680000  47.5140000  41.1200000 145.3320000  46.4240000  41.2600000
 146.0000000  47.9960000  41.5430000 144.7750000  48.0510000  39.7050000
 143.8200000  47.6510000  39.4230000 145.5630000  48.7600000  38.9130000
 145.4310000  48.9080000  37.7920000 146.9330000  49.2860000  39.3100000
 147.6540000  48.5570000  38.9390000 147.0440000  49.3830000  40.4040000
 147.2970000  50.6920000  38.6440000 148.1220000  51.2240000  39.1380000
 146.4350000  51.3810000  38.8570000 147.6240000  50.5190000  37.1400000
 146.7780000  50.2970000  36.5310000 148.3890000  49.7710000  37.0960000
 148.2830000  51.8270000  36.5530000 148.9840000  52.1430000  37.2980000
 147.5750000  52.6550000  36.3980000 149.1020000  51.6790000  35.3150000
 149.4360000  50.6550000  35.2490000 149.9000000  52.4330000  35.3090000
 148.3120000  51.8720000  34.0390000 147.8900000  52.8430000  34.0070000
 147.6320000  51.0160000  34.0350000 149.2690000  51.7470000  32.7990000
 149.9620000  52.5790000  32.7710000 148.6740000  51.7390000  31.8830000
 150.1630000  50.4580000  32.8420000 151.0100000  50.7250000  33.3950000
 150.3820000  50.1970000  31.8270000 149.7160000  49.6020000  33.3690000
  98.3870000  17.4130000  38.8510000  99.4950000  17.3440000  38.8040000
  98.1870000  18.4000000  39.2510000  98.0130000  17.2310000  37.8710000
  97.8550000  16.3910000  39.8730000  98.3860000  15.4090000  39.6520000
  98.0630000  16.6670000  40.8550000  96.3720000  16.0630000  39.6560000
  95.6840000  16.8860000  39.3780000  96.1720000  15.3850000  38.9000000
  95.8190000  15.3570000  40.9230000  94.9450000  14.7960000  40.6780000
  96.5870000  14.6850000  41.2840000  95.5580000  16.4330000  42.0610000
  96.5420000  16.8740000  42.4290000  94.9680000  17.2880000  41.6840000
  94.8200000  15.8130000  43.3040000  93.8740000  15.4090000  43.0550000
  95.5010000  14.9900000  43.5280000  94.6420000  16.7710000  44.4640000
  93.9080000  17.5200000  44.0440000  94.2000000  16.1720000  45.2640000
  95.8540000  17.5220000  45.0350000  96.4950000  17.8950000  44.2300000
  95.5930000  18.3590000  45.6970000  96.7370000  16.6970000  45.9610000
  96.1260000  16.2460000  46.7280000  97.1120000  15.7740000  45.5310000
  98.0430000  17.4310000  46.5500000  97.7500000  18.3510000  47.1090000
  98.5880000  16.7720000  47.1830000  98.9490000  17.9600000  45.4590000
  98.4610000  18.4820000  44.7150000  99.7480000  18.6050000  45.9000000
  99.8220000  16.8710000  44.7940000 100.1530000  16.2970000  45.6540000
  99.1890000  16.2240000  44.1650000 101.0330000  17.3150000  43.9480000
 100.7040000  17.8930000  43.1090000 101.6560000  17.9400000  44.5100000
 101.8490000  16.2010000  43.3740000 101.1690000  15.7040000  42.7180000
 102.7630000  16.6140000  42.8770000 102.4810000  15.2350000  44.4160000
 101.8020000  14.5430000  44.9140000 103.0450000  14.4680000  43.8360000
 103.5360000  15.8890000  45.3280000 104.5570000  16.4130000  44.9000000
 103.1290000  15.8690000  46.5990000 103.8770000  16.7560000  47.5670000
 103.9010000  16.2820000  48.5490000 104.9530000  16.8850000  47.1860000
 103.1950000  18.1950000  47.6150000 103.7240000  18.9520000  48.2290000
 101.8090000  18.0700000  48.2950000 101.0920000  18.2580000  47.5320000
 101.5250000  17.0650000  48.6310000 101.5080000  19.0840000  49.2730000
 102.3240000  19.1690000  50.7040000 101.5400000  18.0830000  51.6090000
 101.0270000  18.4830000  52.9340000 100.8170000  17.6530000  53.5860000
 101.8590000  19.0250000  53.4490000  99.6950000  19.3680000  52.6950000
  99.4780000  20.0230000  53.6180000  99.8250000  20.1650000  51.9990000
  98.4240000  18.7960000  52.1680000  97.3360000  19.7620000  52.2020000
  96.4190000  19.2380000  51.8450000  97.2170000  19.9960000  53.3010000
  97.5900000  20.6060000  51.6420000  98.6760000  18.1190000  50.8400000
  97.7430000  17.9490000  50.3600000  99.3430000  18.6680000  50.1630000
  99.2300000  17.2320000  51.1110000  97.9870000  17.6370000  52.9720000
  97.0950000  17.2300000  52.5390000  97.7810000  17.9520000  53.9280000
  98.7960000  16.8640000  52.9540000 103.6830000  18.7440000  50.5280000
 102.0940000  20.5310000  51.2690000 103.0300000  18.8010000  46.3330000
 104.1010000  19.5010000  45.8560000 104.8890000  20.1010000  46.5230000
 104.2400000  19.5740000  44.3430000 103.7440000  20.4820000  43.9620000
 103.9110000  18.6640000  43.8580000 105.6880000  19.6380000  43.8610000
 106.1310000  18.6560000  44.0330000 106.2070000  20.2740000  44.5530000
 105.9590000  20.0710000  42.4220000 107.0020000  20.3770000  42.2650000
 105.4310000  20.9960000  42.1320000 105.4070000  19.0560000  41.4390000
 105.0380000  19.5660000  40.5600000 104.4970000  18.6570000  41.9120000
 106.4140000  17.9390000  41.2070000 106.5880000  17.4200000  42.1430000
 107.3400000  18.4210000  40.9660000 106.0840000  16.8360000  40.1140000
 106.9190000  16.1990000  39.7580000 105.6620000  17.2640000  39.1710000
 105.1530000  15.7690000  40.7060000 104.2140000  16.1940000  41.1050000
 105.6520000  15.2800000  41.5220000 104.9400000  14.6510000  39.7050000
 105.6170000  13.8160000  39.8060000 104.3350000  14.8270000  38.4980000
 104.2470000  14.0090000  37.7280000 103.4890000  16.0680000  38.1820000
 103.9210000  16.5270000  37.2710000 103.6420000  16.7690000  38.9240000
 102.0210000  15.7900000  37.8210000 101.4000000  16.6200000  37.8310000
 101.7050000  15.0950000  38.5870000 101.8850000  14.9800000  36.5120000
 101.9600000  13.9540000  36.8080000 102.7680000  15.0180000  35.8250000
 100.5070000  15.1530000  35.7630000 100.4360000  16.2270000  35.5290000
  99.6830000  14.9290000  36.3970000 100.3540000  14.3020000  34.4760000
  99.9880000  13.3170000  34.7380000 101.3950000  14.2670000  34.0530000
  99.4230000  14.8340000  33.3480000  99.5660000  14.3230000  32.3890000
  99.7110000  15.8030000  32.9660000  97.9340000  14.8640000  33.8390000
  97.7350000  13.9930000  34.4720000  97.2610000  14.6160000  33.0710000
  97.4930000  16.2040000  34.4370000  98.0650000  16.2600000  35.3810000
  96.4610000  16.0940000  34.7190000  97.6530000  17.0600000  33.7750000
  16.3580000 106.8320000  37.7540000  16.4920000 107.9420000  37.9410000
  15.2880000 106.6790000  38.0010000  16.4760000 106.6900000  36.6950000
  17.2470000 105.9230000  38.5860000  17.0480000 106.0910000  39.6460000
  17.1200000 104.8520000  38.3170000  18.7380000 106.3980000  38.4100000
  19.3890000 105.6370000  38.7880000  19.0470000 106.4870000  37.3700000
  19.1520000 107.7130000  39.1570000  18.7820000 107.5810000  40.1680000
  20.2430000 107.5720000  39.1890000  18.8720000 109.0540000  38.4540000
  19.1120000 108.9890000  37.4100000  17.8670000 109.2850000  38.6380000
  19.6740000 110.1860000  39.1310000  19.2590000 110.2230000  40.1130000
  20.7700000 109.9110000  39.0850000  19.3340000 111.5850000  38.4190000
  19.5180000 111.5580000  37.3570000  18.2570000 111.9500000  38.5930000
  20.3590000 112.5580000  38.8690000  21.3670000 112.3660000  38.4980000
  20.2060000 113.5380000  38.4190000  20.4240000 112.9450000  40.3530000
  19.3820000 112.9780000  40.6990000  20.8810000 112.0860000  40.8820000
  21.0980000 114.2750000  40.6910000  22.0940000 114.2040000  40.2420000
  20.6340000 115.0830000  40.1340000  21.0540000 114.5960000  42.1890000
  21.7600000 114.0920000  42.7670000  21.2980000 115.6740000  42.1860000
  19.7050000 114.4380000  42.9640000  18.8710000 114.7490000  42.4010000
  19.5520000 113.3860000  43.1650000  19.7020000 115.2140000  44.2990000
  19.9830000 116.2050000  43.9830000  18.7280000 115.3900000  44.7710000
  20.6760000 114.8340000  45.3870000  21.6470000 114.8170000  44.8770000
  20.7770000 115.6260000  46.0960000  20.4090000 113.5080000  46.1220000
  19.4850000 113.6340000  46.7430000  20.0840000 112.8650000  45.3000000
  21.5240000 112.8810000  46.8740000  22.1760000 112.0420000  46.3260000
  21.7920000 113.3530000  48.0740000  22.5640000 112.6620000  49.0590000
  22.1820000 112.8030000  50.1030000  22.5090000 111.5880000  48.8050000
  24.0710000 112.9610000  49.0530000  24.3790000 112.5970000  48.1070000
  24.8250000 112.2640000  50.1180000  24.6030000 111.2480000  49.6620000
  25.8310000 112.5500000  50.1490000  24.2430000 112.3210000  51.4660000
  24.5420000 113.5300000  52.4670000  23.3420000 114.4600000  52.1300000
  22.0160000 114.0480000  52.5430000  21.7570000 113.0720000  52.0500000
  22.0820000 113.8490000  53.6840000  20.9840000 115.2580000  52.3430000
  20.0710000 115.0420000  52.8320000  21.4140000 116.1830000  52.7750000
  20.5200000 115.6630000  51.0120000  19.5510000 116.7930000  51.1860000
  18.5350000 116.5650000  51.5120000  19.9670000 117.4210000  51.9680000
  19.5910000 117.2880000  50.2600000  21.5630000 116.0680000  50.1050000
  21.3040000 115.8170000  49.1250000  21.7700000 117.1050000  50.3140000
  22.4040000 115.4740000  50.3990000  19.7860000 114.5340000  50.3600000
  20.5610000 113.9240000  49.9640000  19.1770000 114.9220000  49.5740000
  19.1400000 113.9080000  51.0050000  24.4420000 113.1450000  53.8680000
  25.7730000 114.2720000  52.0670000  24.1930000 114.4280000  49.1550000
  25.3740000 115.0380000  49.0210000  26.4070000 114.4410000  48.8280000
  25.1790000 116.5440000  49.0220000  25.4720000 117.0010000  49.9540000
  24.0850000 116.7180000  48.9850000  25.9980000 117.2480000  47.9430000
  27.0910000 117.0160000  48.0040000  26.0310000 118.2980000  48.1640000
  25.5370000 116.9520000  46.5440000  24.5040000 117.0550000  46.4000000
  25.6620000 115.8960000  46.4660000  26.3070000 117.5580000  45.3130000
  27.2330000 117.0460000  45.2930000  26.5160000 118.6010000  45.4770000
  25.5960000 117.3710000  43.9590000  24.6300000 117.8590000  43.9850000
  25.3230000 116.3710000  43.9160000  26.3380000 117.8100000  42.6980000
  27.1310000 117.1380000  42.7790000  26.8070000 118.7520000  42.7080000
  25.5160000 117.6510000  41.3860000  24.7880000 118.4450000  41.4630000
  25.0130000 116.6870000  41.3320000  26.4090000 117.9490000  40.1830000
  27.4610000 117.9820000  40.3630000  25.9620000 118.4860000  39.0320000
  26.6540000 118.6570000  38.2320000  24.5200000 118.6780000  38.6930000
  23.9530000 119.3700000  39.3310000  23.9690000 117.7590000  38.7460000
  24.3620000 119.0870000  37.2240000  24.7210000 118.2740000  36.4940000
  24.9940000 120.0040000  37.1670000  22.8860000 119.4200000  36.8080000
  22.5340000 120.0050000  37.6490000  22.3510000 118.4960000  36.8890000
  22.6330000 119.9890000  35.3850000  21.5640000 119.9290000  35.4150000
  23.0550000 119.2960000  34.6390000  23.1550000 121.4700000  35.0630000
  24.2430000 121.3350000  34.9640000  23.0000000 122.0870000  36.0050000
  22.5140000 122.1100000  33.7840000  22.6870000 121.3330000  32.9940000
  22.9410000 123.1150000  33.6120000  21.0150000 122.3940000  33.7880000
  20.7350000 123.0360000  34.6640000  20.5920000 121.4120000  34.0010000
  20.5120000 123.0950000  32.4990000  20.5110000 122.5070000  31.6450000
  20.8840000 124.1440000  32.3490000  19.5010000 123.2830000  32.6410000
  29.9200000  44.9870000  41.2630000  30.0630000  46.0010000  40.8380000
  29.8180000  45.1070000  42.3690000  28.9810000  44.5910000  40.9250000
  31.1240000  44.0660000  40.9400000  30.7510000  43.1370000  41.2000000
  31.2220000  44.0040000  39.7840000  32.4210000  44.4800000  41.6460000
  32.7700000  45.4150000  41.2470000  32.1850000  44.5420000  42.7110000
  33.5140000  43.4550000  41.4630000  33.0110000  42.4860000  41.3620000
  33.9450000  43.6500000  40.4950000  34.6560000  43.2850000  42.5470000
  35.6100000  42.9670000  42.0990000  34.7610000  44.2290000  43.1480000
  34.2900000  42.2220000  43.6180000  33.3730000  42.4530000  44.1430000
  34.1360000  41.3970000  43.0090000  35.4170000  41.9210000  44.6170000
  35.7420000  42.8400000  45.0960000  35.0030000  41.3490000  45.4550000
  36.5920000  41.0310000  44.2100000  37.0450000  41.3250000  43.2350000
  37.3480000  40.9020000  45.0300000  35.9480000  39.5960000  43.9620000
  35.2930000  39.3270000  44.8330000  35.2660000  39.5610000  43.1420000
  36.9960000  38.5140000  43.8230000  37.7740000  38.8690000  43.1180000
  37.6110000  38.3600000  44.6880000  36.4920000  37.0870000  43.5110000
  36.2850000  36.9760000  42.4660000  37.3250000  36.3920000  43.7820000
  35.2480000  36.5520000  44.2900000  34.4770000  37.3300000  44.2050000
  34.7820000  35.7350000  43.7260000  35.5480000  36.1820000  45.7340000
  35.9870000  35.1610000  45.7170000  36.3240000  36.8920000  46.1090000
  34.3000000  36.1560000  46.6160000  33.4590000  35.4410000  46.3250000
  34.6460000  35.7650000  47.6590000  33.8200000  37.5650000  46.9240000
  33.7180000  38.1490000  46.0420000  32.8290000  37.5580000  47.4180000
  34.6640000  38.4300000  47.8780000  34.2480000  38.5860000  48.9950000
  35.7090000  39.0930000  47.3170000  36.2270000  40.0990000  48.2030000
  36.8070000  40.7890000  47.6560000  35.3870000  40.6850000  48.6810000
  37.1230000  39.4860000  49.2680000  36.4810000  38.8620000  49.8670000
  37.5570000  40.6070000  50.2600000  38.4580000  40.3670000  50.9210000
  37.7800000  41.4800000  49.6780000  36.4380000  40.8600000  51.2000000
  36.5990000  40.2520000  52.6220000  36.3780000  38.6640000  52.3820000
  35.0480000  38.1310000  52.4310000  34.2640000  38.8480000  52.5310000
  34.8040000  37.6920000  51.5280000  35.0890000  36.9990000  53.4850000
  34.1840000  36.4260000  53.3290000  35.9150000  36.3280000  53.2360000
  35.2860000  37.3530000  54.9370000  34.7990000  36.1810000  55.7620000
  35.4340000  35.2610000  55.5810000  34.9010000  36.5200000  56.8450000
  33.7170000  35.9310000  55.5420000  36.6970000  37.5490000  55.2500000
  36.7460000  37.7980000  56.2890000  37.1820000  36.6670000  54.9500000
  37.1760000  38.3620000  54.7680000  34.5130000  38.5180000  55.4060000
  35.0580000  39.5430000  55.2820000  34.1020000  38.3490000  56.3540000
  33.6260000  38.4210000  54.8330000  37.9150000  40.4310000  53.1130000
  35.5440000  40.8330000  53.4420000  38.3600000  38.9490000  48.7010000
  38.5430000  37.6440000  48.7630000  37.7450000  36.9000000  49.2910000
  39.8980000  37.2470000  48.1210000  40.3900000  36.4820000  48.7000000
  40.5760000  38.0850000  48.0150000  39.7700000  36.6580000  46.7040000
  39.4580000  37.4550000  45.9980000  38.9290000  35.9790000  46.7300000
  40.9840000  35.8220000  46.2480000  40.7690000  35.4350000  45.3090000
  41.2090000  34.9730000  46.9290000  42.2510000  36.5730000  45.8830000
  42.7380000  36.9260000  46.7500000  41.9740000  37.3480000  45.2230000
  43.2970000  35.7000000  45.2240000  43.6980000  34.8470000  45.7360000
  44.1770000  36.3240000  45.0670000  42.9030000  35.2690000  43.8100000
  42.1440000  34.4640000  43.9530000  43.7190000  34.7890000  43.3450000
  42.2900000  36.1500000  42.7120000  42.6500000  35.6180000  41.8210000
  42.6710000  37.1500000  42.6330000  40.7820000  36.1850000  42.7530000
  40.4650000  36.8260000  43.5410000  39.9290000  35.6580000  41.8850000
  38.8040000  35.6730000  42.0180000  40.3140000  34.7320000  40.7430000
  39.4970000  34.0260000  40.5870000  41.2060000  34.1730000  40.9790000
  40.6230000  35.3950000  39.3800000  40.8710000  34.5360000  38.7480000
  41.4840000  36.0580000  39.3810000  39.3570000  36.0770000  38.8180000
  39.0490000  36.8390000  39.5350000  38.5630000  35.2980000  38.7270000
  39.3750000  36.9750000  37.5620000  40.0280000  37.8640000  37.6970000
  38.3520000  37.3630000  37.2380000  39.8610000  36.1410000  36.3310000
  39.0860000  35.3670000  36.1160000  40.7680000  35.6390000  36.5710000
  40.1150000  37.2180000  35.1870000  41.0030000  37.8510000  35.5100000
  39.2610000  37.8350000  34.9200000  40.3400000  36.6080000  33.7220000
  39.4950000  35.9960000  33.3860000  41.2470000  36.0590000  33.7810000
  40.5400000  37.7760000  32.6520000  39.6240000  38.4690000  32.5690000
  40.5360000  37.0830000  31.7940000  41.5010000  38.3150000  32.8730000
 102.4830000  11.1410000  35.2120000 101.5940000  10.7330000  35.6350000
 102.9450000  10.3860000  34.6020000 102.3300000  12.1100000  34.6370000
 103.3630000  11.2690000  36.4580000 104.3350000  11.6640000  36.1780000
 102.8930000  12.0660000  37.0400000 103.4370000   9.9240000  37.2750000
 102.4570000   9.6120000  37.6230000 103.8190000   9.1770000  36.6060000
 104.4400000   9.9350000  38.5030000 104.5600000   8.8940000  38.9150000
 105.3330000  10.4130000  38.2610000 103.8700000  10.6820000  39.7130000
 103.9330000  11.6940000  39.5530000 102.8040000  10.2710000  39.6800000
 104.4590000  10.4370000  41.1370000 103.9370000  10.9730000  41.9220000
 104.2230000   9.4070000  41.4360000 105.9680000  10.6110000  41.1680000
 106.4050000  10.0790000  40.2900000 106.2020000  11.6750000  41.1110000
 106.4890000  10.1900000  42.5540000 106.1140000   9.2310000  42.7640000
 107.6440000  10.0920000  42.4560000 106.0390000  11.1870000  43.6190000
 106.4790000  12.1210000  43.3010000 104.8470000  11.1990000  43.7050000
 106.5590000  10.8280000  45.0300000 107.6440000  10.6510000  44.7770000
 106.5060000  11.6710000  45.7580000 106.1030000   9.5290000  45.6830000
 106.1550000   8.7550000  44.8980000 106.9210000   9.1700000  46.3510000
 104.7210000   9.5570000  46.3100000 103.9330000   9.5660000  45.5200000
 104.4830000   8.6680000  46.9170000 104.3800000  10.7820000  47.1890000
 105.1500000  10.8790000  47.8960000 104.4460000  11.6650000  46.5230000
 102.9860000  10.7080000  47.8740000 102.0600000  10.6320000  47.1540000
 102.9490000   9.8220000  48.4720000 102.7230000  11.9320000  48.7700000
 102.5210000  12.7640000  47.9780000 101.8090000  11.8390000  49.3360000
 103.7570000  12.4460000  49.6400000 104.1900000  11.8360000  50.6070000
 104.1870000  13.6910000  49.3610000 105.2290000  14.2600000  50.1530000
 105.2040000  15.3690000  50.0230000 105.1990000  14.0150000  51.1720000
 106.5720000  13.7430000  49.5820000 106.5930000  12.6650000  49.5020000
 107.7930000  14.0830000  50.4960000 107.5220000  13.5850000  51.4460000
 108.7240000  13.6620000  50.0960000 107.8410000  15.5020000  50.7560000
 108.7280000  16.4940000  49.7800000 107.7630000  17.1860000  48.7340000
 107.6020000  18.5790000  48.6620000 108.5560000  19.0620000  48.7370000
 107.0710000  18.8320000  47.7820000 106.8110000  19.0190000  49.8660000
 105.7440000  18.8170000  49.7060000 107.1520000  18.5110000  50.7570000
 106.8920000  20.4580000  50.1930000 108.2750000  20.7290000  50.6000000
 108.9920000  21.0170000  49.7750000 108.3080000  21.4400000  51.3800000
 108.6810000  19.8110000  50.9890000 106.5870000  21.4270000  49.0840000
 105.9680000  21.0800000  48.2820000 106.1350000  22.3000000  49.4720000
 107.5580000  21.5560000  48.6670000 105.9440000  20.6660000  51.4240000
 105.0500000  20.0490000  51.2970000 105.5830000  21.7080000  51.3100000
 106.4230000  20.3120000  52.3220000 109.2780000  17.5330000  50.6620000
 109.6840000  15.6020000  49.0430000 106.6130000  14.2190000  48.2730000
 107.5690000  13.8140000  47.4220000 108.2360000  12.7960000  47.6040000
 107.5880000  14.5390000  46.0570000 107.2180000  15.5900000  46.1270000
 106.9770000  14.0310000  45.3610000 108.9510000  14.7490000  45.4610000
 109.4870000  13.7530000  45.3580000 109.5900000  15.2120000  46.1830000
 108.9630000  15.4730000  44.0990000 109.9820000  15.9780000  43.8830000
 108.2100000  16.2330000  44.0590000 108.7010000  14.6530000  42.8130000
 108.8610000  15.2210000  41.8900000 107.6250000  14.2910000  42.8610000
 109.5510000  13.4100000  42.6450000 109.2690000  12.7080000  43.4450000
 110.6750000  13.6670000  42.7110000 109.3290000  12.6560000  41.2830000
 109.6260000  13.3320000  40.4140000 108.1780000  12.6140000  41.1340000
 110.0990000  11.3480000  41.1070000 110.0300000  10.7490000  42.0230000
 111.1470000  11.5610000  40.9140000 109.6270000  10.5290000  39.9700000
 108.8140000   9.8530000  40.1820000 110.0100000  10.7620000  38.7270000
 109.4730000  10.2050000  37.9670000 110.9980000  11.7460000  38.1630000
 111.8750000  11.2530000  37.7880000 111.1800000  12.5350000  38.9140000
 110.4140000  12.4250000  36.9270000 110.2260000  11.5920000  36.1730000
 111.1080000  13.1370000  36.5090000 109.1220000  13.1760000  37.3380000
 109.3440000  14.0150000  37.9990000 108.4530000  12.4610000  37.8220000
 108.4330000  13.8140000  36.1210000 108.2280000  13.0120000  35.4790000
 109.0750000  14.6390000  35.7450000 107.0780000  14.4950000  36.5160000
 107.3160000  15.1910000  37.3440000 106.3860000  13.7490000  36.9360000
 106.4270000  15.3650000  35.4060000 107.1910000  16.1440000  35.0960000
 105.4280000  15.8380000  35.7440000 106.1000000  14.4400000  34.2650000
 105.8290000  13.3890000  34.6220000 107.0280000  14.3360000  33.8110000
 105.0100000  14.9370000  33.2710000 105.0560000  14.3880000  32.3650000
 105.1490000  16.0570000  33.1110000 104.0400000  14.8260000  33.8620000
  58.8150000  65.5420000  37.2860000  59.2160000  65.1980000  38.2380000
  59.3110000  66.4890000  37.0350000  59.0700000  64.7920000  36.5700000
  57.3180000  65.5270000  37.5610000  56.7860000  66.2270000  36.9400000
  56.8890000  64.6240000  37.2650000  57.1250000  65.8740000  38.9600000
  57.7870000  65.2920000  39.5770000  57.4140000  66.8810000  39.1450000
  55.6590000  65.5440000  39.3870000  55.0170000  65.9590000  38.6820000
  55.5630000  64.4370000  39.4780000  55.3560000  66.1140000  40.8020000
  56.2290000  65.9670000  41.4030000  55.2210000  67.2270000  40.7640000
  54.0630000  65.4230000  41.3380000  53.1720000  65.5950000  40.6890000
  54.3260000  64.3400000  41.4510000  53.7950000  65.9350000  42.7740000
  54.6210000  65.5920000  43.4730000  53.7220000  67.0160000  42.7700000
  52.4970000  65.3600000  43.5050000  51.5320000  65.6320000  43.0010000
  52.5540000  64.2710000  43.4690000  52.4450000  65.8350000  44.9100000
  53.3610000  65.4650000  45.4300000  52.3340000  66.9250000  44.9540000
  51.2270000  65.1600000  45.4900000  50.2830000  65.5900000  45.1100000
  51.2260000  64.0890000  45.1160000  51.2090000  65.0440000  47.0170000
  50.2000000  64.8940000  47.4150000  51.7180000  64.1810000  47.3770000
  51.7900000  66.1880000  47.8400000  51.7070000  65.8690000  48.8230000
  52.8760000  66.3400000  47.5910000  50.9130000  67.4250000  47.6700000
  51.2410000  67.9100000  46.7470000  49.8330000  67.1250000  47.6190000
  51.0520000  68.5290000  48.7120000  50.3380000  69.3170000  48.4820000
  50.8740000  68.0760000  49.7410000  52.5130000  69.1270000  48.7490000
  53.2430000  68.6120000  48.0050000  52.5050000  70.1440000  48.6030000
  53.1640000  68.8970000  50.0730000  53.4460000  69.8030000  50.8150000
  53.4110000  67.6080000  50.2450000  53.6530000  67.1440000  51.6020000
  54.5740000  67.4330000  51.9970000  52.7630000  67.5450000  52.1590000
  53.4930000  65.6120000  51.7690000  53.6280000  65.2890000  52.7580000
  54.5510000  64.9180000  50.8460000  54.1690000  63.9770000  50.5000000
  54.9080000  65.6050000  49.9870000  55.6850000  64.6430000  51.5750000
  56.7020000  63.5300000  51.0570000  57.7280000  64.4830000  50.3290000
  59.0460000  64.6140000  50.8030000  59.3630000  63.6090000  51.2050000
  59.6290000  64.9370000  49.9440000  58.8420000  65.6700000  51.9130000
  58.4440000  66.6210000  51.4780000  58.1200000  65.3320000  52.7120000
  60.1720000  66.0060000  52.6130000  61.1480000  66.5760000  51.6760000
  62.0800000  66.6490000  52.2240000  61.2820000  65.8060000  50.8780000
  60.8360000  67.5290000  51.3220000  59.8800000  67.0010000  53.7280000
  60.8490000  67.2830000  54.2170000  59.5540000  67.9470000  53.2450000
  59.2660000  66.5450000  54.4970000  60.8680000  64.7640000  53.1640000
  60.2540000  64.3340000  53.9800000  61.8040000  65.2160000  53.5660000
  61.1480000  64.0580000  52.3420000  57.2880000  62.8950000  52.2370000
  55.9920000  62.6820000  50.0490000  52.1740000  65.3040000  51.1890000
  51.5590000  64.1860000  51.5350000  52.0010000  63.3900000  52.3130000
  50.2590000  63.9210000  50.8250000  49.6930000  63.0880000  51.2820000
  50.5410000  63.6730000  49.7900000  49.2360000  65.0820000  50.7720000
  49.7420000  65.9670000  50.4520000  48.9110000  65.2570000  51.8550000
  47.9800000  64.8900000  49.9120000  47.7550000  63.8890000  49.8880000
  48.3390000  65.2610000  48.8930000  46.7240000  65.6850000  50.4350000
  46.9520000  66.7410000  50.4280000  46.6050000  65.4770000  51.5290000
  45.4140000  65.2450000  49.7230000  44.5780000  65.6530000  50.3430000
  45.5260000  64.1630000  49.6660000  45.3960000  65.8360000  48.3350000
  46.4080000  65.7180000  47.8930000  45.1290000  66.8580000  48.2510000
  44.3000000  65.2550000  47.4160000  43.3250000  65.2560000  47.9520000
  44.5560000  64.2250000  47.2390000  44.1790000  66.1590000  46.1760000
  43.3520000  66.8390000  46.2110000  44.9370000  66.0890000  45.0930000
  44.7700000  66.7460000  44.2700000  46.2220000  65.3020000  44.9320000
  46.0860000  64.3960000  45.5760000  46.9940000  65.9460000  45.3760000
  46.6060000  64.9170000  43.5400000  46.6210000  65.8280000  42.9360000
  45.8220000  64.3050000  43.1650000  47.9200000  64.2280000  43.4030000
  47.9740000  63.2540000  43.9590000  48.6410000  64.9080000  43.8410000
  48.2450000  63.9720000  41.9500000  48.3820000  64.9300000  41.4750000
  47.5010000  63.4590000  41.3930000  49.6230000  63.2670000  41.8220000
  49.6140000  62.2460000  42.1680000  50.3800000  63.8250000  42.3070000
  50.0070000  63.2920000  40.3420000  50.2140000  64.2610000  39.9140000
  49.2560000  62.7610000  39.7520000  51.3180000  62.4480000  40.2540000
  51.2200000  61.4210000  40.6160000  52.1480000  62.8330000  40.8630000
  51.7450000  62.1780000  38.7950000  52.0250000  63.0630000  38.2230000
  50.9130000  61.6910000  38.2410000  52.5750000  61.4710000  38.7990000
  95.7780000   6.2470000  42.1320000  96.7170000   6.8400000  42.2050000
  95.0150000   7.0050000  41.7740000  95.8610000   5.4080000  41.5340000
  95.3980000   5.7120000  43.5250000  94.5910000   5.0290000  43.4480000
  96.2850000   5.2200000  44.0140000  95.0370000   6.8650000  44.5920000
  95.9580000   7.5290000  44.6580000  94.2540000   7.4560000  44.1850000
  94.5590000   6.5070000  45.9790000  93.6370000   5.9830000  45.8880000
  95.3750000   5.9340000  46.5660000  94.2680000   7.8350000  46.7680000
  95.1650000   8.4610000  46.8750000  93.4760000   8.4670000  46.2260000
  93.6130000   7.4570000  48.1240000  92.6290000   7.0540000  47.8410000
  94.1630000   6.7400000  48.7700000  93.3670000   8.7530000  48.9860000
  92.7510000   9.3890000  48.4010000  92.8750000   8.5190000  49.9540000
  94.6870000   9.4990000  49.2740000  95.0180000   9.9210000  48.3700000
  94.4400000  10.2800000  50.0020000  95.8770000   8.7350000  49.8600000
  95.6640000   8.2670000  50.7830000  96.4160000   8.0860000  49.1440000
  96.9270000   9.7840000  50.1490000  97.3440000  10.1680000  49.1950000
  96.5590000  10.6520000  50.6830000  98.1540000   9.1490000  50.8960000
  97.8030000   8.8700000  51.9550000  98.5060000   8.2540000  50.3470000
  99.3780000  10.0860000  50.9070000  99.7770000  10.2080000  49.9070000
  99.0120000  11.0440000  51.2390000 100.5540000   9.5720000  51.8320000
 101.0230000   8.6080000  51.3990000 101.4010000  10.2560000  51.5900000
 100.3460000   9.4350000  53.3040000  99.6160000   8.6770000  53.4250000
 101.2550000   8.9850000  53.7110000  99.9170000  10.6000000  54.1590000
 100.1170000  10.3560000  55.1820000 100.4210000  11.5140000  53.7460000
  98.4150000  10.9780000  54.0380000  97.5810000  10.1410000  54.3910000
  98.0180000  12.1760000  53.5870000  96.5910000  12.2570000  53.3740000
  96.1810000  11.5020000  52.6770000  96.0380000  12.1760000  54.3120000
  96.3040000  13.5940000  52.6760000  96.8530000  14.3190000  53.2210000
  94.7780000  13.9630000  52.6570000  94.4970000  14.4870000  53.6050000
  94.6280000  14.6820000  51.8030000  93.9410000  12.7270000  52.3450000
  92.5760000  12.5250000  53.0190000  91.5280000  13.3170000  52.0360000
  91.5850000  14.7480000  51.9360000  92.5600000  15.1110000  52.2410000
  91.1770000  15.1910000  50.9710000  90.6290000  15.3220000  53.0570000
  89.6330000  15.0880000  52.6880000  91.0180000  14.8780000  53.9920000
  90.6770000  16.8080000  53.2270000  90.3520000  17.6100000  51.9390000
  91.1090000  17.4230000  51.2180000  89.3150000  17.3900000  51.6440000
  90.4250000  18.7190000  52.0770000  89.5910000  17.2070000  54.1880000
  89.4440000  18.2920000  53.9520000  88.6420000  16.8100000  53.8810000
  89.8740000  17.0830000  55.2830000  91.9640000  17.2940000  53.7310000
  91.8450000  18.3540000  54.1070000  92.6780000  17.1380000  52.9310000
  92.2560000  16.5870000  54.4960000  92.1690000  11.1050000  53.0200000
  92.5290000  13.2620000  54.2920000  96.6580000  13.6790000  51.2730000
  97.6170000  14.4460000  50.8330000  98.4080000  15.0340000  51.5430000
  97.7470000  14.3580000  49.3500000  97.4040000  15.2520000  48.9940000
  97.1170000  13.6670000  48.8400000  99.2190000  14.1830000  48.9780000
  99.6840000  13.4310000  49.6700000  99.7180000  15.0710000  49.3910000
  99.5270000  13.9820000  47.4860000 100.5580000  14.1780000  47.2020000
  98.7850000  14.5960000  46.9620000  99.2110000  12.5810000  46.9510000
  98.2430000  12.3020000  47.3120000  99.8580000  11.9830000  47.4680000
  99.3530000  12.2960000  45.4230000  99.2230000  11.2160000  45.2950000
 100.4320000  12.3980000  45.2550000  98.5890000  13.0950000  44.3810000
  98.8750000  14.1290000  44.4880000  97.5840000  12.9480000  44.6950000
  98.8810000  12.4920000  43.0130000  98.1500000  12.9460000  42.3200000
  98.7410000  11.4520000  42.8900000 100.3100000  12.9330000  42.5560000
 100.8380000  13.5140000  43.3170000 100.9640000  12.6000000  41.4770000
 101.9660000  12.9910000  41.2790000 100.2960000  11.8020000  40.3870000
  99.3450000  11.4620000  40.7230000 100.9440000  10.8680000  40.2680000
 100.1420000  12.4630000  39.0490000 101.1320000  12.7910000  38.7420000
  99.4940000  13.3340000  39.1760000  99.4960000  11.4630000  38.0570000
  98.9410000  10.6390000  38.4610000 100.2270000  11.0530000  37.3750000
  98.4270000  12.1270000  37.1560000  98.3300000  11.4130000  36.2480000
  98.7000000  13.1140000  36.8500000  97.0670000  12.4900000  37.8480000
  97.2230000  13.1620000  38.6550000  96.7030000  11.5800000  38.2860000
  96.0550000  13.2350000  36.9170000  96.6000000  14.0100000  36.4030000
  95.2550000  13.8790000  37.4260000  95.3490000  12.2450000  35.9610000
  94.7010000  11.5430000  36.5020000  96.0900000  11.7230000  35.4060000
  94.4230000  12.9960000  35.0560000  95.0040000  13.7000000  34.4740000
  93.6090000  13.4550000  35.5920000  93.8870000  12.2770000  34.3940000
  97.5150000 149.6640000  37.8840000  96.4740000 149.3540000  38.1540000
  98.2630000 148.8100000  38.0270000  97.4530000 149.8480000  36.7810000
  98.0140000 150.9690000  38.5830000  98.9380000 151.3550000  38.0780000
  97.1450000 151.6740000  38.5530000  98.3140000 150.8120000  40.0910000
  99.0140000 149.9930000  40.2380000  98.6620000 151.7880000  40.4690000
  97.0920000 150.5240000  40.9390000  96.4140000 151.3660000  40.7840000
  96.5170000 149.6770000  40.4820000  97.4130000 150.0610000  42.4020000
  97.7500000 149.0360000  42.5500000  98.2460000 150.6710000  42.9170000
  96.2100000 150.0520000  43.3250000  95.7910000 151.0400000  43.3530000
  95.4110000 149.3570000  42.8820000  96.6060000 149.7340000  44.8250000
  97.0590000 148.7250000  44.8410000  97.3410000 150.5460000  45.1010000
  95.4530000 149.6850000  45.8420000  94.7520000 150.5040000  45.6760000
  94.8020000 148.8150000  45.7490000  96.0060000 149.8540000  47.3080000
  95.3320000 149.4320000  48.0990000  96.9000000 149.2730000  47.3860000
  96.3900000 151.3100000  47.6060000  97.1470000 151.6360000  46.9210000
  95.4470000 151.8090000  47.3600000  96.7800000 151.5860000  49.0340000
  97.5660000 150.9170000  49.3180000  97.2040000 152.5840000  49.1030000
  95.6090000 151.4220000  50.1330000  94.7510000 152.0320000  49.8110000
  95.3280000 150.3700000  50.0810000  95.9680000 151.6810000  51.5700000
  96.4000000 152.6930000  51.6330000  95.0400000 151.7110000  52.1660000
  96.9460000 150.7640000  52.3030000  97.9590000 150.8080000  51.8990000
  97.0000000 151.1720000  53.3120000  96.7940000 149.2900000  52.2360000
  96.8730000 149.0290000  51.1860000  97.6070000 148.7290000  52.7650000
  95.5060000 148.7380000  52.8360000  95.0900000 149.0290000  53.9510000
  94.9020000 147.8980000  51.9750000  93.7690000 147.1910000  52.4750000
  93.6140000 146.2960000  51.8240000  93.9600000 146.9940000  53.5570000
  92.4740000 148.0270000  52.2030000  92.5790000 148.8690000  52.9240000
  91.2020000 147.2840000  52.5610000  91.4520000 146.6930000  53.4340000
  90.4340000 148.0380000  52.8360000  90.8080000 146.3890000  51.4830000
  90.9800000 144.8140000  51.4650000  89.5970000 144.4720000  52.1300000
  88.3290000 144.7460000  51.5770000  87.5650000 144.7860000  52.3870000
  88.3750000 145.7570000  51.1930000  88.0450000 143.6680000  50.5430000
  87.0400000 143.8090000  50.2040000  88.7820000 143.7990000  49.7510000
  88.1270000 142.2810000  51.0090000  87.0980000 141.3720000  50.3470000
  87.3190000 141.2760000  49.3060000  87.1600000 140.3980000  50.8850000
  86.0560000 141.8100000  50.5750000  89.4230000 141.7470000  50.6150000
  89.5780000 140.9450000  51.3710000  89.3910000 141.4130000  49.4980000
  90.1960000 142.5390000  50.7990000  88.0060000 142.1310000  52.5730000
  88.9650000 142.4910000  52.9570000  87.9080000 141.0450000  52.7320000
  87.1220000 142.6760000  52.9620000  90.8860000 144.2510000  50.0840000
  91.9850000 144.3410000  52.4500000  92.4300000 148.5900000  50.9080000
  91.8940000 149.7970000  50.5980000  91.4200000 150.5000000  51.4750000
  92.0780000 150.1730000  49.2150000  93.0410000 149.7590000  48.9710000
  92.1890000 151.2640000  49.1300000  91.0060000 149.5600000  48.2970000
  90.0520000 149.9520000  48.5230000  90.8550000 148.4650000  48.4340000
  91.2440000 149.8770000  46.8200000  92.2910000 149.7100000  46.7300000
  91.0310000 150.9020000  46.5450000  90.5850000 148.9540000  45.8380000
  91.1790000 147.9670000  45.8620000  90.6640000 149.3170000  44.8110000
  89.1320000 148.6000000  46.2930000  88.5180000 149.5140000  46.3560000
  89.1210000 148.2660000  47.2770000  88.6010000 147.4860000  45.3510000
  89.0170000 146.5860000  45.7040000  88.9340000 147.6980000  44.3230000
  87.0800000 147.2460000  45.3890000  86.5800000 148.2060000  45.2630000
  86.9160000 146.7900000  46.4660000  86.6920000 146.1720000  44.3540000
  87.1930000 145.2140000  44.4440000  85.7440000 146.1480000  43.4580000
  85.6710000 145.2310000  42.8910000  84.6060000 147.1250000  43.2630000
  84.6000000 147.8530000  44.1520000  83.6660000 146.5240000  43.2420000
  84.6240000 148.0150000  42.0520000  84.6470000 147.4420000  41.1600000
  85.6360000 148.4540000  42.1770000  83.6390000 149.2420000  42.0010000
  83.7820000 149.7680000  41.0240000  83.8270000 150.0440000  42.8430000
  82.2010000 148.8310000  42.2720000  82.3080000 148.2550000  43.1650000
  81.7740000 148.2180000  41.4730000  81.1680000 149.9510000  42.4920000
  81.6930000 150.6290000  43.0810000  80.3330000 149.5400000  43.1570000
  80.5990000 150.6330000  41.2860000  80.0190000 149.9190000  40.7550000
  81.3460000 150.9640000  40.5710000  79.7210000 151.8790000  41.5430000
  80.3130000 152.6460000  42.0140000  78.9550000 151.7480000  42.3220000
  79.0500000 152.4830000  40.2530000  79.7040000 152.5030000  39.3620000
  78.7180000 153.4890000  40.5690000  78.1630000 151.8700000  40.0590000
 138.3770000  97.2080000  36.8280000 138.8090000  98.2140000  36.9540000
 137.4520000  97.2100000  36.2440000 139.1070000  96.6930000  36.2520000
 137.8670000  96.5210000  38.1330000 138.7050000  96.3600000  38.7890000
 137.1880000  97.1280000  38.5940000 137.2340000  95.1320000  37.8720000
 136.3220000  95.2920000  37.3060000 137.8120000  94.5400000  37.1980000
 136.9000000  94.3090000  39.2010000 136.6680000  93.3300000  38.9250000
 137.7620000  94.0920000  39.8440000 135.7350000  94.9200000  40.0780000
 135.8610000  96.0480000  40.1000000 134.8170000  94.6800000  39.6000000
 135.7830000  94.4310000  41.5760000 136.7800000  94.7550000  41.9490000
 135.0980000  94.8530000  42.2570000 135.5150000  92.9270000  41.7310000
 136.2350000  92.4720000  41.0910000 135.7340000  92.7060000  42.7980000
 134.0660000  92.4350000  41.3950000 133.3430000  92.9520000  42.0350000
 133.8140000  92.7130000  40.3480000 133.7830000  90.8970000  41.5170000
 132.9280000  90.7690000  40.8370000 134.6330000  90.4020000  41.0590000
 133.4060000  90.3580000  42.8980000 134.0460000  90.5430000  43.7580000
 132.5310000  90.9060000  43.2050000 133.3090000  88.8380000  42.8970000
 132.5780000  88.4210000  42.2240000 134.2240000  88.3860000  42.5740000
 132.9220000  88.2130000  44.2350000 132.8900000  87.1020000  44.0930000
 133.7520000  88.4020000  44.9540000 131.5230000  88.6930000  44.7830000
 131.3450000  89.7410000  44.5040000 130.7720000  88.0200000  44.3220000
 131.2340000  88.6620000  46.2620000 131.4900000  87.6310000  46.5290000
 131.8910000  89.3440000  46.7840000 129.7490000  88.8760000  46.5630000
 129.3890000  89.7250000  45.9520000 129.2730000  87.9380000  46.3210000
 129.5830000  89.1160000  48.0090000 129.6180000  88.3450000  48.9610000
 129.2490000  90.4340000  48.2030000 129.0330000  90.9110000  49.5760000
 128.7460000  91.9770000  49.5790000 128.1510000  90.3420000  49.9370000
 130.3310000  90.8200000  50.3510000 130.7520000  89.8380000  50.4240000
 130.1390000  91.3890000  51.7450000 130.3470000  92.4620000  51.9190000
 129.1330000  91.2310000  51.9220000 131.0420000  90.7120000  52.6550000
 130.7890000  90.8320000  54.2110000 131.4410000  92.2000000  54.5480000
 132.7650000  92.3460000  55.0670000 133.0170000  93.3410000  55.3890000
 132.9340000  91.5590000  55.7990000 133.7590000  92.1000000  53.8960000
 134.7980000  91.7440000  54.3080000 133.5610000  91.1410000  53.4040000
 134.0570000  93.1290000  52.8990000 134.6970000  92.3870000  51.7910000
 133.9340000  91.6820000  51.3770000 134.9370000  93.1110000  50.9920000
 135.5960000  91.8650000  52.0970000 132.9110000  93.7870000  52.3880000
 132.2900000  94.1910000  53.1760000 133.2680000  94.6010000  51.6810000
 132.3030000  93.0450000  51.8830000 135.0110000  94.0240000  53.6030000
 135.1320000  94.8530000  52.9070000 135.9220000  93.6240000  53.8800000
 134.5120000  94.4110000  54.4820000 129.3210000  90.7240000  54.3650000
 131.7140000  89.7610000  54.7170000 131.2940000  91.7270000  49.6980000
 132.5440000  91.3380000  49.4500000 133.0540000  90.2600000  49.7730000
 133.2840000  92.3300000  48.6200000 134.2340000  92.5140000  49.1230000
 132.7180000  93.2050000  48.6000000 133.3310000  91.8690000  47.1400000
 132.3370000  91.6900000  46.8310000 133.7820000  90.8780000  47.0590000
 133.9910000  92.9150000  46.2620000 133.3860000  93.7470000  46.4920000
 133.8960000  92.7760000  45.1920000 135.4690000  93.0960000  46.5720000
 135.6350000  93.4920000  47.5850000 135.7270000  93.9630000  45.9620000
 136.3750000  91.9150000  46.1910000 136.3360000  91.6840000  45.1170000
 135.9780000  91.0220000  46.7390000 137.7790000  92.1200000  46.6600000
 137.7320000  92.0110000  47.7970000 137.9260000  93.1390000  46.3640000
 138.7570000  91.1550000  46.0200000 139.6470000  91.0260000  46.6840000
 139.1420000  91.4340000  45.0470000 138.2830000  89.7170000  45.9620000
 138.4880000  89.0780000  46.8570000 137.6310000  89.2260000  44.9010000
 137.3290000  88.1480000  45.0290000 137.3270000  89.8550000  43.6070000
 137.7140000  90.8620000  43.6040000 136.2570000  90.0110000  43.5180000
 137.6920000  88.9660000  42.4900000 136.9160000  88.2190000  42.3910000
 138.7500000  88.5870000  42.7090000 137.7360000  89.5860000  41.1100000
 138.4070000  90.3910000  41.0890000 136.7900000  90.0710000  40.9570000
 137.9640000  88.5260000  40.0140000 137.3580000  87.7220000  40.3710000
 139.0550000  88.2910000  40.0180000 137.6530000  88.9120000  38.5530000
 136.6640000  89.3050000  38.4790000 137.7620000  88.0030000  37.9710000
 138.5120000  90.0430000  37.9950000 139.5310000  89.7120000  37.8310000
 138.4780000  90.8440000  38.7110000 137.9880000  90.6160000  36.6930000
 138.0820000  89.8180000  35.9680000 138.6750000  91.3750000  36.3610000
 136.5980000  91.2260000  36.5880000 136.2990000  91.3330000  35.5220000
 136.5200000  92.1410000  37.1730000 135.8150000  90.6390000  37.0980000
 117.8930000  15.2890000  44.5180000 118.4220000  16.2010000  44.8670000
 118.1120000  14.4680000  45.1970000 116.8340000  15.4680000  44.4320000
 118.4140000  15.0180000  43.1290000 119.4800000  14.8200000  43.2970000
 117.9030000  14.0740000  42.7590000 118.0170000  16.0600000  42.0770000
 117.1420000  16.5740000  42.3350000 118.7660000  16.8270000  41.9200000
 117.8220000  15.3460000  40.7300000 116.8550000  14.8370000  40.8130000
 117.6250000  16.0530000  39.9440000 118.8520000  14.2930000  40.3030000
 118.6890000  13.4030000  40.9950000 118.6870000  13.9820000  39.2670000
 120.3720000  14.6960000  40.4050000 120.5180000  15.4680000  39.7320000
 120.6680000  15.0870000  41.3650000 121.3440000  13.4970000  40.1740000
 120.9630000  12.8390000  39.3700000 122.3720000  13.8900000  39.9320000
 121.5890000  12.5710000  41.3890000 120.5730000  12.2040000  41.6420000
 122.1640000  11.6940000  41.0120000 122.3410000  13.1390000  42.6230000
 123.2710000  13.6100000  42.3230000 121.7520000  13.9150000  43.1250000
 122.7150000  12.0890000  43.6870000 123.3760000  11.3920000  43.2250000
 123.3440000  12.4280000  44.5290000 121.4490000  11.4500000  44.3000000
 120.6910000  12.2670000  44.4740000 120.9520000  10.8130000  43.5360000
 121.8220000  10.6660000  45.5950000 122.5360000   9.8740000  45.3150000
 122.3500000  11.4030000  46.2490000 120.7160000   9.8800000  46.3530000
 120.0230000   9.5250000  45.5790000 121.3050000   8.9880000  46.8240000
 120.0760000  10.7440000  47.4480000 119.9440000  11.7380000  47.0280000
 119.1440000  10.2010000  47.7540000 120.8430000  10.9920000  48.7610000
 121.1310000  10.0390000  49.2380000 121.7760000  11.5400000  48.5400000
 120.1490000  11.8300000  49.7170000 120.3810000  13.0220000  49.7870000
 119.3110000  11.1570000  50.5060000 118.5080000  11.8610000  51.4090000
 118.3400000  11.1690000  52.2360000 119.0260000  12.7330000  51.7310000
 117.1930000  12.2830000  50.7390000 117.2890000  13.1240000  50.0250000
 116.4020000  12.8900000  51.9280000 116.4700000  12.3570000  52.8620000
 116.6860000  13.9590000  51.9860000 114.9400000  12.8430000  51.5660000
 113.8630000  13.0870000  52.7530000 113.7470000  11.6800000  53.4750000
 113.0990000  10.5570000  52.8190000 112.6770000   9.8420000  53.5390000
 112.2550000  10.8580000  52.2400000 114.0540000   9.8090000  51.8790000
 113.4240000   9.2300000  51.3180000 114.7190000  10.4840000  51.3260000
 114.9880000   8.7900000  52.5710000 114.1750000   7.7540000  53.2980000
 113.7850000   8.0630000  54.2850000 113.3160000   7.4210000  52.7150000
 114.7810000   6.8630000  53.5610000 115.5910000   8.1190000  51.4510000
 114.7680000   7.6400000  50.8770000 116.0620000   8.8820000  50.8520000
 116.3290000   7.3590000  51.8890000 116.0650000   9.3770000  53.3040000
 116.8740000   9.7750000  52.6830000 116.4160000   8.6260000  53.9530000
 115.6530000  10.1920000  53.9190000 114.3500000  14.0970000  53.7150000
 112.5800000  13.4000000  52.0870000 116.5260000  11.1580000  50.1190000
 116.5870000  11.1980000  48.7730000 117.0420000  12.1320000  48.0770000
 116.1330000   9.8790000  48.2500000 115.8420000   9.2690000  49.1260000
 117.0300000   9.4230000  47.7820000 115.0520000   9.8130000  47.2550000
 114.0740000  10.0050000  47.7050000 115.2300000   8.7900000  46.9550000
 115.2150000  10.6180000  45.9080000 116.2660000  10.6350000  45.6530000
 114.8760000  11.6290000  46.0320000 114.3970000  10.0730000  44.7040000
 113.2910000   9.9740000  44.9140000 114.7470000   9.0610000  44.4620000
 114.6430000  10.9900000  43.4230000 115.6910000  11.3420000  43.3920000
 114.0450000  11.8750000  43.6150000 114.3790000  10.3450000  42.0420000
 113.4090000   9.9550000  41.8610000 115.0280000   9.4090000  41.9140000
 114.7660000  11.3540000  40.8640000 115.7390000  11.8220000  41.1060000
 114.0150000  12.1420000  40.8370000 114.8600000  10.6100000  39.5710000
 114.0140000   9.9850000  39.3260000 115.9800000  10.4150000  38.8900000
 115.8980000   9.8470000  37.9360000 117.3380000  11.0480000  39.0320000
 117.3120000  11.9180000  39.6280000 117.7120000  11.3500000  38.0210000
 118.4470000  10.1090000  39.5460000 119.3640000  10.7450000  39.6030000
 118.6500000   9.3490000  38.7920000 118.1690000   9.4900000  40.9280000
 117.2960000   8.7670000  40.7570000 117.7760000  10.3340000  41.4510000
 119.4700000   8.9040000  41.5330000 120.2820000   9.5950000  41.4230000
 119.8090000   8.0190000  40.9900000 119.3190000   8.5720000  42.9930000
 118.8540000   9.3890000  43.6040000 120.3360000   8.3940000  43.3220000
 118.3670000   7.3310000  43.2770000 118.6600000   6.5550000  42.6160000
 117.2920000   7.4220000  43.1120000 118.5730000   6.8310000  44.7080000
 119.6720000   6.8400000  44.9760000 118.3050000   5.7580000  44.8570000
 117.7070000   7.5410000  45.7490000 116.8870000   6.9000000  46.0510000
 117.2560000   8.5580000  45.5370000 118.2440000   7.6580000  46.6630000
  52.9460000  17.9450000  37.3130000  52.9280000  17.0140000  36.7610000
  53.8590000  18.4660000  36.9390000  52.0490000  18.5850000  37.1190000
  53.0860000  17.7830000  38.8140000  52.2970000  17.2240000  39.3290000
  53.8560000  17.0460000  38.9790000  53.4240000  19.1490000  39.4610000
  54.3820000  19.5140000  39.1020000  52.6050000  19.9290000  39.3200000
  53.6440000  18.8610000  40.9450000  52.7690000  18.4200000  41.4030000
  54.4590000  18.1250000  40.9490000  53.9870000  20.1170000  41.7870000
  53.3070000  20.9410000  41.6490000  53.8820000  19.8170000  42.8770000
  55.4730000  20.4960000  41.5250000  56.0700000  19.6110000  41.6230000
  55.6810000  20.8550000  40.4970000  56.0940000  21.6140000  42.4350000
  55.6050000  22.5900000  42.2940000  56.0020000  21.3320000  43.4560000
  57.6450000  21.8160000  42.1520000  57.7370000  22.3390000  41.2080000
  57.9620000  22.4520000  42.9320000  58.4900000  20.5710000  42.2290000
  58.3290000  19.9680000  43.1400000  58.2410000  19.9910000  41.2890000
  59.9970000  20.9670000  42.1570000  60.1430000  21.5510000  41.2350000
  60.2920000  21.5520000  43.0590000  60.8040000  19.6060000  42.1370000
  60.4630000  18.9430000  43.0260000  60.5710000  18.9850000  41.2820000
  62.3310000  19.7640000  42.2310000  62.5840000  20.1940000  41.2600000
  62.6630000  20.3010000  43.1370000  63.1700000  18.4740000  42.1650000
  62.9090000  18.0240000  41.2150000  64.2240000  18.6680000  42.2280000
  62.8020000  17.3910000  43.2650000  61.7530000  17.2460000  43.1660000
  63.3820000  16.4770000  43.0500000  63.0670000  17.7740000  44.7630000
  62.3510000  18.5200000  45.0600000  62.9060000  16.8550000  45.4220000
  64.5180000  18.2630000  44.9240000  65.5030000  17.9550000  44.3010000
  64.5600000  19.0960000  46.0180000  65.7600000  19.7930000  46.1830000
  66.2720000  19.2440000  46.9020000  66.4880000  19.8070000  45.3330000
  65.5890000  21.3230000  46.5740000  66.4920000  21.8710000  46.3680000
  65.1370000  21.5010000  48.0300000  64.3040000  20.7570000  48.0620000
  65.9620000  21.2000000  48.6830000  64.6650000  22.7820000  48.4990000
  63.1080000  23.1550000  48.7240000  62.3830000  23.3640000  47.3130000
  60.9140000  23.2970000  47.2820000  60.5310000  23.3150000  48.2780000
  60.6440000  24.1650000  46.7270000  60.3900000  22.0420000  46.4760000
  59.4110000  22.1730000  46.3490000  60.9000000  22.1380000  45.5190000
  60.5010000  20.6230000  46.9810000  59.7170000  19.8160000  46.0620000
  60.2460000  19.6830000  45.0720000  59.5930000  18.8750000  46.6090000
  58.7620000  20.2700000  45.9220000  61.8740000  20.1060000  47.0660000
  62.2450000  20.2780000  48.0970000  61.8110000  19.0410000  46.8540000
  62.6550000  20.5310000  46.3820000  59.8630000  20.5700000  48.3370000
  58.8600000  20.9800000  48.4610000  60.4900000  21.2250000  48.8950000
  59.9050000  19.6090000  48.8590000  62.4590000  21.9850000  49.3600000
  63.0440000  24.4310000  49.3990000  64.5350000  21.7710000  45.6540000
  64.4940000  23.0440000  45.2800000  65.2270000  23.9400000  45.6130000
  63.2440000  23.3030000  44.3850000  62.3870000  22.8640000  44.9250000
  63.3400000  22.7760000  43.4550000  63.0370000  24.8310000  44.3430000
  63.7770000  25.2580000  43.6490000  63.2120000  25.2790000  45.2580000
  61.6560000  25.1940000  43.9200000  61.3590000  26.1700000  44.2590000
  60.9180000  24.5690000  44.4620000  61.5490000  25.0810000  42.3760000
  61.9000000  24.0830000  42.0580000  62.2010000  25.8210000  41.8070000
  60.0610000  25.2070000  42.0030000  59.6510000  25.9610000  42.6260000
  59.5590000  24.2290000  42.1170000  59.8530000  25.5450000  40.4780000
  60.0960000  26.6140000  40.4440000  58.7670000  25.4520000  40.2660000
  60.4620000  24.7300000  39.4140000  59.9370000  24.8510000  38.4890000
  60.3360000  23.6880000  39.7660000  61.9000000  25.2280000  39.3080000
  61.9330000  26.2950000  39.1710000  62.9900000  24.5370000  39.0670000
  63.9220000  24.9840000  38.8520000  63.0560000  23.0140000  38.8280000
  62.0920000  22.5270000  38.7860000  63.5580000  22.6050000  39.6980000
  63.9090000  22.6520000  37.6090000  64.9050000  23.2030000  37.6750000
  63.4810000  23.0040000  36.6770000  64.1110000  21.1180000  37.3820000
  64.4970000  20.5770000  38.2790000  64.8950000  21.0180000  36.6650000
  62.7930000  20.4620000  36.8750000  62.5650000  20.9310000  35.9110000
  62.0120000  20.8450000  37.5850000  62.8460000  18.9360000  36.7430000
  63.7320000  18.6950000  36.1840000  62.0040000  18.6440000  36.1560000
  62.8780000  18.3360000  38.1600000  62.1870000  18.6960000  38.8750000
  63.7850000  18.6940000  38.6740000  62.6890000  16.8470000  38.0750000
  61.8900000  16.5840000  37.3820000  62.3110000  16.5810000  39.0170000
  64.0490000  16.2610000  37.8030000  64.3570000  16.5350000  36.8190000
  64.0470000  15.1810000  37.8280000  64.7830000  16.6120000  38.5590000
  23.9380000  56.1080000  43.2720000  24.9630000  56.3700000  43.3440000
  23.4540000  56.8450000  42.6590000  23.8930000  55.2020000  42.6220000
  23.2160000  55.9030000  44.5940000  24.0220000  55.6800000  45.2720000
  22.6740000  56.7970000  44.7930000  22.2270000  54.7070000  44.7300000
  21.6770000  54.6330000  43.8120000  22.8410000  53.7890000  44.8010000
  21.3460000  54.7540000  46.0260000  21.9880000  54.9130000  46.8580000
  20.7900000  55.6820000  45.9980000  20.3740000  53.6190000  46.2890000
  19.6940000  53.7450000  45.4360000  20.8090000  52.6950000  46.1540000
  19.4950000  53.6140000  47.5740000  20.1610000  53.5700000  48.4560000
  18.7850000  54.4760000  47.7450000  18.5080000  52.3980000  47.5130000
  17.6040000  52.5300000  46.9140000  19.0260000  51.4830000  47.2960000
  17.9000000  52.1920000  48.8850000  18.6480000  52.2660000  49.6380000
  17.1820000  52.9810000  49.0020000  17.1660000  50.8340000  49.1840000
  16.0860000  51.1150000  48.9900000  17.4000000  50.0230000  48.4580000
  17.2860000  50.2500000  50.6430000  17.0810000  51.0210000  51.3540000
  16.7610000  49.4040000  50.8170000  18.7330000  49.7010000  50.8400000
  19.0170000  49.0650000  49.9790000  19.4300000  50.5180000  51.0420000
  18.7140000  48.7270000  52.0820000  18.2100000  49.2340000  52.9120000
  18.0630000  47.9540000  51.7830000  19.9700000  48.0340000  52.5160000
  19.7110000  47.2210000  53.1760000  20.3870000  47.4440000  51.6960000
  21.1360000  48.8160000  53.2210000  21.5000000  49.7020000  52.5320000
  20.8150000  49.2900000  54.1480000  22.3100000  47.8620000  53.3820000
  22.0220000  46.8880000  53.8440000  22.7310000  47.7820000  52.3920000
  23.4220000  48.4220000  54.2660000  23.3490000  48.4340000  55.5460000
  24.5110000  48.7470000  53.5070000  25.6980000  49.1070000  54.2510000
  25.5450000  50.0070000  54.8640000  26.0140000  48.3080000  54.9150000
  26.9080000  49.2970000  53.3230000  27.1350000  48.4320000  52.7800000
  28.1920000  49.6030000  54.0800000  28.6830000  50.4270000  53.5880000
  27.8950000  49.7500000  55.1170000  29.0440000  48.3570000  53.8670000
  29.1690000  47.2480000  54.9950000  30.2070000  47.8340000  56.0520000
  31.5320000  47.4430000  56.2680000  31.8460000  47.5830000  57.2800000
  31.6340000  46.3700000  56.1120000  32.4720000  48.1700000  55.3370000
  33.4480000  47.7550000  55.6580000  32.2460000  47.9620000  54.3330000
  32.5590000  49.6500000  55.4970000  31.3170000  50.4270000  55.1760000
  30.5840000  50.1790000  55.9440000  31.5650000  51.4880000  55.2610000
  30.9710000  50.1490000  54.2250000  33.0280000  49.9830000  56.8960000
  32.1940000  49.6890000  57.5630000  33.9530000  49.4750000  57.1220000
  33.2240000  51.0580000  56.8960000  33.5590000  50.1020000  54.4850000
  33.1780000  50.2020000  53.4480000  34.3350000  49.3730000  54.2960000
  33.8960000  51.1360000  54.7350000  27.8660000  47.1650000  55.6100000
  29.7680000  46.1510000  54.3020000  26.6450000  50.4260000  52.4520000
  27.2000000  50.2280000  51.2570000  27.5690000  49.1940000  50.8330000
  27.3060000  51.5110000  50.4510000  27.7360000  52.1400000  51.1830000
  26.3780000  51.8940000  50.1510000  28.2800000  51.4020000  49.2950000
  28.1160000  50.5210000  48.5450000  29.3160000  51.2500000  49.6680000
  28.1830000  52.7590000  48.5270000  28.1940000  53.5180000  49.2550000
  27.2570000  52.8280000  47.9590000  29.2620000  53.1300000  47.5490000
  29.2540000  52.3800000  46.7690000  30.2640000  53.1190000  48.0110000
  28.9740000  54.4750000  46.9300000  28.6920000  55.2230000  47.7040000
  28.0910000  54.3280000  46.3740000  29.9890000  54.9270000  45.8280000
  29.9360000  54.2940000  45.0040000  31.0710000  54.8360000  46.0790000
  29.8310000  56.3430000  45.3520000  30.6210000  56.5010000  44.6410000
  29.8760000  56.9490000  46.2380000  28.4670000  56.7000000  44.7500000
  27.5580000  56.5140000  45.3300000  28.1740000  56.9800000  43.5040000
  27.2010000  57.3390000  43.2040000  29.1740000  57.1070000  42.4050000
  30.0900000  56.5910000  42.6340000  29.3840000  58.0990000  42.1950000
  28.5740000  56.5060000  41.1390000  27.6060000  56.9440000  40.9860000
  28.4660000  55.4650000  41.3780000  29.5050000  56.5510000  39.8970000
  30.3560000  56.0310000  40.2460000  29.8870000  57.5280000  39.6380000
  28.9430000  55.9710000  38.5840000  28.6780000  54.9240000  38.7740000
  29.7270000  55.8500000  37.8500000  27.7960000  56.8280000  38.0570000
  28.1890000  57.8270000  37.9580000  26.9770000  56.7970000  38.7410000
  27.3760000  56.4190000  36.6350000  26.8030000  55.4770000  36.7460000
  28.1550000  56.3290000  35.8580000  26.4150000  57.4110000  35.9890000
  26.8800000  58.3160000  35.7770000  26.2660000  57.0890000  34.9610000
  24.9730000  57.6020000  36.5640000  24.4020000  56.6920000  36.9890000
  24.3310000  58.0510000  35.8750000  25.0530000  58.3540000  37.3210000
  73.3750000  16.1530000  39.4210000  73.9000000  17.1020000  39.2660000
  74.1360000  15.4320000  39.2340000  72.9780000  16.1500000  40.4800000
  72.1420000  16.1030000  38.4700000  71.7350000  17.0910000  38.4300000
  72.3990000  15.8300000  37.4220000  70.9900000  15.1370000  38.8330000
  70.3030000  15.6640000  39.5370000  70.4170000  14.8430000  37.9820000
  71.4820000  13.8870000  39.4960000  72.0380000  13.2810000  38.6940000
  72.0710000  14.2230000  40.3570000  70.3450000  13.1210000  40.0620000
  69.7270000  13.7570000  40.7240000  69.7030000  12.7010000  39.3030000
  70.7980000  11.9140000  40.9800000  71.3770000  11.2670000  40.4070000
  71.4660000  12.3230000  41.7480000  69.6020000  11.1320000  41.5730000
  69.0620000  10.6200000  40.7400000  69.9620000  10.3780000  42.2480000
  68.5900000  12.0130000  42.3640000  69.2470000  12.6480000  43.0660000
  68.0610000  12.7330000  41.7070000  67.6260000  11.2400000  43.2470000
  67.0300000  10.5730000  42.7460000  68.2140000  10.6110000  43.8760000
  66.8330000  12.2060000  44.0910000  67.4700000  12.7800000  44.7660000
  66.3650000  12.9100000  43.3990000  65.8420000  11.5080000  44.9890000
  65.4090000  10.7200000  44.4090000  66.4270000  10.9830000  45.7680000
  64.6250000  12.3140000  45.6100000  63.8430000  12.4030000  44.8600000
  64.2920000  11.7130000  46.4560000  65.1200000  13.7460000  46.1200000
  66.0880000  13.5890000  46.5250000  65.3180000  14.4220000  45.2790000
  64.0400000  14.3840000  47.0750000  63.1520000  14.3970000  46.5640000
  63.8950000  13.7620000  47.9570000  64.3880000  15.7260000  47.6500000
  65.2040000  15.6810000  48.3330000  64.6540000  16.3590000  46.8280000
  63.2150000  16.1830000  48.3810000  62.5620000  17.2050000  48.0170000
  63.0590000  15.5590000  49.5710000  61.9360000  15.9780000  50.4580000
  61.9680000  15.3030000  51.2710000  62.1430000  16.8840000  51.0020000
  60.6080000  16.2880000  49.8080000  60.5580000  17.3390000  49.4250000
  59.5480000  16.2080000  50.9050000  59.5390000  16.9690000  51.6650000
  58.5650000  16.2040000  50.3950000  59.5490000  14.9320000  51.6020000
  58.2400000  13.9950000  51.8060000  57.4180000  14.7150000  53.1180000
  56.4210000  15.7400000  52.8400000  56.2520000  16.3940000  53.7070000
  56.7820000  16.3110000  51.9570000  55.1260000  15.1060000  52.5160000
  54.3760000  15.9250000  52.2440000  55.2150000  14.4470000  51.6250000
  54.5850000  14.1410000  53.5110000  54.6520000  14.6090000  54.8840000
  54.1420000  15.5740000  55.0070000  54.3800000  13.7910000  55.5470000
  55.6820000  14.8450000  55.0750000  53.1790000  13.8410000  53.0660000
  52.6710000  13.2520000  53.8290000  52.7600000  14.8610000  52.9050000
  53.2620000  13.3120000  52.1220000  55.1880000  12.7600000  53.4190000
  55.1880000  12.4070000  52.3940000  54.6190000  12.0750000  54.0240000
  56.2250000  12.8040000  53.7530000  57.3740000  14.0890000  50.6520000
  58.7690000  12.6630000  52.1320000  60.3640000  15.2600000  48.8600000
  59.4890000  15.5340000  47.8890000  58.8310000  16.4990000  47.7940000
  59.6190000  14.4350000  46.8990000  58.6640000  13.9170000  46.9930000
  60.3040000  13.7280000  47.1850000  59.9040000  14.9160000  45.4600000
  60.9180000  15.3410000  45.3770000  59.2870000  15.7680000  45.2790000
  59.7340000  13.8620000  44.4120000  59.3700000  14.2410000  43.4270000
  59.0220000  13.2140000  44.8840000  61.0290000  13.0980000  44.1550000
  61.3060000  12.7430000  45.1270000  61.8190000  13.6940000  43.7010000
  60.9170000  11.7680000  43.2840000  60.3710000  11.0400000  43.8620000
  61.8500000  11.2750000  43.0450000  60.0020000  12.0210000  42.0640000
  59.2300000  12.7970000  42.1030000  59.3790000  11.1310000  41.9850000
  60.8140000  12.2590000  40.8160000  60.2100000  12.1090000  39.9420000
  61.5800000  11.4820000  40.6230000  61.4110000  13.7000000  40.8330000
  60.7450000  14.5110000  40.5770000  62.6430000  14.0150000  41.0430000
  62.9290000  15.0960000  41.0120000  63.7290000  13.0900000  41.5640000
  63.3970000  12.0560000  41.6570000  64.1300000  13.4270000  42.4640000
  64.8860000  13.1580000  40.5730000  65.8210000  12.7160000  41.0220000
  65.1160000  14.1560000  40.4200000  64.5600000  12.6020000  39.2010000
  63.6680000  13.0940000  38.8420000  64.3320000  11.5920000  39.3490000
  65.6270000  12.6060000  38.0090000  66.4570000  12.0140000  38.3450000
  66.1240000  13.5010000  37.8440000  64.9300000  12.0900000  36.7570000
  64.0370000  12.6850000  36.5600000  64.6110000  11.0630000  36.8590000
  65.9020000  12.0980000  35.5450000  66.6560000  11.2860000  35.6680000
  66.3180000  13.1090000  35.4270000  65.2740000  11.8860000  34.0680000
  64.6190000  12.8030000  33.8900000  64.5940000  10.9320000  34.1310000
  66.3750000  11.6140000  33.0370000  67.0220000  10.7830000  33.2690000
  66.9450000  12.5180000  32.9900000  65.9610000  11.4240000  32.0490000
 130.3240000  42.3880000  37.6310000 131.1530000  42.9940000  37.1830000
 129.4340000  42.4270000  37.0200000 130.6090000  41.3450000  37.5310000
 130.0730000  42.7130000  39.0560000 130.1060000  43.7920000  39.1200000
 129.1070000  42.2250000  39.4030000 131.1540000  42.0840000  39.8630000
 130.8520000  41.0230000  39.8450000 132.1420000  42.1640000  39.3760000
 131.2430000  42.6910000  41.2970000 131.3210000  43.7940000  41.2850000
 130.2720000  42.4520000  41.7970000 132.3960000  42.0510000  42.1030000
 132.2570000  40.9650000  42.0130000 133.2830000  42.3590000  41.6240000
 132.2780000  42.4900000  43.5400000 132.2780000  43.6060000  43.6050000
 131.2600000  42.2120000  43.8580000 133.3270000  41.8050000  44.5190000
 133.6990000  40.8440000  44.0760000 134.2150000  42.3960000  44.5990000
 132.8270000  41.7020000  46.0000000 132.3630000  42.5900000  46.3190000
 132.0620000  40.9270000  45.9840000 133.9470000  41.2650000  46.9430000
 134.7630000  41.9340000  46.7800000 133.5680000  41.4310000  48.0210000
 134.5250000  39.8620000  46.9610000 133.7480000  39.1460000  47.3250000
 134.7300000  39.5340000  45.9080000 135.8150000  39.6490000  47.8260000
 136.6410000  40.2700000  47.3930000 135.5360000  39.8750000  48.8260000
 136.2950000  38.1420000  47.7360000 135.4660000  37.5140000  48.1520000
 136.2350000  37.9520000  46.6920000 137.6880000  37.7160000  48.3000000
 138.5360000  38.1580000  47.6910000 137.8620000  38.0540000  49.3190000
 137.9740000  36.2580000  48.2310000 137.9600000  35.9950000  47.1770000
 139.0370000  36.0910000  48.5820000 136.9820000  35.3710000  48.9770000
 135.9730000  35.4460000  48.5600000 137.3320000  34.4280000  48.7180000
 137.1660000  35.6050000  50.4430000 138.2500000  35.5050000  51.0040000
 135.9320000  36.0210000  50.9430000 135.8940000  36.4370000  52.3470000
 134.8760000  36.6130000  52.6620000 136.2510000  35.6160000  52.9100000
 136.7450000  37.5890000  52.7690000 137.7880000  37.2740000  52.5550000
 136.6160000  37.9260000  54.3210000 137.2810000  37.2050000  54.8890000
 136.9740000  38.9230000  54.5460000 135.1870000  37.8620000  54.7910000
 134.0470000  38.9040000  54.2330000 133.3640000  39.2140000  55.6050000
 132.0440000  38.7260000  55.8450000 131.6140000  39.1710000  56.7720000
 131.4530000  38.8720000  54.9380000 132.0850000  37.1430000  56.0520000
 131.1360000  36.8110000  55.7800000 132.6520000  36.7910000  55.2780000
 132.6090000  36.6040000  57.3320000 131.9160000  37.2040000  58.5590000
 132.3410000  36.8180000  59.4580000 132.1020000  38.2920000  58.3570000
 130.8410000  36.9690000  58.4940000 132.5070000  35.1620000  57.3990000
 132.7340000  34.8340000  58.4140000 131.5390000  34.9050000  57.1360000
 133.3290000  34.7120000  56.7130000 133.9890000  37.0220000  57.5070000
 134.4550000  36.5550000  58.3740000 133.9120000  38.0690000  57.4950000
 134.5510000  36.7190000  56.5880000 134.6690000  40.1540000  53.6890000
 133.0840000  38.1130000  53.3590000 136.5890000  38.8120000  51.9270000
 137.6780000  39.6440000  51.9070000 138.6110000  39.6180000  52.7460000
 137.5950000  40.5760000  50.7970000 136.6070000  41.1040000  50.8760000
 137.6640000  39.9730000  49.9730000 138.8350000  41.4510000  50.6560000
 139.6990000  40.8190000  50.6380000 138.8480000  42.1120000  51.5430000
 138.8770000  42.3100000  49.3530000 139.7170000  43.0240000  49.4420000
 137.9130000  42.7910000  49.2760000 139.1340000  41.4770000  48.0900000
 138.3950000  41.8300000  47.3900000 139.0210000  40.3720000  48.3310000
 140.5680000  41.7220000  47.6750000 141.2790000  41.7570000  48.4990000
 140.6370000  42.7010000  47.2570000 140.9430000  40.7230000  46.5990000
 140.9720000  39.6460000  46.9230000 141.9600000  40.8650000  46.2870000
 140.0250000  40.8070000  45.3920000 139.9890000  41.9120000  45.2700000
 139.1480000  40.2370000  45.6270000 140.7630000  40.1730000  44.2330000
 141.8260000  39.8210000  44.3750000 140.2830000  40.0890000  42.9870000
 140.9230000  39.7390000  42.1340000 138.8730000  40.4350000  42.6270000
 138.9240000  41.1850000  41.8370000 138.2930000  40.8620000  43.4610000
 138.0380000  39.2280000  42.0690000 138.0370000  38.4070000  42.8360000
 138.5020000  38.7920000  41.1700000 136.6080000  39.5350000  41.6410000
 136.1030000  40.0950000  42.4090000 136.0740000  38.5600000  41.4690000
 136.5530000  40.3890000  40.3900000 137.3940000  40.0200000  39.7290000
 136.9960000  41.3610000  40.6820000 135.2090000  40.5950000  39.5140000
 134.3770000  40.7480000  40.1710000 134.8850000  39.6730000  39.0760000
 135.0710000  41.8410000  38.5510000 134.1070000  41.7560000  38.0400000
 135.9200000  41.7370000  37.8460000 135.2000000  43.2930000  39.1870000
 136.1420000  43.3090000  39.6170000 134.4820000  43.4540000  39.8700000
 135.1580000  44.5050000  38.2620000 134.1260000  44.6920000  37.9090000
 135.7630000  44.4180000  37.3290000 135.5070000  45.3480000  38.8530000
   8.9760000 123.6530000  42.6480000   8.7390000 124.6360000  43.0390000
   7.9970000 123.1110000  42.4970000   9.3990000 123.8770000  41.5990000
   9.9820000 123.0040000  43.6140000  10.2770000 122.0410000  43.2530000
  10.8950000 123.6460000  43.6680000   9.3170000 122.7290000  44.9780000
  10.1290000 122.5680000  45.7770000   8.6950000 123.5850000  45.0960000
   8.4110000 121.5150000  45.1520000   7.4040000 121.8940000  45.3040000
   8.3750000 120.8800000  44.2720000   8.6830000 120.5410000  46.2800000
   9.6020000 119.9690000  46.1620000   8.7880000 121.0300000  47.2480000
   7.4370000 119.6240000  46.4160000   6.5850000 119.8810000  45.8020000
   7.7410000 118.6660000  46.0940000   6.9980000 119.5990000  47.9020000
   6.8170000 120.6440000  48.3090000   6.0200000 119.0640000  47.9180000
   7.8530000 118.8810000  49.0000000   8.7590000 119.5040000  49.2470000
   7.2320000 118.6870000  49.9070000   8.3800000 117.5500000  48.4790000
   7.5360000 116.8920000  48.3410000   9.0690000 117.6620000  47.6270000
   9.1240000 116.7970000  49.6040000   9.8250000 117.4650000  49.9880000
   8.4140000 116.4860000  50.3300000   9.8360000 115.5110000  49.0280000
   9.0980000 114.7880000  48.9770000  10.2510000 115.6110000  48.0020000
  10.9750000 114.9020000  49.9290000  10.7230000 114.8620000  50.9880000
  11.2520000 113.9100000  49.6880000  12.2140000 115.7430000  49.8640000
  12.3890000 116.0750000  48.8360000  12.0800000 116.6170000  50.4350000
  13.3600000 115.0480000  50.6340000  13.1560000 114.9780000  51.7330000
  13.4990000 114.0400000  50.2490000  14.7860000 115.7560000  50.5090000
  15.6210000 115.1310000  50.9650000  15.0800000 115.9490000  49.4090000
  14.7450000 117.1200000  51.1490000  14.9200000 117.3420000  52.3340000
  14.4870000 118.1480000  50.3240000  14.7230000 119.5480000  50.7740000
  14.1320000 120.2440000  50.2100000  14.4380000 119.6130000  51.8470000
  16.1780000 119.8570000  50.5260000  16.7920000 119.2450000  51.2400000
  16.4750000 121.3620000  50.6410000  17.4860000 121.4120000  50.6350000
  16.0380000 121.8520000  49.7830000  15.8330000 121.9360000  51.8660000
  16.5850000 122.2290000  53.2480000  17.2110000 120.8670000  53.6880000
  16.5880000 120.0640000  54.6540000  17.0260000 120.2340000  55.6430000
  15.5030000 120.1520000  54.6940000  16.9970000 118.6190000  54.2050000
  16.5710000 118.2800000  53.2170000  18.0590000 118.6460000  54.0180000
  16.6490000 117.5270000  55.1350000  17.2210000 116.2090000  54.5770000
  18.2800000 116.3020000  54.4720000  16.9010000 115.3520000  55.2110000
  16.8750000 115.9040000  53.6000000  17.3190000 117.7250000  56.4150000
  17.1300000 116.7930000  56.9640000  18.4250000 117.7310000  56.4300000
  16.9270000 118.6160000  56.8960000  15.2000000 117.3380000  55.4870000
  14.9990000 116.4180000  56.0370000  14.6020000 117.2270000  54.5380000
  14.8790000 118.2280000  55.9920000  17.6480000 123.2000000  52.9510000
  15.5680000 122.4810000  54.2490000  16.6500000 119.6930000  49.1600000
  17.0960000 118.4760000  48.8620000  17.1190000 117.5290000  49.6400000
  17.4240000 118.4290000  47.4360000  18.2600000 117.6830000  47.3170000
  17.8660000 119.3820000  47.1200000  16.2190000 118.1120000  46.6020000
  15.3150000 118.4200000  47.0180000  16.1870000 117.0580000  46.4720000
  16.3820000 118.6560000  45.1850000  16.3630000 119.7470000  45.2580000
  15.4890000 118.4250000  44.5950000  17.6950000 118.2630000  44.4860000
  17.8060000 117.1690000  44.2540000  18.4970000 118.4010000  45.0990000
  17.7870000 119.1230000  43.2150000  17.6140000 120.1610000  43.3990000
  16.9600000 118.8190000  42.5360000  19.0500000 119.0080000  42.3890000
  19.1610000 117.9640000  42.0910000  19.8590000 119.3050000  43.0340000
  19.1110000 120.0650000  41.2420000  18.1620000 119.9640000  40.7030000
  19.8860000 119.7410000  40.6080000  19.4050000 121.4420000  41.7650000
  20.3750000 121.6150000  42.1750000  18.5610000 122.4680000  41.6650000
  18.8980000 123.4640000  41.8020000  17.0990000 122.4300000  41.1690000
  16.5230000 121.8920000  41.8620000  17.0610000 121.8510000  40.2420000
  16.3900000 123.8260000  41.0390000  16.8360000 124.5340000  40.2480000
  16.3600000 124.3330000  41.9920000  14.8880000 123.6290000  40.6500000
  14.3570000 123.0100000  41.3570000  14.8640000 123.1970000  39.5720000
  14.0800000 124.9290000  40.5680000  13.1510000 124.6520000  40.2260000
  14.6140000 125.5510000  39.8200000  13.9210000 125.7490000  41.9020000
  14.8680000 125.7770000  42.5070000  13.1930000 125.1880000  42.4700000
  13.3840000 127.1690000  41.6270000  14.0970000 127.8320000  41.1370000
  13.0040000 127.4760000  42.6220000  12.1040000 127.1920000  40.7350000
  12.2320000 126.8880000  39.7000000  11.6810000 128.2130000  40.7390000
  11.0910000 126.1940000  41.3630000  11.3930000 125.1000000  41.3120000
  10.0600000 126.3170000  40.8820000  10.7990000 126.3770000  42.3830000
  64.1840000 118.9360000  34.1400000  64.8270000 119.2050000  33.3140000
  63.4050000 119.7380000  34.2440000  63.7660000 117.9210000  33.9320000
  65.0290000 118.9620000  35.4240000  65.9550000 118.4190000  35.3360000
  65.2730000 119.9430000  35.8150000  64.1850000 118.2400000  36.5350000
  63.1270000 118.4140000  36.2410000  64.3650000 117.1150000  36.5360000
  64.4110000 118.8280000  37.9890000  64.2460000 119.8460000  38.1000000
  63.7330000 118.4040000  38.6580000  65.8640000 118.6390000  38.3920000
  66.0320000 117.5860000  38.3940000  66.6280000 119.1860000  37.7720000
  66.1290000 119.1240000  39.8110000  65.9920000 120.2580000  39.8400000
  65.3220000 118.7430000  40.4620000  67.5740000 118.8730000  40.3080000
  68.3090000 119.1160000  39.5540000  67.7960000 119.6270000  41.0010000
  67.8970000 117.4260000  40.9380000  67.9940000 116.7120000  40.0630000
  68.8710000 117.4120000  41.3900000  66.8970000 117.0210000  41.9930000
  66.7800000 117.7950000  42.7920000  65.8870000 116.9000000  41.5370000
  67.2410000 115.6450000  42.6620000  67.7150000 115.0190000  41.8660000
  68.0350000 115.8560000  43.3050000  66.1040000 114.9010000  43.2580000
  65.4690000 114.6080000  42.5070000  66.4990000 114.0210000  43.7540000
  65.4060000 115.7430000  44.3060000  66.1110000 116.3520000  44.9240000
  64.7060000 116.4130000  43.7750000  64.6790000 114.9470000  45.3480000
  65.3030000 114.0780000  45.5680000  64.4960000 115.5400000  46.2660000
  63.3790000 114.3610000  44.7680000  63.8120000 113.5020000  44.3290000
  62.9450000 115.0170000  44.0160000  62.2640000 114.0600000  45.7450000
  62.1180000 115.0340000  46.3570000  61.3290000 113.6960000  45.2450000
  62.7700000 113.0470000  46.7420000  63.1540000 111.9340000  46.4270000
  62.7630000 113.4160000  47.9990000  63.5530000 112.6290000  48.9550000
  63.5180000 113.1680000  49.9180000  63.1240000 111.5320000  49.0530000
  65.0190000 112.4690000  48.6750000  65.1540000 112.1570000  47.6960000
  65.8310000 111.5550000  49.5810000  65.2990000 110.6220000  49.7160000
  66.7650000 111.4050000  49.0310000  66.1980000 112.1570000  50.8740000
  65.1200000 112.3600000  52.0570000  64.7260000 113.8580000  51.9090000
  65.3850000 114.9250000  52.6350000  65.5540000 114.4230000  53.5940000
  66.3130000 115.2900000  52.1770000  64.3520000 116.0160000  52.8730000
  64.0560000 116.5200000  51.9310000  63.5070000 115.5310000  53.3050000
  64.6570000 117.1360000  53.8340000  63.4530000 118.0140000  53.8760000
  63.5790000 118.6850000  52.9660000  62.5210000 117.4140000  53.8160000
  63.5650000 118.5250000  54.8160000  64.8870000 116.5070000  55.2110000
  65.8070000 115.9190000  55.1810000  64.9710000 117.2450000  55.9550000
  64.0080000 115.8980000  55.3720000  65.8260000 117.8980000  53.4490000
  65.8580000 117.9660000  52.3570000  66.6640000 117.3840000  53.9080000
  65.6900000 118.8740000  53.9950000  63.9340000 111.4960000  51.8060000
  65.8190000 112.2200000  53.3730000  65.5990000 113.7940000  48.8640000
  66.8070000 114.0620000  48.2620000  67.3150000 113.3700000  47.3690000
  67.4590000 115.3210000  48.8430000  68.3500000 115.1260000  49.4650000
  66.7950000 115.8250000  49.5810000  67.7780000 116.4090000  47.8100000
  66.8840000 116.7450000  47.3450000  68.3800000 115.9100000  47.0310000
  68.4550000 117.6120000  48.4460000  69.4450000 117.3280000  48.7290000
  67.9810000 117.8400000  49.4210000  68.5000000 118.9210000  47.6200000
  69.0180000 119.7160000  48.1500000  67.4660000 119.2640000  47.7160000
  69.0970000 118.8810000  46.1780000  68.6270000 118.0360000  45.6670000
  70.2230000 118.7410000  46.2280000  68.7540000 120.0530000  45.3720000
  67.6970000 120.1170000  45.2880000  69.1950000 119.9200000  44.3570000
  69.2490000 121.4200000  45.9380000  70.3470000 121.4090000  45.8460000
  68.9130000 121.5050000  46.9490000  68.5850000 122.5220000  45.1480000
  67.4850000 122.4570000  45.2020000  69.1680000 123.5690000  44.5510000
  68.5080000 124.2950000  43.9950000  70.6080000 123.8250000  44.0770000
  71.3680000 123.5740000  44.8060000  70.8230000 124.8980000  43.9330000
  70.7740000 123.1630000  42.6830000  70.2490000 123.7970000  41.9870000
  70.2100000 122.1740000  42.6410000  72.1530000 122.9640000  42.2530000
  72.5950000 122.2960000  43.0140000  72.6500000 123.8860000  42.1500000
  72.1210000 122.0950000  40.9530000  71.7300000 121.0960000  41.1080000
  73.1470000 121.9870000  40.5810000  71.4130000 122.7270000  39.6830000
  72.0840000 122.6570000  38.8240000  71.2070000 123.7880000  39.9170000
  70.1280000 122.0180000  39.3970000  69.4870000 122.1340000  40.2310000
  70.3540000 120.9850000  39.1880000  69.3640000 122.5960000  38.2410000
  69.8510000 122.4110000  37.3380000  69.2080000 123.6530000  38.4590000
  67.8890000 122.0260000  38.0260000  67.2640000 121.9780000  39.0040000
  67.9940000 121.0230000  37.6180000  67.3910000 122.6460000  37.3010000
  46.3600000 140.3930000  37.2720000  46.9390000 140.4110000  36.3030000
  45.3410000 139.9390000  37.0060000  46.9290000 139.6970000  37.8720000
  46.1730000 141.8060000  37.9560000  47.0870000 142.3670000  38.0820000
  45.5110000 142.3290000  37.3920000  45.6060000 141.7850000  39.3790000
  44.9890000 142.6630000  39.5490000  44.8780000 140.9230000  39.3700000
  46.6130000 141.6390000  40.5500000  47.3220000 140.8400000  40.3980000
  47.2240000 142.5250000  40.6850000  45.8900000 141.3740000  41.7730000
  45.0510000 142.1210000  41.9090000  45.4170000 140.3590000  41.5840000
  46.7860000 141.2460000  43.0700000  47.5060000 140.4690000  42.8840000
  47.3670000 142.1530000  43.3720000  45.8720000 140.9970000  44.3440000
  45.2150000 141.8350000  44.6020000  45.3130000 140.0510000  44.1340000
  46.7560000 140.7260000  45.5470000  47.1310000 139.7130000  45.4320000
  47.5530000 141.4970000  45.5970000  46.0250000 140.9080000  46.9110000
  45.8260000 141.9010000  47.0200000  45.0720000 140.3610000  46.7570000
  46.8210000 140.4470000  48.1970000  47.8220000 140.8860000  48.0670000
  46.3160000 140.8650000  49.0700000  46.9080000 138.8940000  48.3250000
  47.1410000 138.4480000  47.3720000  47.6790000 138.7480000  49.0700000
  45.5950000 138.2370000  48.7030000  45.3920000 138.4280000  49.7090000
  44.8040000 138.6550000  48.0120000  45.5460000 136.7160000  48.5450000
  45.8290000 136.5130000  47.5770000  46.2240000 136.2810000  49.2730000
  44.2200000 135.9910000  48.8730000  43.3750000 136.4800000  48.2940000
  44.2360000 134.9850000  48.5800000  43.8840000 136.0920000  50.3550000
  44.2410000 137.0290000  50.7080000  42.8710000 136.0600000  50.4750000
  44.4770000 135.1020000  51.3840000  43.9090000 134.1570000  51.8800000
  45.6730000 135.4770000  51.9050000  46.2960000 134.8060000  52.9770000
  46.9480000 135.5110000  53.4970000  45.5310000 134.3710000  53.6810000
  47.3320000 133.8190000  52.4520000  46.7330000 133.0080000  51.9920000
  48.2600000 133.3340000  53.5950000  47.7270000 132.7150000  54.2910000
  48.9440000 132.6190000  53.2470000  48.9240000 134.3660000  54.3150000
  50.1410000 135.1720000  53.6980000  51.0520000 135.6310000  54.8660000
  52.4430000 135.3140000  55.0020000  52.8280000 135.5860000  55.9700000
  52.6010000 134.2570000  54.8370000  53.2410000 136.0540000  53.9460000
  54.2970000 135.8130000  54.1180000  53.0770000 135.6450000  52.9750000
  53.0710000 137.5590000  53.6500000  54.4130000 138.2110000  53.7590000
  54.2490000 139.2940000  53.8720000  55.0360000 137.7290000  54.5260000
  54.9950000 138.0300000  52.8100000  52.4780000 137.6490000  52.2680000
  51.3500000 137.6280000  52.3400000  52.7220000 138.5840000  51.7570000
  52.9010000 136.8780000  51.6570000  52.2260000 138.2640000  54.5790000
  51.3130000 137.7040000  54.7300000  52.0540000 139.2510000  54.0200000
  52.6460000 138.4610000  55.5310000  50.9570000 134.2300000  52.9750000
  49.6750000 136.3920000  52.9790000  48.1420000 134.3610000  51.4160000
  48.8550000 133.4960000  50.6130000  48.5880000 132.3300000  50.5050000
  49.8900000 134.2390000  49.7120000  50.9340000 134.1480000  50.0610000
  49.6590000 135.2860000  49.8580000  49.9420000 134.0310000  48.2510000
  49.9830000 132.9840000  48.0790000  50.9120000 134.4470000  47.8780000
  48.7930000 134.7290000  47.5320000  48.9120000 135.8150000  47.8010000
  47.8350000 134.3240000  47.9400000  48.8640000 134.6560000  46.0050000
  48.6380000 133.5680000  45.6750000  49.8740000 134.6720000  45.7160000
  48.2340000 135.8070000  45.1270000  48.7500000 135.9080000  44.1420000
  48.3200000 136.7350000  45.7350000  46.7320000 135.7160000  44.9420000
  46.3310000 135.5190000  45.9020000  46.5410000 134.9050000  44.2920000
  46.1150000 136.9880000  44.2870000  46.7600000 137.2460000  43.4850000
  46.1470000 137.6400000  45.1380000  44.6820000 136.8390000  43.8680000
  44.0150000 136.5610000  44.6160000  44.2510000 136.7410000  42.6410000
  43.2130000 136.5310000  42.4510000  45.1430000 137.1020000  41.4070000
  45.8370000 137.9780000  41.6740000  44.5040000 137.5760000  40.6190000
  45.7680000 135.8960000  40.6340000  45.0320000 135.2220000  40.1990000
  46.2450000 135.3100000  41.4040000  46.6740000 136.4820000  39.5450000
  47.3510000 137.1160000  39.9930000  45.9960000 137.0360000  38.9000000
  47.5030000 135.3670000  38.8330000  47.4870000 135.5680000  37.7740000
  46.7860000 134.5070000  38.8120000  48.9910000 135.0290000  39.3050000
  49.4980000 136.0140000  39.2090000  49.5380000 134.2770000  38.6950000
  48.9890000 134.6220000  40.7690000  48.5100000 133.6870000  40.8310000
  48.4120000 135.3100000  41.3730000  50.3230000 134.4690000  41.5060000
  50.9080000 133.7280000  40.9360000  50.1600000 133.8490000  42.4080000
  51.1110000 135.7100000  41.7710000  52.2220000 135.6160000  41.9410000
  50.5930000 136.1930000  42.6570000  50.9570000 136.3870000  40.9150000
  39.8460000  53.2430000  41.1240000  40.7750000  53.2730000  40.5380000
  39.0400000  53.1140000  40.4860000  39.9150000  52.3570000  41.7080000
  39.7250000  54.4940000  42.0160000  39.6190000  55.2850000  41.2890000
  38.7740000  54.4220000  42.5850000  40.9220000  54.7010000  42.9210000
  41.0150000  53.8840000  43.6360000  41.8480000  54.7140000  42.3760000
  40.7430000  55.9240000  43.7460000  39.7740000  55.8870000  44.2660000
  41.5270000  55.9210000  44.4450000  41.0920000  57.1430000  42.8660000
  42.1630000  57.2540000  42.7540000  40.6380000  57.0010000  41.9180000
  40.4470000  58.4430000  43.4680000  41.0700000  58.7190000  44.3790000
  40.5120000  59.2320000  42.7380000  38.9180000  58.3750000  43.6890000
  38.4320000  58.2660000  42.7200000  38.6300000  57.6100000  44.3630000
  38.3340000  59.7380000  44.2480000  38.7490000  59.9200000  45.2200000
  38.6170000  60.5270000  43.5620000  36.8540000  59.8130000  44.3890000
  36.4300000  60.7780000  44.1070000  36.4010000  59.0230000  43.7450000
  36.2660000  59.5310000  45.7620000  36.6840000  58.6160000  46.0760000
  36.5640000  60.2870000  46.4580000  34.7430000  59.4040000  45.4910000
  34.5090000  60.3640000  45.1130000  34.7010000  58.6940000  44.6400000
  33.7850000  58.9550000  46.6230000  34.1760000  58.1530000  47.2130000
  33.8810000  59.7460000  47.3630000  32.3750000  58.6830000  46.2400000
  32.3050000  57.7890000  45.5410000  31.7650000  58.3690000  47.0730000
  31.7170000  59.9240000  45.6560000  32.3330000  60.1160000  44.7330000
  30.7010000  59.6920000  45.2620000  31.7130000  61.2450000  46.5020000
  32.7190000  61.3140000  46.9130000  31.6760000  62.2290000  46.0810000
  30.6560000  61.1890000  47.5940000  29.4930000  60.8190000  47.3780000
  31.1820000  61.4980000  48.7720000  30.4300000  60.9960000  49.8900000
  30.7840000  61.6310000  50.6950000  29.4350000  61.3560000  49.7240000
  30.6570000  59.5770000  50.3100000  30.0340000  58.9420000  49.5910000
  30.1510000  59.4010000  51.7850000  29.0770000  59.3030000  51.7570000
  30.4520000  58.5240000  52.2000000  30.4460000  60.4870000  52.7750000
  31.8950000  60.7320000  53.3220000  32.3640000  62.0620000  52.5460000
  33.3680000  61.9860000  51.5920000  33.5110000  60.9700000  51.1740000
  32.9000000  62.6160000  50.7990000  34.6560000  62.8000000  52.0060000
  35.3170000  62.8520000  51.1840000  34.4240000  63.8740000  52.2310000
  35.5450000  62.3630000  53.0630000  36.8610000  62.9980000  52.9460000
  36.6750000  64.0620000  52.7030000  37.2620000  63.0260000  53.9500000
  37.5040000  62.4700000  52.2000000  35.0040000  62.6850000  54.3810000
  34.0850000  62.1980000  54.6050000  35.7570000  62.3710000  55.0900000
  34.8760000  63.7600000  54.3600000  35.8670000  60.8660000  53.0860000
  36.3400000  60.5720000  54.0470000  36.4870000  60.5360000  52.1830000
  34.9200000  60.3510000  53.0560000  31.7830000  61.2000000  54.6820000
  32.8000000  59.5790000  52.9890000  32.0170000  59.2690000  50.1490000
  32.4710000  57.9550000  50.2460000  31.7670000  56.9790000  50.4790000
  34.0130000  57.7840000  50.1810000  34.4260000  58.7780000  50.0440000
  34.3300000  57.2040000  49.2860000  34.6430000  57.1510000  51.4040000
  34.3970000  56.0350000  51.4490000  34.2270000  57.4900000  52.3200000
  36.1770000  57.2290000  51.4010000  36.5380000  56.9330000  52.4030000
  36.6160000  58.2060000  51.2170000  37.0430000  56.3500000  50.4020000
  36.7950000  55.3060000  50.5700000  38.0590000  56.4320000  50.8350000
  37.0920000  56.7690000  48.8900000  37.5260000  57.8100000  48.7590000
  36.1140000  56.6100000  48.4030000  37.8760000  55.6870000  47.9510000
  37.6470000  54.6480000  48.4140000  38.8950000  55.7630000  48.0390000
  37.4790000  55.7110000  46.4560000  38.2050000  55.0200000  45.9090000
  37.6870000  56.7400000  46.1400000  36.0120000  55.3360000  46.3150000
  35.4780000  54.8430000  47.1890000  35.3700000  55.3500000  45.1280000
  34.3890000  54.9640000  45.1280000  36.0010000  55.6620000  43.7890000
  36.4390000  54.7270000  43.4300000  36.7540000  56.4690000  43.8940000
  35.0240000  56.2390000  42.7390000  35.5280000  56.4070000  41.8010000
  34.7080000  57.2180000  43.0640000  33.7820000  55.3360000  42.5260000
  32.9130000  55.9130000  42.9510000  33.9790000  54.3010000  42.9600000
  33.6210000  55.2200000  40.9700000  33.4940000  56.2130000  40.5590000
  32.6460000  54.7020000  40.8040000  34.6180000  54.2690000  40.2510000
  34.3510000  53.3500000  40.7580000  35.6680000  54.3470000  40.3680000
  34.4560000  54.1710000  38.6860000  34.9300000  55.0750000  38.2160000
  33.3590000  54.0770000  38.4580000  35.0640000  52.8980000  38.1740000
  34.5990000  52.0800000  38.6410000  36.0640000  52.9640000  38.5540000
  34.9800000  52.6160000  36.7160000  35.6170000  53.3520000  36.2160000
  33.9340000  52.8580000  36.2980000  35.3910000  51.7060000  36.3640000
  29.0720000  69.9270000  37.3180000  29.2090000  70.9030000  37.8650000
  29.6690000  69.8930000  36.3600000  29.4650000  69.1020000  37.9400000
  27.5960000  69.7110000  37.0710000  27.1370000  70.4750000  36.4570000
  27.4190000  68.8310000  36.4590000  26.7240000  69.6690000  38.3410000
  26.7300000  70.5890000  38.8990000  25.6800000  69.4320000  38.0160000
  27.1580000  68.6350000  39.4380000  26.9670000  67.6480000  39.0140000
  28.2900000  68.7560000  39.6710000  26.3600000  68.9580000  40.7380000
  26.6680000  69.9480000  41.1410000  25.3170000  68.9920000  40.5130000
  26.6580000  67.8820000  41.8490000  26.4420000  66.8460000  41.5650000
  27.6960000  67.9000000  42.0740000  26.0080000  68.1550000  43.1450000
  25.0250000  68.6250000  42.9090000  25.8460000  67.1350000  43.5370000
  26.7610000  68.9660000  44.2460000  26.8430000  70.0250000  44.0380000
  26.0520000  68.8380000  45.0570000  28.1220000  68.4100000  44.5780000
  28.1090000  67.3310000  44.5810000  28.9010000  68.6920000  43.8990000
  28.6750000  69.0160000  45.9000000  28.8620000  70.0660000  45.8130000
  27.9310000  68.9530000  46.6650000  29.9320000  68.3200000  46.4560000
  30.6980000  68.3060000  45.7140000  30.4590000  68.8190000  47.3240000
  29.6410000  66.8700000  46.8860000  28.7020000  66.8630000  47.5840000
  29.3060000  66.2910000  45.9650000  30.8760000  66.1390000  47.4340000
  31.5730000  66.0450000  46.5290000  31.4150000  66.7430000  48.1540000
  30.6470000  64.7650000  48.0200000  30.4460000  64.1220000  47.1910000
  31.4980000  64.3210000  48.5360000  29.5090000  64.6540000  48.9970000
  28.6630000  65.0830000  48.5640000  29.4280000  63.6020000  49.2790000
  29.8360000  65.2730000  50.2670000  29.9010000  64.6800000  51.2910000
  30.0500000  66.5950000  50.2120000  30.1010000  67.3300000  51.4370000
  29.0520000  67.3230000  51.8270000  30.8630000  66.8260000  52.0890000
  30.6950000  68.6930000  51.2170000  31.4780000  68.6120000  50.5080000
  31.2190000  69.2690000  52.5130000  31.8100000  68.5660000  53.2040000
  31.9510000  70.0010000  52.2580000  30.1990000  69.9520000  53.2950000
  28.9850000  69.2510000  54.1710000  27.7820000  69.1030000  53.2110000
  26.5760000  68.3900000  53.6710000  25.9270000  68.0740000  52.8730000
  26.8440000  67.4560000  54.1880000  25.7790000  69.3800000  54.5860000
  24.7290000  68.8880000  54.7420000  26.4040000  69.5240000  55.4670000
  25.3440000  70.7040000  54.0380000  26.4910000  71.6220000  54.2420000
  26.8830000  71.3930000  55.2450000  27.3370000  71.4490000  53.5520000
  26.2340000  72.6720000  54.3750000  24.8450000  70.5840000  52.5770000
  25.7290000  70.2430000  52.0850000  24.1220000  69.7190000  52.6890000
  24.4060000  71.5270000  52.2460000  24.2120000  71.2350000  54.8930000
  23.4340000  70.5350000  55.0080000  23.8410000  72.1790000  54.4960000
  24.6160000  71.4560000  55.9120000  29.4130000  67.8700000  54.5690000
  28.6670000  70.0990000  55.3000000  29.6030000  69.4340000  50.6860000
  29.8600000  70.4550000  49.9210000  30.8810000  70.5820000  49.3030000
  28.6950000  71.3170000  49.7500000  27.7700000  70.6910000  49.7730000
  28.6240000  71.8180000  48.8010000  28.5040000  72.2650000  50.8720000
  29.3300000  72.9420000  50.9910000  28.4170000  71.6850000  51.8220000
  27.1400000  73.0840000  50.7120000  26.9580000  73.6300000  51.6230000
  26.4080000  72.3410000  50.6510000  27.0920000  74.1390000  49.5410000
  27.1020000  73.7110000  48.5170000  27.9500000  74.7810000  49.5980000
  25.7340000  74.9230000  49.7020000  25.5690000  75.3880000  50.6920000
  24.9210000  74.1860000  49.6350000  25.6870000  76.2160000  48.7810000
  26.6860000  76.7110000  48.8490000  24.8930000  76.7920000  49.2450000
  25.3300000  75.8700000  47.3510000  24.2700000  75.7460000  47.2190000
  25.8730000  74.9850000  46.9660000  25.6970000  77.1590000  46.5520000
  25.2250000  78.0550000  46.8110000  26.7270000  77.1770000  45.7090000
  27.0740000  78.1130000  45.2270000  27.4840000  75.9370000  45.2580000
  27.2400000  74.9170000  45.6800000  28.5840000  76.0630000  45.4990000
  27.3990000  75.8480000  43.7560000  27.6270000  76.8460000  43.2580000
  26.3540000  75.4830000  43.5350000  28.3470000  74.7590000  43.1290000
  27.9990000  73.7730000  43.3710000  29.3090000  74.8030000  43.6520000
  28.6280000  74.8640000  41.6210000  29.3040000  74.0270000  41.2580000
  29.1660000  75.8190000  41.4230000  27.3770000  74.8580000  40.7440000
  27.7760000  75.1240000  39.7190000  26.6240000  75.5530000  40.9720000
  26.7390000  73.4880000  40.6970000  26.3880000  73.1960000  41.6760000
  27.4910000  72.7840000  40.3160000  25.6170000  73.3750000  39.5750000
  25.1930000  72.3110000  39.7080000  26.1060000  73.5480000  38.5560000
  24.4440000  74.3230000  39.6860000  23.8870000  74.2820000  40.5910000
  23.7040000  74.1910000  38.8880000  24.7620000  75.4090000  39.6560000
 107.0480000  60.5130000  39.6360000 106.7060000  60.4640000  38.5230000
 106.2980000  61.0340000  40.1740000 107.1390000  59.5360000  40.1800000
 108.3610000  61.3050000  39.7540000 108.2280000  62.3420000  39.4030000
 108.7310000  61.4510000  40.7500000 109.3930000  60.7040000  38.7760000
 109.4710000  59.6130000  38.8660000 109.0610000  60.7820000  37.7260000
 110.8260000  61.1790000  38.8360000 111.3780000  60.9790000  37.9210000
 110.9790000  62.2120000  39.0940000 111.5480000  60.4240000  39.9670000
 110.9830000  60.3320000  40.9320000 111.8060000  59.3910000  39.6470000
 112.9400000  61.1280000  40.2780000 113.7520000  60.7470000  39.6710000
 112.8220000  62.1940000  40.1110000 113.4220000  60.9270000  41.7020000
 112.6130000  61.2760000  42.2830000 113.4390000  59.9030000  42.0080000
 114.7070000  61.6430000  42.0970000 114.6610000  62.7830000  42.0460000
 115.0710000  61.3550000  43.1250000 115.8660000  61.2560000  41.1900000
 115.7490000  61.5210000  40.1280000 116.6570000  61.9330000  41.5590000
 116.4170000  59.7770000  41.2380000 115.7050000  59.1720000  40.6200000
 117.4140000  59.8250000  40.7840000 116.6420000  59.1100000  42.6700000
 115.6670000  59.2850000  43.2160000 116.8630000  58.0050000  42.5930000
 117.8010000  59.8600000  43.3800000 118.7600000  59.8350000  42.7370000
 117.5590000  60.9130000  43.4800000 118.1990000  59.3810000  44.7780000
 118.3370000  58.3230000  44.6510000 119.0920000  59.9330000  45.0990000
 117.1440000  59.6130000  45.8430000 117.0960000  60.6440000  45.9670000
 116.1270000  59.3760000  45.6020000 117.6050000  58.8350000  47.0900000
 117.6590000  57.7890000  46.8960000 118.6490000  59.1300000  47.4580000
 116.8130000  59.1350000  48.2880000 115.8700000  59.9170000  48.3300000
 117.4060000  58.4820000  49.3400000 116.9390000  58.7030000  50.7140000
 115.8600000  58.6700000  50.7680000 117.1930000  57.9180000  51.3940000
 117.6060000  59.9460000  51.2830000 118.6550000  59.9500000  50.9530000
 117.4240000  60.0350000  52.8800000 116.8190000  60.8920000  53.0150000
 116.9000000  59.1170000  53.1410000 118.6120000  60.1520000  53.5960000
 119.5800000  58.9060000  53.7270000 118.6250000  57.7240000  54.2420000
 118.1740000  57.4070000  55.5510000 119.0080000  57.5770000  56.3230000
 117.4350000  58.1340000  55.8430000 117.6680000  55.9580000  55.4530000
 116.7920000  55.9760000  54.8050000 118.4010000  55.4500000  55.0220000
 117.3310000  55.2890000  56.7420000 118.6240000  55.1280000  57.5480000
 118.4610000  54.3830000  58.3330000 119.4110000  54.7800000  56.8810000
 118.8610000  56.1020000  57.9950000 116.2770000  56.0610000  57.5470000
 115.6920000  56.3860000  56.7590000 115.7000000  55.5080000  58.1840000
 116.7180000  56.8660000  58.2220000 116.8770000  53.9550000  56.2390000
 116.6380000  53.5690000  57.2050000 117.7340000  53.3520000  55.9460000
 116.0160000  54.0180000  55.6250000 120.0500000  58.5230000  52.3470000
 120.5650000  59.2180000  54.7750000 116.8760000  61.1560000  50.7070000
 117.6850000  62.2520000  50.5700000 118.8970000  62.2230000  50.8580000
 116.9980000  63.3790000  49.8730000 117.1590000  64.2750000  50.5120000
 115.9900000  63.1790000  49.6360000 117.7080000  63.5270000  48.5380000
 117.8170000  62.6480000  47.9840000 118.7210000  63.8600000  48.7010000
 117.0760000  64.5550000  47.6580000 116.8470000  65.4050000  48.2940000
 116.1870000  64.1350000  47.2500000 117.9560000  65.0720000  46.4890000
 118.7130000  65.6270000  46.9330000 117.4460000  65.7240000  45.7290000
 118.6170000  64.0070000  45.5710000 117.7850000  63.2990000  45.2310000
 119.3050000  63.4380000  46.1690000 119.4850000  64.4610000  44.3730000
 120.3300000  65.1070000  44.6440000 118.8740000  65.0520000  43.6370000
 120.1840000  63.2090000  43.6200000 119.3120000  62.7460000  43.1830000
 120.6320000  62.4520000  44.2560000 121.1780000  63.7210000  42.5900000
 122.1510000  63.7970000  42.9540000 121.0060000  63.9130000  41.2760000
 121.9130000  64.1480000  40.6650000 119.6650000  63.8230000  40.5230000
 118.8770000  63.3930000  41.1500000 119.8830000  63.1650000  39.6130000
 119.2790000  65.2520000  40.0290000 120.0840000  65.7620000  39.4250000
 119.1490000  65.8540000  40.9320000 117.9960000  65.1490000  39.1510000
 118.0450000  64.4810000  38.3040000 117.7010000  66.1320000  38.7400000
 116.7830000  64.6750000  39.9000000 116.8780000  65.1960000  40.8680000
 116.7580000  63.5560000  40.0130000 115.5210000  65.1180000  39.2290000
 115.3280000  64.4140000  38.4040000 115.6930000  66.1180000  38.7080000
 114.3530000  65.2460000  40.2550000 114.7440000  65.9080000  41.0010000
 114.2050000  64.2660000  40.7020000 113.0390000  65.8050000  39.6810000
 113.3260000  66.8490000  39.3980000 112.1850000  66.0600000  40.3360000
 112.5590000  64.9550000  38.4860000 112.4700000  63.9010000  38.7270000
 113.2070000  64.9690000  37.6840000 111.5680000  65.4140000  38.1400000
 124.5680000 111.9460000  32.4900000 124.6610000 110.9260000  32.1920000
 125.5630000 112.3420000  32.3510000 123.9480000 112.3540000  31.6800000
 123.9050000 112.2840000  33.7990000 123.6970000 113.3550000  33.7800000
 122.9640000 111.7250000  33.9320000 124.7500000 112.0070000  35.0710000
 124.7560000 110.9500000  35.4400000 125.7860000 112.3000000  34.8220000
 124.2900000 113.0040000  36.2060000 125.0480000 113.0810000  37.0180000
 124.1550000 114.0260000  35.8790000 123.0620000 112.6640000  36.9520000
 122.8660000 113.3580000  37.7670000 122.1990000 112.7510000  36.2580000
 122.9880000 111.2140000  37.4790000 122.0440000 110.9550000  37.9170000
 123.1810000 110.4030000  36.7650000 124.1180000 111.0480000  38.4970000
 124.0700000 109.9990000  38.8260000 125.1530000 111.1620000  38.1540000
 123.7930000 111.8860000  39.7970000 123.7340000 112.9710000  39.5670000
 122.8790000 111.4940000  40.1840000 124.9900000 111.8340000  40.7430000
 125.0080000 110.7740000  41.2100000 125.8720000 111.9860000  40.1030000
 124.8730000 112.9480000  41.8230000 124.4710000 113.8250000  41.3710000
 124.1670000 112.6240000  42.6180000 126.2540000 113.2390000  42.4580000
 126.7870000 112.2910000  42.7380000 126.8780000 113.8040000  41.7330000
 126.1670000 114.1950000  43.6780000 125.1610000 114.0200000  44.2030000
 126.9250000 113.8240000  44.3380000 126.5540000 115.6060000  43.4220000
 127.5410000 115.6870000  43.1660000 126.0330000 115.9300000  42.5460000
 126.2900000 116.5770000  44.6210000 126.2900000 117.5640000  44.2100000
 125.2520000 116.3520000  44.9650000 127.2420000 116.3590000  45.8020000
 126.7720000 115.4980000  46.3390000 128.2220000 116.0020000  45.5020000
 127.3540000 117.4340000  46.8430000 127.2750000 118.6710000  46.6770000
 127.6380000 116.8640000  48.0090000 127.8240000 117.5520000  49.2550000
 128.5370000 118.4140000  49.1480000 126.8270000 117.8580000  49.6240000
 128.4580000 116.5370000  50.2960000 128.6040000 117.0490000  51.2450000
 129.7430000 115.9050000  49.6850000 129.8070000 114.7700000  49.8180000
 129.8010000 116.1920000  48.5960000 130.8380000 116.4780000  50.3800000
 132.1280000 116.9320000  49.5400000 132.7490000 115.5960000  48.9510000
 133.1680000 114.5390000  49.8340000 133.6070000 114.8490000  50.8320000
 132.2700000 114.0200000  49.9900000 134.1950000 113.7750000  49.0220000
 134.4510000 112.8870000  49.5800000 133.7850000 113.5580000  48.0240000
 135.5070000 114.4630000  48.6850000 136.2480000 113.5750000  47.7220000
 137.2020000 113.9350000  47.8110000 136.1700000 112.6240000  48.2170000
 135.8060000 113.6730000  46.7240000 135.3100000 115.7460000  48.0310000
 134.8490000 116.4430000  48.8300000 136.2820000 116.1740000  47.7630000
 134.5760000 115.6700000  47.2190000 136.3060000 114.6730000  49.8720000
 135.7710000 115.3800000  50.5430000 137.2390000 115.1130000  49.5260000
 136.4910000 113.6600000  50.2790000 131.7700000 117.9380000  48.4860000
 133.0580000 117.3790000  50.5870000 127.4410000 115.5480000  50.5130000
 126.4880000 115.7390000  51.4190000 126.2550000 116.7310000  52.0240000
 125.7400000 114.4660000  51.6300000 126.0780000 114.0520000  52.5630000
 126.1460000 113.8320000  50.8250000 124.1790000 114.5890000  51.5130000
 123.8920000 114.8740000  50.4950000 123.7390000 115.3860000  52.1110000
 123.6510000 113.1740000  51.8780000 124.1520000 112.7200000  52.7790000
 123.7390000 112.4390000  51.0670000 122.1620000 113.1610000  52.2660000
 121.9460000 113.9110000  53.0220000 122.0590000 112.1300000  52.7650000
 121.0640000 113.3360000  51.1470000 121.2070000 114.2600000  50.5710000
 120.0940000 113.2890000  51.5630000 121.1110000 112.2430000  50.2090000
 121.2390000 111.3590000  50.9200000 122.0220000 112.2480000  49.6080000
 119.9600000 112.1070000  49.2630000 120.2750000 111.5650000  48.4240000
 119.7850000 113.1710000  48.8820000 118.7830000 111.3790000  49.8540000
 118.9250000 110.2910000  49.7600000 117.5300000 111.9110000  50.0620000
 116.7450000 111.1410000  50.3080000 117.0050000 113.2610000  50.1370000
 117.6590000 114.0360000  50.5040000 116.2330000 113.2610000  50.8980000
 116.2380000 113.6820000  48.8410000 115.8560000 114.6540000  49.0730000
 115.3990000 113.0060000  48.7570000 117.2010000 113.7410000  47.6310000
 117.5800000 112.8170000  47.3930000 118.0980000 114.3010000  47.7950000
 116.4580000 114.2890000  46.4230000 116.1530000 115.2790000  46.6550000
 115.6640000 113.6510000  46.1640000 117.3840000 114.5290000  45.2060000
 117.9530000 113.7050000  44.8980000 118.0940000 115.3520000  45.4860000
 116.6500000 115.0640000  43.9400000 117.3880000 114.9880000  43.0990000
 116.3300000 116.0980000  44.1020000 115.3640000 114.2490000  43.6030000
 114.5130000 114.5770000  44.1960000 115.5100000 113.2100000  43.9290000
 114.9130000 114.2830000  42.1840000 114.1000000 113.5140000  42.1150000
 115.6460000 114.0050000  41.4790000 114.6250000 115.2790000  41.9890000
 133.2540000  58.0460000  33.2490000 133.6840000  58.6740000  34.0130000
 133.3270000  58.5210000  32.3090000 133.7910000  57.0600000  33.1280000
 131.7590000  57.7930000  33.6030000 131.3710000  58.7430000  33.5600000
 131.3210000  57.2270000  32.7570000 131.2980000  57.0940000  34.8650000
 130.2220000  57.1260000  34.7690000 131.7000000  56.0960000  35.1010000
 131.6420000  58.0110000  36.0630000 132.6250000  57.8780000  36.3730000
 131.4670000  59.0160000  35.7430000 130.8180000  57.7320000  37.3140000
 129.7810000  57.6070000  37.0910000 131.0030000  56.7730000  37.7280000
 131.0140000  58.9080000  38.3450000 132.0640000  58.7900000  38.5610000
 130.8780000  59.9240000  37.8770000 130.1170000  58.7670000  39.6150000
 130.2530000  57.7890000  40.0420000 130.5050000  59.3930000  40.4460000
 128.6200000  59.0390000  39.3420000 128.5630000  60.0420000  39.0570000
 128.2740000  58.4120000  38.5060000 127.8000000  58.9240000  40.6680000
 127.9040000  57.9930000  41.1940000 128.1140000  59.6380000  41.4030000
 126.2830000  59.1050000  40.4700000 126.2270000  58.6250000  39.4760000
 125.7900000  58.4930000  41.1720000 125.7900000  60.5880000  40.5150000
 126.5520000  61.2430000  39.9960000 124.9110000  60.6430000  39.9020000
 125.5130000  60.9320000  41.9510000 125.0390000  60.1430000  42.5730000
 126.3950000  61.1020000  42.5260000 124.7990000  62.2770000  41.9900000
 125.2840000  62.9780000  41.2540000 123.7530000  62.1180000  41.6000000
 124.7530000  63.0670000  43.3360000 125.7960000  63.4510000  43.5530000
 124.2200000  63.9490000  43.1490000 124.1250000  62.1980000  44.4500000
 123.2820000  61.5310000  44.2620000 124.8640000  61.4650000  44.8340000
 123.6450000  63.0770000  45.5420000 122.9430000  64.0450000  45.3910000
 124.0500000  62.6420000  46.7350000 123.6710000  63.5040000  47.8790000
 124.2080000  63.3300000  48.7790000 123.8050000  64.5790000  47.5370000
 122.2670000  63.0700000  48.2560000 121.8160000  63.0140000  47.2800000
 121.5710000  64.1180000  49.1600000 121.1510000  64.8030000  48.4720000
 120.8980000  63.6700000  49.8050000 122.5300000  64.8510000  50.0320000
 122.0110000  65.9050000  51.1540000 122.1660000  65.0940000  52.5570000
 121.0440000  64.2610000  53.1030000 121.1250000  64.4450000  54.1600000
 120.1190000  64.6310000  52.7380000 121.2100000  62.7610000  52.8110000
 120.3370000  62.2020000  53.1830000 121.1940000  62.6440000  51.7020000
 122.4690000  62.0530000  53.3490000 122.5520000  60.8660000  52.3970000
 121.5070000  60.4070000  52.4000000 122.9530000  61.0540000  51.4010000
 123.1630000  60.0750000  52.8720000 123.7420000  62.8220000  53.1280000
 124.5320000  62.0180000  53.2920000 123.8510000  63.1590000  52.1350000
 123.7940000  63.6640000  53.8500000 122.2810000  61.6960000  54.7550000
 121.3660000  61.1780000  54.8870000 122.4160000  62.5360000  55.3820000
 123.1640000  61.0150000  54.9390000 122.7830000  67.1800000  51.1430000
 120.5570000  66.0140000  50.8460000 122.3910000  61.7880000  48.9410000
 121.4630000  60.8360000  48.6740000 120.6460000  61.0060000  47.8120000
 121.6390000  59.6180000  49.4510000 121.0690000  59.7070000  50.3480000
 122.7140000  59.5960000  49.6560000 121.4590000  58.3530000  48.6540000
 120.4250000  58.2940000  48.2770000 121.8340000  57.4810000  49.2130000
 122.3400000  58.2740000  47.3890000 123.3850000  58.1000000  47.6960000
 122.3140000  59.1540000  46.7960000 121.7810000  57.0930000  46.5310000
 120.8020000  57.4770000  46.1960000 121.5800000  56.2030000  47.1100000
 122.5480000  56.7350000  45.2090000 122.0820000  55.8540000  44.8210000
 123.5620000  56.4710000  45.4380000 122.5290000  57.8340000  44.1690000
 123.3870000  57.7110000  43.5110000 122.6750000  58.8560000  44.6390000
 121.2450000  57.9190000  43.3290000 120.4030000  57.9760000  44.0920000
 121.0070000  57.0940000  42.6620000 121.2320000  59.2560000  42.6210000
 120.9810000  60.1100000  43.1830000 121.3560000  59.4490000  41.3520000
 121.3470000  60.5050000  40.9130000 121.7060000  58.3720000  40.3930000
 121.9640000  57.4600000  40.9660000 122.4860000  58.6690000  39.7110000
 120.4820000  57.9410000  39.5520000 120.0210000  58.8690000  39.1630000
 119.7680000  57.3020000  40.0970000 120.9360000  57.0370000  38.3700000
 121.3700000  56.1610000  38.8340000 121.7310000  57.5690000  37.8420000
 119.8980000  56.6400000  37.3370000 119.3210000  57.4770000  37.0330000
 119.1540000  55.9610000  37.8210000 120.4600000  56.0870000  35.9470000
 121.2220000  56.7590000  35.5310000 119.5970000  55.9300000  35.1800000
 121.0790000  54.6670000  36.0740000 122.0080000  54.7190000  36.6420000
 121.4060000  54.2560000  35.0620000 120.3590000  53.5600000  36.8810000
 120.3350000  53.8120000  37.8770000 120.9440000  52.5960000  36.8870000
 119.0190000  53.2020000  36.3340000 118.2400000  53.5740000  36.9380000
 118.9360000  52.0890000  36.3540000 118.8360000  53.4760000  35.2640000
  52.7440000 149.4140000  37.6260000  52.3820000 150.3680000  37.3800000
  51.8930000 148.6370000  37.7590000  53.3320000 149.1410000  36.7670000
  53.7200000 149.2700000  38.7750000  54.4770000 148.3720000  38.6120000
  54.1550000 150.2150000  38.7690000  52.8460000 149.0710000  40.0250000
  52.1040000 149.8500000  40.1020000  52.3980000 148.0650000  39.9740000
  53.6410000 149.0280000  41.3160000  54.5140000 148.3530000  41.1970000
  54.1460000 149.9560000  41.4970000  52.8880000 148.7780000  42.5460000
  52.4770000 149.6950000  42.8590000  52.0540000 148.0880000  42.3950000
  53.8270000 148.2550000  43.6160000  54.3510000 147.3200000  43.2470000
  54.4990000 149.0820000  43.7780000  53.1220000 147.8160000  44.8610000
  52.0570000 147.6480000  44.6280000  53.5880000 146.9010000  45.0830000
  53.1810000 148.9360000  45.9230000  54.1510000 149.4340000  45.9460000
  52.4960000 149.7350000  45.6660000  53.0220000 148.4360000  47.3620000
  53.8730000 147.8110000  47.5900000  53.0010000 149.2540000  48.1000000
  51.7750000 147.4180000  47.4990000  51.8560000 146.4780000  46.9160000
  51.8150000 147.0760000  48.5150000  50.4750000 148.0790000  47.0770000
  50.4150000 148.1340000  45.9800000  49.6450000 147.4980000  47.4080000
  50.1760000 149.4220000  47.8340000  50.9590000 150.1060000  47.5460000
  49.1370000 149.7700000  47.6680000  50.2540000 149.1420000  49.3660000
  49.7760000 148.2290000  49.6510000  51.3540000 148.9080000  49.6510000
  49.7160000 150.2740000  50.2030000  48.7230000 150.3160000  49.7590000
  49.5760000 149.9800000  51.2410000  50.4560000 151.6720000  50.2060000
  50.7710000 151.9160000  49.2340000  49.8260000 152.5450000  50.5540000
  51.7310000 151.5210000  50.9630000  51.9160000 151.4180000  52.1730000
  52.7550000 151.3270000  50.0540000  54.1320000 150.9490000  50.4490000
  54.9060000 151.0520000  49.6590000  54.4580000 151.5450000  51.3600000
  54.1550000 149.3590000  50.7170000  53.2940000 148.9390000  50.2190000
  53.9900000 149.0740000  52.2440000  53.0210000 149.4500000  52.5490000
  53.8520000 148.0360000  52.2980000  55.0670000 149.4930000  53.1210000
  56.2310000 148.5080000  53.4960000  57.3680000 149.3040000  52.7690000
  58.0520000 150.3580000  53.5080000  58.6100000 150.9260000  52.7570000
  57.3160000 150.9900000  53.8730000  59.1880000 149.8240000  54.4730000
  59.7820000 150.6840000  54.7830000  58.7550000 149.4260000  55.3880000
  60.1690000 148.8590000  53.8960000  61.1460000 148.5220000  54.9210000
  60.6090000 148.2670000  55.8650000  61.7840000 147.7140000  54.5340000
  61.7580000 149.4140000  55.0030000  59.4180000 147.6250000  53.5340000
  58.8130000 147.4200000  54.3960000  58.7210000 147.7120000  52.6510000
  60.0580000 146.8270000  53.2860000  60.8730000 149.3960000  52.7360000
  61.2630000 150.4100000  52.9330000  60.1260000 149.4770000  51.8930000
  61.6850000 148.8140000  52.3840000  56.2990000 148.5500000  54.9480000
  55.9880000 147.2430000  52.8300000  55.4520000 148.8450000  50.2440000
  55.3630000 147.5170000  49.8930000  54.3260000 146.8490000  49.9210000
  56.6460000 146.9970000  49.3080000  57.4130000 147.3450000  49.9670000
  56.8590000 147.4860000  48.3670000  56.6390000 145.4560000  49.0720000
  55.8650000 145.1570000  48.2960000  56.3140000 144.9800000  49.9530000
  58.0450000 144.9360000  48.7370000  57.9620000 143.8260000  48.7270000
  58.7140000 145.2860000  49.5730000  58.5480000 145.3750000  47.3970000
  59.5770000 145.0890000  47.2140000  58.5070000 146.4370000  47.2190000
  57.8010000 144.7020000  46.3160000  56.9040000 144.2790000  46.6840000
  58.3920000 143.8240000  45.9520000  57.4410000 145.5200000  45.0890000
  58.3060000 145.9070000  44.5800000  56.7070000 146.3750000  45.4390000
  56.5280000 144.9370000  43.9860000  56.3160000 145.7430000  43.2720000
  55.5210000 144.8770000  44.4510000  57.0810000 143.6170000  43.3990000
  57.4500000 142.9210000  44.1740000  57.2070000 143.2900000  42.1350000
  57.7450000 142.3500000  41.9250000  56.8660000 144.2300000  40.9710000
  57.7100000 144.3240000  40.2670000  56.7210000 145.2590000  41.2550000
  55.5700000 143.7540000  40.2880000  54.8790000 143.4810000  41.1100000
  55.7450000 142.8540000  39.7190000  54.8410000 144.7770000  39.3160000
  55.5530000 145.3700000  38.6430000  54.3440000 145.4900000  39.9480000
  53.6900000 144.2350000  38.3960000  52.8390000 143.9750000  39.0770000
  54.0580000 143.3880000  37.9230000  53.1590000 145.1970000  37.3050000
  54.0030000 145.7060000  36.8060000  52.6130000 146.0470000  37.7690000
  52.3340000 144.4240000  36.2500000  53.1100000 143.9020000  35.7290000
  52.0400000 145.1820000  35.5280000  51.0790000 143.6880000  36.8590000
  51.3390000 142.7760000  37.4610000  50.4390000 143.2960000  36.0550000
  50.1060000 144.5510000  37.7010000  49.7860000 145.4630000  37.1120000
  50.5150000 144.8470000  38.6850000  49.3080000 143.9260000  37.8850000
 122.9730000  24.7640000  35.8980000 122.4530000  25.1410000  35.0150000
 122.4290000  25.0220000  36.7870000 123.2540000  23.7470000  35.7820000
 124.3130000  25.5210000  35.9980000 125.1350000  25.1550000  35.3620000
 124.2070000  26.5520000  35.7510000 124.9360000  25.4630000  37.4130000
 124.1260000  25.6280000  38.1300000 125.2950000  24.4110000  37.5540000
 126.1240000  26.4670000  37.4590000 126.9220000  26.1770000  36.7970000
 125.9170000  27.4690000  37.2220000 126.8610000  26.3260000  38.6930000
 126.1320000  26.4290000  39.5080000 127.3160000  25.3070000  38.8010000
 128.0440000  27.3620000  38.8580000 128.6350000  27.2630000  37.8770000
 127.7600000  28.3970000  38.9210000 129.0300000  27.0150000  40.0560000
 129.5210000  26.0500000  39.9460000 129.7630000  27.8960000  40.1500000
 128.2000000  27.1020000  41.3300000 127.4150000  26.4070000  41.3710000
 128.8440000  26.8790000  42.1820000 127.4720000  28.3940000  41.7080000
 128.2060000  29.1510000  41.9050000 126.8800000  28.6620000  40.8150000
 126.5450000  28.0530000  42.9160000 125.8070000  27.2790000  42.5570000
 127.1670000  27.6380000  43.7690000 125.6690000  29.2460000  43.3750000
 126.3270000  30.0500000  43.6600000 125.0710000  29.5680000  42.5580000
 124.8490000  28.9920000  44.6480000 124.0920000  28.1900000  44.5180000
 125.5720000  28.8140000  45.4770000 123.8910000  30.1500000  44.9330000
 124.4630000  31.1450000  45.0040000 123.2380000  30.2960000  44.0600000
 122.9790000  29.8600000  46.0910000 122.2900000  29.0950000  45.8060000
 123.5270000  29.4720000  46.9070000 122.1200000  30.9580000  46.7540000
 121.6230000  31.5000000  45.9470000 121.3460000  30.5360000  47.4760000
 122.8900000  31.9730000  47.6010000 124.0770000  32.0440000  47.7500000
 121.9650000  32.8590000  48.1020000 122.3350000  33.7880000  49.1160000
 123.3650000  34.0140000  49.0700000 121.8550000  34.7400000  48.9210000
 121.9120000  33.3290000  50.5110000 121.9040000  34.1480000  51.1820000
 122.8550000  32.2590000  51.0460000 122.7020000  32.2640000  52.1700000
 122.5960000  31.3330000  50.6240000 124.2530000  32.6280000  50.8010000
 124.9440000  33.8850000  51.5760000 126.4720000  33.4950000  51.7340000
 127.2970000  33.4680000  50.6370000 127.0940000  34.3640000  50.0060000
 128.2680000  33.5650000  51.0660000 126.9440000  32.1670000  49.8620000
 127.0740000  31.2510000  50.4940000 125.9050000  32.1570000  49.4620000
 127.6730000  31.7820000  48.6230000 127.1530000  30.4100000  48.1880000
 127.6690000  30.0570000  47.3110000 127.2350000  29.6650000  49.0140000
 126.0870000  30.5470000  47.9460000 127.3010000  32.8230000  47.5590000
 127.7600000  32.6000000  46.6660000 126.2380000  32.7070000  47.4650000
 127.5800000  33.8480000  47.9130000 129.0950000  31.7270000  48.8500000
 129.3060000  31.0760000  49.7160000 129.3260000  32.7510000  49.1850000
 129.5950000  31.3400000  48.0120000 124.8270000  35.0930000  50.7260000
 124.3640000  33.9010000  52.9180000 120.6360000  32.7410000  50.5910000
 119.4920000  33.3990000  50.4300000 119.4240000  34.5800000  50.2750000
 118.3290000  32.5530000  50.1850000 117.4850000  33.1750000  49.9120000
 118.0390000  32.0940000  51.1290000 118.6180000  31.4770000  49.1060000
 119.3940000  30.7930000  49.5330000 119.1000000  31.8360000  48.2310000
 117.3400000  30.6390000  48.8240000 116.5340000  31.2750000  48.5100000
 116.9970000  30.1320000  49.7450000 117.5060000  29.5550000  47.7540000
 116.5310000  29.0690000  47.6850000 118.3000000  28.8770000  48.0890000
 117.9740000  30.0730000  46.3680000 119.0030000  30.3610000  46.3440000
 117.3110000  30.9620000  46.1300000 117.7440000  29.0010000  45.3100000
 116.7440000  28.6380000  45.2140000 118.1770000  28.0280000  45.7010000
 118.3060000  29.3800000  43.8160000 117.7210000  30.3050000  43.4330000
 118.0460000  28.5130000  43.2210000 119.8280000  29.7010000  43.7350000
 120.2490000  29.8560000  44.7020000 120.6040000  29.5340000  42.7440000
 121.6330000  29.4340000  42.8350000 120.0300000  29.3370000  41.2990000
 120.4300000  30.0450000  40.6130000 118.9600000  29.6490000  41.2330000
 120.1460000  27.9640000  40.7930000 119.7820000  27.3320000  41.6370000
 121.2510000  27.7150000  40.6050000 119.3320000  27.5760000  39.5190000
 118.3050000  27.8550000  39.6780000 119.4920000  26.5240000  39.2690000
 119.8160000  28.2710000  38.2380000 120.8390000  27.9200000  38.0720000
 119.9170000  29.3780000  38.3870000 118.9720000  27.9410000  37.0330000
 117.9470000  28.3160000  37.3610000 118.9890000  26.8510000  36.9980000
 119.4390000  28.5010000  35.6400000 119.6290000  29.5790000  35.7530000
 118.6180000  28.2410000  34.9120000 120.6570000  27.6880000  35.1640000
 120.5320000  26.6130000  35.3060000 121.5520000  28.0370000  35.7500000
 120.9100000  27.8490000  33.6730000 121.0400000  28.8880000  33.5150000
 119.9880000  27.6290000  33.0950000 121.7630000  27.2500000  33.3960000
  57.6150000 120.4270000  43.8940000  58.3820000 121.2450000  43.6570000
  56.7550000 121.0220000  43.7830000  57.5870000 119.5970000  43.1970000
  57.7770000 119.9670000  45.3280000  58.7620000 119.4880000  45.4380000
  57.9170000 120.7950000  45.9920000  56.6070000 119.1600000  45.9090000
  57.0100000 118.6720000  46.8150000  55.8670000 119.8200000  46.1350000
  56.0690000 118.0830000  44.8140000  55.5260000 118.6730000  44.0080000
  56.8600000 117.5050000  44.2940000  55.0170000 117.0790000  45.2990000
  55.3150000 116.7700000  46.2710000  54.0800000 117.5950000  45.3070000
  54.8450000 115.7780000  44.5250000  55.1460000 115.9690000  43.5030000
  55.5680000 115.0770000  44.9820000  53.4460000 115.1900000  44.5050000
  52.7540000 115.9280000  44.0430000  53.4390000 114.3180000  43.8840000
  52.7870000 114.8930000  45.8400000  52.6560000 115.8380000  46.3130000
  51.8260000 114.2910000  45.6540000  53.8560000 114.0810000  46.6650000
  53.8850000 113.1080000  46.1710000  54.8920000 114.4220000  46.7600000
  53.5290000 113.8240000  48.1800000  52.8790000 113.0030000  48.3120000
  54.4690000 113.4640000  48.6090000  52.8870000 115.0920000  48.9300000
  51.8900000 115.2830000  48.5370000  52.8690000 114.8470000  50.0490000
  53.7280000 116.3910000  48.9840000  54.6010000 116.2480000  49.5340000
  54.0830000 116.5440000  47.9320000  53.0270000 117.7420000  49.4230000
  52.0110000 117.7410000  49.0300000  53.1010000 117.7180000  50.5300000
  53.7540000 119.0610000  49.0380000  53.8790000 119.0190000  47.9510000
  53.1580000 119.9630000  49.2360000  55.1400000 119.1950000  49.7610000
  55.6990000 118.2670000  49.6600000  55.7910000 119.8980000  49.3100000
  55.1050000 119.7040000  51.1780000  55.0970000 120.9200000  51.4940000
  55.2230000 118.7260000  52.0620000  55.1640000 118.9460000  53.4620000
  55.6890000 118.1040000  53.8560000  55.7470000 119.7810000  53.8330000
  53.6910000 119.0550000  53.9480000  53.2780000 120.0800000  53.7290000
  53.6150000 118.6330000  55.4640000  54.5970000 118.5530000  55.8750000
  53.1020000 119.3490000  56.0130000  53.0120000 117.3750000  55.5690000
  53.9130000 116.0090000  55.7620000  54.5740000 115.7150000  54.3380000
  53.8020000 115.0460000  53.2210000  52.9170000 114.5100000  53.5740000
  53.5600000 115.8750000  52.5510000  54.7930000 114.0780000  52.5240000
  54.2650000 113.6200000  51.6670000  55.7180000 114.6450000  52.2310000
  55.2480000 112.8430000  53.2320000  55.3250000 111.6690000  52.2130000
  54.6940000 110.9220000  52.6040000  54.8900000 111.9250000  51.2740000
  56.3770000 111.2380000  52.1000000  56.6310000 113.1560000  53.8780000
  56.8420000 112.2990000  54.5050000  57.3940000 113.1770000  53.0360000
  56.4560000 114.0790000  54.4660000  54.3100000 112.4200000  54.2910000
  54.7480000 111.5310000  54.6700000  53.3520000 112.3160000  53.7600000
  54.2520000 113.1160000  55.0510000  55.1100000 116.2850000  56.6760000
  53.0810000 114.8300000  55.9800000  52.7860000 118.2050000  53.1590000
  51.5090000 118.6650000  53.1140000  51.0830000 119.6750000  53.5590000
  50.6210000 117.6560000  52.4340000  50.2910000 116.9210000  53.1700000
  51.2660000 117.0080000  51.7700000  49.4980000 118.2130000  51.6540000
  48.6760000 118.5420000  52.3120000  49.0900000 117.4470000  51.0340000
  49.8390000 119.4860000  50.7510000  50.6560000 119.2250000  50.0460000
  50.1410000 120.3640000  51.2860000  48.6480000 119.8300000  49.7540000
  47.7050000 119.8800000  50.2470000  48.4160000 119.0600000  48.9870000
  48.9340000 121.1980000  49.0220000  48.8770000 121.9560000  49.8110000
  48.1320000 121.4010000  48.2470000  50.2900000 121.1730000  48.3260000
  50.4220000 120.2330000  47.7970000  51.0610000 121.0770000  49.1550000
  50.5450000 122.4120000  47.3600000  50.2570000 123.3890000  47.8110000
  49.9030000 122.3240000  46.5190000  52.0030000 122.4400000  46.8990000
  52.6350000 123.2270000  47.4740000  52.6820000 121.7150000  46.0460000
  53.7260000 121.8620000  45.9090000  52.0240000 120.5690000  45.2990000
  50.9440000 120.5580000  45.0560000  52.2240000 119.5530000  45.8010000
  52.6660000 120.5060000  43.9010000  53.7080000 120.6080000  43.8870000
  52.2660000 121.2930000  43.2480000  52.3590000 119.1870000  43.2030000
  51.2570000 119.0560000  42.9750000  52.5710000 118.3410000  43.8780000
  53.2300000 118.9240000  41.9470000  54.2020000 118.9750000  42.1760000
  52.9460000 119.7920000  41.3020000  52.9850000 117.5330000  41.4390000
  51.9300000 117.3050000  41.2580000  53.4040000 116.8080000  42.1050000
  53.7010000 117.3160000  40.1030000  53.5130000 116.3050000  39.8120000
  54.7690000 117.3910000  40.1020000  53.0610000 118.1410000  38.9690000
  53.1760000 119.1920000  39.1640000  52.0110000 118.0140000  39.0070000
  53.5440000 117.8800000  37.5720000  52.8120000 117.1960000  37.0840000
  54.5010000 117.4470000  37.6380000  53.5630000 118.7260000  36.8280000
  35.5760000   3.1050000  50.3350000  35.5330000   2.0390000  50.3920000
  34.8710000   3.4510000  49.5320000  35.0610000   3.4620000  51.2770000
  36.9960000   3.6360000  50.0250000  37.0130000   4.6850000  49.7980000
  37.5250000   3.4610000  50.9550000  37.6120000   2.7340000  48.8570000
  37.2250000   1.7040000  48.9450000  37.1490000   3.1690000  47.9440000
  39.1440000   2.6230000  48.7740000  39.5920000   3.5530000  48.5320000
  39.5600000   2.3290000  49.7680000  39.5970000   1.5900000  47.5940000
  40.7230000   1.7490000  47.6560000  39.3940000   0.6170000  47.9220000
  39.1880000   1.8370000  46.1460000  38.1020000   1.8430000  46.0510000
  39.6020000   2.8750000  46.0200000  40.0130000   0.9670000  45.0760000
  41.1100000   1.0840000  45.2960000  39.6030000  -0.1510000  45.1470000
  39.6820000   1.5000000  43.6620000  39.8450000   2.5660000  43.5240000
  40.3800000   0.9940000  42.9760000  38.2550000   1.1390000  43.1310000
  38.2020000   0.0620000  43.0880000  37.5480000   1.4620000  43.8960000
  37.8780000   1.7760000  41.7720000  38.4960000   1.2900000  40.9360000
  36.8590000   1.4060000  41.5870000  37.8340000   3.3010000  41.6020000
  38.8290000   3.7080000  41.3030000  37.1750000   3.5960000  40.8070000
  37.4400000   4.1290000  42.9150000  37.8390000   3.7060000  43.7990000
  37.9040000   5.1230000  42.8490000  35.9680000   4.4850000  43.1190000
  35.7670000   5.2620000  42.3760000  35.2410000   3.7120000  42.7640000
  35.6640000   5.0300000  44.5320000  34.7020000   5.5120000  44.5140000
  35.6740000   4.2350000  45.2470000  36.6620000   6.0990000  44.9810000
  37.7010000   6.0580000  44.6540000  36.2580000   7.0430000  44.5800000
  36.7610000   6.2930000  46.4430000  37.6900000   5.8470000  47.1010000
  35.7470000   6.9420000  46.9950000  35.8870000   7.3740000  48.4130000
  34.8770000   7.5550000  48.7340000  36.3420000   6.5550000  48.9550000
  36.8850000   8.5520000  48.5840000  37.8870000   8.1610000  48.1760000
  37.0970000   8.8940000  50.0590000  37.6340000   8.1090000  50.5290000
  37.6530000   9.7810000  50.1220000  35.7850000   9.1480000  50.7950000
  35.0930000   8.0050000  51.6460000  33.7690000   7.7260000  50.8740000
  32.6620000   8.6470000  51.0580000  32.9070000   9.3110000  51.8670000
  32.5600000   9.3550000  50.2240000  31.3410000   7.8990000  51.2600000
  30.6000000   8.6710000  51.4680000  31.1620000   7.2540000  50.3970000
  31.0870000   6.9530000  52.4020000  29.6950000   6.8190000  52.7720000
  29.2830000   6.4100000  51.8340000  29.5350000   6.2650000  53.6250000
  29.2610000   7.7740000  52.9930000  31.6610000   5.6610000  51.9700000
  31.5750000   4.9940000  52.7390000  31.1420000   5.2870000  51.0790000
  32.7270000   5.8420000  51.6990000  31.8400000   7.4690000  53.5960000
  31.5650000   6.8650000  54.4270000  31.4420000   8.4730000  53.7960000
  32.9540000   7.4450000  53.3060000  36.0290000   6.8500000  51.5140000
  34.9100000   8.4940000  53.0650000  36.3980000   9.6790000  47.8300000
  36.8070000   9.9250000  46.5840000  37.5570000   9.1920000  45.9410000
  36.0860000  11.0930000  45.9770000  36.7940000  11.9130000  45.7120000
  35.3880000  11.5890000  46.6720000  35.3860000  10.5650000  44.6770000
  36.1440000  10.0880000  43.9660000  35.0530000  11.3530000  43.9820000
  34.0690000   9.7270000  44.9070000  33.4800000  10.3170000  45.5200000
  34.3790000   8.8840000  45.6020000  33.3470000   9.2240000  43.6440000
  32.9230000  10.0900000  43.1640000  32.4410000   8.7100000  43.9720000
  34.1510000   8.3840000  42.5890000  34.6240000   7.5100000  43.0670000
  34.9830000   8.9060000  42.0820000  33.2500000   7.8870000  41.4210000
  32.8010000   8.7430000  41.0330000  32.5490000   7.2240000  41.8300000
  34.1400000   7.1470000  40.4540000  34.6170000   6.2810000  40.9610000
  34.9230000   7.9210000  40.1670000  33.2490000   6.7600000  39.3170000
  32.3910000   7.4610000  39.2530000  33.3270000   5.6400000  38.6160000
  32.5850000   5.3310000  37.8700000  34.4100000   4.5900000  38.6900000
  34.1340000   3.6570000  39.2180000  35.3400000   5.0840000  39.0390000
  34.6660000   4.2790000  37.2270000  34.9500000   5.2270000  36.6520000
  33.7480000   4.0290000  36.7030000  35.8300000   3.2750000  37.0660000
  36.6900000   3.5540000  37.5940000  36.0000000   3.2080000  36.0110000
  35.6440000   1.8700000  37.6840000  35.0720000   1.2370000  37.0990000
  34.9850000   1.9260000  38.5660000  36.9540000   1.0840000  38.0780000
  37.7450000   1.8260000  38.3740000  37.3760000   0.8850000  37.1080000
  36.7550000  -0.0920000  39.1220000  35.8280000  -0.6980000  38.8720000
  36.5520000   0.3700000  40.0550000  37.9980000  -0.9420000  39.3550000
  37.7620000  -1.6430000  40.1090000  38.8900000  -0.3140000  39.6540000
  38.4050000  -1.8140000  38.1250000  39.1860000  -2.5410000  38.4370000
  38.7570000  -1.2320000  37.2830000  37.5560000  -2.3520000  37.8050000
  13.1290000  59.0140000  38.7780000  12.8730000  58.1040000  39.2720000
  12.5590000  59.1300000  37.8610000  12.8920000  59.8700000  39.3990000
  14.5790000  58.9030000  38.4000000  14.6430000  58.0850000  37.7680000
  14.7840000  59.8370000  37.7950000  15.3820000  58.6850000  39.7560000
  15.2130000  59.6450000  40.3170000  14.9610000  57.9990000  40.4530000
  16.8230000  58.2470000  39.5140000  17.0060000  57.8860000  38.4680000
  17.3140000  59.1880000  39.4280000  17.6800000  57.4910000  40.6290000
  17.0800000  57.1370000  41.4700000  17.9880000  56.6270000  40.1900000
  18.9560000  58.2840000  41.0440000  19.5260000  58.5210000  40.2150000
  18.7000000  59.2320000  41.4990000  19.7130000  57.4830000  42.1310000
  19.7180000  56.4320000  41.7680000  20.6870000  57.8440000  42.0500000
  19.2440000  57.3620000  43.5950000  18.2470000  56.8880000  43.5910000
  19.8700000  56.7370000  44.2320000  19.1970000  58.7040000  44.2610000
  20.1240000  59.2660000  44.0310000  18.3390000  59.2680000  43.9400000
  18.9730000  58.4420000  45.7100000  18.1790000  57.6810000  45.8660000
  19.8570000  58.0680000  46.1350000  18.5990000  59.6990000  46.5060000
  17.8070000  60.2470000  45.9890000  18.2320000  59.5270000  47.5170000
  19.8320000  60.6310000  46.7450000  20.6460000  59.9600000  47.0880000
  20.1410000  60.9890000  45.7520000  19.8130000  61.7370000  47.7840000
  19.0580000  62.4280000  47.2750000  19.5340000  61.2880000  48.7950000
  21.0050000  62.6730000  47.8050000  21.2590000  63.1550000  46.8850000
  20.7650000  63.6390000  48.2370000  22.2590000  62.1850000  48.5860000
  22.7100000  61.2850000  48.2480000  22.9940000  62.9380000  48.4010000
  22.1400000  62.1740000  50.1290000  22.7200000  62.9420000  50.8010000
  21.4230000  61.2270000  50.6690000  21.2820000  61.2330000  52.1410000
  20.8580000  60.3000000  52.4200000  22.2560000  61.3200000  52.5350000
  20.3050000  62.3000000  52.7150000  20.7110000  63.2840000  52.4510000
  20.2660000  62.1490000  54.2670000  19.7200000  61.3260000  54.6110000
  21.2660000  62.1470000  54.6820000  19.7390000  63.3150000  54.8590000
  19.6490000  63.5910000  56.4290000  18.3110000  62.8420000  56.8800000
  17.0070000  63.0720000  56.3120000  16.3210000  62.7830000  57.0510000
  16.8920000  64.1610000  56.0290000  16.8760000  62.1460000  55.0660000
  16.1130000  62.5440000  54.4350000  17.7930000  62.1940000  54.4570000
  16.6150000  60.6290000  55.1370000  17.0470000  60.1130000  53.8620000
  18.0590000  60.3670000  53.5290000  17.0620000  59.0410000  53.9980000
  16.3090000  60.3860000  53.1940000  17.3830000  60.0520000  56.2520000
  17.0860000  60.5310000  57.2000000  17.2470000  58.9820000  56.4270000
  18.4590000  60.1490000  56.0490000  15.1540000  60.3890000  55.3700000
  14.8300000  60.4780000  54.3110000  14.6720000  61.1610000  55.8780000
  14.9520000  59.3930000  55.6470000  20.8250000  62.9890000  57.0400000
  19.3130000  65.0430000  56.5500000  18.9930000  62.0640000  52.1410000
  18.6250000  62.7900000  50.9780000  19.3240000  63.6590000  50.4970000
  17.2500000  62.3040000  50.4650000  16.6220000  62.1690000  51.3120000
  17.3570000  61.3020000  50.0710000  16.6640000  63.2860000  49.4390000
  17.4780000  63.6690000  48.8000000  16.2180000  64.0820000  50.0170000
  15.6860000  62.4940000  48.5250000  15.0340000  61.9820000  49.3090000
  16.2380000  61.8030000  47.9430000  14.7100000  63.3570000  47.7130000
  14.2400000  63.9250000  48.5550000  13.9370000  62.5960000  47.3930000
  15.2280000  64.1620000  46.5120000  14.5230000  63.9940000  45.6760000
  16.0570000  63.6440000  46.0030000  15.4810000  65.6740000  46.7800000
  15.8240000  65.8980000  47.8110000  14.5170000  66.2030000  46.6600000
  16.4450000  66.2130000  45.7760000  16.4080000  67.2670000  45.6760000
  16.0470000  65.8540000  44.8310000  17.8610000  65.6480000  46.0870000
  18.0350000  65.6050000  47.1870000  18.7330000  65.1490000  45.2530000
  19.6730000  64.6650000  45.5600000  18.6810000  65.2910000  43.7840000
  19.4170000  66.1310000  43.6120000  17.7180000  65.5070000  43.3890000
  19.3440000  64.0630000  43.1670000  20.2760000  63.8980000  43.7120000
  19.5640000  64.1980000  42.1020000  18.4680000  62.7970000  43.3870000
  18.2830000  62.8330000  44.4970000  19.1630000  61.9460000  43.1600000
  17.2160000  62.8340000  42.4140000  16.7330000  63.7710000  42.5680000
  16.5590000  62.1130000  42.8330000  17.4520000  62.4710000  40.8570000
  17.8570000  61.5130000  40.8200000  18.2550000  63.1740000  40.5490000
  16.2280000  62.7700000  39.9600000  15.3750000  62.3210000  40.4570000
  16.5680000  62.3930000  38.9210000  15.9540000  64.2870000  39.7710000
  15.7500000  64.6670000  40.7570000  15.0670000  64.3320000  39.1640000
  17.1130000  65.1030000  39.1540000  16.8850000  66.1680000  39.0780000
  17.2740000  64.7080000  38.1310000  17.9530000  65.0790000  39.8380000
  91.8580000  18.1560000  42.3160000  92.5680000  17.5970000  41.7990000
  91.1140000  17.6240000  42.9310000  92.4920000  18.7670000  42.9290000
  91.2300000  19.0210000  41.1800000  90.3710000  18.5140000  40.6960000
  90.7500000  19.8050000  41.7670000  92.2810000  19.4840000  40.1880000
  92.9090000  20.2680000  40.6360000  92.8760000  18.6490000  39.8550000
  91.6200000  20.2960000  39.1270000  91.2080000  19.6050000  38.4110000
  90.8590000  20.9300000  39.5500000  92.4780000  21.4170000  38.5160000
  92.6580000  22.0820000  39.4390000  93.3850000  20.9360000  38.4150000
  91.9790000  22.2850000  37.4180000  91.6810000  21.5650000  36.6860000
  91.1010000  22.8500000  37.7510000  92.8890000  23.4150000  36.8270000
  93.5730000  22.9600000  36.1290000  92.1500000  23.9390000  36.2310000
  93.6890000  24.4150000  37.7690000  94.5040000  23.7970000  38.2440000
  94.2010000  25.2180000  37.2180000  92.8210000  24.9550000  38.8450000
  91.8650000  25.3260000  38.4520000  92.5390000  24.1670000  39.5050000
  93.3610000  26.1300000  39.6860000  93.2890000  27.0520000  39.1300000
  92.6090000  26.2160000  40.4730000  94.6980000  26.1380000  40.4560000
  95.5310000  26.3210000  39.7600000  94.7820000  26.9360000  41.2380000
  95.1180000  24.7460000  41.1170000  94.9840000  23.9900000  40.3810000
  96.1620000  24.8250000  41.4440000  94.1480000  24.2950000  42.3220000
  94.3340000  24.9070000  43.1610000  93.1050000  24.5180000  42.0540000
  94.3950000  22.7810000  42.7680000  94.4540000  22.1240000  41.8760000
  95.3960000  22.6370000  43.2570000  93.3360000  22.1650000  43.7100000
  92.3540000  22.3490000  43.2440000  93.3340000  21.0590000  43.7790000
  93.2570000  22.8170000  45.0610000  94.2700000  23.0420000  45.7540000
  91.9990000  23.2920000  45.3660000  91.9880000  24.2160000  46.4920000
  92.3930000  23.6600000  47.3540000  92.7400000  24.9950000  46.2650000
  90.6090000  24.8820000  46.8790000  90.7070000  25.7960000  47.4520000
  89.7590000  23.8830000  47.6410000  88.8560000  24.2760000  48.0940000
  89.4550000  23.1960000  46.8480000  90.5310000  23.2180000  48.7630000
  91.0250000  24.1420000  50.0350000  89.6360000  24.2320000  50.8040000
  88.9920000  23.0800000  51.3450000  88.6950000  22.4410000  50.5810000
  89.7530000  22.6560000  51.9230000  87.6880000  23.4900000  52.1150000
  87.2040000  22.5310000  52.4980000  88.0670000  24.0240000  52.9760000
  86.6060000  24.2970000  51.4860000  85.2490000  23.9080000  51.9700000
  85.0130000  24.0680000  53.0320000  84.4990000  24.5600000  51.5530000
  85.0730000  22.8180000  51.6610000  86.9500000  25.6420000  51.9900000
  86.1840000  26.2030000  51.5140000  87.0320000  25.7910000  53.0860000
  87.9810000  25.8260000  51.4740000  86.5340000  24.1540000  50.0470000
  85.6500000  24.7710000  49.8770000  86.3250000  23.0490000  49.9750000
  87.4810000  24.4580000  49.6580000  91.9630000  23.3280000  50.7800000
  91.2990000  25.5000000  49.5830000  89.9940000  25.3210000  45.6120000
  88.8870000  26.0210000  45.7180000  88.3720000  26.1570000  46.8230000
  88.4120000  26.6590000  44.4100000  87.6800000  26.0030000  43.9210000
  89.1660000  26.7230000  43.6690000  87.7800000  28.0470000  44.4590000
  88.4700000  28.6550000  45.0270000  86.8320000  27.9930000  45.0500000
  87.5530000  28.6570000  43.0750000  86.7200000  29.3380000  43.1950000
  87.1680000  27.9380000  42.3610000  88.7350000  29.3120000  42.4720000
  89.4080000  28.4640000  42.2040000  89.1490000  29.9750000  43.2570000
  88.4870000  30.1670000  41.2060000  88.1470000  31.1170000  41.5490000
  87.8770000  29.7910000  40.4210000  89.8210000  30.6240000  40.5900000
  90.2710000  29.6850000  40.2800000  90.5630000  30.9630000  41.3270000
  89.8000000  31.5860000  39.3390000  90.8700000  31.5620000  39.0130000
  89.4700000  32.6210000  39.5740000  88.9250000  30.9120000  38.2850000
  89.1130000  29.8930000  37.9900000  87.7770000  31.3810000  37.7800000
  87.1200000  30.7920000  37.1250000  87.2010000  32.6700000  38.1990000
  88.0090000  33.3240000  38.5100000  86.4920000  32.4990000  39.0150000
  86.5580000  33.3020000  37.0060000  85.7910000  32.6750000  36.5770000
  87.3580000  33.3720000  36.2660000  85.9710000  34.6970000  37.2360000
  85.5740000  35.1450000  36.2980000  86.6730000  35.3640000  37.7130000
  84.6710000  34.7820000  38.1310000  84.8170000  34.1380000  38.9630000
  83.8290000  34.3260000  37.6850000  84.2490000  36.2330000  38.7440000
  85.1500000  36.5190000  39.2610000  83.3460000  36.2370000  39.3970000
  83.8310000  37.1920000  37.6360000  82.8880000  36.9610000  37.2010000
  84.4070000  37.0670000  36.6810000  83.8610000  38.6430000  38.0800000
  84.8140000  38.8850000  38.5440000  83.0110000  38.6320000  38.7820000
  83.6490000  39.6560000  36.9130000  84.5570000  39.5050000  36.2480000
  83.5480000  40.6690000  37.3420000  82.7130000  39.4360000  36.4020000
  62.7040000   1.5170000  33.3570000  63.3860000   1.2160000  34.1750000
  63.3590000   1.6840000  32.4580000  62.0000000   0.7280000  33.0560000
  61.9970000   2.9220000  33.6250000  62.7990000   3.7150000  33.6530000
  61.4120000   3.1690000  32.7350000  61.1980000   3.0430000  34.9130000
  60.8190000   4.0270000  35.0140000  60.3630000   2.3610000  34.7640000
  61.8550000   2.7290000  36.1980000  61.0360000   2.7160000  36.9350000
  62.4240000   1.8100000  36.1820000  62.8700000   3.7510000  36.7250000
  63.8020000   3.6160000  36.2240000  62.5750000   4.7910000  36.5750000
  63.3600000   3.4630000  38.0720000  63.8430000   2.5660000  38.0750000
  64.0650000   4.3050000  38.3710000  62.1850000   3.5580000  39.1130000
  61.8910000   4.6310000  39.1620000  61.3720000   2.8880000  38.8570000
  62.6710000   3.2470000  40.5360000  63.4930000   4.0090000  40.7400000
  61.8040000   3.3610000  41.1840000  63.1710000   1.7870000  40.6400000
  62.6200000   1.2080000  39.9420000  64.2150000   1.6940000  40.3520000
  63.0590000   1.1360000  42.0440000  61.9700000   1.1400000  42.3340000
  63.3330000   0.0560000  41.8690000  63.9200000   1.9750000  43.0460000
  64.9960000   1.8590000  42.8110000  63.6020000   3.0390000  42.9390000
  63.7390000   1.5700000  44.5020000  62.6000000   1.5290000  44.5950000
  63.9900000   0.4690000  44.5090000  64.4430000   2.4180000  45.5810000
  65.6050000   2.2990000  45.4780000  64.1490000   3.4460000  45.3350000
  64.1340000   1.9000000  47.0470000  64.3850000   0.8530000  47.1040000
  64.8640000   2.4340000  47.6960000  62.6470000   2.0420000  47.5390000
  61.9580000   2.1960000  46.7400000  62.4170000   1.0950000  48.0870000
  62.5510000   3.2450000  48.4050000  62.8170000   3.1460000  49.5520000
  62.2060000   4.3630000  47.8110000  62.1650000   5.5290000  48.6180000
  61.4610000   6.2990000  48.2420000  61.9750000   5.2130000  49.6600000
  63.5550000   6.2030000  48.6580000  64.3700000   5.5760000  49.0100000
  63.6040000   7.4310000  49.5960000  64.2350000   7.2530000  50.4770000
  64.0730000   8.2380000  49.0370000  62.3120000   7.8140000  50.0680000
  62.0910000   8.2940000  51.5320000  61.6910000   9.7440000  51.3820000
  62.5890000  10.7190000  50.9440000  62.4060000  11.7060000  51.3960000
  63.6040000  10.3810000  51.1680000  62.4660000  10.7640000  49.3970000
  63.1280000  11.6410000  49.1960000  62.8030000   9.7840000  49.0010000
  61.0810000  10.9740000  48.8220000  61.2800000  11.3480000  47.4680000
  61.9020000  12.2700000  47.4070000  61.8420000  10.5520000  46.9570000
  60.2730000  11.4990000  46.8650000  60.3640000   9.7210000  48.7970000
  60.0350000   9.5140000  49.7680000  59.4620000   9.8740000  48.2410000
  61.0640000   9.0470000  48.3550000  60.3280000  11.9930000  49.5820000
  60.2400000  11.7570000  50.6270000  59.3540000  12.1250000  49.0310000
  60.9740000  12.8500000  49.5860000  60.9810000   7.4420000  51.9380000
  63.3520000   8.1570000  52.2600000  63.9100000   6.4610000  47.2390000
  63.4630000   7.5750000  46.6160000  62.8280000   8.4850000  47.1000000
  63.7130000   7.4350000  45.0830000  63.3240000   6.4990000  44.6020000
  64.7600000   7.4130000  44.8380000  63.0830000   8.5200000  44.2410000
  63.4060000   9.4880000  44.6340000  62.0030000   8.4230000  44.3190000
  63.3690000   8.2610000  42.7660000  63.1760000   7.1880000  42.5080000
  64.4590000   8.4950000  42.6560000  62.6430000   9.0770000  41.7520000
  63.1550000  10.1070000  41.7990000  61.5830000   9.1360000  42.0570000
  62.7940000   8.5770000  40.3070000  62.2760000   9.2240000  39.5410000
  62.4780000   7.5970000  40.2390000  64.2890000   8.6120000  39.8080000
  64.7820000   7.7850000  40.1920000  64.7260000   9.5000000  40.2360000
  64.3570000   8.5250000  38.2210000  64.1140000   9.5050000  37.8520000
  63.6470000   7.7570000  37.8880000  65.7760000   8.3190000  37.7130000
  66.5340000   8.8300000  38.2580000  66.0890000   7.5170000  36.7110000
  67.1600000   7.4090000  36.4720000  65.2280000   6.8050000  35.6900000
  64.4480000   6.2990000  36.2140000  65.7420000   5.9790000  35.1790000
  64.8370000   7.8320000  34.6510000  65.6690000   8.0850000  33.9500000
  64.4840000   8.7430000  35.1760000  63.5720000   7.3550000  33.9390000
  62.7710000   7.2160000  34.6610000  63.6370000   6.3580000  33.5180000
  63.2180000   8.3600000  32.8540000  64.1180000   8.5070000  32.2360000
  62.9500000   9.2610000  33.3840000  61.9970000   8.0580000  31.9500000
  62.2670000   7.2830000  31.2250000  61.6530000   8.7750000  31.2470000
  60.7210000   7.6180000  32.7020000  60.2400000   8.5390000  33.0660000
  61.0150000   7.0330000  33.6170000  59.7250000   6.8070000  31.8410000
  58.7720000   6.5570000  32.4340000  60.2840000   5.8840000  31.5170000
  59.1660000   7.5640000  30.6330000  58.2950000   8.1150000  30.9790000
  58.8080000   6.8330000  29.8440000  59.8950000   8.2760000  30.1580000
  50.7360000 155.6100000  35.6860000  50.5520000 155.5940000  34.5770000
  51.7740000 155.3580000  35.9310000  50.3510000 156.5740000  36.1000000
  49.9200000 154.3980000  36.1810000  48.8890000 154.7310000  36.3660000
  49.9280000 153.6940000  35.3490000  50.4140000 153.7120000  37.4110000
  51.3120000 153.2140000  37.1240000  50.5140000 154.4550000  38.1790000
  49.4400000 152.7160000  37.9670000  48.5040000 153.2680000  38.1640000
  49.1320000 152.0730000  37.2200000  49.8190000 152.0580000  39.2930000
  50.7330000 151.4970000  39.0650000  50.0560000 152.7930000  40.0220000
  48.7370000 151.1410000  39.9620000  47.9000000 151.7400000  40.3690000
  48.2930000 150.3760000  39.2550000  49.2190000 150.4410000  41.2930000
  50.0170000 149.7320000  40.9630000  49.5070000 151.1440000  42.0350000
  48.1590000 149.5330000  41.8690000  47.1400000 150.0640000  41.9890000
  48.0920000 148.6890000  41.1730000  48.6120000 148.9010000  43.2440000
  49.6830000 148.5290000  43.1960000  48.5350000 149.6190000  43.9700000
  47.8900000 147.5300000  43.4230000  46.8180000 147.6130000  43.3720000
  48.0740000 146.7440000  42.6620000  48.2530000 146.8680000  44.7940000
  49.3240000 146.7130000  44.8720000  47.9030000 147.5300000  45.5600000
  47.5330000 145.4570000  44.8520000  46.5450000 145.6650000  44.6210000
  47.8280000 144.8460000  44.0070000  47.5710000 144.6210000  46.1850000
  47.3670000 143.5570000  45.9670000  48.5330000 144.5410000  46.6550000
  46.5480000 145.1590000  47.2370000  46.2080000 146.1150000  46.8670000
  45.6090000 144.5810000  47.3510000  47.1130000 145.5850000  48.6530000
  47.6970000 146.5440000  48.5410000  46.3240000 145.8180000  49.3490000
  48.0230000 144.5370000  49.2980000  47.6170000 143.4610000  49.6120000
  49.2660000 144.9550000  49.6700000  50.1800000 143.9440000  50.2250000
  51.0910000 144.4100000  50.6470000  49.7230000 143.5240000  51.1010000
  50.5950000 142.9500000  49.1290000  49.7800000 142.6980000  48.3910000
  50.9720000 141.5910000  49.6840000  50.0150000 141.1800000  50.0630000
  51.2420000 140.9640000  48.8760000  52.1040000 141.5860000  50.5960000
  51.9130000 141.7800000  52.1990000  52.2970000 143.2590000  52.4960000
  53.4320000 143.8310000  51.8580000  54.1990000 143.0100000  51.7160000
  53.2430000 144.2710000  50.8890000  53.9360000 144.8130000  52.8940000
  54.7360000 145.3770000  52.4720000  53.0900000 145.4370000  53.1310000
  54.4950000 144.2130000  54.1570000  55.0330000 145.4800000  54.8430000
  55.2890000 145.3430000  55.8600000  55.9300000 145.8090000  54.3560000
  54.3300000 146.2710000  54.6980000  53.4220000 143.6170000  54.9850000
  53.7500000 143.6460000  56.0360000  52.5540000 144.2630000  54.9230000
  53.2390000 142.5910000  54.7400000  55.6790000 143.3150000  54.0360000
  55.3320000 142.4480000  53.4200000  55.8710000 142.9710000  54.9950000
  56.4240000 143.8860000  53.4870000  50.4970000 141.6640000  52.4250000
  52.8500000 140.9650000  53.0000000  51.6500000 143.4570000  48.3240000
  51.6430000 143.1810000  47.0120000  50.8190000 142.5440000  46.4720000
  52.8780000 143.7060000  46.2910000  53.5510000 144.2960000  46.9640000
  52.3940000 144.4060000  45.6300000  53.5590000 142.5760000  45.4070000
  54.0090000 143.0170000  44.5120000  52.8280000 141.8950000  44.9800000
  54.6840000 141.8760000  46.2330000  55.4450000 142.6190000  46.4050000
  55.1140000 141.0700000  45.6150000  54.3820000 141.1380000  47.5640000
  53.6310000 141.6710000  48.2100000  55.2650000 140.9590000  48.0610000
  53.6610000 139.8450000  47.2350000  54.0820000 139.4120000  46.3630000
  52.6610000 140.1010000  46.8960000  53.6460000 138.9230000  48.4210000
  53.3180000 139.4120000  49.4150000  54.6070000 138.5440000  48.6490000
  52.6650000 137.7220000  48.2370000  52.6300000 137.1980000  49.1280000
  53.0180000 137.0400000  47.4340000  51.2120000 138.1070000  47.9830000
  50.7250000 138.2780000  48.9960000  50.5860000 138.0410000  46.8640000
  49.5630000 138.2250000  46.8670000  51.2610000 137.8440000  45.4660000
  51.3000000 136.7750000  45.2300000  52.3350000 138.1370000  45.5300000
  50.6390000 138.6730000  44.2830000  50.4380000 139.7190000  44.7330000
  49.6340000 138.3550000  43.9510000  51.5520000 138.8060000  43.0200000
  52.0920000 137.9690000  42.7630000  52.3720000 139.5430000  43.2480000
  50.8240000 139.2680000  41.7750000  49.8910000 138.5780000  41.6580000
  51.4370000 139.1530000  40.8980000  50.3140000 140.7300000  41.9060000
  49.9380000 140.7570000  42.9160000  49.4780000 140.9980000  41.2120000
  51.3800000 141.8290000  41.7040000  51.8140000 141.7780000  40.7540000
  52.1790000 141.8290000  42.5100000  50.6470000 143.1560000  41.7530000
  49.7730000 143.0290000  41.1010000  51.2130000 143.8660000  41.1320000
  50.2280000 143.7440000  43.0850000  51.1530000 143.9950000  43.7100000
  49.5690000 143.0540000  43.6740000  49.7320000 144.6890000  42.9830000
 124.2840000  28.8670000  39.2670000 125.2580000  29.2170000  39.1420000
 124.1530000  27.8300000  38.7750000 124.2380000  28.6440000  40.3730000
 123.1840000  29.9440000  38.9480000 123.0110000  29.9720000  37.8900000
 122.2500000  29.6080000  39.3560000 123.4870000  31.3850000  39.4460000
 122.6360000  32.0380000  39.2920000 123.8270000  31.4370000  40.4380000
 124.6000000  31.9620000  38.5580000 125.4640000  31.2880000  38.6220000
 124.1860000  31.8680000  37.6010000 124.8190000  33.4870000  38.8230000
 125.2340000  34.0020000  37.9780000 123.8480000  33.9600000  39.0650000
 125.8010000  33.6380000  39.9960000 125.7000000  34.6330000  40.3990000
 125.3850000  33.0600000  40.7720000 127.2550000  33.2180000  39.6160000
 127.2690000  32.4290000  38.8390000 127.7940000  34.0280000  39.0540000
 128.1580000  32.7480000  40.7630000 127.8440000  31.8040000  41.1530000
 129.1680000  32.5590000  40.3200000 128.3070000  33.7810000  41.9280000
 128.5940000  34.7200000  41.4630000 127.2920000  34.0120000  42.2880000
 129.3870000  33.4540000  43.0080000 130.2980000  33.0690000  42.5610000
 129.6010000  34.2510000  43.7050000 128.8560000  32.2140000  43.8500000
 127.8620000  32.3640000  44.0890000 128.9200000  31.3300000  43.3040000
 129.6110000  31.9570000  45.1490000 129.6210000  32.8890000  45.6950000
 129.1180000  31.1400000  45.7630000 131.0680000  31.5370000  45.1320000
 131.7530000  32.3500000  44.7240000 131.3640000  31.2860000  46.1460000
 131.3510000  30.2210000  44.3420000 131.1010000  30.4560000  43.3250000
 132.3400000  29.8390000  44.3450000 130.3680000  29.0710000  44.7340000
 129.3360000  29.3810000  44.6410000 130.3660000  28.1210000  44.1280000
 130.6220000  28.5970000  46.1560000 131.6020000  27.9640000  46.3820000
 129.7270000  28.9600000  47.0420000 129.7210000  28.2050000  48.3150000
 128.7760000  28.3030000  48.7370000 129.7960000  27.1610000  48.0510000
 130.8910000  28.5130000  49.3130000 131.7740000  27.9690000  48.9830000
 130.5760000  27.9480000  50.7540000 130.7790000  26.8940000  50.8330000
 131.1320000  28.4670000  51.5020000 129.1420000  27.9190000  51.1580000
 128.4480000  29.2170000  51.7590000 128.4730000  29.1450000  53.3430000
 129.2760000  30.0530000  54.1140000 129.2900000  29.6800000  55.1120000
 130.3130000  30.1360000  53.8420000 128.6640000  31.4180000  54.0840000
 129.2510000  31.9870000  54.7990000 128.6980000  31.9450000  53.1390000
 127.1840000  31.5540000  54.5750000 126.8890000  32.9950000  54.7850000
 125.8760000  33.2850000  55.0650000 127.6230000  33.4050000  55.5370000
 127.1550000  33.3640000  53.8420000 126.2210000  31.1020000  53.5850000
 125.3280000  31.6180000  53.7740000 126.5690000  31.4540000  52.6770000
 126.2160000  30.0320000  53.5650000 127.0040000  30.8330000  55.8510000
 125.9960000  31.0130000  56.1800000 127.6590000  31.2120000  56.5820000
 127.1840000  29.7110000  55.7080000 129.3050000  30.3890000  51.4790000
 127.0780000  29.2080000  51.2990000 131.1860000  29.9550000  49.3120000
 132.3340000  30.2750000  50.0320000 133.2230000  29.5180000  50.2500000
 132.4500000  31.7530000  50.4700000 132.6540000  31.7180000  51.5870000
 131.3950000  32.2010000  50.4680000 133.4310000  32.6320000  49.6890000
 134.3820000  32.2220000  49.7300000 133.5610000  33.5810000  50.1620000
 132.9470000  32.9890000  48.2920000 131.8860000  33.1960000  48.2960000
 133.1160000  32.0850000  47.6340000 133.7150000  34.1160000  47.6710000
 134.8410000  33.8420000  47.7230000 133.6500000  35.0680000  48.3170000
 133.3110000  34.3690000  46.2140000 132.1950000  34.3680000  46.1010000
 133.6380000  33.5630000  45.5980000 133.8660000  35.7090000  45.7190000
 134.9180000  35.6150000  45.4490000 133.8590000  36.5070000  46.5150000
 132.9330000  36.2990000  44.5900000 131.9670000  36.5290000  45.0770000
 132.7260000  35.4580000  43.8850000 133.6420000  37.4840000  43.9330000
 134.2170000  38.0530000  44.6820000 133.5850000  37.7580000  42.6570000
 134.1140000  38.6350000  42.1870000 132.7140000  37.0620000  41.6000000
 132.1190000  36.3410000  42.1330000 133.4240000  36.5070000  40.8820000
 131.8770000  37.9380000  40.7200000 132.5500000  38.5380000  40.1180000
 131.2680000  38.6190000  41.2660000 130.9310000  37.1440000  39.8170000
 130.2260000  36.6120000  40.4300000 131.4940000  36.3800000  39.3040000
 130.2100000  38.0270000  38.7560000 130.8440000  38.3730000  37.9320000
 129.8060000  38.9630000  39.2130000 129.1410000  37.3700000  37.9470000
 128.4570000  36.8190000  38.5060000 129.4960000  36.6290000  37.2500000
 128.3220000  38.4450000  37.0920000 128.9950000  39.0230000  36.4310000
 127.8670000  39.1510000  37.7810000 127.1740000  37.7790000  36.2040000
 126.3180000  37.6520000  36.9000000 127.5060000  36.8180000  35.7410000
 126.7570000  38.7290000  35.0660000 126.0840000  38.1560000  34.4360000
 127.6780000  38.9800000  34.5020000 126.3080000  39.6250000  35.4920000
 104.4220000 140.3660000  40.9270000 103.4880000 139.9960000  40.5520000
 104.9280000 139.4840000  41.2860000 104.9680000 140.6940000  40.0600000
 104.2780000 141.3950000  42.0800000 103.4810000 141.0720000  42.7170000
 105.2370000 141.4430000  42.6930000 103.8580000 142.8490000  41.5550000
 104.6170000 143.1870000  40.9100000 102.9100000 142.7660000  41.0140000
 103.5730000 143.7140000  42.7710000 102.7080000 143.2960000  43.2920000
 104.3930000 143.6010000  43.4880000 103.3350000 145.1760000  42.3790000
 104.0070000 145.4640000  41.5200000 102.3460000 145.2920000  41.9730000
 103.5330000 146.1830000  43.5220000 104.4520000 145.9340000  44.0420000
 103.3700000 147.1560000  43.1430000 102.4490000 146.0410000  44.6320000
 101.4660000 146.2990000  44.3060000 102.4510000 144.9530000  44.9370000
 102.7210000 146.8290000  45.8600000 102.8400000 147.8730000  45.6350000
 101.8240000 146.7810000  46.4520000 103.9190000 146.3810000  46.7710000
 103.7620000 145.3590000  47.1190000 104.9090000 146.2960000  46.2990000
 104.0700000 147.3580000  47.9950000 104.2340000 148.3440000  47.5570000
 103.0790000 147.4800000  48.5570000 105.3090000 146.9040000  48.8470000
 106.1840000 146.7940000  48.1490000 105.5320000 147.6880000  49.6480000
 105.0590000 145.5230000  49.5320000 104.2170000 145.6500000  50.1950000
 104.8530000 144.7280000  48.7850000 106.3220000 145.1070000  50.3270000
 107.2770000 145.2060000  49.6790000 106.4390000 145.8260000  51.1250000
 106.4030000 143.7200000  50.9620000 105.5670000 143.5960000  51.6640000
 106.3310000 142.8810000  50.2210000 107.7050000 143.4300000  51.7220000
 108.5470000 143.6900000  51.0930000 107.5480000 144.1340000  52.5800000
 107.8490000 141.9660000  52.1500000 106.9580000 141.1680000  52.1360000
 109.0900000 141.6560000  52.5350000 109.4450000 140.3150000  53.1180000
 108.6960000 140.1370000  53.8590000 109.3680000 139.5370000  52.3120000
 110.8140000 140.2590000  53.8220000 111.3220000 139.3500000  53.5730000
 110.5680000 140.2420000  55.3830000 111.4040000 140.8100000  55.7570000
 109.6110000 140.5290000  55.6080000 110.6880000 138.9260000  55.9010000
 109.7830000 137.7150000  55.3950000 108.2780000 138.2650000  55.6410000
 107.6600000 138.2310000  56.9520000 108.3630000 137.7750000  57.7240000
 107.4550000 139.2260000  57.1510000 106.2690000 137.4790000  56.8730000
 105.8700000 137.6110000  57.8880000 105.6600000 138.0440000  56.1710000
 106.2420000 136.0270000  56.3790000 104.9050000 135.3990000  56.7660000
 104.2150000 135.8640000  56.0740000 105.0250000 134.3230000  56.6250000
 104.6260000 135.5930000  57.8140000 106.4580000 135.7910000  54.8900000
 107.3650000 136.2860000  54.7100000 106.5090000 134.7090000  54.8480000
 105.6240000 136.2770000  54.3240000 107.2230000 135.2130000  57.0600000
 107.1560000 135.4180000  58.1590000 108.2050000 135.5210000  56.6780000
 107.0390000 134.1870000  56.8630000 109.9080000 137.4600000  53.9610000
 110.0420000 136.6200000  56.3580000 111.6400000 141.4270000  53.5100000
 112.3470000 141.2660000  52.3500000 112.6950000 140.1800000  51.9290000
 112.8950000 142.5120000  51.7610000 113.5290000 142.2640000  50.8890000
 113.4890000 143.0190000  52.5220000 111.8230000 143.5130000  51.3330000
 111.5240000 144.0740000  52.1850000 110.9640000 142.8990000  51.0020000
 112.1560000 144.4800000  50.2380000 112.6380000 144.0650000  49.3660000
 112.8800000 145.1510000  50.6600000 110.9410000 145.3650000  49.7060000
 110.4490000 145.7480000  50.5790000 110.1450000 144.7610000  49.2450000
 111.4620000 146.5240000  48.7950000 112.1250000 147.1660000  49.4040000
 110.4980000 147.0330000  48.5900000 112.1590000 146.1600000  47.6270000
 111.5480000 145.4880000  47.0860000 113.0510000 145.6670000  47.9000000
 112.4260000 147.4390000  46.7410000 113.0010000 148.2040000  47.3170000
 111.5340000 147.8880000  46.4110000 113.1580000 146.8660000  45.6130000
 114.1950000 146.5580000  45.8440000 112.7150000 146.8120000  44.3240000
 113.3650000 146.5110000  43.5020000 111.4030000 147.2900000  43.9310000
 111.4080000 147.4760000  42.8820000 111.1880000 148.2370000  44.4960000
 110.2570000 146.2600000  44.0960000 109.9580000 146.1120000  45.1530000
 110.4960000 145.2990000  43.7390000 109.0960000 146.7930000  43.2730000
 109.4150000 146.9150000  42.2830000 108.8400000 147.8550000  43.6600000
 107.7370000 146.0330000  43.4310000 106.9850000 146.6580000  42.9950000
 107.4860000 146.0850000  44.5020000 107.7500000 144.5800000  42.9630000
 107.2020000 144.0420000  43.7750000 108.8000000 144.1780000  42.8840000
 106.9790000 144.3110000  41.6480000 105.9410000 144.5680000  41.8300000
 107.0370000 143.2680000  41.3680000 107.3770000 145.2140000  40.4340000
 108.3320000 144.8300000  40.1130000 107.4030000 146.2590000  40.8110000
 106.4210000 145.0520000  39.1900000 105.4490000 145.2810000  39.5310000
 106.3100000 144.0260000  38.7800000 106.7610000 145.7880000  38.4330000
 151.0970000 117.2640000  52.4470000 151.1720000 118.0800000  51.7380000
 151.7830000 117.4870000  53.3150000 150.1020000 117.3830000  52.7610000
 151.5260000 115.9800000  51.7300000 150.6470000 115.4710000  51.3080000
 152.1760000 116.2880000  50.9620000 152.2910000 114.9630000  52.5940000
 153.2120000 115.4150000  52.9730000 151.6140000 114.5620000  53.3860000
 152.7270000 113.7020000  51.7510000 153.5430000 113.9380000  51.0960000
 153.2030000 112.8220000  52.3360000 151.6800000 112.9620000  50.8490000
 151.4350000 113.5900000  49.9860000 152.1430000 112.1060000  50.3910000
 150.4840000 112.3240000  51.6190000 150.7650000 111.3500000  52.0720000
 150.1400000 112.9720000  52.3940000 149.2740000 112.2640000  50.6370000
 148.9300000 113.2090000  50.2930000 149.5840000 111.7100000  49.7570000
 148.1510000 111.3530000  51.1610000 147.6060000 111.7820000  52.0210000
 147.3360000 111.3470000  50.4090000 148.4450000 109.8920000  51.6710000
 149.1820000 109.3860000  51.0350000 148.8590000 109.8950000  52.6210000
 147.2960000 108.9330000  51.8210000 146.4280000 109.3530000  52.3300000
 146.8450000 108.6510000  50.8370000 147.7070000 107.6260000  52.5930000
 148.6440000 107.2960000  52.1310000 147.9500000 107.9840000  53.5530000
 146.5310000 106.6360000  52.7230000 145.6860000 107.1730000  53.2200000
 146.0900000 106.4190000  51.7420000 146.7960000 105.3470000  53.4830000
 147.2170000 105.4950000  54.4600000 145.8140000 104.7840000  53.6990000
 147.6890000 104.3740000  52.7880000 148.5460000 104.8610000  52.2550000
 148.1740000 103.6920000  53.4950000 146.9550000 103.4340000  51.7500000
 146.3750000 104.0950000  51.0590000 147.6870000 102.9670000  51.3230000
 145.9940000 102.4340000  52.3380000 146.1840000 101.6930000  53.2630000
 144.7960000 102.4150000  51.6750000 143.7860000 101.4560000  51.9370000
 143.1420000 101.3810000  51.1130000 144.2460000 100.5060000  52.0290000
 142.9410000 101.8440000  53.1690000 143.6040000 102.2380000  53.9950000
 142.1350000 100.6170000  53.6430000 142.8990000  99.9340000  54.1070000
 141.3730000 100.8900000  54.3350000 141.6390000  99.9740000  52.4650000
 140.6990000  98.7010000  52.4240000 141.7830000  97.4780000  52.5100000
 142.7500000  97.3280000  51.4660000 142.1700000  97.5080000  50.5230000
 143.5210000  98.1460000  51.5490000 143.3280000  95.9360000  51.5680000
 142.6040000  95.1180000  51.5940000 143.8690000  95.8110000  50.6250000
 144.2240000  95.5210000  52.7170000 145.4810000  94.9120000  52.2310000
 145.9650000  94.4040000  53.0720000 145.2010000  94.1670000  51.4440000
 146.0980000  95.6530000  51.7770000 144.6580000  96.7540000  53.4970000
 143.7380000  97.2380000  53.8830000 145.3630000  96.4850000  54.2990000
 145.1430000  97.4830000  52.7130000 143.6060000  94.4700000  53.6470000
 142.5360000  94.7560000  53.7820000 144.1190000  94.4310000  54.6180000
 143.5520000  93.4910000  53.1580000 139.8140000  98.7050000  53.6130000
 140.0350000  98.7210000  51.1140000 142.0960000 102.9210000  52.7560000
 141.6360000 103.6790000  53.7910000 141.8620000 103.4710000  54.9760000
 140.7440000 104.7650000  53.3490000 139.8070000 104.8320000  53.9090000
 140.4590000 104.4920000  52.3550000 141.5080000 106.1480000  53.3880000
 142.4950000 106.1020000  52.8950000 141.7350000 106.4590000  54.3570000
 140.5770000 107.2110000  52.7850000 139.6750000 107.0850000  53.3700000
 140.1790000 106.9530000  51.7810000 140.9280000 108.6670000  53.0030000
 140.8630000 108.8630000  54.0460000 140.1870000 109.3280000  52.5290000
 142.3360000 109.1180000  52.5880000 142.5650000 108.8940000  51.5120000
 143.0130000 108.6220000  53.2070000 142.2970000 110.6250000  52.7610000
 142.2300000 110.9410000  53.8400000 141.3590000 110.9580000  52.2820000
 143.4530000 111.4000000  52.1930000 143.9770000 110.9100000  51.3730000
 144.1800000 111.5120000  53.0230000 143.0050000 112.7830000  51.8510000
 142.5510000 112.8630000  50.9050000 143.2620000 113.9610000  52.4560000
 142.9340000 114.9030000  52.0150000 143.8130000 114.0860000  53.8300000
 143.6150000 113.2650000  54.5340000 143.5010000 114.9990000  54.3350000
 145.3960000 114.1810000  53.7700000 145.7330000 113.2630000  53.4230000
 145.7490000 114.3200000  54.8260000 145.8930000 115.3170000  52.9450000
 145.3910000 116.2540000  53.2850000 145.5210000 115.0950000  51.9330000
 147.4290000 115.2040000  52.9700000 147.7850000 115.5300000  51.9950000
 147.6190000 114.1190000  52.9300000 148.3530000 115.7210000  54.0870000
 148.3510000 116.8260000  53.8610000 149.3070000 115.3910000  53.7290000
 148.1610000 115.4070000  55.5330000 147.1690000 115.5790000  55.8960000
 148.8780000 116.1410000  56.0660000 148.5870000 113.8960000  55.8690000
 149.6300000 113.6840000  55.5590000 147.7920000 113.2890000  55.3800000
 148.5360000 113.7720000  57.4360000 147.5100000 113.5010000  57.7670000
 148.8370000 114.7680000  57.8990000 149.2720000 113.0310000  57.7200000
  28.7550000  80.8140000  43.9410000  28.4190000  79.9340000  43.4340000
  29.7000000  81.0350000  43.4760000  28.1640000  81.6470000  43.6970000
  28.6680000  80.6900000  45.4720000  28.9100000  79.6920000  45.7490000
  29.3630000  81.3910000  45.9400000  27.2770000  80.9660000  46.1660000
  26.7570000  81.8080000  45.6820000  26.5660000  80.1330000  46.1350000
  27.5990000  81.2330000  47.6460000  27.7300000  80.2690000  48.1940000
  28.5390000  81.7650000  47.7710000  26.5760000  82.0800000  48.3530000
  26.8380000  82.0940000  49.4220000  26.4540000  83.0950000  47.9860000
  25.1610000  81.4560000  48.5550000  24.6400000  81.3410000  47.6230000
  25.2150000  80.4520000  49.0930000  24.3250000  82.4140000  49.5430000
  24.9110000  82.6150000  50.4530000  24.0900000  83.3750000  49.0260000
  22.9870000  81.7120000  49.7910000  22.3620000  81.5910000  48.8670000
  23.1590000  80.7820000  50.1840000  22.1580000  82.4450000  50.8370000
  21.9030000  83.3580000  50.3380000  21.2720000  81.8520000  50.9550000
  22.8090000  82.6990000  52.1690000  23.6520000  83.3760000  52.0730000
  22.1700000  83.2920000  52.7730000  23.2680000  81.4080000  52.9350000
  24.0960000  80.9670000  52.4870000  23.6380000  81.7130000  53.9430000
  22.1540000  80.2870000  53.1140000  21.5940000  80.2610000  52.1900000
  22.6420000  79.4320000  53.4560000  21.2590000  80.6610000  54.2430000
  21.1770000  81.7460000  54.1720000  20.3180000  80.1990000  54.0730000
  21.8600000  80.2510000  55.6220000  21.9850000  79.2120000  55.5910000
  22.9060000  80.7150000  55.7030000  20.9410000  80.7300000  56.7630000
  19.9580000  80.7470000  56.3690000  21.1350000  80.0080000  57.6190000
  21.2300000  82.1280000  57.2020000  21.3350000  82.5080000  58.3550000
  21.0970000  83.0060000  56.1870000  20.9540000  84.4140000  56.6230000
  20.4810000  85.0350000  55.8280000  20.3510000  84.3920000  57.5730000
  22.3410000  84.9830000  56.8870000  22.8830000  84.4390000  57.6610000
  22.2660000  86.5040000  57.2070000  21.7000000  86.6500000  58.0960000
  23.2770000  86.8600000  57.3890000  21.5640000  87.2080000  56.1900000
  21.3810000  88.7070000  56.0860000  22.8140000  89.2530000  55.9130000
  23.5160000  89.2690000  54.6540000  23.7400000  88.2670000  54.4530000
  22.8820000  89.6990000  53.8290000  24.7770000  90.0180000  54.9660000
  24.5790000  91.0560000  55.1000000  25.2460000  89.5120000  55.8380000
  25.9960000  89.9930000  54.0310000  27.0210000  91.0630000  54.3470000
  26.3620000  91.9530000  54.5030000  27.5330000  90.7620000  55.2930000
  27.6750000  91.2370000  53.4360000  26.7850000  88.6220000  53.9980000
  27.5660000  88.6290000  53.3200000  27.0390000  88.2090000  54.9650000
  25.9950000  87.9560000  53.5940000  25.5710000  90.2340000  52.5870000
  26.4080000  90.3370000  51.9450000  24.9800000  91.1130000  52.5630000
  25.0070000  89.3620000  52.2930000  20.6630000  89.0110000  54.7630000
  20.7290000  89.2860000  57.3260000  23.1730000  84.8340000  55.6580000
  24.5310000  84.7070000  55.8340000  25.1090000  84.9590000  56.8570000
  25.2430000  84.3720000  54.5400000  25.1870000  85.2700000  53.9120000
  24.6660000  83.6100000  54.1000000  26.7120000  83.7880000  54.6190000
  26.6960000  82.8520000  55.1700000  27.3900000  84.4790000  55.1510000
  27.3870000  83.6030000  53.1890000  28.4390000  83.3680000  53.4660000
  27.4910000  84.5210000  52.6730000  26.8280000  82.5240000  52.3520000
  27.2870000  82.5880000  51.3660000  25.7810000  82.5800000  52.2680000
  27.0550000  81.1230000  52.9140000  26.3070000  80.9030000  53.7390000
  28.1160000  81.1170000  53.3530000  26.9860000  79.9860000  51.8410000
  27.7130000  80.2050000  51.0460000  25.9650000  79.8830000  51.4150000
  27.2720000  78.5860000  52.4070000  27.1240000  77.9460000  51.5240000
  26.5930000  78.2080000  53.1460000  28.6920000  78.5320000  52.8010000
  28.9330000  79.1220000  53.6580000  29.6750000  77.8870000  52.2210000
  30.6730000  77.9220000  52.6800000  29.7200000  77.0780000  50.9370000
  28.7980000  76.4570000  51.0210000  30.6360000  76.4960000  50.8580000
  29.6320000  77.8860000  49.6660000  28.6990000  78.4620000  49.5250000
  29.5090000  77.1920000  48.8820000  30.9200000  78.7210000  49.4700000
  31.8610000  78.1610000  49.5360000  30.8990000  79.5490000  50.1410000
  30.8410000  79.3770000  48.0820000  29.9730000  80.0870000  48.0300000
  30.6100000  78.6100000  47.3750000  32.1970000  80.0100000  47.6380000
  32.9480000  79.1870000  47.7440000  32.4450000  80.7980000  48.3630000
  32.2010000  80.5050000  46.1840000  31.7010000  81.4620000  46.1530000
  31.8530000  79.7920000  45.4710000  33.5830000  80.8670000  45.7400000
  34.3620000  80.1460000  46.0410000  33.8610000  81.8430000  46.1630000
  33.4780000  81.0190000  44.2040000  34.4820000  80.9680000  43.7980000
  32.9830000  81.9190000  43.9070000  32.9630000  80.1300000  43.8370000
  77.0880000 137.1120000  44.1060000  78.0330000 136.9650000  43.5350000
  77.2910000 137.6580000  44.9700000  76.3780000 137.7200000  43.5270000
  76.5730000 135.6810000  44.3350000  76.2230000 135.3730000  43.3670000
  77.3680000 135.0490000  44.7240000  75.4510000 135.5790000  45.3630000
  75.2650000 134.5630000  45.5280000  75.6490000 135.9660000  46.3390000
  74.1480000 136.0670000  44.7430000  74.3780000 137.1150000  44.3930000
  74.0700000 135.4900000  43.7890000  72.9650000 136.0160000  45.7810000
  73.4890000 136.3520000  46.7230000  72.1540000 136.6940000  45.5740000
  72.3850000 134.5980000  45.8840000  71.9310000 134.3520000  44.9540000
  73.1560000 133.8740000  46.0160000  71.5190000 134.3520000  47.0340000
  70.8960000 135.2390000  47.1530000  70.8630000 133.5140000  46.7530000
  72.2050000 134.1700000  48.3750000  73.0670000 133.5040000  48.2600000
  72.6640000 135.1060000  48.7380000  71.3540000 133.5980000  49.4880000
  71.0600000 132.5870000  49.1850000  71.9740000 133.4030000  50.4200000
  70.1050000 134.4410000  49.8390000  69.5360000 134.6630000  48.9530000
  69.6630000 133.8190000  50.5690000  70.3990000 135.8740000  50.3760000
  70.6620000 136.6300000  49.5790000  69.4270000 136.2230000  50.8530000
  71.3860000 136.1300000  51.5630000  71.0560000 135.5450000  52.4550000
  72.3810000 135.7100000  51.3360000  71.7260000 137.5650000  51.9530000
  72.1010000 138.1140000  51.0840000  70.8410000 138.0770000  52.2820000
  72.8520000 137.6250000  53.0170000  73.6940000 137.0220000  52.7700000
  73.2690000 138.6090000  52.8820000  72.6150000 137.2360000  54.4630000
  72.2570000 136.2140000  54.4390000  73.6070000 137.3950000  54.9460000
  71.5040000 137.9750000  55.1020000  71.5350000 139.0170000  55.7690000
  70.3020000 137.2880000  54.8080000  69.0740000 137.7000000  55.4010000
  68.2650000 137.0220000  55.1800000  69.1870000 137.6540000  56.4900000
  68.6520000 139.1100000  54.8990000  69.4760000 139.8330000  55.2860000
  67.3740000 139.5600000  55.5500000  67.5180000 139.5570000  56.6450000
  67.2010000 140.6470000  55.2660000  66.3130000 138.6860000  55.0460000
  65.4770000 138.9070000  53.7560000  64.0210000 138.4950000  54.1190000
  63.6670000 137.0570000  54.2240000  64.4530000 136.4270000  54.6980000
  62.8140000 136.9410000  54.9410000  63.3850000 136.4080000  52.8770000
  64.2410000 136.6040000  52.3120000  63.2390000 135.2810000  52.9390000
  62.0940000 136.8990000  52.2910000  61.8590000 136.1140000  51.0870000
  61.9950000 135.0190000  51.3250000  60.8610000 136.2050000  50.7330000
  62.4580000 136.4780000  50.2750000  60.9150000 136.7390000  53.2110000
  60.6080000 137.7430000  53.5730000  60.1580000 136.1820000  52.6690000
  61.2530000 136.0880000  54.0210000  62.2780000 138.2980000  51.7740000
  63.0490000 138.3650000  51.0960000  62.4580000 138.7890000  52.7000000
  61.3220000 138.6070000  51.3040000  65.4070000 140.3720000  53.4190000
  65.8320000 137.9750000  52.7260000  68.6710000 139.1810000  53.4640000
  69.2150000 140.2020000  52.8730000  70.0640000 140.9180000  53.3590000
  68.5580000 140.4010000  51.4650000  68.9450000 141.2700000  50.9930000
  67.4700000 140.5470000  51.5300000  68.8340000 139.2930000  50.3890000
  68.5840000 138.3550000  50.9100000  69.8730000 139.1180000  50.0360000
  67.9480000 139.4680000  49.1570000  66.9350000 139.7770000  49.4230000
  67.9630000 138.5570000  48.6150000  68.5270000 140.5540000  48.2360000
  69.2710000 141.1010000  48.8120000  67.7760000 141.2120000  47.9160000
  69.1780000 139.9240000  46.9550000  68.5340000 139.2970000  46.4860000
  70.0330000 139.2770000  47.2250000  69.6840000 140.9490000  45.9120000
  70.2670000 141.7940000  46.3860000  68.8030000 141.3330000  45.4770000
  70.4080000 140.2150000  44.7880000  69.5890000 139.6690000  44.2960000
  71.2190000 139.5790000  45.1690000  70.8110000 141.2620000  43.8150000
  70.4490000 142.3580000  43.9230000  71.6360000 141.0100000  42.8200000
  71.8750000 141.8500000  42.1480000  72.4180000 139.7250000  42.6810000
  71.9650000 138.8160000  43.1730000  73.3940000 139.8120000  43.2000000
  72.7470000 139.3970000  41.2180000  72.9070000 140.3310000  40.6910000
  71.8330000 138.8720000  40.8430000  73.8950000 138.3980000  41.1280000
  74.1840000 138.1220000  42.1660000  74.8380000 138.9390000  40.8070000
  73.6880000 137.1950000  40.1680000  72.6200000 136.8130000  40.2290000
  74.4730000 136.4040000  40.2330000  73.7490000 137.5620000  38.7260000
  74.7370000 138.1120000  38.6720000  72.9690000 138.2760000  38.3420000
  73.8490000 136.2680000  37.8960000  72.9400000 135.6380000  37.9920000
  74.7080000 135.7380000  38.2230000  74.1830000 136.5510000  36.4220000
  75.1490000 137.1590000  36.4030000  73.3010000 137.1820000  36.1220000
  74.4330000 135.3470000  35.5010000  73.4800000 134.8800000  35.2970000
  75.1540000 134.5960000  35.8430000  74.8550000 135.7090000  34.5390000
  16.6090000 102.9280000  34.5890000  16.4170000 103.8780000  34.0010000
  16.2290000 102.0580000  34.0610000  17.6550000 102.8330000  34.7500000
  15.8420000 102.9260000  35.9380000  16.3650000 103.6590000  36.5050000
  14.8450000 103.2480000  35.8570000  15.6720000 101.5410000  36.5440000
  15.0710000 101.5970000  37.4570000  15.1110000 100.9710000  35.8730000
  17.0060000 100.9210000  36.9750000  16.8470000  99.8050000  37.2120000
  17.8050000 100.9810000  36.1970000  17.4830000 101.6150000  38.1920000
  17.3160000 102.6830000  38.1560000  16.9240000 101.3320000  39.0980000
  18.9930000 101.5200000  38.4820000  19.3070000 100.5240000  38.4930000
  19.4360000 102.1150000  37.7370000  19.3260000 102.2910000  39.8050000
  19.1700000 103.3510000  39.5820000  18.6880000 101.9160000  40.6140000
  20.7910000 102.0630000  40.3040000  21.0340000 101.0030000  39.9770000
  21.3340000 102.7550000  39.6820000  21.1140000 102.3360000  41.8030000
  21.0290000 103.3980000  42.0000000  20.4820000 101.7450000  42.4650000
  22.5860000 102.0100000  42.2030000  22.8770000 100.9690000  42.0420000
  23.1810000 102.6540000  41.4820000  22.8650000 102.3150000  43.6620000
  22.6590000 103.3320000  43.9880000  22.0920000 101.6870000  44.2130000
  24.3320000 101.8980000  44.1280000  24.5330000 100.9000000  43.8160000
  25.0010000 102.6370000  43.6010000  24.4360000 101.9650000  45.6620000
  23.5810000 101.5330000  46.2020000  25.3850000 101.3950000  45.8640000
  24.6570000 103.4110000  46.1790000  25.4790000 103.7380000  45.6210000
  23.7770000 104.0400000  46.0160000  25.0060000 103.4850000  47.6690000
  24.3580000 102.8580000  48.2850000  25.9820000 103.0720000  47.8290000
  25.1130000 104.9290000  48.0180000  25.4470000 105.8500000  47.2480000
  24.7600000 105.1390000  49.3230000  24.5210000 106.4670000  49.8150000
  24.7380000 106.5070000  50.8430000  25.2490000 107.1710000  49.3830000
  23.0640000 106.9220000  49.5950000  22.9190000 107.9150000  50.0240000
  21.9500000 106.0220000  50.2090000  21.0710000 106.1270000  49.5940000
  22.2810000 104.9490000  50.1600000  21.5710000 106.5260000  51.4940000
  22.0950000 105.9390000  52.8570000  22.2930000 104.4170000  52.5800000
  21.2260000 103.5230000  52.8400000  21.2180000 103.2840000  53.9040000
  20.3200000 103.8830000  52.5830000  21.5590000 102.2790000  52.0030000
  21.4130000 102.4960000  50.9530000  22.5940000 101.8370000  52.1660000
  20.7480000 101.0940000  52.2790000  19.3160000 101.4540000  52.2060000
  19.0370000 102.1120000  53.0540000  19.0600000 101.9540000  51.2660000
  18.6560000 100.6440000  52.3170000  21.1240000 100.1540000  51.2530000
  22.1740000  99.9580000  51.1790000  20.6110000  99.2360000  51.2580000
  20.8200000 100.5290000  50.2830000  21.0780000 100.4900000  53.6180000
  20.6330000  99.4710000  53.6120000  20.6770000 101.1730000  54.3780000
  22.2110000 100.5000000  53.7700000  23.4290000 106.5040000  53.0770000
  20.9790000 106.0480000  53.7920000  22.8650000 106.9880000  48.1580000
  23.1470000 108.1000000  47.5440000  23.4710000 109.1310000  48.1520000
  22.8930000 108.0090000  46.0650000  22.1950000 108.7200000  45.7140000
  22.5230000 106.9910000  45.8030000  24.1170000 108.3990000  45.3110000
  24.9870000 107.8570000  45.6360000  24.1910000 109.4440000  45.5040000
  23.9410000 108.2620000  43.7410000  24.9380000 108.4940000  43.3710000
  23.2640000 109.0420000  43.3380000  23.5750000 106.8490000  43.2710000
  22.4590000 106.7870000  43.3460000  23.8730000 106.1270000  44.0200000
  24.0470000 106.3700000  41.8550000  23.6590000 107.0440000  41.0360000
  23.6620000 105.3580000  41.6690000  25.6070000 106.2330000  41.6450000
  26.0790000 107.2110000  41.9520000  25.8750000 105.9920000  40.6250000
  26.3280000 105.2640000  42.6410000  25.8930000 104.2550000  42.5980000
  26.1310000 105.4830000  43.7550000  27.7820000 105.1190000  42.3900000
  28.4430000 105.8830000  42.8270000  28.2600000 104.2640000  41.5650000
  29.3200000 104.3600000  41.3310000  27.5230000 103.1480000  40.7620000
  26.5380000 103.0600000  41.1570000  28.0860000 102.2010000  40.8270000
  27.3920000 103.3750000  39.2870000  28.4000000 103.4810000  38.8060000
  27.0130000 104.3880000  39.1560000  26.2700000 102.5080000  38.6550000
  25.3930000 102.4340000  39.2590000  26.6200000 101.5380000  38.5490000
  25.9260000 103.1050000  37.2170000  25.3500000 102.3800000  36.6540000
  26.8060000 103.1530000  36.5810000  25.1840000 104.4320000  37.1690000
  25.0130000 104.4520000  36.1030000  25.8230000 105.3120000  37.4440000
  23.9250000 104.6180000  37.9790000  24.1220000 104.4700000  39.0220000
  23.3620000 103.6960000  37.7750000  23.0480000 105.9200000  37.8160000
  23.7600000 106.7720000  37.6870000  22.3590000 106.0300000  38.7160000
  22.1520000 105.7760000  36.5720000  21.4900000 104.8950000  36.6610000
  22.6990000 105.7520000  35.6640000  21.5380000 106.6510000  36.5260000
  16.4040000 140.2230000  36.6690000  15.7970000 141.0970000  36.5030000
  16.2170000 139.4300000  35.9450000  17.4780000 140.3700000  36.6060000
  15.9200000 139.6130000  38.0460000  15.6070000 140.4320000  38.7240000
  15.0560000 138.9490000  37.9440000  17.0680000 138.9750000  38.7390000
  16.7220000 138.3100000  39.5390000  17.3520000 138.2110000  37.9900000
  18.1690000 139.9630000  39.1660000  19.1770000 139.4950000  39.2100000
  18.3050000 140.7810000  38.4000000  17.8400000 140.6760000  40.5390000
  16.9620000 141.2900000  40.5040000  17.6930000 140.0180000  41.3600000
  19.0500000 141.5910000  40.9680000  19.9570000 140.9100000  41.0100000
  19.2430000 142.4120000  40.2840000  18.7380000 142.1940000  42.3790000
  17.6600000 142.4060000  42.4650000  18.7810000 141.3960000  43.1520000
  19.7550000 143.3260000  42.8320000  19.6200000 144.1460000  42.1250000
  19.3640000 143.6600000  43.8550000  21.2360000 143.0790000  43.0980000
  21.3420000 142.7720000  44.1360000  21.4710000 142.2920000  42.4700000
  22.0940000 144.3100000  42.9170000  21.6780000 145.2910000  43.2630000
  22.9890000 144.1730000  43.5770000  22.5430000 144.5440000  41.4390000
  21.6420000 144.4200000  40.7700000  22.9210000 145.5940000  41.3940000
  23.6230000 143.4760000  41.0540000  23.3340000 142.5090000  41.4240000
  23.7220000 143.4670000  39.9440000  25.0320000 143.8660000  41.5230000
  25.2580000 144.8240000  40.9920000  25.0950000 144.1360000  42.5750000
  26.1510000 142.8270000  41.0730000  26.0980000 142.7120000  40.0490000
  27.0960000 143.3290000  41.2370000  26.1240000 141.4200000  41.6830000
  25.2020000 140.8490000  41.4020000  27.0000000 140.8390000  41.3840000
  26.1460000 141.5380000  43.1810000  27.1310000 141.3530000  43.8640000
  24.9200000 141.8260000  43.6630000  24.9260000 141.8830000  45.1300000
  23.8840000 141.8150000  45.5290000  25.4130000 140.9540000  45.5000000
  25.4040000 143.1690000  45.7430000  26.2710000 143.5240000  45.2060000
  25.6570000 143.0750000  47.2780000  26.4330000 142.3840000  47.3710000
  25.9790000 144.0390000  47.7200000  24.5130000 142.4680000  48.0630000
  23.4090000 143.4550000  48.8390000  22.0450000 143.1650000  48.0890000
  21.0180000 142.1390000  48.4530000  20.3500000 142.0200000  47.5380000
  21.5970000 141.2470000  48.5860000  20.2050000 142.5310000  49.6630000
  19.3460000 141.8710000  49.8170000  20.8680000 142.3920000  50.5040000
  19.6740000 143.9040000  49.7410000  18.9750000 144.0350000  51.0350000
  18.0890000 143.4650000  51.0730000  19.7650000 143.7700000  51.7830000
  18.6860000 145.0700000  51.1330000  20.7770000 144.9150000  49.8720000
  21.4260000 144.5510000  50.6670000  21.3560000 144.9570000  48.9430000
  20.4270000 145.8840000  50.1730000  18.7980000 144.2410000  48.5900000
  18.0600000 143.3750000  48.4420000  19.3600000 144.4860000  47.6610000
  18.2780000 145.1760000  48.7690000  23.2320000 143.0170000  50.2180000
  23.7650000 144.8550000  48.5810000  24.3440000 144.1930000  45.5280000
  24.6110000 145.4870000  45.6600000  25.7530000 145.8740000  45.5940000
  23.4210000 146.4160000  45.7420000  23.0330000 146.4340000  46.7550000
  22.5370000 146.0110000  45.1750000  23.6600000 147.8710000  45.3190000
  24.5810000 148.3220000  45.7710000  22.8140000 148.5620000  45.5420000
  23.7070000 147.8550000  43.8140000  22.8580000 147.3840000  43.3310000
  24.5650000 147.2690000  43.5950000  24.0160000 149.2070000  43.2760000
  25.0970000 149.2210000  43.4370000  23.4260000 150.0350000  43.9010000
  23.6340000 149.4440000  41.8170000  23.8370000 150.4330000  41.4810000
  22.5110000 149.4820000  41.6730000  24.2870000 148.4350000  40.8280000
  23.8730000 147.4620000  40.8500000  25.4280000 148.2930000  40.9660000
  24.0060000 148.6860000  39.3210000  24.5700000 147.8750000  38.8730000
  24.3800000 149.6470000  38.9910000  22.5000000 148.8030000  39.0050000
  21.9850000 149.5660000  39.5790000  21.8390000 148.0240000  38.1250000
  20.8220000 148.3240000  38.1390000  22.3550000 146.9140000  37.2580000
  23.4550000 146.9160000  37.1290000  21.9810000 146.9750000  36.2660000
  21.8860000 145.6240000  37.9210000  20.7830000 145.5080000  37.8630000
  22.2060000 145.6870000  38.9620000  22.4870000 144.3270000  37.2500000
  23.4930000 144.2090000  37.5950000  22.4600000 144.5240000  36.1300000
  21.8220000 142.9460000  37.5380000  20.7400000 142.9560000  37.2480000
  21.8670000 142.7730000  38.6070000  22.5190000 141.7450000  36.8650000
  23.7000000 141.6980000  37.0540000  22.3990000 141.9010000  35.8200000
  21.8090000 140.4680000  37.3050000  20.6780000 140.6730000  37.1810000
  22.0620000 140.3330000  38.3880000  22.1550000 139.2410000  36.4410000
  21.7060000 138.3420000  36.8550000  23.2930000 139.1130000  36.3870000
  21.6030000 139.5150000  35.0410000  20.5560000 139.8300000  35.0790000
  21.5390000 138.4840000  34.5400000  22.1910000 140.1810000  34.3460000
  69.8450000  83.3640000  40.2120000  69.6110000  83.9330000  41.1040000
  70.3520000  83.9320000  39.4680000  70.5650000  82.5800000  40.4400000
  68.5380000  82.6430000  39.7330000  67.8960000  83.3240000  39.1770000
  68.8190000  81.8720000  38.9440000  67.8410000  82.0210000  40.9570000
  68.4250000  81.2340000  41.4020000  67.7180000  82.6980000  41.6930000
  66.5580000  81.3120000  40.6690000  65.8140000  81.9810000  40.2800000
  66.6500000  80.4180000  40.0580000  65.9500000  80.7180000  41.9540000
  65.2150000  79.9220000  41.6640000  66.7590000  80.1820000  42.5220000
  65.4230000  81.7310000  42.9920000  66.1020000  82.4990000  43.2140000
  64.5170000  82.2380000  42.4910000  65.0280000  81.0470000  44.2970000
  65.9070000  80.6530000  44.8030000  64.5920000  81.7930000  44.9880000
  64.0220000  79.8830000  44.0460000  63.3040000  80.2120000  43.3340000
  64.6520000  79.1050000  43.6340000  63.3210000  79.5150000  45.3340000
  64.0970000  79.4020000  46.1120000  62.6190000  80.3180000  45.6790000
  62.5740000  78.1690000  45.1750000  63.3710000  77.3710000  45.3830000
  61.7340000  78.0940000  45.9200000  62.0350000  77.7320000  43.8260000
  62.8650000  77.6540000  43.0500000  61.7040000  76.7050000  43.9490000
  60.8730000  78.6420000  43.2500000  61.2480000  79.5940000  43.3420000
  60.8650000  78.4480000  42.1940000  59.4620000  78.5260000  43.9020000
  59.6300000  78.6420000  44.9810000  58.9350000  79.4160000  43.5440000
  58.6330000  77.3060000  43.6890000  58.5120000  77.2660000  42.5700000
  59.2570000  76.5680000  44.1060000  57.2830000  77.4300000  44.3170000
  57.0010000  78.5000000  44.3480000  56.6460000  76.8410000  43.6640000
  57.2260000  76.8440000  45.7280000  58.1770000  76.6740000  46.5040000
  55.9260000  76.5740000  46.0870000  55.6330000  76.2510000  47.4880000
  56.3860000  76.7030000  48.1610000  54.7070000  76.8300000  47.7640000
  55.4070000  74.7790000  47.8360000  54.8330000  74.4530000  46.9690000
  54.6450000  74.6840000  49.1400000  53.6270000  74.9370000  48.9250000
  54.6950000  73.6570000  49.5280000  55.1340000  75.6800000  50.0660000
  54.4810000  75.9130000  51.5140000  53.1220000  76.7220000  51.1780000
  53.0170000  78.1100000  51.3260000  53.8180000  78.5390000  51.9960000
  52.9540000  78.7720000  50.3970000  51.7530000  78.3720000  52.1580000
  51.5310000  79.4450000  52.2230000  50.8320000  78.0560000  51.7250000
  51.5860000  77.7700000  53.5660000  50.3770000  78.3400000  54.1770000
  49.4870000  78.0370000  53.5800000  50.3880000  77.9630000  55.1600000
  50.3340000  79.3940000  54.0630000  51.5060000  76.2770000  53.5710000
  51.4860000  75.9440000  54.6090000  50.5980000  75.9470000  52.9740000
  52.4030000  75.9390000  53.0190000  52.8000000  78.1530000  54.3040000
  52.7530000  77.7300000  55.3040000  52.8070000  79.2630000  54.4060000
  53.6610000  77.8400000  53.8200000  54.0990000  74.6380000  52.0730000
  55.4280000  76.7540000  52.1960000  56.6710000  74.0940000  48.0190000
  57.1450000  73.4150000  46.9390000  56.5530000  73.1310000  45.9640000
  58.6150000  73.1940000  47.1280000  58.8410000  72.5500000  47.9830000
  59.1020000  74.1160000  47.4550000  59.3310000  72.4570000  45.9100000
  58.6910000  71.6790000  45.5340000  60.2890000  72.0530000  46.2020000
  59.5330000  73.3300000  44.6740000  59.7910000  74.3050000  44.9850000
  58.5610000  73.3710000  44.2230000  60.5860000  72.7620000  43.7700000
  60.5970000  71.6640000  43.8410000  61.5690000  73.0770000  44.1400000
  60.3040000  73.2500000  42.3450000  60.0470000  74.2780000  42.2750000
  59.4360000  72.7160000  41.9980000  61.2830000  72.7870000  41.2650000
  60.8050000  72.9490000  40.2760000  61.4600000  71.7330000  41.4110000
  62.5870000  73.6000000  41.2430000  62.2900000  74.6290000  41.2550000
  63.0500000  73.4600000  40.3090000  63.5370000  73.1910000  42.3640000
  63.3770000  72.1570000  42.8120000  64.4770000  73.9970000  42.8660000
  65.1740000  73.4940000  43.5990000  64.8100000  75.4130000  42.3240000
  64.5030000  76.1890000  43.0720000  64.2440000  75.6370000  41.4590000
  66.2900000  75.6650000  42.0480000  66.7560000  75.0020000  41.3790000
  66.7240000  75.4460000  43.0130000  66.6270000  77.0030000  41.4710000
  66.0130000  77.7040000  42.1240000  66.1170000  77.0410000  40.4570000
  68.1030000  77.4690000  41.5730000  68.5170000  77.5780000  42.5200000
  68.0900000  78.5340000  41.2770000  69.1440000  76.7140000  40.7210000
  69.1270000  75.7080000  41.2200000  70.1300000  77.1660000  40.9880000
  68.7480000  76.6970000  39.1780000  68.8950000  77.6910000  38.7750000
  67.7110000  76.4940000  39.1430000  69.6270000  75.7910000  38.3190000
  70.6480000  75.9280000  38.5220000  69.5100000  76.1160000  37.3040000
  69.3560000  74.3260000  38.4750000  69.4560000  74.1160000  39.5950000
  70.1550000  73.7370000  37.9330000  68.3910000  73.9700000  38.1850000
 140.6600000 101.9750000  34.1850000 141.4100000 102.7770000  34.2940000
 139.8150000 102.3320000  33.5450000 141.0870000 101.1790000  33.6560000
 140.2230000 101.4770000  35.5380000 139.6460000 102.2700000  36.0570000
 139.5260000 100.7260000  35.4750000 141.3740000 101.1370000  36.5860000
 140.9070000 100.7830000  37.5460000 142.0220000 100.3450000  36.1310000
 142.2820000 102.2700000  36.8840000 142.7940000 102.7400000  36.0250000
 141.7770000 103.0740000  37.4690000 143.2520000 101.8620000  37.9940000
 142.6170000 101.4050000  38.7520000 143.9960000 101.1000000  37.5850000
 143.9990000 103.0950000  38.5530000 144.6840000 103.3170000  37.7420000
 143.1520000 103.8400000  38.7020000 144.8320000 102.8210000  39.8250000
 145.7260000 102.2030000  39.6160000 145.1730000 103.8170000  40.1470000
 144.1070000 102.2320000  41.0860000 143.9120000 101.1630000  40.9440000
 144.8090000 102.2800000  41.9560000 142.8030000 102.9130000  41.3980000
 143.0650000 103.9290000  41.4950000 142.0460000 102.8300000  40.5790000
 142.0800000 102.4010000  42.6970000 142.0230000 101.2710000  42.5600000
 142.7450000 102.5870000  43.5550000 140.7260000 103.0840000  42.9830000
 140.9000000 104.1050000  43.2710000 140.1470000 103.0500000  42.0300000
 140.0060000 102.3400000  44.1380000 139.8250000 101.2800000  43.9900000
 140.6860000 102.4270000  44.9500000 138.6670000 103.0450000  44.5010000
 138.8060000 104.0390000  44.8870000 138.0210000 103.0360000  43.6070000
 137.7720000 102.2920000  45.5400000 138.2850000 102.3060000  46.4650000
 136.8900000 102.9500000  45.7290000 137.4320000 100.8780000  45.0570000
 137.1590000 100.7560000  44.0690000 138.2640000 100.2080000  44.9890000
 136.3830000 100.2110000  45.9490000 135.1470000 100.1530000  45.7010000
 136.9850000  99.7090000  47.1010000 136.0780000  99.0940000  48.0770000
 136.4980000  99.0160000  49.1120000 135.1530000  99.5730000  48.0100000
 135.8120000  97.6840000  47.6150000 135.5390000  97.6340000  46.5310000
 134.6390000  96.8890000  48.3800000 133.7000000  97.0460000  47.7410000
 134.7170000  95.7550000  48.2670000 134.1620000  97.3070000  49.6730000
 134.9530000  96.7690000  50.9090000 136.1130000  97.7980000  51.1150000
 135.9720000  99.0150000  51.8570000 135.2590000  99.7440000  51.3900000
 135.7420000  98.8490000  52.9060000 137.3030000  99.8800000  51.8360000
 138.1250000  99.2640000  52.0550000 137.4840000 100.3420000  50.8880000
 137.4590000 101.0250000  52.7820000 136.4130000 102.0230000  52.4380000
 135.3430000 101.5940000  52.4560000 136.4630000 102.8710000  53.1540000
 136.5980000 102.5150000  51.4870000 137.2850000 100.7470000  54.2550000
 136.3020000 100.2580000  54.3690000 138.1430000 100.1210000  54.5210000
 137.2110000 101.6880000  54.7990000 138.7290000 101.5970000  52.5000000
 139.4130000 100.7490000  52.7510000 138.8570000 102.4910000  53.0690000
 138.6550000 101.8220000  51.4800000 134.1460000  96.9200000  52.1130000
 135.5710000  95.3750000  50.7220000 137.0900000  97.0080000  47.7540000
 137.9580000  96.8880000  46.6790000 137.6600000  97.1420000  45.4730000
 139.3110000  96.3410000  47.1020000 139.1990000  95.4860000  47.6690000
 139.6420000  97.2330000  47.7160000 140.3380000  96.1350000  45.9100000
 139.7580000  95.7240000  45.0850000 141.1660000  95.5980000  46.3440000
 140.8430000  97.6140000  45.4750000 140.4190000  98.3450000  46.1210000
 140.5230000  98.0260000  44.5240000 142.3980000  97.5340000  45.4210000
 142.6840000  96.5180000  45.0020000 142.7760000  97.5720000  46.3760000
 142.8940000  98.7490000  44.6280000 142.4110000  99.6840000  44.9220000
 142.6250000  98.6630000  43.5570000 144.3940000  99.0070000  44.5640000
 144.6920000  99.0090000  45.5880000 144.5250000  99.9700000  44.1240000
 145.2190000  97.9160000  43.7860000 144.9100000  97.8760000  42.7210000
 145.0220000  96.9350000  44.2070000 146.7030000  98.1950000  43.9590000
 147.1790000  98.0050000  44.9020000 147.5630000  98.4340000  42.9280000
 148.6720000  98.5430000  43.1660000 147.1970000  98.6000000  41.4600000
 146.1640000  98.8140000  41.2460000 147.3320000  97.6460000  40.8930000
 148.0000000  99.6460000  40.7240000 148.9710000  99.3010000  40.9760000
 147.9430000 100.6440000  41.1120000 147.6210000  99.5890000  39.1970000
 146.5880000  99.8130000  38.9610000 147.6790000  98.5360000  38.8520000
 148.5280000 100.5010000  38.3590000 149.5230000 100.0780000  38.2760000
 148.4450000 101.4850000  38.7110000 147.9540000 100.5910000  36.8830000
 146.8800000 100.8150000  36.9970000 148.1330000  99.6400000  36.4360000
 148.6040000 101.6340000  35.9890000 149.6870000 101.7130000  36.1900000
 148.2780000 102.5940000  36.3590000 148.3810000 101.6170000  34.4490000
 148.7860000 102.5080000  34.0120000 147.3170000 101.6460000  34.2720000
 148.9240000 100.3110000  33.8120000 148.5760000 100.2750000  32.8140000
 148.4530000  99.4660000  34.2710000 150.0270000 100.2590000  33.6400000
  59.9680000 117.2310000  36.9690000  59.1370000 117.3610000  36.2820000
  59.8490000 116.2640000  37.5270000  60.9640000 117.2250000  36.4280000
  59.9870000 118.3430000  38.0160000  60.9520000 118.6320000  38.3430000
  59.5790000 119.2600000  37.5200000  59.1120000 118.0060000  39.2480000
  58.1090000 117.7230000  38.9270000  59.5770000 117.1770000  39.7950000
  59.0200000 119.1650000  40.2940000  58.7850000 118.8000000  41.3330000
  60.1050000 119.4840000  40.4230000  58.0280000 120.3870000  39.9110000
  58.2620000 121.2930000  40.5440000  58.2930000 120.6540000  38.9260000
  56.5330000 120.1480000  39.9550000  56.2620000 119.3920000  39.2910000
  56.2700000 119.6890000  40.9810000  55.5230000 121.1900000  39.4660000
  55.8180000 121.3670000  38.3660000  54.5480000 120.7100000  39.5010000
  55.6550000 122.5260000  40.2310000  56.7130000 122.8840000  40.1570000
  55.0470000 123.2710000  39.6810000  55.2090000 122.4270000  41.6780000
  54.1250000 122.3300000  41.6190000  55.6050000 121.4860000  42.1450000
  55.4930000 123.6900000  42.4500000  56.5340000 124.0410000  42.2700000
  54.7630000 124.4350000  42.0480000  55.3040000 123.5140000  43.9760000
  54.2100000 123.4630000  44.2070000  55.7570000 122.6380000  44.3720000
  56.0220000 124.5510000  44.8970000  57.0050000 124.5870000  44.5610000
  55.6860000 125.5720000  44.7170000  55.7720000 124.1880000  46.4310000
  54.7610000 124.1430000  46.6330000  56.2470000 123.2050000  46.5680000
  56.4020000 125.1380000  47.4420000  57.4570000 125.2450000  47.0850000
  55.8700000 126.0650000  47.3820000  56.2480000 124.6200000  48.9050000
  55.1610000 124.4150000  48.9910000  56.7230000 123.6600000  49.2010000
  56.5770000 125.6700000  49.9410000  57.2720000 125.3880000  50.9390000
  56.0300000 126.8910000  49.7070000  56.1230000 128.0160000  50.6420000
  55.6990000 127.6880000  51.6450000  55.4460000 128.7770000  50.2220000
  57.5230000 128.6440000  50.8540000  58.3620000 127.9820000  50.8790000
  57.5510000 129.4290000  52.1800000  58.2220000 128.8580000  52.7870000
  57.9560000 130.4090000  51.9070000  56.3390000 129.5700000  52.9180000
  56.1910000 129.0740000  54.4070000  56.0260000 127.4390000  54.3250000
  54.7470000 126.9160000  54.0170000  54.1760000 126.8220000  54.8990000
  54.2750000 127.5870000  53.3140000  54.9360000 125.5570000  53.3150000
  53.9780000 125.1470000  53.1440000  55.4050000 125.6650000  52.3630000
  55.7090000 124.4510000  54.0500000  57.2320000 124.8490000  54.0440000
  57.7050000 124.0120000  54.3610000  57.5090000 125.0650000  52.9830000
  57.3180000 125.7010000  54.7300000  55.1870000 124.0720000  55.4070000
  54.1560000 123.8220000  55.2880000  55.7660000 123.3220000  55.8750000
  55.4110000 124.9770000  55.9190000  55.4550000 123.2590000  53.2350000
  55.6290000 122.3440000  53.7610000  56.0900000 123.3340000  52.3290000
  54.3950000 123.2500000  52.9250000  57.3660000 129.4690000  55.1420000
  54.9140000 129.6970000  54.7930000  57.7140000 129.5110000  49.7430000
  58.3410000 129.0370000  48.6460000  58.8780000 127.9450000  48.5860000
  58.2070000 129.9070000  47.3820000  59.1820000 130.2280000  46.9980000
  57.7050000 130.8690000  47.5060000  57.5530000 129.1320000  46.2560000
  57.2200000 129.9450000  45.6740000  56.6190000 128.6160000  46.6230000
  58.4430000 128.2590000  45.3340000  58.8220000 127.4200000  45.9090000
  59.2990000 128.8310000  45.0050000  57.7370000 127.9120000  43.9340000
  57.6230000 128.8590000  43.3980000  56.7480000 127.5790000  44.0840000
  58.5700000 126.8390000  43.1860000  58.3450000 125.9170000  43.7050000
  59.6730000 127.0670000  43.2150000  57.9240000 126.7150000  41.8160000
  56.8300000 126.6030000  41.8160000  58.2210000 125.8210000  41.2580000
  58.2130000 127.9600000  40.9280000  59.2500000 128.1130000  41.0480000
  57.7940000 128.9160000  41.2320000  57.8860000 127.6980000  39.4340000
  58.4440000 126.9020000  38.8900000  57.1050000 128.4140000  38.6230000
  57.1410000 128.0790000  37.5830000  56.4000000 129.7150000  38.9730000
  56.6070000 130.1320000  39.9290000  55.3180000 129.4950000  38.7680000
  56.7870000 130.8180000  37.9610000  57.6620000 131.2970000  38.3910000
  56.0130000 131.6580000  37.9830000  57.0900000 130.5650000  36.4440000
  57.6630000 129.6860000  36.3040000  57.6410000 131.4000000  36.0640000
  55.7680000 130.2730000  35.6560000  55.1020000 131.1330000  35.8650000
  55.3630000 129.3450000  36.0090000  56.0120000 130.3210000  34.1690000
  56.5830000 129.5040000  34.0230000  56.5810000 131.1890000  33.9120000
  54.8450000 130.1960000  33.2180000  54.0290000 130.9500000  33.1960000
  54.3900000 129.2230000  33.4700000  55.4010000 129.9300000  31.8580000
  54.5740000 129.5790000  31.2600000  56.0980000 129.1280000  31.8660000
  56.0210000 131.1870000  31.1850000  56.5560000 130.8840000  30.2480000
  56.7560000 131.7170000  31.7770000  55.2750000 131.9300000  30.8700000
  95.3390000 127.4480000  30.2040000  95.1240000 128.0560000  29.3560000
  94.6530000 126.5520000  30.0790000  96.3940000 127.0430000  30.0590000
  95.1310000 128.1720000  31.4820000  95.7800000 128.9990000  31.5200000
  93.9860000 128.4170000  31.5480000  95.4460000 127.1400000  32.6040000
  94.7010000 126.3840000  32.5610000  96.4360000 126.6670000  32.4190000
  95.4370000 127.9490000  33.9420000  96.1800000 128.7490000  33.8100000
  94.4360000 128.4310000  34.0050000  95.6860000 127.0530000  35.2130000
  94.9170000 126.2490000  35.2800000  96.5670000 126.4440000  35.1340000
  95.7410000 127.9280000  36.5370000  96.3980000 128.8310000  36.3970000
  94.7570000 128.2960000  36.7930000  96.2460000 127.1480000  37.7640000
  97.1740000 126.6420000  37.5120000  96.4530000 127.9050000  38.5330000
  95.2770000 126.0380000  38.2480000  94.3140000 126.4780000  38.4170000
  95.1970000 125.2640000  37.5030000  95.7480000 125.3100000  39.5180000
  94.8990000 124.6670000  39.7780000  96.6390000 124.7430000  39.2730000
  95.9800000 126.1600000  40.7330000  96.3680000 127.1040000  40.3780000
  95.0510000 126.4230000  41.3000000  96.9580000 125.5290000  41.7400000
  96.6310000 124.5910000  42.0990000  97.9450000 125.2430000  41.2260000
  97.3010000 126.4030000  42.9570000  97.7290000 127.3320000  42.5870000
  96.3530000 126.6590000  43.5670000  98.3960000 125.8150000  43.8500000
  99.2210000 125.5820000  43.2140000  97.9630000 124.9540000  44.3440000
  98.9140000 126.9350000  44.8540000  99.6910000 126.4710000  45.4910000
  99.2880000 127.7580000  44.2380000  97.8170000 127.6000000  45.7010000
  97.1290000 128.2530000  45.1670000  97.1980000 126.8250000  46.2160000
  98.4830000 128.3780000  46.7510000  99.4500000 129.0930000  46.6710000
  97.8930000 128.2930000  47.9080000  98.3370000 129.0380000  49.0960000
  97.6990000 128.5690000  49.8320000  99.3820000 128.8920000  49.2130000
  97.9110000 130.5260000  49.1690000  98.3750000 131.1520000  48.4250000
  98.1720000 131.1320000  50.5690000  98.3050000 132.2130000  50.4210000
  97.2800000 130.8900000  51.1700000  99.3360000 130.5330000  51.2420000
  99.3160000 129.5050000  52.4820000  98.9040000 130.4640000  53.7510000
  99.9220000 131.1830000  54.5510000  99.6110000 131.3500000  55.5670000
 100.8620000 130.6290000  54.4360000 100.0300000 132.5660000  53.9180000
 100.9760000 133.0630000  54.2640000  99.8900000 132.4680000  52.8330000
  99.0010000 133.6090000  54.2760000  99.1370000 134.7860000  53.3270000
  98.2090000 135.4360000  53.5290000 100.0800000 135.2670000  53.5990000
  99.0610000 134.3830000  52.2970000  97.5970000 133.1510000  53.9220000
  97.4450000 132.2760000  54.4960000  96.9170000 134.0110000  54.0600000
  97.6680000 132.8690000  52.8380000  98.9540000 134.0730000  55.6470000
  97.9860000 134.5680000  55.7310000  99.6720000 134.8810000  55.7710000
  98.9860000 133.2090000  56.3290000  98.2080000 128.5560000  52.0960000
 100.6530000 128.9750000  52.6860000  96.4780000 130.5660000  49.1240000
  95.7490000 130.6300000  47.9660000  96.2740000 130.7470000  46.8680000
  94.2630000 130.6290000  48.1730000  93.9450000 130.1880000  49.1460000
  93.8700000 130.1690000  47.3220000  93.8220000 132.1320000  48.2180000
  94.4640000 132.6630000  48.8160000  92.8610000 132.1820000  48.6540000
  93.6180000 132.8110000  46.8180000  92.8450000 132.2750000  46.3010000
  94.5650000 132.8160000  46.2370000  93.1490000 134.3030000  46.9570000
  93.7930000 134.8800000  47.6340000  92.2150000 134.3620000  47.3420000
  93.3160000 135.0440000  45.6140000  92.6630000 135.9030000  45.6550000
  92.9880000 134.3560000  44.8110000  94.7190000 135.5490000  45.3810000
  95.4100000 134.7170000  45.3640000  95.0170000 136.2300000  46.2070000
  95.0810000 136.4130000  44.1500000  94.4860000 137.3490000  44.1590000
  94.8110000 135.9120000  43.2230000  96.5560000 136.7660000  44.1540000
  96.8550000 137.6800000  44.7350000  97.5240000 136.2680000  43.4140000
  98.4490000 136.7680000  43.3490000  97.3570000 135.0450000  42.4780000
  96.6230000 134.3210000  42.8620000  98.3120000 134.5510000  42.5030000
  97.0420000 135.4930000  41.0010000  97.8930000 135.9470000  40.6160000
  96.2450000 136.2300000  40.9560000  96.7000000 134.2740000  40.0720000
  96.0390000 133.5730000  40.5400000  97.6880000 133.8090000  39.8780000
  96.0650000 134.5990000  38.7080000  96.7740000 135.3440000  38.3030000
  95.1320000 135.1990000  38.8630000  95.7910000 133.4990000  37.7160000
  96.6790000 132.8620000  37.7300000  95.7960000 133.9520000  36.7470000
  94.4730000 132.7700000  37.8460000  94.0270000 132.7270000  36.8420000
  93.7980000 133.2760000  38.5810000  94.6450000 131.3180000  38.2820000
  94.8190000 131.2450000  39.3550000  95.4590000 130.8860000  37.7500000
  93.3140000 130.6200000  37.9790000  93.2540000 129.6700000  38.5160000
  93.2070000 130.4610000  36.8590000  92.4120000 131.3270000  38.2730000
 155.6250000 146.9160000  38.1000000 155.2400000 147.7670000  37.4830000
 155.7180000 146.0900000  37.3930000 156.6650000 147.1260000  38.3100000
 154.7430000 146.8070000  39.3680000 153.7270000 146.6760000  39.0330000
 155.1040000 145.9780000  39.9980000 154.9730000 148.0350000  40.3730000
 155.8610000 147.7700000  40.9500000 155.2220000 148.9600000  39.7970000
 153.8960000 148.3370000  41.4600000 154.2750000 149.1900000  41.9690000
 153.0020000 148.5170000  40.8270000 153.4690000 147.2400000  42.4560000
 152.6570000 147.6110000  43.1510000 153.0720000 146.3710000  41.9530000
 154.6020000 146.9510000  43.4730000 155.5290000 146.5920000  42.9400000
 154.8690000 147.7980000  44.1030000 154.1630000 145.7670000  44.3860000
 154.8430000 145.7370000  45.2770000 153.1410000 146.0470000  44.7060000
 154.1500000 144.3790000  43.7000000 154.2370000 144.5350000  42.6560000
 155.0680000 143.8350000  44.0910000 152.9230000 143.5570000  44.0560000
 152.0840000 144.0010000  43.5360000 153.1480000 142.5660000  43.5960000
 152.6750000 143.4350000  45.5800000 152.3600000 144.3510000  46.0940000
 151.8440000 142.8130000  45.8000000 153.8380000 142.7990000  46.4080000
 154.7620000 143.3430000  46.1430000 153.6790000 142.9900000  47.4650000
 154.1350000 141.3110000  46.1280000 154.6060000 141.2260000  45.1630000
 154.8110000 140.8950000  46.9030000 152.8270000 140.3960000  46.1430000
 152.3610000 140.4200000  47.1230000 152.0730000 140.7800000  45.3900000
 153.2880000 138.9880000  45.8090000 153.6300000 138.9950000  44.8090000
 154.1730000 138.8390000  46.4300000 152.3830000 137.8340000  46.0630000
 151.4700000 137.9090000  45.4230000 152.8100000 136.9320000  45.9010000
 152.0200000 137.8560000  47.5640000 152.8510000 137.5320000  48.4140000
 150.6820000 138.0820000  47.7600000 150.2260000 137.9430000  49.1400000
 149.1270000 137.8660000  49.0000000 150.5250000 136.9700000  49.5720000
 150.5410000 139.2830000  49.9690000 151.6630000 139.3910000  50.0260000
 149.9420000 139.4560000  51.3580000 150.3480000 138.7050000  51.9600000
 150.3360000 140.4140000  51.7560000 148.4820000 139.4900000  51.2860000
 147.5510000 138.2570000  51.7490000 147.7710000 138.2240000  53.3290000
 147.2240000 139.2310000  54.1660000 147.9050000 139.2810000  55.0240000
 147.2760000 140.2220000  53.6640000 145.7460000 138.9120000  54.5190000
 145.4670000 139.7210000  55.2310000 145.1530000 138.9800000  53.6530000
 145.3190000 137.6340000  55.1590000 143.9120000 137.7540000  55.5470000
 143.3150000 137.9820000  54.6450000 143.7480000 136.8090000  56.1430000
 143.7410000 138.5480000  56.2940000 145.3750000 136.3920000  54.2770000
 146.4020000 136.2430000  53.9020000 145.1730000 135.5550000  54.8320000
 144.6980000 136.4980000  53.4100000 146.0730000 137.4670000  56.4350000
 147.1130000 137.3430000  56.1520000 145.8200000 136.4920000  56.9110000
 145.7440000 138.3270000  57.1120000 146.1280000 138.5780000  51.4910000
 148.0560000 137.0320000  51.1020000 150.0010000 140.2980000  49.1690000
 150.5760000 141.5030000  49.2040000 151.6300000 141.8570000  49.7220000
 149.6700000 142.6010000  48.5720000 148.6750000 142.4470000  49.0480000
 149.6220000 142.3330000  47.5040000 150.2610000 144.0530000  48.5940000
 151.2080000 143.9970000  48.0300000 150.5360000 144.4370000  49.5450000
 149.3630000 144.9890000  47.8170000 148.4980000 145.3080000  48.4850000
 148.8560000 144.4870000  46.9400000 150.0860000 146.2620000  47.2400000
 150.8410000 146.0680000  46.4560000 150.3840000 146.8610000  48.0940000
 149.1910000 147.3240000  46.5670000 148.9100000 146.8850000  45.6050000
 149.7650000 148.3390000  46.4370000 147.9150000 147.6150000  47.3450000
 148.1110000 147.9260000  48.3360000 147.3290000 146.6430000  47.3930000
 146.9790000 148.7440000  46.7100000 147.6080000 149.6030000  46.4300000
 146.1150000 149.0390000  47.2870000 146.3190000 148.1840000  45.4590000
 145.2970000 147.8310000  45.5870000 146.7430000 148.3750000  44.2240000
 145.9820000 148.2890000  43.4530000 148.1490000 148.9300000  43.8770000
 148.8200000 148.1640000  43.4060000 148.7750000 149.3840000  44.6410000
 147.9520000 150.0460000  42.8100000 147.3090000 149.5890000  42.0120000
 148.8560000 150.4240000  42.2820000 147.2120000 151.3750000  43.2770000
 147.9840000 152.0270000  43.7210000 146.5090000 151.1290000  44.0590000
 146.5370000 152.1660000  42.1590000 147.3140000 152.2930000  41.4830000
 146.2460000 153.2120000  42.4340000 145.4410000 151.5510000  41.2390000
 145.9510000 150.7960000  40.6080000 145.1100000 152.3230000  40.5620000
 144.2550000 150.8990000  42.0080000 144.5660000 150.0270000  42.5750000
 143.6400000 150.4620000  41.2660000 143.3430000 151.8530000  42.7680000
 142.6690000 152.3000000  42.0280000 143.9550000 152.5690000  43.2500000
 142.4830000 151.1790000  43.8470000 141.6400000 150.6120000  43.4760000
 142.1820000 151.9290000  44.4880000 143.2050000 150.6720000  44.4940000
 142.5820000  58.0370000  43.9440000 143.4590000  58.2680000  43.2890000
 142.8640000  57.1280000  44.5080000 142.3650000  58.8660000  44.6280000
 141.2710000  57.7150000  43.1700000 141.0330000  58.5520000  42.5860000
 141.4720000  56.9610000  42.4810000 140.1280000  57.2880000  44.0580000
 139.2210000  57.0180000  43.4820000 140.4190000  56.3780000  44.5840000
 139.7050000  58.3240000  45.1370000 140.6260000  58.6200000  45.6320000
 139.1580000  59.1400000  44.6140000 138.7540000  57.7590000  46.2340000
 137.8580000  57.3290000  45.6950000 139.3140000  56.9310000  46.7660000
 138.3170000  58.8440000  47.2850000 139.2530000  59.1840000  47.7460000
 137.6210000  59.6250000  46.9380000 137.5320000  58.0130000  48.3300000
 138.2670000  57.4060000  48.8200000 137.2730000  58.7490000  49.1310000
 136.3010000  57.1640000  47.8980000 136.6690000  56.2130000  47.5100000
 135.7640000  56.7820000  48.7360000 135.4030000  57.9250000  47.0120000
 135.2880000  58.8870000  47.4920000 135.9330000  58.0780000  46.0050000
 134.0260000  57.2740000  46.8290000 134.1920000  56.2080000  46.5460000
 133.5870000  57.1060000  47.8290000 133.0280000  58.0400000  45.9310000
 133.5920000  58.3180000  45.0040000 132.1690000  57.4050000  45.5570000
 132.3260000  59.2630000  46.5940000 133.1420000  59.9340000  46.9350000
 131.7770000  59.8450000  45.8460000 131.3740000  58.8650000  47.7100000
 130.6590000  58.1740000  47.2280000 131.9260000  58.2270000  48.3860000
 130.6690000  60.0510000  48.2620000 130.0530000  60.4590000  47.4650000
 130.0010000  59.5720000  49.0020000 131.5420000  61.2050000  48.8290000
 132.1900000  61.4170000  48.0230000 130.8780000  62.0150000  49.1250000
 132.3060000  60.8180000  49.9850000 132.0110000  61.2150000  51.0990000
 133.3780000  60.0700000  49.6620000 134.2280000  59.4360000  50.6690000
 135.0880000  58.9100000  50.1820000 134.6620000  60.2060000  51.3170000
 133.4270000  58.5090000  51.6490000 132.7720000  59.1440000  52.1750000
 134.4110000  57.7590000  52.5800000 133.8370000  57.1350000  53.3190000
 135.0070000  57.0270000  52.0140000 135.3100000  58.6540000  53.2690000
 134.6730000  59.6570000  54.3210000 135.8600000  59.6060000  55.4270000
 137.0530000  60.2720000  55.1460000 137.8410000  60.0430000  55.9480000
 137.3350000  60.0690000  54.1540000 136.8220000  61.7740000  55.3420000
 137.7130000  62.1700000  55.0410000 135.9570000  62.0630000  54.7490000
 136.6770000  62.2910000  56.7330000 135.7220000  61.4960000  57.4960000
 134.7690000  61.2980000  56.8650000 136.1580000  60.5600000  57.8080000
 135.5340000  62.1980000  58.2950000 137.9830000  62.2600000  57.4520000
 138.7750000  62.6340000  56.7340000 137.9860000  62.9380000  58.2930000
 138.1870000  61.2190000  57.6800000 136.1830000  63.6780000  56.6490000
 136.8550000  64.2930000  56.0870000 135.8780000  64.1320000  57.5900000
 135.3090000  63.6560000  56.0050000 134.7230000  60.9220000  53.6540000
 133.4710000  59.2530000  55.0050000 132.7910000  57.3560000  50.9240000
 131.4230000  57.2500000  50.9660000 130.7460000  58.1210000  51.4750000
 130.8760000  56.0330000  50.3090000 131.6720000  55.6440000  49.6530000
 130.2100000  56.2880000  49.4430000 130.1880000  55.0510000  51.2420000
 129.6190000  54.2680000  50.6690000 129.4990000  55.7170000  51.7170000
 131.0600000  54.3530000  52.2710000 130.4360000  53.6360000  52.7150000
 131.3750000  55.0760000  53.0480000 132.3370000  53.7310000  51.6600000
 132.9530000  54.6240000  51.5140000 132.1040000  53.2990000  50.6840000
 132.8880000  52.6640000  52.7150000 133.0270000  53.0880000  53.6960000
 133.8930000  52.3390000  52.3930000 132.0120000  51.3350000  52.7940000
 131.1280000  51.6480000  53.2970000 132.5070000  50.6440000  53.5000000
 131.8650000  50.4890000  51.4950000 131.2550000  51.1160000  50.7830000
 131.2510000  49.6420000  51.6840000 133.1620000  49.9940000  50.9530000
 133.9860000  49.8020000  51.6590000 133.4640000  49.9910000  49.6500000
 134.4630000  49.6800000  49.3760000 132.5310000  50.2940000  48.5210000
 131.4600000  50.1760000  48.7680000 132.7140000  49.5830000  47.7240000
 132.8060000  51.7050000  47.9170000 133.7180000  51.7100000  47.3600000
 132.8810000  52.3820000  48.7350000 131.6630000  52.1510000  46.9130000
 130.7130000  52.2760000  47.5620000 131.4730000  51.3050000  46.2150000
 132.0030000  53.4720000  46.2470000 132.7580000  53.4070000  45.4180000
 132.4750000  54.1280000  46.9640000 130.8240000  54.2260000  45.6070000
 130.4130000  54.9930000  46.3860000 129.9930000  53.5250000  45.3110000
 131.3090000  55.0930000  44.3850000 131.6970000  54.4830000  43.6320000
 132.1530000  55.6460000  44.7320000 130.2300000  55.9170000  43.7530000
 129.5730000  56.4280000  44.4190000 129.6430000  55.2790000  43.0830000
 130.7340000  56.8950000  42.7180000 129.9690000  57.5910000  42.4700000
 131.2400000  56.5240000  41.8570000 131.3850000  57.4820000  43.2830000
   0.8250000  30.2950000  40.2720000   1.7270000  30.6520000  40.7700000
   0.0710000  31.1240000  40.3080000   1.1790000  30.2300000  39.2270000
   0.2800000  28.9180000  40.5800000  -0.4570000  28.6510000  39.8920000
   1.0920000  28.1770000  40.4690000  -0.2000000  28.8710000  42.0490000
   0.4280000  29.0640000  42.9020000  -1.0030000  29.5660000  42.1600000
  -0.7660000  27.4540000  42.4120000  -1.1690000  27.5320000  43.4080000
  -1.6910000  27.2730000  41.8080000   0.1090000  26.1870000  42.4540000
   0.4010000  25.9900000  41.4250000   0.9160000  26.3560000  43.1310000
  -0.6580000  24.9670000  42.9760000  -1.4820000  25.2110000  43.6210000
  -1.0480000  24.5050000  42.1140000   0.3400000  24.1190000  43.7510000
   0.1640000  23.0370000  43.6080000   1.3760000  24.3240000  43.3980000
   0.2880000  24.3450000  45.2670000  -0.5830000  23.9890000  45.7060000
   1.1130000  23.6890000  45.6440000   0.6260000  25.7950000  45.6920000
   1.4640000  26.0780000  45.1350000  -0.1990000  26.5300000  45.3890000
   0.9460000  25.8240000  47.2230000   0.1230000  25.4060000  47.7890000
   1.7480000  25.1520000  47.4940000   1.2410000  27.2410000  47.7870000
   2.1650000  27.4970000  47.2280000   0.5120000  27.9970000  47.5370000
   1.5980000  27.2520000  49.3330000   0.7730000  26.6890000  49.9040000
   2.5230000  26.6860000  49.6360000   1.5840000  28.6920000  49.8960000
   0.5970000  29.0590000  49.6210000   1.4730000  28.5730000  50.9660000
   2.6440000  29.6850000  49.4700000   2.3490000  29.9860000  48.4670000
   2.5670000  30.5860000  50.0850000   4.1220000  29.3380000  49.3450000
   4.3560000  28.4680000  48.6950000   4.7770000  30.1010000  49.0260000
   4.7400000  29.0960000  50.7380000   5.1250000  29.9730000  51.4560000
   4.7650000  27.7990000  51.1480000   5.2820000  27.4950000  52.4530000
   6.3330000  27.7210000  52.4390000   4.9730000  28.0940000  53.2710000
   5.2710000  26.0130000  52.9160000   4.2060000  25.7620000  53.1200000
   6.1190000  25.8020000  54.2150000   5.4490000  26.0330000  55.1280000
   6.4740000  24.7820000  54.3320000   7.3000000  26.5990000  54.1870000
   8.6830000  25.9950000  53.5880000   8.4900000  26.2160000  51.9990000
   9.0400000  27.3430000  51.3160000   8.2940000  28.0940000  51.2670000
   9.9570000  27.7210000  51.7860000   9.5740000  26.9670000  49.8920000
  10.0480000  27.8940000  49.4820000  10.3780000  26.2170000  50.0330000
   8.6600000  26.4460000  48.8670000   9.3290000  26.7560000  47.6140000
   9.2160000  27.7540000  47.3930000  10.3770000  26.4990000  47.7170000
   8.9070000  26.1400000  46.8330000   8.5880000  24.9730000  48.9650000
   7.9220000  24.5380000  48.2580000   9.6080000  24.5010000  48.7230000
   8.2630000  24.8010000  50.0020000   7.2850000  27.0070000  48.9650000
   6.6380000  26.3880000  48.3760000   7.2790000  28.0680000  48.6740000
   6.9740000  26.9920000  49.9670000   9.8090000  26.8900000  54.0260000
   8.8570000  24.5520000  53.8240000   5.8160000  25.0790000  51.9040000
   5.2810000  23.9140000  51.8160000   4.3630000  23.5440000  52.4960000
   6.0210000  22.9700000  50.9240000   5.5490000  21.9810000  51.1420000
   7.0570000  22.9960000  51.2550000   5.6410000  23.3850000  49.4620000
   6.0690000  24.3760000  49.1170000   4.5790000  23.4910000  49.4550000
   6.1030000  22.2650000  48.5430000   5.5870000  21.3660000  48.8910000
   7.1700000  22.1150000  48.7210000   5.9390000  22.4570000  47.0180000
   4.8490000  22.6450000  46.8290000   6.0940000  21.5160000  46.5190000
   6.7250000  23.6220000  46.4000000   7.7550000  23.3290000  46.3720000
   6.5150000  24.5000000  47.0800000   6.2620000  23.9670000  44.9190000
   5.2240000  23.6220000  44.7510000   6.9390000  23.4290000  44.1920000
   6.3980000  25.4360000  44.6070000   7.3440000  25.8210000  45.0140000
   5.5670000  25.8820000  45.1730000   6.2190000  25.7040000  43.1090000
   6.8520000  25.2050000  42.4140000   5.3820000  26.5620000  42.6110000
   5.5670000  26.7530000  41.5350000   4.3630000  27.4490000  43.2250000
   4.4360000  27.3600000  44.3520000   3.4350000  26.9890000  42.9450000
   4.6000000  28.9720000  42.9650000   5.6180000  29.1350000  43.2470000
   4.0370000  29.6140000  43.6400000   4.4220000  29.2540000  41.4980000
   3.4570000  28.7860000  41.2300000   5.1880000  28.7350000  40.9280000
   4.4160000  30.7690000  41.1750000   3.5800000  31.2000000  41.7260000
   4.2850000  30.9660000  40.1220000   5.7610000  31.4370000  41.5310000
   6.5400000  30.9800000  40.8970000   6.1460000  31.2740000  42.5080000
   5.6230000  32.9840000  41.3310000   4.9970000  33.2650000  42.1760000
   4.9420000  33.2570000  40.4850000   6.9790000  33.7150000  41.4780000
   7.6120000  33.5370000  40.6610000   7.5250000  33.4080000  42.4070000
   6.8220000  35.2570000  41.5600000   7.8060000  35.7040000  41.2940000
   6.6440000  35.6060000  42.5620000   6.0980000  35.7950000  40.8570000
  39.3120000  30.2430000  36.4280000  38.5970000  30.4050000  35.5630000
  40.0020000  29.4260000  36.1530000  39.8900000  31.2080000  36.4270000
  38.5610000  30.1330000  37.7000000  37.9630000  29.2440000  37.8250000
  39.2980000  29.8890000  38.5160000  37.6680000  31.3510000  38.0450000
  38.1890000  32.3260000  37.8580000  36.8040000  31.3320000  37.3950000
  37.2080000  31.3660000  39.5080000  36.4840000  32.2050000  39.5490000
  36.6800000  30.4430000  39.7430000  38.2480000  31.6650000  40.6450000
  39.2680000  31.8510000  40.4090000  37.9130000  32.7280000  41.0160000
  38.3070000  30.6150000  41.7810000  37.2890000  30.6110000  42.2730000
  38.4990000  29.6220000  41.3560000  39.2840000  30.8890000  42.8800000
  39.3020000  29.9660000  43.4610000  40.2430000  31.0250000  42.4410000
  38.9720000  32.0550000  43.8510000  39.3160000  33.0370000  43.4220000
  37.8910000  32.2220000  43.9460000  39.4310000  32.0210000  45.2660000
  40.5570000  31.9690000  45.2560000  39.0320000  32.8130000  45.8120000
  39.0680000  30.6900000  46.0180000  39.4770000  29.8000000  45.5200000
  39.5680000  30.5740000  46.9950000  37.5870000  30.3930000  46.2290000
  36.9710000  30.6600000  45.3900000  37.6180000  29.2990000  46.4210000
  37.0700000  31.2740000  47.3530000  37.7540000  31.2160000  48.1570000
  37.0560000  32.2720000  46.9600000  35.6620000  30.8190000  47.7890000
  35.6000000  29.7720000  47.7570000  35.4490000  31.1420000  48.8190000
  34.4290000  31.4190000  47.0460000  34.5410000  31.0810000  46.0510000
  33.5530000  30.9900000  47.4310000  34.3410000  32.9320000  47.2480000
  35.2220000  33.3960000  47.6770000  34.0980000  33.2690000  46.2530000
  33.3180000  33.3090000  48.2460000  32.3630000  34.0600000  47.9880000
  33.5460000  32.8210000  49.4160000  32.6780000  33.0650000  50.6040000
  32.0340000  33.9990000  50.4980000  31.9630000  32.2180000  50.5050000
  33.4090000  33.1770000  51.9450000  33.6790000  32.2020000  52.3050000
  32.7080000  34.0780000  53.0500000  31.7460000  33.5960000  53.2260000
  33.2880000  34.0170000  53.9800000  32.4570000  35.4410000  52.5590000
  31.6920000  36.5100000  53.4070000  30.2400000  36.3510000  52.8450000
  29.4210000  35.1920000  53.0670000  28.5050000  35.3140000  52.4970000
  29.9600000  34.3010000  52.7000000  28.9670000  35.0020000  54.4840000
  28.2970000  34.2180000  54.4760000  29.8400000  34.7660000  55.1070000
  28.2770000  36.1610000  55.1650000  27.2110000  36.6250000  54.3590000
  26.5420000  35.8050000  54.0510000  26.6360000  37.3470000  54.8680000
  27.6680000  37.0670000  53.5000000  27.7380000  35.6820000  56.3990000
  27.3510000  36.4840000  56.9180000  26.9160000  35.1150000  56.2280000
  28.5790000  35.2260000  56.9930000  29.1220000  37.2580000  55.5240000
  28.4460000  38.0500000  55.9270000  29.6460000  37.5930000  54.6720000
  29.7950000  36.8520000  56.2070000  31.7410000  36.1720000  54.9100000
  32.1350000  37.8960000  53.0100000  34.5930000  33.9200000  51.5180000
  35.6910000  33.8250000  52.2640000  35.7560000  33.5950000  53.4590000
  36.8850000  34.3510000  51.5030000  37.3030000  35.1220000  52.1040000
  36.5640000  34.8630000  50.6180000  37.9130000  33.2560000  51.1740000
  37.3650000  32.5220000  50.6320000  38.3010000  32.8300000  52.0740000
  39.1100000  33.8130000  50.3310000  39.4180000  34.6780000  50.8150000
  38.7950000  34.0310000  49.3210000  40.1560000  32.7430000  50.2810000
  39.7150000  31.8040000  50.0030000  40.5280000  32.5440000  51.3200000
  41.3280000  32.9920000  49.3250000  41.8510000  33.9100000  49.5300000
  40.9560000  33.2440000  48.3520000  42.3610000  31.8510000  49.1390000
  41.8400000  30.8350000  49.3130000  43.2120000  31.9020000  49.8140000
  42.9480000  31.7430000  47.6650000  43.4030000  32.7010000  47.4240000
  42.0980000  31.6940000  46.9380000  43.9480000  30.5920000  47.2260000
  44.1760000  29.9030000  48.0050000  44.6230000  30.6550000  46.0450000
  45.3380000  29.8370000  45.8240000  44.4900000  31.7090000  44.9740000
  45.4180000  32.1380000  44.7570000  43.7740000  32.5310000  45.2260000
  44.0290000  31.0950000  43.6700000  43.0310000  30.7100000  43.7350000
  44.5810000  30.1800000  43.5710000  43.9970000  32.0460000  42.4760000
  44.9280000  32.5020000  42.4300000  43.2920000  32.8160000  42.6320000
  43.6740000  31.2510000  41.1260000  42.7740000  30.6090000  41.1880000
  44.4690000  30.5540000  40.8310000  43.4860000  32.2630000  40.0020000
  44.4780000  32.7030000  39.8540000  42.7060000  32.9850000  40.3250000
  43.1480000  31.5580000  38.6450000  42.0390000  31.6980000  38.4000000
  43.1450000  30.5030000  38.7240000  44.0370000  32.0160000  37.4540000
  45.0670000  31.6900000  37.5560000  44.0780000  33.1400000  37.3620000
  43.4470000  31.4820000  36.1290000  44.2280000  31.4460000  35.3690000
  42.6910000  32.1830000  35.7930000  43.2080000  30.4660000  36.2440000
  31.7000000 135.1140000  33.0690000  32.3570000 134.3640000  32.7100000
  32.1110000 136.0220000  32.7090000  30.7490000 134.9520000  32.5720000
  31.5630000 135.1130000  34.6020000  30.7420000 135.7140000  34.6490000
  31.2130000 134.1570000  34.9460000  32.8470000 135.6260000  35.2970000
  32.8470000 135.0970000  36.2760000  33.7670000 135.3230000  34.7460000
  32.9800000 137.1200000  35.6140000  33.2060000 137.6320000  34.7160000
  32.1280000 137.5290000  36.1740000  34.2080000 137.3640000  36.5650000
  34.1160000 136.6660000  37.4130000  35.1510000 137.1870000  36.1150000
  34.1800000 138.7870000  37.1480000  34.2100000 139.5130000  36.3880000
  33.2180000 138.8650000  37.7100000  35.3330000 139.0390000  38.1030000
  36.1370000 138.9420000  37.3960000  35.2700000 140.0700000  38.5110000
  35.3530000 138.0760000  39.3080000  34.4450000 138.1440000  39.8500000
  35.3970000 137.0510000  38.8830000  36.4790000 138.2200000  40.3340000
  37.4340000 138.1700000  39.8310000  36.4710000 139.2580000  40.7310000
  36.3710000 137.1840000  41.5260000  36.3950000 136.2250000  41.0850000
  37.3070000 137.3510000  42.1010000  35.1510000 137.1890000  42.5180000
  34.1950000 137.0120000  41.9930000  35.3260000 136.3790000  43.2450000
  35.0760000 138.5360000  43.3020000  36.0710000 138.8380000  43.6190000
  34.7440000 139.2550000  42.4810000  34.1440000 138.3820000  44.5420000
  33.3210000 137.7150000  44.2890000  34.5680000 137.9900000  45.4590000
  33.4960000 139.6630000  45.0430000  32.8140000 139.9330000  44.2250000
  32.9490000 139.4860000  45.9140000  34.4880000 140.8330000  45.2730000
  35.1950000 140.8040000  44.4720000  33.9900000 141.8050000  45.2370000
  35.1860000 140.6040000  46.5310000  34.6310000 140.5850000  47.6050000
  36.5370000 140.5450000  46.3420000  37.3660000 140.2910000  47.5480000
  38.3300000 140.7730000  47.4520000  36.7970000 140.6950000  48.4100000
  37.4860000 138.7710000  47.6390000  36.4860000 138.3280000  47.5430000
  38.0520000 138.3310000  48.9740000  38.3390000 137.3590000  48.9240000
  38.9550000 138.8320000  49.0910000  37.1390000 138.5660000  50.0320000
  37.2200000 137.7940000  51.3950000  38.0720000 138.8240000  52.2800000
  39.4890000 139.0850000  51.8990000  39.8580000 138.4710000  51.1130000
  39.5780000 140.0810000  51.4920000  40.3920000 139.0450000  53.1520000
  41.3610000 139.4530000  52.8190000  40.0400000 139.6890000  53.9430000
  40.6810000 137.6770000  53.7380000  41.5830000 137.7840000  54.9820000
  41.2220000 138.4270000  55.7360000  41.9040000 136.8250000  55.4060000
  42.4690000 138.4470000  54.6420000  39.4350000 136.8870000  54.0470000
  39.7340000 136.0430000  54.6930000  38.7490000 137.5320000  54.6010000
  39.0950000 136.4770000  53.1520000  41.3520000 136.8790000  52.7200000
  41.4160000 135.9250000  53.2160000  42.2680000 137.4210000  52.4850000
  40.6660000 136.7540000  51.8600000  35.9060000 137.7480000  52.0080000
  38.0060000 136.6290000  51.2630000  38.3910000 138.3340000  46.5900000
  38.0900000 137.3600000  45.7490000  37.0200000 136.8260000  45.7030000
  39.2170000 136.8990000  44.8020000  40.1150000 136.8820000  45.4630000
  39.4970000 137.7140000  44.1170000  38.9420000 135.5020000  44.0420000
  37.9770000 135.4260000  43.5950000  39.1130000 134.8850000  44.9350000
  39.9850000 135.2220000  42.9300000  40.9940000 135.4010000  43.3550000
  39.8740000 136.0010000  42.1510000  39.7910000 133.8640000  42.2770000
  39.5020000 133.1400000  43.0650000  40.7180000 133.4390000  41.8900000
  38.7230000 133.7550000  41.1660000  39.0690000 133.0850000  40.3640000
  38.7170000 134.7660000  40.7590000  37.2820000 133.2720000  41.4320000
  36.8630000 133.8260000  42.2120000  37.2800000 132.2230000  41.8440000
  36.3360000 133.2340000  40.2050000  36.1120000 134.2200000  39.8330000
  35.3010000 132.7960000  40.5840000  36.9390000 132.3500000  39.1000000
  37.3970000 131.4120000  39.4570000  37.1090000 132.7680000  37.7860000
  37.6940000 132.1920000  36.9750000  36.4850000 133.9830000  37.1920000
  35.7490000 134.3920000  37.8530000  35.7920000 133.8140000  36.3620000
  37.4730000 135.0810000  36.8220000  37.0570000 136.1110000  36.5570000
  38.1080000 134.7600000  35.9490000  38.4720000 135.4150000  37.9410000
  38.8220000 134.4170000  38.3250000  38.0760000 135.9900000  38.7230000
  39.7390000 136.1130000  37.4220000  40.0400000 135.5070000  36.5320000
  40.5000000 136.0870000  38.2270000  39.5220000 137.5470000  37.0560000
  38.9690000 138.0310000  37.8300000  38.9120000 137.5670000  36.1380000
  40.8640000 138.2940000  36.8310000  41.5470000 138.1050000  37.6910000
  40.6860000 139.3790000  36.9140000  41.5760000 137.8160000  35.5660000
  41.1130000 138.4260000  34.8020000  41.3990000 136.7680000  35.4090000
  43.0540000 138.1220000  35.6460000  43.4290000 137.9120000  34.6370000
  43.5300000 137.4490000  36.3140000  43.2410000 139.1970000  35.9900000
  64.1560000  68.7570000  33.7180000  63.8270000  67.8140000  33.3840000
  64.5580000  69.4030000  32.9350000  63.2880000  69.2040000  34.1750000
  65.3000000  68.6350000  34.7590000  66.1540000  68.2330000  34.1540000
  65.5830000  69.7010000  35.1270000  64.9250000  67.7240000  35.8930000
  64.6970000  66.7500000  35.4980000  65.8020000  67.5070000  36.4330000
  63.8070000  68.2360000  36.8100000  64.1930000  69.0470000  37.3640000
  62.8780000  68.4760000  36.2890000  63.4020000  67.1890000  37.8810000
  63.0930000  66.2380000  37.3950000  64.2810000  67.0240000  38.5940000
  62.2240000  67.7510000  38.6010000  62.4930000  68.6850000  39.0790000
  61.4100000  68.1000000  38.0260000  61.8770000  66.7780000  39.6780000
  61.9680000  65.7580000  39.1860000  62.6840000  66.8750000  40.4440000
  60.5460000  67.1160000  40.3430000  59.8400000  67.5150000  39.6110000
  60.1900000  66.2450000  40.7900000  60.7700000  68.2330000  41.4250000
  61.5380000  67.8790000  42.0520000  61.1320000  69.1460000  40.9180000
  59.5390000  68.6530000  42.2460000  59.1300000  67.7630000  42.7770000
  59.8610000  69.4560000  42.9380000  58.3910000  69.2190000  41.2960000
  58.7940000  69.9000000  40.4700000  57.9660000  68.3590000  40.7390000
  57.2720000  70.0170000  42.0350000  57.5920000  70.8530000  42.6810000
  56.5830000  70.5470000  41.3960000  56.4240000  69.0550000  42.8710000
  56.1720000  68.0620000  42.3850000  56.9940000  68.8860000  43.7480000
  55.1700000  69.8620000  43.2900000  54.6450000  70.0590000  42.3490000
  54.5120000  69.1590000  43.8270000  55.3290000  71.0400000  44.1370000
  56.2180000  71.6440000  43.9280000  54.4430000  71.7140000  44.0460000
  55.4130000  70.6550000  45.6100000  54.4890000  70.7440000  46.4210000
  56.6160000  70.1580000  45.9850000  56.9280000  69.9100000  47.3330000
  58.0330000  69.9930000  47.4630000  56.5640000  70.6910000  47.8780000
  56.4430000  68.4540000  47.6890000  55.3570000  68.4020000  47.7470000
  57.0550000  68.1240000  49.0770000  56.6110000  67.1970000  49.3590000
  58.1810000  68.0160000  49.0140000  56.7210000  69.1060000  49.9930000
  57.9230000  69.8660000  50.7630000  57.1210000  70.6990000  51.7590000
  56.4370000  71.9480000  51.3420000  56.5440000  72.2240000  50.2530000
  55.3630000  71.7550000  51.3960000  56.8330000  73.1400000  52.2570000
  56.0790000  73.9320000  52.1130000  56.8150000  72.8060000  53.3200000
  58.1180000  73.8600000  52.0890000  59.2640000  73.0480000  52.5360000
  59.0240000  72.7330000  53.5580000  59.2300000  72.2010000  51.8130000
  60.1250000  73.6850000  52.4970000  58.2920000  74.1470000  50.5850000
  59.2110000  74.7240000  50.5370000  58.4610000  73.2070000  50.0120000
  57.3620000  74.7180000  50.2730000  57.9710000  75.0330000  52.9310000
  58.9980000  75.4900000  53.0530000  57.6150000  74.7280000  53.8520000
  57.2830000  75.8040000  52.4990000  58.7760000  68.8820000  51.4970000
  58.4630000  70.8840000  49.8830000  57.0900000  67.5160000  46.7870000
  56.3780000  67.0330000  45.7430000  55.2670000  67.3750000  45.4050000
  57.1630000  65.8950000  45.0400000  58.2100000  66.0760000  45.1680000
  56.9330000  65.9040000  44.0000000  56.7830000  64.5360000  45.6950000
  55.6820000  64.4620000  45.6970000  57.0890000  64.3880000  46.7220000
  57.3620000  63.3260000  44.8600000  57.0100000  62.4830000  45.3440000
  58.4290000  63.2690000  44.8740000  56.7530000  63.3310000  43.4020000
  56.9760000  64.2340000  42.8100000  55.6710000  63.2200000  43.5150000
  57.3800000  62.0810000  42.6540000  57.0850000  61.1160000  43.2450000
  58.4990000  62.0910000  42.5090000  56.8640000  62.2460000  41.1990000
  57.1860000  63.2090000  40.8520000  55.7870000  62.1000000  41.1490000
  57.4880000  61.1320000  40.2190000  57.3250000  60.1470000  40.5910000
  58.5350000  61.1940000  40.2210000  56.8900000  61.1550000  38.8360000
  55.9300000  61.6550000  38.6980000  57.5770000  60.6690000  37.8040000
  57.0890000  60.8950000  36.9180000  58.8810000  59.8970000  37.8430000
  59.1340000  59.7030000  38.9590000  59.6900000  60.5600000  37.5400000
  58.8300000  58.5430000  37.0580000  57.9440000  58.1140000  37.4720000
  59.6700000  57.8190000  37.2860000  58.6260000  58.8360000  35.5410000
  59.4280000  59.4400000  35.1230000  57.6390000  59.2530000  35.4080000
  58.6230000  57.5080000  34.7300000  57.8050000  56.9020000  35.1260000
  59.5190000  56.9220000  34.8870000  58.4990000  57.6780000  33.2400000
  59.3650000  58.2920000  33.0710000  57.6260000  58.3090000  32.9220000
  58.4320000  56.3260000  32.3880000  57.4790000  55.8100000  32.5640000
  59.2750000  55.7200000  32.7040000  58.5060000  56.5240000  30.8850000
  58.8570000  55.5290000  30.5010000  59.2740000  57.3110000  30.6410000
  57.2580000  56.8490000  30.1500000  57.3360000  56.5500000  29.1130000
  56.9170000  57.9530000  30.2510000  56.5010000  56.1600000  30.4360000
  12.9400000 137.7330000  34.3190000  12.6370000 136.8440000  33.8770000
  13.8860000 138.0690000  33.8900000  12.2070000 138.4290000  33.9700000
  12.8200000 137.5930000  35.8550000  12.9320000 138.5690000  36.3600000
  11.7880000 137.2740000  36.0080000  13.8010000 136.5490000  36.3530000
  13.6730000 135.6960000  35.6120000  14.8600000 136.8180000  36.2390000
  13.5040000 136.2510000  37.8340000  13.8500000 137.0790000  38.4830000
  12.4710000 136.0970000  38.0050000  14.1590000 134.9610000  38.2810000
  13.8490000 134.7840000  39.3220000  13.8460000 134.1000000  37.7980000
  15.6590000 134.9520000  38.1700000  15.8400000 135.0480000  37.1050000
  16.0930000 135.8260000  38.6430000  16.3370000 133.6610000  38.7010000
  16.0960000 132.7040000  38.1620000  17.3980000 133.8110000  38.6810000
  16.0450000 133.5800000  40.2010000  15.0550000 133.3660000  40.3800000
  16.5770000 132.6340000  40.5640000  16.4460000 134.7790000  41.0990000
  17.4790000 135.0830000  40.8560000  15.8630000 135.6930000  40.9580000
  16.3960000 134.4630000  42.5950000  15.3290000 134.1960000  42.8810000
  16.8860000 133.5930000  42.8830000  16.9190000 135.6630000  43.5160000
  16.4740000 136.6120000  43.2330000  16.7060000 135.4040000  44.5660000
  18.3780000 135.9400000  43.3740000  18.9140000 135.0370000  43.4200000
  18.6220000 136.2620000  42.3320000  18.9370000 136.8090000  44.5370000
  18.4800000 137.7960000  44.5290000  18.7510000 136.2860000  45.4810000
  20.4880000 136.8940000  44.4430000  20.6230000 137.3170000  43.4240000
  20.9050000 137.5810000  45.1830000  21.2370000 135.5850000  44.6330000
  20.8690000 134.8880000  43.9130000  22.3120000 135.8330000  44.4480000
  21.1290000 135.0900000  46.0890000  20.0400000 134.7350000  46.5250000
  22.2290000 135.1670000  46.8450000  22.0770000 134.7750000  48.1930000
  21.1720000 135.2900000  48.5750000  21.9230000 133.6720000  48.1010000
  23.1870000 135.1380000  49.1880000  24.0930000 134.7130000  48.8220000
  22.8540000 134.6460000  50.6120000  23.1940000 135.3440000  51.3630000
  21.7820000 134.4910000  50.8880000  23.6050000 133.4490000  50.8890000
  23.8100000 132.8500000  52.3820000  24.6250000 134.0550000  53.0260000
  25.8710000 134.4800000  52.5680000  26.6240000 133.7610000  52.7700000
  25.7810000 134.7210000  51.5160000  26.1930000 135.7040000  53.4180000
  25.7200000 136.5670000  53.0380000  25.9800000 135.5750000  54.5160000
  27.6270000 136.2150000  53.4090000  28.1230000 136.4030000  52.0500000
  27.5680000 137.2320000  51.6410000  29.1900000 136.5890000  52.0800000
  27.9570000 135.5080000  51.4820000  27.7320000 137.5580000  54.0250000
  27.0570000 138.3340000  53.5910000  27.5740000 137.4870000  55.0780000
  28.7380000 137.8300000  53.8820000  28.5790000 135.3240000  54.1610000
  29.5460000 135.9400000  54.3820000  28.8390000 134.5150000  53.4650000
  28.0870000 134.8360000  55.0860000  22.5190000 132.6410000  53.0910000
  24.6350000 131.6670000  52.2790000  23.3710000 136.5740000  49.3070000
  24.5530000 137.1160000  49.5130000  25.5290000 136.4760000  49.9450000
  24.6100000 138.6000000  49.0850000  24.9170000 139.2850000  49.8860000
  23.5430000 138.8700000  48.7650000  25.4620000 138.7980000  47.8320000
  26.3460000 138.1400000  47.8880000  25.7810000 139.9000000  47.6890000
  24.6420000 138.3710000  46.5800000  23.9000000 139.1330000  46.2130000
  24.0000000 137.5180000  46.8620000  25.4900000 137.9100000  45.3860000
  25.9010000 136.9130000  45.5420000  26.3480000 138.6360000  45.2720000
  24.5870000 137.7810000  44.0680000  24.0800000 138.7760000  43.8510000
  23.8290000 137.0300000  44.1960000  25.4800000 137.4400000  42.9390000
  25.9730000 136.5070000  43.2290000  26.2530000 138.2480000  42.7630000
  24.6730000 137.0180000  41.6430000  24.1420000 137.8600000  41.1670000
  23.8580000 136.2990000  41.8570000  25.6830000 136.3520000  40.7430000
  25.6570000 135.2840000  40.6150000  26.4090000 137.0540000  39.8490000
  27.1000000 136.5240000  39.2460000  26.6210000 138.5570000  39.7860000
  27.5630000 138.9060000  40.2970000  25.8530000 139.0800000  40.3820000
  26.6790000 139.0000000  38.3370000  25.8680000 138.5590000  37.8000000
  27.5450000 138.6290000  37.7770000  26.6220000 140.5200000  38.2030000
  27.4980000 140.9890000  38.6410000  25.7620000 140.8820000  38.8130000
  26.4620000 141.1030000  36.7910000  25.5330000 140.7400000  36.3260000
  27.1740000 140.7380000  36.1010000  26.5350000 142.6180000  36.7480000
  27.5760000 142.8680000  36.9500000  25.8960000 142.8900000  37.6900000
  25.8970000 143.2680000  35.5000000  24.8710000 142.8630000  35.3470000
  26.6050000 143.0130000  34.6800000  25.9310000 144.7910000  35.7360000
  26.9730000 145.0790000  35.8470000  25.3070000 144.9990000  36.6390000
  25.2520000 145.4370000  34.5490000  25.1400000 146.5010000  34.6070000
  24.2040000 145.0260000  34.4190000  25.7750000 145.1810000  33.5770000
 140.0290000 105.4560000  38.1720000 140.0020000 104.4080000  38.3450000
 140.6620000 105.5680000  37.3040000 139.0310000 105.8510000  37.8140000
 140.3930000 106.2510000  39.3970000 139.6570000 107.0180000  39.6990000
 140.4620000 105.5200000  40.1520000 141.7450000 106.9560000  39.2750000
 141.8760000 107.4280000  40.2560000 142.5330000 106.2450000  39.0060000
 141.7710000 108.0080000  38.1670000 142.8100000 108.1440000  38.0270000
 141.4650000 107.5150000  37.2920000 140.9830000 109.2650000  38.2740000
 139.9020000 109.2100000  38.3620000 141.2170000 109.7580000  39.1880000
 141.3100000 110.2950000  37.1430000 142.2800000 110.7920000  37.2450000
 141.3730000 109.7950000  36.1750000 140.1900000 111.4240000  37.0870000
 140.5750000 112.1830000  36.4010000 139.2350000 111.0210000  36.5990000
 139.8210000 112.1030000  38.4170000 140.5230000 111.7820000  39.1580000
 139.9000000 113.2080000  38.3210000 138.4800000 111.7180000  39.0770000
 137.7990000 112.0300000  38.3010000 138.3070000 110.6510000  39.0560000
 138.2730000 112.3030000  40.4830000 138.4050000 113.3410000  40.4070000
 137.2270000 112.1510000  40.7210000 139.2710000 111.7100000  41.5310000
 140.2550000 111.9150000  41.1070000 139.1340000 112.2210000  42.4880000
 139.1490000 110.2620000  41.7250000 138.0830000 109.9690000  41.8170000
 139.5570000 109.6520000  40.8850000 139.8760000 109.7650000  42.9570000
 140.6900000 110.3570000  43.2040000 139.2090000 109.9480000  43.7100000
 140.1660000 108.2640000  43.1140000 140.9920000 107.9170000  42.4620000
 140.4620000 108.1790000  44.1620000 138.9740000 107.3030000  42.8370000
 138.4250000 107.6220000  41.9190000 139.3260000 106.2680000  42.5590000
 137.9120000 107.2960000  43.8270000 136.8060000 107.7220000  43.5900000
 138.4080000 106.7480000  44.9520000 137.4040000 106.5040000  45.9940000
 136.7540000 107.3900000  46.0140000 136.9390000 105.5440000  45.7820000
 138.1500000 106.4330000  47.4000000 138.9770000 105.7180000  47.4240000
 137.2580000 106.1520000  48.6750000 137.7860000 106.3640000  49.5720000
 136.3280000 106.7240000  48.5780000 136.9430000 104.7730000  48.6980000
 137.7490000 103.6860000  49.5270000 139.0630000 103.3910000  48.6180000
 140.4920000 103.5900000  49.0710000 141.0010000 103.8480000  48.2200000
 140.5860000 104.4050000  49.8130000 141.0420000 102.2170000  49.5430000
 142.0610000 102.3340000  49.9710000 140.4070000 101.9040000  50.3290000
 140.8530000 101.1030000  48.5690000 141.7680000  99.9780000  49.0230000
 142.7620000 100.1930000  48.6950000 141.6450000  99.9720000  50.1390000
 141.4170000  99.0390000  48.5230000 139.4170000 100.4950000  48.5410000
 138.7810000 101.2550000  48.0430000 139.5080000  99.6390000  48.0600000
 139.1340000 100.2040000  49.5420000 141.2150000 101.4480000  47.1640000
 140.2460000 101.7580000  46.6260000 141.5210000 100.4650000  46.6640000
 142.0070000 102.2250000  47.0250000 138.1360000 104.0910000  50.8900000
 136.9670000 102.4220000  49.4430000 138.5240000 107.8380000  47.5640000
 139.6610000 108.1380000  48.2580000 140.2940000 107.3600000  48.8870000
 140.1120000 109.5000000  48.0710000 140.5940000 109.8350000  48.9820000
 139.1860000 110.1190000  47.8820000 141.0280000 109.4930000  46.7850000
 140.8420000 110.3410000  46.1820000 140.9710000 108.5970000  46.1640000
 142.5900000 109.4780000  47.2650000 142.7140000 110.4080000  47.8420000
 143.1920000 109.6660000  46.4130000 143.1810000 108.2850000  48.0710000
 142.5810000 108.3140000  48.9770000 144.2720000 108.4210000  48.3420000
 143.1400000 107.0850000  47.1620000 143.9220000 107.2110000  46.3750000
 142.2200000 106.9770000  46.6750000 143.3610000 105.8100000  47.9470000
 142.4190000 105.6000000  48.4360000 144.1910000 105.9340000  48.7440000
 143.8980000 104.7130000  47.0750000 144.8410000 104.9720000  46.6050000
 143.0860000 104.4920000  46.4030000 144.2080000 103.4880000  47.9000000
 143.8310000 103.5210000  48.9210000 144.8550000 102.3880000  47.5460000
 145.0910000 101.7100000  48.3710000 145.3610000 102.0400000  46.2050000
 144.6630000 102.2850000  45.3990000 145.4900000 100.9610000  46.1370000
 146.6520000 102.6940000  45.8740000 147.3280000 102.3160000  46.6320000
 146.5880000 103.7570000  46.1950000 147.1620000 102.5630000  44.4050000
 146.9710000 101.4460000  44.1370000 148.2240000 102.7850000  44.5750000
 146.7330000 103.5880000  43.4100000 145.6920000 103.6850000  43.3400000
 147.1670000 103.2660000  42.4170000 147.3590000 105.0290000  43.6850000
 148.5240000 104.8820000  43.7320000 147.1120000 105.4340000  44.6620000
 147.0500000 105.9960000  42.5270000 146.8280000 105.3420000  41.5990000
 147.7990000 106.6930000  42.3040000 145.6880000 106.6660000  42.8340000
 145.0310000 105.8610000  43.2330000 145.3030000 107.0510000  41.9010000
 145.7060000 107.7050000  43.9660000 145.8840000 107.2340000  44.9190000
 144.7660000 108.2780000  44.0490000 146.5220000 108.4290000  43.9000000
  19.1750000 146.9900000  32.7400000  20.2980000 147.0070000  32.7340000
  18.8750000 147.4520000  31.8320000  18.8450000 145.9290000  32.7020000
  18.6560000 147.6870000  33.9980000  18.9260000 148.6890000  34.0590000
  17.6190000 147.7700000  33.9530000  19.0430000 146.9990000  35.2870000
  20.1610000 147.0770000  35.2410000  18.7430000 147.7040000  36.1360000
  18.4210000 145.6090000  35.7400000  18.5630000 144.9210000  34.9670000
  18.8630000 145.3330000  36.7790000  16.8920000 145.7020000  35.9840000
  16.6630000 146.3420000  36.8400000  16.3510000 146.1370000  35.1450000
  16.1100000 144.3800000  36.2450000  16.1760000 143.9520000  35.2910000
  16.7520000 143.7650000  36.8560000  14.6940000 144.5600000  36.7380000
  14.1340000 145.1720000  36.1070000  14.3070000 143.4640000  36.5990000
  14.4870000 145.1970000  38.1780000  14.9120000 146.1800000  38.0540000
  13.5210000 145.4610000  38.4620000  15.1880000 144.5060000  39.3490000
  14.5930000 143.6490000  39.4880000  16.2530000 144.1710000  39.0960000
  15.0980000 145.3450000  40.6050000  14.0670000 145.4470000  40.8620000
  15.6450000 144.6880000  41.3130000  15.7890000 146.7410000  40.5210000
  15.2590000 147.4090000  39.8670000  15.8890000 147.2060000  41.4940000
  17.1270000 146.6590000  39.9820000  17.6210000 145.8660000  40.5200000
  17.0100000 146.4140000  38.9440000  17.9590000 147.9100000  40.3210000
  17.7740000 148.6480000  39.5250000  17.6250000 148.3930000  41.1690000
  19.5050000 147.7100000  40.4580000  19.8690000 147.1970000  39.5090000
  19.8780000 148.7310000  40.4550000  20.0530000 147.1090000  41.7500000
  19.8780000 146.0120000  41.9300000  21.1180000 147.0480000  41.6930000
  19.6470000 147.7650000  43.0230000  19.1660000 148.9200000  43.0670000
  19.8850000 147.0620000  44.1200000  19.4520000 147.6360000  45.3630000
  20.0370000 147.1630000  46.1700000  19.6660000 148.6590000  45.5370000
  18.0150000 147.3210000  45.7370000  17.2540000 147.7530000  45.0600000
  17.7300000 147.8400000  47.2530000  17.7720000 148.9740000  47.1870000
  16.7290000 147.5220000  47.6190000  18.6770000 147.4180000  48.2640000
  18.9600000 148.4010000  49.4610000  20.1600000 149.0640000  48.7260000
  21.3930000 148.4140000  48.7560000  21.3220000 147.3630000  48.8360000
  21.8960000 148.6590000  47.8750000  22.0200000 148.9130000  50.0660000
  22.1280000 150.0180000  49.9210000  21.4360000 148.7790000  50.9330000
  23.3990000 148.4040000  50.4930000  24.3710000 148.4810000  49.3330000
  25.3360000 148.0470000  49.7810000  24.0850000 147.9420000  48.4670000
  24.5100000 149.4850000  49.1610000  23.8480000 149.2360000  51.7180000
  23.7800000 150.3120000  51.4840000  23.1530000 149.0110000  52.5020000
  24.8550000 148.8540000  52.1120000  23.4310000 146.9460000  50.8070000
  23.1820000 146.3480000  49.9230000  22.6830000 146.8430000  51.6370000
  24.4200000 146.5930000  51.2510000  17.8560000 149.3330000  49.6120000
  19.3150000 147.5860000  50.6110000  17.8350000 145.8520000  45.6980000
  17.0020000 145.3010000  44.7540000  16.6240000 145.9380000  43.7850000
  16.5900000 143.9330000  45.1660000  16.8590000 143.7460000  46.2000000
  17.1120000 143.2120000  44.5690000  15.0120000 143.6940000  45.1160000
  14.5760000 144.3460000  45.9070000  14.9010000 142.6090000  45.4330000
  14.2360000 143.7600000  43.7630000  14.5690000 143.1000000  42.9760000
  14.1840000 144.8020000  43.3750000  12.7600000 143.4460000  44.1400000
  12.5070000 144.2500000  44.8350000  12.6040000 142.5810000  44.7340000
  11.7530000 143.4280000  42.9490000  10.8220000 142.9970000  43.2290000
  12.0600000 142.7770000  42.1750000  11.3940000 144.8250000  42.3840000
  12.2670000 145.2480000  41.8860000  11.0870000 145.5210000  43.1380000
  10.2170000 144.8700000  41.3600000   9.8730000 145.8830000  41.1580000
   9.2720000 144.4020000  41.7790000  10.5070000 144.2420000  40.0180000
  11.0090000 143.2650000  39.9730000  10.1710000 144.7860000  38.8430000
  10.3090000 144.1480000  38.0080000   9.6530000 146.1960000  38.5830000
   9.3250000 146.6740000  39.5450000   8.8790000 146.1030000  37.9020000
  10.8560000 147.0820000  38.0910000  11.6500000 146.8770000  38.7660000
  10.7290000 148.1690000  38.0970000  11.3370000 146.8040000  36.5720000
  10.7680000 145.9210000  36.2310000  12.3960000 146.4700000  36.6580000
  11.1390000 147.8810000  35.4910000  11.7330000 148.7700000  35.7990000
  10.1040000 148.2810000  35.4060000  11.5350000 147.4740000  33.9780000
  11.3100000 148.2200000  33.2870000  10.9970000 146.6820000  33.5540000
  13.0170000 147.1080000  33.7470000  13.1330000 146.1580000  34.2480000
  13.7780000 147.8260000  34.0340000  13.2810000 146.9220000  32.2310000
  13.1080000 147.9090000  31.8340000  12.5660000 146.1610000  31.7210000
  14.7820000 146.5970000  31.8940000  15.0380000 145.7180000  32.4500000
  15.4350000 147.4230000  32.2160000  15.0470000 146.5780000  30.8630000
 148.5740000 123.7520000  42.0040000 149.6350000 123.7820000  41.9850000
 148.1870000 122.7620000  42.3200000 148.2860000 124.4790000  42.7480000
 147.9230000 124.2350000  40.7000000 148.2610000 123.6150000  39.8890000
 146.7720000 124.2300000  40.8560000 148.3730000 125.6300000  40.2160000
 149.4160000 125.9100000  40.5070000 148.3930000 125.7240000  39.0730000
 147.5660000 126.8090000  40.6860000 147.9840000 127.6410000  40.1220000
 146.5440000 126.7070000  40.3730000 147.7740000 127.2930000  42.1090000
 147.4090000 126.4020000  42.6990000 148.8280000 127.4400000  42.3370000
 146.9810000 128.5080000  42.5680000 147.2900000 129.4030000  41.9560000
 145.8750000 128.4170000  42.3630000 147.2630000 128.9040000  44.0610000
 148.3460000 129.0340000  44.2420000 146.7720000 129.8710000  44.1640000
 146.6520000 127.8880000  45.0790000 147.0330000 126.9170000  44.9340000
 147.0230000 128.2820000  46.0460000 145.0990000 127.9700000  44.9970000
 144.7610000 128.9880000  45.1320000 144.8200000 127.7010000  43.9980000
 144.3480000 126.9320000  45.8050000 144.6270000 126.9220000  46.8590000
 143.2820000 127.2170000  45.8230000 144.4480000 125.4430000  45.3290000
 145.4920000 125.2270000  45.4070000 143.7990000 124.8920000  45.9950000
 144.0750000 125.1330000  43.8480000 143.1150000 125.4900000  43.5420000
 144.7950000 125.6210000  43.1710000 144.2910000 123.5950000  43.6370000
 145.3430000 123.4710000  43.8480000 143.5990000 123.1780000  44.4210000
 143.8030000 122.8750000  42.3110000 144.5080000 123.2010000  41.4980000
 143.9500000 121.7890000  42.4080000 142.3000000 122.9990000  41.9040000
 142.1330000 124.0460000  41.8370000 142.0710000 122.5920000  40.9340000
 141.3620000 122.3620000  42.9250000 140.8740000 121.2450000  42.8710000
 141.1510000 123.2040000  43.9680000 140.3930000 122.7480000  45.1410000
 140.2880000 123.6950000  45.7800000 139.4560000 122.3150000  44.8210000
 141.1640000 121.6670000  46.0220000 141.4140000 120.8100000  45.4170000
 140.2690000 121.1810000  47.2030000 139.4220000 120.6560000  46.9400000
 140.8230000 120.6310000  47.8540000 139.6990000 122.3720000  47.8810000
 140.1770000 122.6700000  49.3950000 141.6210000 123.3550000  49.1780000
 141.7010000 124.6600000  48.7500000 142.7770000 124.7720000  48.5080000
 141.0940000 124.8250000  47.8730000 141.3260000 125.7120000  49.7900000
 140.2600000 125.7690000  49.8240000 141.7820000 125.3070000  50.7330000
 141.6940000 127.1610000  49.6540000 143.1770000 127.4000000  49.6420000
 143.6460000 126.6900000  48.9900000 143.3020000 128.3780000  49.2510000
 143.6390000 127.2950000  50.6350000 141.1710000 127.4850000  48.3320000
 140.0450000 127.4940000  48.4600000 141.3910000 128.6090000  48.0800000
 141.5810000 126.8680000  47.5480000 141.0800000 127.9900000  50.7440000
 141.1320000 129.0220000  50.3770000 141.5950000 127.9160000  51.7070000
 139.9780000 127.9080000  50.6910000 139.3590000 123.7930000  49.9240000
 140.3110000 121.4510000  50.1660000 142.3840000 122.2910000  46.4580000
 143.2950000 121.6370000  47.1690000 143.2070000 120.4950000  47.5080000
 144.6050000 122.3120000  47.2930000 144.9010000 122.1690000  48.3500000
 144.5120000 123.3810000  46.9480000 145.6520000 121.6330000  46.3700000
 145.4230000 121.9280000  45.3060000 145.7260000 120.6070000  46.3840000
 147.0140000 122.3410000  46.6330000 147.2970000 122.3380000  47.6720000
 146.9270000 123.4150000  46.2570000 148.0710000 121.6500000  45.7940000
 147.6490000 121.5700000  44.7920000 148.3340000 120.7310000  46.3180000
 149.2880000 122.5690000  45.6950000 149.6330000 122.8440000  46.7140000
 149.0680000 123.5020000  45.2710000 150.5270000 121.8990000  45.0540000
 150.2100000 121.7020000  44.0830000 150.8150000 120.9500000  45.5220000
 151.7980000 122.6590000  45.0160000 152.6190000 121.9290000  44.7940000
 152.1220000 123.0650000  45.9650000 151.9170000 123.8800000  44.0820000
 151.4550000 124.6810000  44.6280000 152.5670000 124.0180000  42.9070000
 152.5520000 124.9730000  42.4730000 153.3450000 122.9980000  42.0640000
 153.6160000 122.1020000  42.6500000 154.2920000 123.4540000  41.6550000
 152.4060000 122.5230000  41.0880000 151.7140000 121.9780000  41.7150000
 152.8120000 121.8200000  40.4020000 151.7050000 123.6480000  40.2590000
 151.2400000 124.4560000  40.9200000 150.9230000 123.2930000  39.5600000
 152.7670000 124.3200000  39.3230000 153.3970000 123.5570000  38.8820000
 153.3450000 124.9880000  40.0090000 152.2850000 125.2700000  38.2100000
 153.0410000 125.5950000  37.5230000 151.9410000 126.1590000  38.7310000
 151.1250000 124.7840000  37.3830000 150.2840000 124.6440000  38.1040000
 151.3110000 123.8280000  36.9080000 150.6630000 125.8030000  36.3650000
 151.4060000 125.9360000  35.5470000 150.6200000 126.7470000  36.7960000
 149.3400000 125.4440000  35.6630000 148.7000000 124.7870000  36.2530000
 149.4620000 125.0230000  34.6730000 148.8040000 126.3480000  35.4770000
  40.0680000  17.7580000  32.4470000  41.0220000  17.3540000  32.6870000
  40.1960000  18.6420000  31.8110000  39.5700000  16.9990000  31.8450000
  39.1090000  18.0760000  33.6190000  38.1910000  18.4110000  33.1360000
  38.7440000  17.2550000  34.2770000  39.7750000  19.3330000  34.3110000
  40.1790000  20.0140000  33.5620000  39.0720000  19.9660000  34.8790000
  40.9000000  18.9610000  35.3010000  41.7780000  18.5760000  34.7700000
  41.2090000  19.9360000  35.7200000  40.4160000  18.0470000  36.4670000
  39.4880000  18.4600000  36.8450000  40.0720000  17.0260000  36.2090000
  41.4420000  17.9370000  37.6160000  42.3660000  17.5540000  37.2150000
  41.6340000  18.8980000  37.9430000  40.7940000  17.0840000  38.7230000
  40.5320000  16.1020000  38.3240000  41.5770000  16.8060000  39.4330000
  39.5000000  17.4890000  39.4440000  39.7200000  18.5260000  39.7690000
  38.6640000  17.5180000  38.6730000  39.1780000  16.5860000  40.6320000
  39.1090000  15.5710000  40.2830000  40.0020000  16.6350000  41.2770000
  37.9060000  16.9760000  41.4250000  37.0920000  17.0390000  40.6250000
  37.5910000  16.1610000  42.1050000  38.0810000  18.2760000  42.2170000
  38.3440000  19.1000000  41.4920000  37.1160000  18.4890000  42.6880000
  39.1030000  18.2470000  43.3470000  39.0800000  17.3880000  43.9690000
  40.1150000  18.2100000  42.8690000  39.0330000  19.4810000  44.3260000
  39.1010000  20.5060000  43.8880000  38.1100000  19.3690000  44.8560000
  40.0270000  19.5610000  45.4900000  41.0330000  19.8790000  45.1490000
  39.6440000  20.1990000  46.3250000  40.2940000  18.2410000  46.2220000
  40.3240000  17.3750000  45.5860000  41.3080000  18.2110000  46.7520000
  39.2080000  17.9680000  47.3120000  39.4660000  17.9690000  48.4950000
  38.0060000  17.7530000  46.7590000  36.8470000  17.6260000  47.6070000
  36.9510000  16.6930000  48.2020000  36.9050000  18.4970000  48.3010000
  35.5710000  17.6420000  46.7000000  35.7410000  18.4050000  45.9550000
  34.2740000  18.0210000  47.3820000  34.3250000  18.9450000  47.8550000
  33.5890000  18.3770000  46.5550000  33.6460000  17.0450000  48.2580000
  34.1820000  16.6530000  49.7520000  35.1370000  15.4200000  49.4400000
  35.8920000  14.8140000  50.4530000  36.7170000  14.3260000  49.9620000
  36.3610000  15.6550000  51.0540000  35.1680000  13.6970000  51.2750000
  35.9650000  13.2520000  51.8900000  34.4470000  14.2300000  51.9000000
  34.4010000  12.6290000  50.6050000  33.1710000  13.1820000  49.9180000
  33.6270000  13.6760000  49.0170000  32.5790000  12.3390000  49.5550000
  32.5760000  13.8500000  50.5750000  35.3550000  11.8610000  49.6520000
  36.2120000  11.5090000  50.1720000  34.8240000  11.0370000  49.1200000
  35.6600000  12.4300000  48.8250000  33.9020000  11.7370000  51.6230000
  33.2480000  12.3570000  52.2390000  34.7620000  11.1870000  52.0800000
  33.1930000  11.1050000  51.1030000  34.8780000  17.7760000  50.2740000
  33.0650000  16.1450000  50.5220000  35.4040000  16.3510000  46.1140000
  35.4290000  16.3140000  44.8100000  35.2280000  17.3030000  44.0510000
  35.7190000  14.8910000  44.2570000  35.8930000  14.1880000  45.0860000
  36.6950000  14.8550000  43.7620000  34.6600000  14.2860000  43.3060000
  33.6880000  14.3990000  43.6050000  34.8440000  13.2040000  43.3520000
  34.8610000  14.7990000  41.8980000  35.8600000  14.4980000  41.6090000
  34.8690000  15.9120000  41.8460000  34.0360000  14.2150000  40.6710000
  32.9530000  14.4130000  40.7710000  34.1390000  13.1390000  40.6830000
  34.4980000  14.7660000  39.2810000  35.5650000  14.8660000  39.1380000
  34.0190000  15.7750000  39.2240000  33.8410000  13.9110000  38.1870000
  32.7620000  13.8940000  38.3810000  34.0690000  12.8350000  38.2280000
  34.0130000  14.4180000  36.7690000  33.5780000  13.8030000  36.0410000
  35.0740000  14.4740000  36.6050000  33.4300000  15.7930000  36.6160000
  34.1320000  16.5870000  36.8660000  32.2450000  16.2240000  36.3280000
  31.9680000  17.2920000  36.3310000  31.0650000  15.3170000  36.1040000
  30.5910000  15.1230000  37.0530000  31.2420000  14.3230000  35.6290000
  30.0930000  15.9710000  35.0530000  30.6250000  16.1930000  34.1370000
  29.6850000  16.8710000  35.4450000  28.9940000  14.9430000  34.6790000
  28.2460000  15.5000000  34.1400000  28.5100000  14.5890000  35.5590000
  29.3570000  13.8010000  33.7270000  30.0060000  13.0800000  34.2860000
  29.8610000  14.0930000  32.9000000  28.0500000  13.1230000  33.1950000
  27.5830000  13.5840000  32.3780000  27.3340000  13.0870000  34.0250000
  28.2980000  11.6030000  32.8010000  28.6450000  11.0700000  33.6740000
  29.0090000  11.5760000  31.9900000  27.1010000  10.8810000  32.2090000
  26.5750000  11.4950000  31.5350000  26.4170000  10.6370000  32.9940000
  27.4880000   9.6650000  31.3800000  26.5840000   9.2310000  31.0690000
  28.0760000   8.9420000  31.8330000  28.0590000   9.9180000  30.5010000
  59.1230000  81.5560000  38.9340000  58.7100000  82.5330000  38.7070000
  58.5600000  80.9360000  39.7200000  59.4420000  80.9310000  38.0920000
  60.4110000  82.0010000  39.7140000  60.8320000  81.1310000  40.2490000
  61.1930000  82.2720000  38.9710000  60.2800000  83.1510000  40.7310000
  59.7070000  83.9990000  40.2920000  59.7010000  82.6840000  41.5840000
  61.6890000  83.6390000  41.2410000  62.2270000  82.6750000  41.5060000
  62.2290000  84.0520000  40.3050000  61.8740000  84.5930000  42.4830000
  62.8600000  84.4860000  42.8280000  61.6500000  85.6300000  42.2580000
  60.9170000  84.2980000  43.6450000  60.9840000  85.1260000  44.4000000
  59.9510000  84.3230000  43.1540000  61.1550000  82.8190000  44.1570000
  61.2190000  82.1060000  43.3110000  62.0240000  82.8740000  44.7770000
  60.0670000  82.1930000  45.0670000  59.1350000  82.2610000  44.4890000
  60.4410000  81.1330000  45.3080000  59.7860000  82.8680000  46.4320000
  60.7310000  82.9370000  47.0080000  59.5440000  83.8710000  46.2040000
  58.5660000  82.2530000  47.1500000  58.2440000  82.9940000  47.8380000
  57.7290000  82.2790000  46.4500000  58.7950000  80.8990000  47.7280000
  59.2500000  80.3090000  46.9900000  59.5580000  81.0210000  48.4920000
  57.5930000  80.3140000  48.5060000  56.7760000  80.4090000  47.8070000
  57.7240000  79.2770000  48.6390000  57.2520000  80.9230000  49.8810000
  58.1710000  80.9070000  50.4840000  57.0610000  81.9430000  49.6080000
  56.0610000  80.3480000  50.6060000  55.2030000  80.5240000  50.0380000
  56.2170000  79.2850000  50.5760000  55.9220000  80.7090000  52.1450000
  55.3910000  81.7020000  52.2570000  55.3220000  79.9540000  52.6690000
  57.2460000  80.7910000  52.8480000  57.7560000  79.8480000  53.4190000
  57.8430000  82.0290000  52.8410000  58.8580000  82.4110000  53.8150000
  58.7340000  83.4740000  54.0010000  58.5400000  81.7580000  54.7380000
  60.2480000  81.9020000  53.3770000  60.1550000  80.9020000  53.0760000
  61.2020000  82.1190000  54.5410000  61.1990000  83.2090000  54.8030000
  60.8570000  81.6140000  55.4030000  62.5600000  81.6370000  54.2000000
  63.8210000  81.9470000  55.1890000  65.1310000  81.9450000  54.2630000
  65.2920000  82.9610000  53.2650000  65.9290000  82.6540000  52.4160000
  64.2530000  83.0850000  52.8120000  65.7020000  84.2690000  53.9360000
  65.5610000  85.1610000  53.2780000  65.0410000  84.4070000  54.7700000
  67.0570000  84.3330000  54.5310000  67.3060000  83.1410000  55.4270000
  68.0100000  83.3590000  56.2380000  66.3900000  82.9890000  55.8420000
  67.5330000  82.2940000  54.8240000  68.1830000  84.4570000  53.5030000
  67.9910000  85.5280000  53.1560000  69.0940000  84.3220000  54.1300000
  68.1030000  83.7080000  52.6990000  67.2090000  85.5330000  55.3640000
  68.1940000  85.5770000  55.8980000  66.4410000  85.5190000  56.1250000
  67.1710000  86.4040000  54.6860000  63.6760000  83.3820000  55.6720000
  64.0160000  80.8720000  56.1420000  60.5950000  82.6560000  52.1840000
  61.1450000  82.0230000  51.0710000  61.3520000  80.8320000  50.8960000
  61.4250000  83.0030000  49.9740000  61.6890000  83.9530000  50.3800000
  60.5440000  83.1590000  49.3810000  62.5560000  82.5040000  49.0640000
  62.4680000  83.2670000  48.3080000  62.3090000  81.5590000  48.6830000
  63.9940000  82.4630000  49.7260000  64.6180000  81.8030000  49.1020000
  64.0680000  81.9290000  50.6680000  64.6880000  83.8110000  49.8210000
  65.3280000  83.8680000  50.6940000  63.8380000  84.4920000  49.9170000
  65.5140000  84.1620000  48.6210000  66.2900000  83.3990000  48.4630000
  66.1340000  84.9990000  48.8700000  64.8010000  84.4560000  47.1820000
  64.1150000  85.2810000  47.4840000  64.3570000  83.5120000  46.9450000
  65.7420000  84.8480000  46.0320000  66.5770000  84.1030000  46.0190000
  66.2150000  85.8010000  46.3150000  64.9560000  84.8600000  44.7220000
  64.8490000  84.0220000  44.1330000  64.4570000  86.0150000  44.3490000
  63.8630000  86.0680000  43.4750000  64.1220000  87.0950000  45.3420000
  64.5450000  88.0170000  44.8690000  64.5210000  86.9320000  46.3340000
  62.5750000  87.2810000  45.4160000  62.2180000  86.2740000  45.6490000
  62.0960000  87.6100000  44.4590000  61.9570000  88.2300000  46.5540000
  60.9440000  88.5770000  46.3190000  62.6270000  89.0220000  46.5740000
  62.0040000  87.6010000  47.9400000  61.8990000  88.3330000  48.7040000
  62.9680000  87.1730000  48.1030000  60.8880000  86.5640000  48.1730000
  61.0670000  86.0020000  49.0620000  60.9120000  85.6400000  47.3960000
  59.4530000  86.9890000  48.0770000  59.1710000  87.0870000  47.0390000
  59.4340000  88.0480000  48.4970000  58.3990000  86.2060000  48.7900000
  58.6630000  86.1530000  49.8480000  58.4720000  85.2420000  48.2690000
  57.0380000  86.8120000  48.7300000  56.7420000  86.8800000  47.7270000
  57.0150000  87.8260000  49.1720000  56.3250000  86.3030000  49.3470000
 147.6130000  78.5700000  41.4050000 146.5790000  78.6630000  41.2020000
 147.7930000  78.4850000  42.4620000 147.8380000  77.6270000  40.9300000
 148.3630000  79.7360000  40.8120000 149.4220000  79.8330000  41.0870000
 148.3140000  79.7080000  39.7420000 147.9280000  81.0400000  41.3990000
 146.9260000  81.1340000  41.0680000 147.9000000  81.0450000  42.4950000
 148.5520000  82.3020000  40.8790000 149.5570000  82.2900000  41.2560000
 148.6890000  82.4030000  39.7140000 147.9040000  83.5730000  41.3420000
 146.8390000  83.6140000  40.9970000 147.7630000  83.5730000  42.4130000
 148.6860000  84.7740000  40.8150000 149.7050000  84.5620000  40.8770000
 148.4170000  84.8700000  39.7670000 148.3850000  86.0880000  41.6280000
 148.6360000  85.7440000  42.6420000 149.0750000  86.9680000  41.4500000
 146.9440000  86.6700000  41.3600000 146.2750000  85.8350000  41.5320000
 146.7270000  87.4740000  42.0370000 146.7650000  87.3070000  39.9770000
 146.5940000  86.4490000  39.3190000 145.9080000  87.9240000  39.9570000
 147.8450000  88.1720000  39.3870000 148.8170000  87.6360000  39.4340000
 147.5790000  88.3310000  38.3170000 147.9810000  89.5140000  40.2780000
 148.0790000  89.1840000  41.2660000 148.8720000  90.0730000  39.9770000
 146.8230000  90.4630000  40.2310000 146.6170000  90.9060000  39.2200000
 145.9090000  89.9200000  40.4810000 146.9250000  91.5960000  41.2760000
 146.9540000  91.0960000  42.2810000 147.8020000  92.2150000  41.1040000
 145.7220000  92.4480000  41.3460000 145.5940000  92.8260000  40.3430000
 144.8840000  91.8150000  41.5030000 145.6950000  93.6290000  42.2790000
 146.6580000  94.1440000  42.3130000 145.0270000  94.4370000  41.8330000
 145.2960000  93.3640000  43.7260000 145.6230000  94.0760000  44.6290000
 144.6010000  92.2890000  43.8580000 144.0680000  91.9800000  45.2310000
 143.9480000  90.8930000  45.3050000 144.6600000  92.2820000  46.0680000
 142.6810000  92.7710000  45.4420000 142.9790000  93.7650000  45.6300000
 141.9350000  92.2630000  46.7810000 141.0250000  92.9470000  46.8580000
 141.7310000  91.1930000  46.6970000 142.8110000  92.4510000  47.8980000
 142.5120000  93.4370000  49.1300000 141.3340000  92.7680000  50.0030000
 139.9690000  92.7560000  49.5850000 139.8640000  93.5090000  48.8270000
 139.7410000  91.8110000  49.0570000 138.8580000  93.1390000  50.6590000
 137.8710000  93.0440000  50.2260000 139.0740000  92.4320000  51.4420000
 139.0220000  94.4070000  51.4370000 140.3930000  94.6970000  52.0250000
 140.2750000  95.7080000  52.4190000 140.5660000  93.8460000  52.7210000
 141.1010000  94.6720000  51.2250000 138.7250000  95.5630000  50.5230000
 137.6730000  95.5780000  50.2210000 138.8820000  96.4980000  51.0590000
 139.4660000  95.4760000  49.7160000 137.9210000  94.4710000  52.3780000
 136.9500000  94.2120000  51.8770000 137.8990000  95.4600000  52.8670000
 138.1040000  93.7240000  53.2020000 143.7990000  93.5530000  49.8950000
 142.0930000  94.7070000  48.5930000 141.7600000  92.6570000  44.3400000
 141.8490000  93.5630000  43.3960000 142.6890000  94.4720000  43.3710000
 141.0060000  93.2020000  42.2130000 140.4400000  94.0960000  41.9260000
 140.4400000  92.2740000  42.4090000 141.7880000  92.8940000  40.9440000
 142.3410000  91.9760000  40.9570000 142.5730000  93.7160000  40.7930000
 140.8740000  92.8950000  39.6220000 140.3800000  93.9100000  39.5710000
 140.1140000  92.1730000  39.7670000 141.4940000  92.5710000  38.3130000
 140.7040000  92.5810000  37.5530000 141.8170000  91.5080000  38.3520000
 142.6590000  93.4500000  37.8330000 143.4540000  93.3090000  38.6110000
 142.4360000  94.5470000  37.8430000 143.3880000  93.0020000  36.5090000
 143.5030000  91.9260000  36.5440000 144.3800000  93.4120000  36.4590000
 142.6380000  93.4400000  35.2400000 142.6390000  94.6340000  35.1000000
 141.5650000  93.1840000  35.3420000 143.2650000  92.8880000  34.0020000
 144.1620000  93.4130000  33.6730000 142.7920000  92.0140000  33.1400000
 143.4170000  91.7090000  32.2590000 141.4460000  91.1840000  33.2470000
 141.0480000  91.1950000  34.2850000 141.8060000  90.1800000  33.0480000
 140.4200000  91.6140000  32.2320000 140.7590000  91.5730000  31.2570000
 140.0400000  92.5950000  32.5020000 139.2040000  90.7120000  32.2310000
 138.8800000  90.7270000  33.2610000 139.5380000  89.7700000  31.8470000
 137.9920000  90.9970000  31.2680000 138.2590000  91.1920000  30.2340000
 137.5370000  91.9170000  31.6170000 136.9660000  89.7890000  31.3380000
 137.3930000  88.8370000  31.0550000 136.2070000  90.0010000  30.6390000
 136.3060000  89.6650000  32.7070000 135.8530000  90.6140000  33.0380000
 137.0600000  89.3310000  33.4430000 135.2060000  88.6640000  32.7210000
 135.5090000  87.6820000  32.3260000 134.2380000  89.1050000  32.2450000
 134.8080000  88.4400000  34.1650000 134.1010000  87.6330000  34.2630000
 134.4950000  89.3460000  34.5930000 135.5970000  88.0650000  34.7460000
 102.8580000  52.5970000  39.3850000 102.5380000  53.5260000  38.9240000
 102.4970000  52.4710000  40.4280000 102.4650000  51.6850000  38.7800000
 104.4220000  52.4990000  39.3990000 104.6980000  51.5210000  39.7830000
 104.8510000  52.6740000  38.4810000 104.9410000  53.4400000  40.5080000
 104.6020000  54.3800000  40.2050000 104.6010000  53.1230000  41.5180000
 106.4590000  53.4990000  40.5620000 106.7510000  52.6960000  41.2510000
 106.9460000  53.4700000  39.5650000 107.0100000  54.8080000  41.1750000
 108.1030000  54.8140000  41.1470000 106.7190000  55.6760000  40.5930000
 106.5060000  55.0290000  42.5610000 105.4920000  55.3140000  42.4550000
 106.7040000  54.1110000  43.0660000 107.1360000  56.1880000  43.2870000
 106.6130000  56.2040000  44.2560000 108.1960000  56.0310000  43.4480000
 106.9690000  57.4760000  42.4880000 107.4670000  57.4450000  41.5240000
 105.9470000  57.6510000  42.1850000 107.5840000  58.6630000  43.2940000
 107.4510000  59.6660000  42.8100000 107.0030000  58.7950000  44.1320000
 109.1290000  58.5890000  43.5480000 109.3000000  57.7200000  44.2430000
 109.6330000  58.5180000  42.5990000 109.7450000  59.8450000  44.3600000
 109.5960000  60.7890000  43.8490000 109.1160000  59.9540000  45.2900000
 111.2130000  59.7620000  44.7690000 111.3200000  59.0620000  45.6450000
 111.7040000  59.3950000  43.9550000 111.9070000  61.0340000  45.3070000
 112.0660000  61.6830000  44.4420000 111.2020000  61.5050000  46.0670000
 113.3310000  60.8540000  45.8980000 113.2520000  60.3170000  46.8300000
 113.9370000  60.3220000  45.1800000 114.0740000  62.1470000  46.0900000
 115.0590000  62.0040000  46.4290000 114.1140000  62.6840000  45.1040000
 113.4310000  63.0170000  47.1080000 113.8380000  63.0330000  48.2660000
 112.5130000  63.8760000  46.5740000 111.8920000  64.7230000  47.5360000
 112.5540000  65.0560000  48.3910000 111.6140000  65.6350000  46.9770000
 110.5020000  64.1910000  47.9970000 110.0410000  64.9580000  48.5320000
 110.6900000  62.9450000  48.9790000 110.7210000  61.9890000  48.4320000
 111.5980000  63.0390000  49.5930000 109.6240000  62.8940000  49.9990000
 109.8430000  63.4000000  51.5330000 111.0680000  62.4950000  52.0410000
 110.7370000  61.2350000  52.6790000 111.1760000  61.2590000  53.6420000
 109.6860000  61.0640000  52.8510000 111.3530000  60.1000000  51.7800000
 111.0670000  59.0970000  52.2620000 110.8850000  60.0300000  50.7870000
 112.8790000  59.9070000  51.5640000 113.4320000  61.1240000  50.9940000
 113.1330000  61.9500000  51.7040000 114.5360000  60.9740000  51.0670000
 113.1480000  61.3470000  49.9430000 113.6440000  59.6820000  52.8730000
 114.6310000  59.4240000  52.5120000 113.5580000  60.5810000  53.4260000
 113.1330000  58.8700000  53.4210000 112.9410000  58.7370000  50.6320000
 112.0610000  58.8600000  50.0350000 112.8360000  57.7990000  51.2610000
 113.9550000  58.9030000  50.2090000 110.3190000  64.7920000  51.4330000
 108.6770000  63.0690000  52.3360000 109.7460000  63.8280000  46.7810000
 108.6750000  64.4900000  46.3920000 108.3500000  65.6060000  46.8270000
 107.9910000  63.8850000  45.2130000 108.6670000  63.9060000  44.3980000
 107.1840000  64.6180000  44.9270000 107.3010000  62.5480000  45.6020000
 106.6550000  62.6610000  46.5660000 108.0390000  61.7760000  45.8430000
 106.4280000  61.9690000  44.4790000 106.0190000  61.0640000  44.7070000
 106.9900000  61.7010000  43.5430000 105.3300000  62.9640000  43.9700000
 105.7660000  63.6680000  43.3480000 104.8500000  63.5960000  44.8190000
 104.2920000  62.2890000  43.0120000 104.1960000  61.2790000  43.4050000
 104.7450000  62.2600000  42.0240000 103.0100000  63.0990000  42.8520000
 103.3450000  64.0940000  42.6480000 102.4420000  63.1270000  43.7870000
 101.9350000  62.7850000  41.6990000 101.0980000  63.4640000  41.8620000
 101.6710000  61.7160000  41.9660000 102.3770000  62.9570000  40.2640000
 103.0440000  63.8570000  40.0580000 102.3580000  62.0100000  39.2660000
 102.7660000  62.1640000  38.2880000 101.6400000  60.6690000  39.3290000
 101.1850000  60.4170000  38.4170000 100.8500000  60.6940000  40.0640000
 102.5870000  59.6330000  39.8470000 102.9240000  59.9270000  40.8480000
 103.4870000  59.6250000  39.2500000 101.9690000  58.1950000  39.9030000
 101.0270000  58.2760000  40.4370000 102.6480000  57.6000000  40.5520000
 101.7550000  57.5180000  38.5240000 102.6950000  57.4280000  37.9790000
 101.0140000  58.1250000  37.9280000 101.0650000  56.1580000  38.6660000
 101.5040000  55.5230000  39.4740000 101.1530000  55.6420000  37.6930000
  99.5790000  56.2280000  38.9440000  99.0740000  56.9070000  38.3060000
  99.5450000  56.5980000  39.9840000  98.8330000  54.8810000  38.8640000
  99.4100000  54.1140000  39.2370000  98.5940000  54.6580000  37.8200000
  97.5280000  55.1060000  39.6350000  97.6820000  55.4810000  40.6580000
  96.8290000  54.2110000  39.8110000  96.9920000  55.9470000  39.1110000
 113.8420000 124.3850000  37.7810000 114.4490000 123.7590000  37.0770000
 114.1930000 125.3900000  37.6400000 112.7740000 124.3730000  37.4330000
 114.2890000 123.8360000  39.0800000 114.1900000 122.7600000  39.0630000
 115.3250000 124.0040000  39.1330000 113.5960000 124.4520000  40.3760000
 113.9970000 124.1500000  41.3690000 113.9200000 125.5040000  40.4290000
 112.0330000 124.2870000  40.3780000 111.4950000 124.5850000  39.4890000
 111.8490000 123.2520000  40.4480000 111.5560000 124.9700000  41.6080000
 112.1500000 124.6370000  42.4770000 111.8470000 126.0470000  41.6050000
 110.1040000 124.7450000  41.9890000 109.4610000 125.1160000  41.1860000
 109.9560000 123.6520000  42.0060000 109.7300000 125.2790000  43.3490000
 108.7810000 124.8760000  43.6460000 110.4900000 124.9670000  44.0980000
 109.5250000 126.7570000  43.4010000 110.3220000 127.3030000  42.8840000
 108.6490000 126.9090000  42.8850000 109.4740000 127.2980000  44.8240000
 108.8110000 128.1280000  44.9520000 109.2000000 126.4900000  45.5170000
 110.8840000 127.7380000  45.2510000 111.5640000 126.9060000  45.2170000
 111.3100000 128.4780000  44.5430000 110.7590000 128.2650000  46.7140000
 109.7970000 128.7760000  46.7830000 110.6680000 127.4520000  47.4160000
 111.9480000 129.1060000  47.0910000 112.8790000 128.5220000  46.8140000
 111.8240000 129.9530000  46.3530000 112.0300000 129.6560000  48.5820000
 112.3620000 128.9120000  49.2900000 112.8140000 130.4780000  48.6660000
 110.7200000 130.2300000  49.1460000 110.3470000 130.9970000  48.4500000
 109.8770000 129.4720000  49.1240000 110.9240000 130.9070000  50.5510000
 111.7420000 131.6250000  50.5370000 110.1000000 131.4980000  50.8140000
 111.3180000 129.9820000  51.6770000 112.4260000 129.4800000  51.8850000
 110.2220000 129.5260000  52.1970000 110.1250000 128.2580000  52.9580000
 110.8090000 127.4940000  52.5680000 110.2900000 128.3680000  54.0450000
 108.7010000 127.8280000  52.8630000 108.0700000 128.5880000  53.3520000
 108.5550000 126.4330000  53.4870000 108.9710000 125.8030000  52.7280000
 109.2340000 126.4780000  54.3940000 107.2290000 126.2500000  53.9310000
 106.5320000 124.8450000  54.0540000 107.4260000 123.9930000  55.0530000
 107.2640000 122.5030000  54.9550000 107.4150000 122.0180000  55.8970000
 106.3640000 122.2710000  54.4930000 108.4510000 122.1170000  54.0330000
 108.1740000 121.1820000  53.5130000 108.6520000 122.8220000  53.2780000
 109.8810000 121.9040000  54.6580000 110.7080000 122.1130000  53.4360000
 110.4180000 121.3690000  52.7600000 110.5690000 123.1280000  53.0960000
 111.7150000 121.9440000  53.7990000 110.2440000 122.8480000  55.7340000
 111.3240000 122.8080000  55.9890000 110.0620000 123.7320000  55.1850000
 109.5520000 122.8270000  56.5640000 109.9640000 120.4960000  55.1310000
 109.0650000 120.2880000  55.6860000 110.8870000 120.1930000  55.6160000
 110.0060000 119.8860000  54.2230000 105.2580000 124.9770000  54.7230000
 106.6120000 124.1050000  52.8060000 108.3250000 127.6800000  51.4720000
 107.0830000 127.8310000  51.1190000 106.2330000 128.5420000  51.6680000
 106.7590000 127.1730000  49.7570000 105.7210000 126.7570000  49.8370000
 107.4680000 126.3310000  49.7040000 106.9840000 128.2890000  48.6960000
 108.0090000 128.6760000  48.5610000 106.3510000 129.1600000  48.9800000
 106.5750000 127.8160000  47.2820000 105.6300000 127.3130000  47.3960000
 107.2230000 127.0360000  46.9570000 106.3540000 128.7280000  46.0760000
 107.2500000 129.3260000  45.8050000 105.7080000 129.4910000  46.4530000
 105.8270000 128.0090000  44.7550000 104.8690000 127.5920000  45.0290000
 106.5560000 127.2780000  44.3710000 105.5020000 128.8850000  43.5880000
 104.9140000 129.7940000  43.7810000 104.7950000 128.2990000  43.0060000
 106.7450000 129.3240000  42.7770000 107.2170000 128.5400000  42.1880000
 107.5710000 129.5840000  43.3700000 106.4570000 130.4190000  41.7990000
 105.5060000 130.9940000  41.9400000 107.3130000 130.7100000  40.8580000
 107.0010000 131.5540000  40.2090000 108.6990000 130.2000000  40.7150000
 109.0180000 129.7770000  41.6310000 109.2540000 131.0920000  40.5590000
 108.8160000 129.1320000  39.5640000 108.4670000 129.5870000  38.6590000
 108.1560000 128.3460000  39.8400000 110.2550000 128.6860000  39.2460000
 110.7140000 128.0580000  40.0520000 110.8720000 129.5800000  39.1500000
 110.2690000 127.7610000  37.9950000 111.3280000 127.4030000  37.9550000
 110.0630000 128.4590000  37.1880000 109.2440000 126.6550000  37.9570000
 108.2800000 127.0730000  37.8980000 109.2960000 126.1490000  38.8840000
 109.3540000 125.7900000  36.7410000 110.2550000 125.2410000  36.9460000
 109.5820000 126.3730000  35.8300000 108.2200000 124.7690000  36.6320000
 107.2280000 125.2770000  36.6470000 108.3280000 124.0070000  37.4720000
 108.4430000 124.0550000  35.3010000 108.3860000 124.7470000  34.4550000
 107.6630000 123.3170000  35.1830000 109.3840000 123.5370000  35.3640000
  56.2990000   4.5890000  33.8490000  55.3880000   4.8810000  34.4350000
  55.8520000   3.8660000  33.1340000  56.6280000   5.3220000  33.1930000
  57.3640000   3.8530000  34.6130000  56.9830000   2.9270000  35.1170000
  58.1630000   3.4420000  33.9640000  57.9950000   4.7210000  35.7670000
  58.6790000   4.0060000  36.3110000  58.6840000   5.4460000  35.2350000
  57.1930000   5.3730000  36.8790000  56.7160000   6.2180000  36.4650000
  56.4470000   4.5890000  37.2550000  58.0620000   6.0380000  38.0070000
  58.8960000   5.3740000  38.2570000  58.5950000   6.9230000  37.5050000
  57.3370000   6.4250000  39.3020000  56.4490000   7.1170000  39.0060000
  57.0770000   5.4520000  39.7650000  58.3080000   7.2310000  40.2790000
  58.9840000   7.8600000  39.6630000  57.6650000   7.9340000  40.7890000
  59.1480000   6.4030000  41.2270000  59.8030000   5.7830000  40.6780000
  59.8320000   7.0320000  41.7330000  58.2660000   5.5750000  42.1710000
  57.6940000   6.3000000  42.7890000  57.5660000   4.9090000  41.6500000
  58.9970000   4.4580000  43.0180000  59.6570000   3.8790000  42.3600000
  59.6030000   4.9860000  43.7530000  58.1360000   3.4070000  43.7950000
  57.3910000   3.0150000  43.1580000  58.7840000   2.5360000  44.0870000
  57.5460000   3.8630000  45.1600000  57.7900000   3.0400000  45.8830000
  57.9870000   4.7120000  45.5440000  55.9250000   4.0440000  45.1270000
  55.4650000   3.3170000  44.4920000  55.5700000   3.8560000  46.1270000
  55.3430000   5.3510000  44.6430000  55.7020000   5.5220000  43.6640000
  54.2730000   5.3200000  44.5120000  55.8100000   6.5510000  45.4860000
  56.8520000   6.5160000  45.4410000  55.5190000   7.4810000  45.0910000
  55.2630000   6.5970000  46.9060000  54.1810000   6.0240000  47.2220000
  56.0070000   7.4100000  47.6820000  55.6290000   7.6000000  49.0480000
  56.3500000   8.3680000  49.3580000  54.5500000   7.8850000  49.1670000
  55.7160000   6.2960000  49.8960000  55.3240000   5.4510000  49.3890000
  54.9710000   6.4760000  51.2510000  55.0170000   7.4530000  51.5960000
  53.9640000   6.1420000  51.1580000  55.5620000   5.5320000  52.1690000
  55.2340000   5.6240000  53.7120000  56.2540000   6.6900000  54.2300000
  57.6710000   6.6510000  54.1580000  58.1060000   7.0400000  55.0500000
  58.1240000   5.6760000  53.9440000  58.0450000   7.5690000  53.0360000
  59.0540000   7.3800000  52.6940000  57.5230000   7.3140000  52.0760000
  57.9340000   9.0880000  53.0940000  58.9290000   9.6430000  54.1180000
  58.9180000  10.7390000  54.1510000  58.8010000   9.1310000  55.0690000
  59.8830000   9.4140000  53.7040000  58.1270000   9.6170000  51.7570000
  58.1700000  10.6940000  51.8210000  59.0650000   9.1850000  51.3740000
  57.3700000   9.3600000  51.0870000  56.5440000   9.5790000  53.4190000
  56.4370000  10.6450000  53.2760000  56.2640000   9.2630000  54.4450000
  55.7800000   9.0080000  52.8280000  53.8910000   6.1360000  53.8480000
  55.4970000   4.3840000  54.4160000  57.0990000   6.0470000  50.0720000
  57.6880000   4.9720000  49.3990000  57.2800000   4.5130000  48.3530000
  58.8520000   4.5090000  50.2590000  58.5490000   4.7300000  51.3040000
  59.6530000   5.2400000  49.9960000  59.1630000   3.0290000  50.0750000
  60.1510000   3.0280000  50.4810000  59.2100000   2.6880000  49.0680000
  58.3070000   1.9370000  50.7460000  58.4100000   2.0730000  51.8160000
  58.5320000   0.9030000  50.4930000  56.7600000   2.1320000  50.5130000
  56.5240000   3.1540000  50.7850000  56.1770000   1.4310000  51.1560000
  56.3710000   1.6930000  49.0860000  56.6310000   0.6560000  49.0180000
  56.9090000   2.2740000  48.2880000  54.8820000   1.9140000  48.6640000
  54.8420000   2.9370000  48.2920000  54.2290000   1.7570000  49.5460000
  54.3660000   0.9920000  47.5240000  54.6370000  -0.0780000  47.7260000
  54.9060000   1.2860000  46.6280000  52.8750000   1.1340000  47.3500000
  52.3460000   1.3460000  48.2380000  52.1370000   1.1230000  46.2260000
  51.0970000   1.2420000  46.3560000  52.6870000   0.5780000  44.9530000
  51.8860000  -0.0450000  44.7410000  53.6440000   0.0680000  45.0530000
  52.9440000   1.6110000  43.8250000  53.8640000   2.1090000  43.9510000
  52.1440000   2.3160000  43.8030000  52.9840000   1.0570000  42.4270000
  51.9920000   0.7440000  42.0780000  53.6820000   0.1250000  42.4020000
  53.5290000   2.1870000  41.5090000  54.5060000   2.5400000  41.9700000
  52.8360000   3.0900000  41.4960000  53.8220000   1.7820000  39.9720000
  53.0260000   1.1650000  39.6320000  54.5850000   1.0550000  39.8560000
  54.1090000   2.9460000  39.0980000  54.3550000   2.6040000  38.0880000
  55.0080000   3.4430000  39.4420000  53.0450000   4.0530000  38.8730000
  52.8060000   4.4370000  39.8500000  52.2280000   3.5410000  38.3920000
  53.5280000   5.2560000  38.1190000  53.8150000   5.0000000  37.1230000
  54.3060000   5.7040000  38.7040000  52.6100000   5.9470000  38.0040000
  58.3500000 133.2920000  42.9310000  57.7660000 133.4630000  41.9710000
  57.9860000 133.9560000  43.6690000  58.1460000 132.3520000  43.3250000
  59.8640000 133.5810000  42.7470000  60.2020000 132.8740000  41.9200000
  59.9070000 134.5350000  42.2630000  60.7120000 133.6460000  44.0590000
  61.7580000 133.6470000  43.6960000  60.4800000 134.5790000  44.6360000
  60.6560000 132.3820000  44.9040000  59.6760000 132.3320000  45.3820000
  60.7180000 131.4380000  44.2930000  61.6960000 132.3270000  46.0460000
  61.6660000 131.2980000  46.4470000  62.6730000 132.3690000  45.5100000
  61.7370000 133.3420000  47.2290000  61.9760000 134.2850000  46.7770000
  60.7550000 133.3810000  47.6200000  62.8380000 132.9950000  48.2440000
  63.8120000 133.0100000  47.7490000  62.7260000 133.6980000  49.0990000
  62.8220000 131.5510000  48.7370000  63.0170000 130.8890000  47.9190000
  63.6280000 131.3830000  49.4150000  61.5330000 131.3630000  49.5420000
  61.4620000 132.2030000  50.1890000  60.6120000 131.2810000  49.0100000
  61.4180000 130.0190000  50.2290000  62.0790000 130.1760000  51.0620000
  60.3860000 129.8920000  50.5480000  61.9580000 128.7880000  49.4090000
  61.4370000 128.7440000  48.4750000  63.0360000 128.9570000  49.1900000
  61.6780000 127.4060000  49.9440000  60.6780000 127.4580000  50.3090000
  61.7450000 126.7120000  49.0850000  62.7410000 126.9160000  50.9760000
  63.6050000 126.5520000  50.4040000  63.2100000 127.7460000  51.4700000
  62.1050000 125.8010000  51.8840000  61.4630000 125.2710000  51.1630000
  62.8060000 125.0730000  52.2700000  61.1970000 126.3550000  53.0270000
  60.4390000 126.9090000  52.5340000  60.6140000 125.4850000  53.4600000
  61.8010000 127.3080000  54.0410000  62.2950000 126.9110000  55.0590000
  61.5570000 128.5320000  53.7110000  61.5890000 129.6250000  54.7430000
  60.9340000 130.3890000  54.3670000  61.1430000 129.3090000  55.7030000
  62.9730000 130.2810000  54.7980000  63.6300000 129.4030000  55.0650000
  63.0100000 131.4190000  55.8290000  63.0680000 131.0100000  56.8250000
  63.7990000 132.1910000  55.6930000  61.7870000 132.1390000  55.7840000
  61.5620000 133.3290000  54.6760000  60.5990000 132.6400000  53.5580000
  59.3740000 133.2050000  52.9990000  59.4690000 134.2930000  52.9860000
  59.3170000 132.7860000  51.9670000  58.1840000 132.5950000  53.6600000
  57.4180000 132.8320000  52.9530000  58.2290000 131.4780000  53.7420000
  57.6530000 133.0050000  55.0420000  56.1860000 132.8090000  55.0630000
  55.9160000 133.3180000  55.9730000  55.7820000 133.2600000  54.1870000
  56.0650000 131.7250000  55.0420000  58.3230000 132.2140000  56.0980000
  59.4000000 132.5730000  56.1810000  57.8200000 132.2800000  57.0600000
  58.3360000 131.1400000  55.7540000  57.7610000 134.4550000  55.3780000
  57.2600000 135.1200000  54.6560000  58.7810000 134.6350000  55.1550000
  57.4600000 134.6660000  56.4400000  60.8710000 134.3850000  55.3920000
  62.8010000 133.6490000  53.9790000  63.3630000 130.7300000  53.4520000
  64.6270000 130.8930000  53.1690000  65.5570000 130.5300000  53.8980000
  64.8610000 131.5520000  51.7690000  63.8280000 131.6880000  51.4090000
  65.4930000 130.9920000  51.0770000  65.3900000 132.9810000  51.9020000
  66.3190000 132.8410000  52.4130000  64.7760000 133.5850000  52.6840000
  65.5290000 133.8850000  50.6440000  66.0270000 134.7830000  50.9460000
  64.6130000 134.2390000  50.2130000  66.4140000 133.2000000  49.5970000
  65.9010000 132.2930000  49.2020000  67.3490000 132.8770000  50.0600000
  66.6490000 134.0810000  48.3040000  66.9770000 135.0920000  48.5410000
  65.6240000 134.2810000  47.8220000  67.5430000 133.3930000  47.2340000
  67.0930000 132.5030000  46.8350000  68.5130000 133.0950000  47.6650000
  67.8640000 134.2810000  46.0670000  68.6290000 135.0090000  46.3850000
  66.9670000 134.8100000  45.7210000  68.5060000 133.4730000  45.0170000
  69.5170000 133.0020000  45.2400000  68.0560000 133.5000000  43.8040000
  68.6490000 132.9770000  43.0820000  66.9520000 134.2920000  43.1120000
  67.3270000 134.6150000  42.1580000  66.6730000 135.2290000  43.5990000
  65.6040000 133.6350000  42.9740000  65.3070000 133.2880000  44.0220000
  65.6710000 132.7390000  42.4810000  64.5290000 134.4860000  42.3120000
  64.4060000 135.4120000  42.8500000  63.5930000 133.9460000  42.4120000
  64.8620000 135.0470000  40.8990000  65.3010000 134.2620000  40.2830000
  65.5420000 135.9170000  41.0250000  63.5770000 135.4800000  40.2230000
  62.8730000 135.8830000  41.0040000  63.1320000 134.5130000  39.9920000
  63.7630000 136.5730000  39.1480000  64.2270000 137.4750000  39.5910000
  62.6520000 136.7550000  38.8900000  64.5910000 136.0290000  37.9280000
  63.8300000 135.5080000  37.2940000  65.2830000 135.3050000  38.2220000
  65.4600000 137.0580000  37.1610000  66.0440000 137.4970000  37.9050000
  64.9050000 137.9280000  36.7490000  66.0880000 136.5180000  36.4580000
  41.0130000  97.2310000  41.4420000  40.0890000  97.9110000  41.4520000
  40.7080000  96.2260000  41.0270000  41.7500000  97.7070000  40.8060000
  41.4920000  97.2410000  42.9150000  41.6510000  98.2780000  43.2810000
  40.6830000  96.8050000  43.4500000  42.6900000  96.3920000  43.1660000
  42.9910000  96.3690000  44.2020000  42.6060000  95.3940000  42.7800000
  43.9300000  96.9650000  42.5280000  43.7870000  97.0510000  41.4080000
  44.0420000  98.0600000  42.6810000  45.1870000  96.1540000  42.8680000
  45.3230000  96.1910000  43.9370000  45.1050000  95.1100000  42.4790000
  46.4660000  96.7520000  42.3140000  46.4850000  96.6930000  41.1940000
  46.4550000  97.8190000  42.5660000  47.6440000  96.1400000  42.9890000
  47.4650000  95.0500000  43.0700000  48.5880000  96.4100000  42.4790000
  47.7970000  96.7390000  44.3940000  46.9210000  96.6180000  45.0040000
  48.6010000  96.1190000  44.9480000  48.2160000  98.2230000  44.4350000
  49.0450000  98.3220000  43.6800000  47.3810000  98.7810000  44.0410000
  48.5300000  98.8190000  45.8250000  49.3680000  98.3160000  46.3870000
  48.9120000  99.7760000  45.5910000  47.4110000  98.9220000  46.8170000
  47.0010000  97.9380000  47.0280000  47.8710000  99.2190000  47.8110000
  46.3900000  99.9820000  46.4650000  46.9350000 100.9750000  46.2880000
  45.9030000  99.7130000  45.5060000  45.3240000  99.9960000  47.7130000
  45.7840000 100.0950000  48.6900000  44.6150000 100.7290000  47.4250000
  44.4830000  98.6570000  47.8700000  43.7820000  98.5160000  47.0110000
  45.0750000  97.7730000  47.7840000  43.5830000  98.7160000  49.2190000
  42.9910000  99.6400000  49.1560000  42.7630000  97.9790000  49.1260000
  44.3200000  98.5360000  50.5350000  43.9470000  99.1260000  51.4910000
  45.3530000  97.6500000  50.4550000  46.2930000  97.4840000  51.6830000
  47.2600000  97.1290000  51.3460000  46.3860000  98.5070000  51.9810000
  45.6840000  96.5780000  52.8020000  44.6860000  96.8930000  53.0960000
  46.7360000  96.6110000  53.9150000  46.4380000  95.9910000  54.7840000
  47.6950000  96.1450000  53.7030000  47.1140000  97.9610000  54.2410000
  46.1210000  98.8100000  55.2130000  46.9130000  98.9010000  56.5450000
  47.7830000 100.0570000  56.7990000  48.4830000  99.7620000  57.5350000
  48.2710000 100.5130000  55.9050000  46.9490000 101.1210000  57.5400000
  47.5910000 102.0390000  57.7400000  46.2010000 101.5010000  56.8420000
  46.1550000 100.7340000  58.8150000  45.9690000 102.0750000  59.5300000
  46.9890000 102.4790000  59.6830000  45.4020000 102.8800000  58.9830000
  45.5920000 102.0140000  60.5670000  44.9020000 100.1010000  58.3490000
  44.5720000 100.5140000  57.3450000  45.1460000  98.9960000  58.2230000
  44.1370000 100.1830000  59.0170000  46.9070000  99.7970000  59.7920000
  47.2020000  98.9110000  59.2320000  46.2180000  99.5370000  60.5460000
  47.7820000 100.3410000  60.0780000  45.9920000 100.1970000  54.6610000
  44.9330000  97.9910000  55.4700000  45.5620000  95.2310000  52.3140000
  44.3920000  94.7190000  51.8830000  43.3500000  95.4060000  51.7160000
  44.3190000  93.2470000  51.7280000  43.3170000  92.9580000  51.4640000
  44.4580000  92.8000000  52.7250000  45.3650000  92.7310000  50.7340000
  46.3100000  92.8850000  51.2160000  45.3050000  93.3690000  49.8520000
  45.5290000  91.1890000  50.3780000  45.9140000  90.6250000  51.2140000
  46.2660000  91.1670000  49.5980000  44.1920000  90.3820000  49.8430000
  43.4770000  90.3620000  50.7380000  44.4860000  89.3480000  49.5610000
  43.5370000  91.1160000  48.6290000  44.2600000  91.1950000  47.7810000
  43.2760000  92.1640000  48.9350000  42.3770000  90.3560000  48.0660000
  42.7380000  89.4490000  47.7070000  42.1040000  90.9550000  47.2160000
  41.2130000  90.2100000  48.9530000  40.6040000  91.0480000  48.9740000
  41.6300000  90.0150000  49.9450000  40.3260000  89.0790000  48.4720000
  40.9160000  88.2510000  48.0950000  38.9480000  89.1180000  48.3150000
  38.3800000  88.3220000  47.8820000  38.0690000  90.2050000  48.7880000
  38.5300000  90.6790000  49.6620000  37.1270000  89.8390000  49.0720000
  37.6900000  91.1490000  47.6540000  37.1150000  90.4210000  46.9930000
  38.5920000  91.4300000  47.0840000  36.9070000  92.3560000  48.1330000
  37.6400000  92.9760000  48.5960000  36.1170000  92.1030000  48.8090000
  36.3430000  93.0080000  46.8630000  35.5070000  93.6870000  47.0860000
  35.9640000  92.2960000  46.1090000  37.3380000  93.8460000  46.1060000
  38.0450000  94.2940000  46.8260000  36.8680000  94.7260000  45.7790000
  38.1580000  93.1230000  44.9680000  37.4510000  92.5300000  44.2630000
  38.7760000  92.3410000  45.4130000  39.0840000  94.1110000  44.2530000
  39.7290000  94.5030000  45.0630000  38.5870000  94.9740000  43.7920000
  39.9180000  93.3530000  43.1870000  39.3190000  93.0300000  42.2760000
  40.3650000  92.4590000  43.6670000  40.6340000  94.0890000  42.8360000
  38.7450000 143.0490000  52.0440000  39.1880000 143.9190000  52.4500000
  39.5690000 142.5070000  51.4360000  38.4440000 142.4260000  52.7880000
  37.6440000 143.4750000  51.1230000  36.9880000 142.5930000  51.0120000
  36.9620000 144.1640000  51.7060000  38.1130000 144.0480000  49.7760000
  38.6630000 144.9530000  49.8290000  38.8190000 143.3490000  49.2730000
  36.9750000 144.2240000  48.6970000  36.4940000 143.2820000  48.6480000
  36.2470000 144.9160000  49.1270000  37.4840000 144.7790000  47.3640000
  37.6390000 145.8750000  47.5130000  38.5200000 144.5300000  47.0520000
  36.5970000 144.4340000  46.1430000  36.8700000 145.1860000  45.3780000
  36.8410000 143.4340000  45.9080000  35.0910000 144.5610000  46.3130000
  34.6580000 144.2560000  45.3610000  34.8570000 143.8930000  47.1510000
  34.5840000 145.9690000  46.6000000  34.9440000 146.3240000  47.5370000
  34.9180000 146.6480000  45.8500000  33.0280000 145.9250000  46.6760000
  32.5970000 145.7030000  45.6440000  32.7440000 145.1190000  47.3100000
  32.5400000 147.3060000  46.9750000  32.9510000 148.0310000  46.2920000
  31.4310000 147.2290000  46.7400000  32.7080000 147.8070000  48.3970000
  33.8300000 147.9180000  48.5440000  32.2800000 148.8420000  48.3800000
  32.0250000 147.0240000  49.4460000  30.9010000 147.0590000  49.3210000
  32.3550000 146.0360000  49.3060000  32.2870000 147.4180000  50.9100000
  31.7940000 148.3510000  51.0960000  31.9120000 146.6320000  51.5760000
  33.7770000 147.7350000  51.1670000  34.1510000 148.5800000  50.4540000
  33.8410000 148.1440000  52.2360000  34.7500000 146.5180000  51.1590000
  34.8930000 146.2080000  50.1170000  35.7660000 146.8380000  51.4110000
  34.3480000 145.3370000  51.9410000  33.9980000 145.2740000  53.0650000
  34.2900000 144.2130000  51.2140000  33.8100000 142.9800000  51.8820000
  34.3250000 142.0980000  51.5280000  33.9160000 142.9530000  52.9400000
  32.3090000 142.7770000  51.5030000  31.7460000 143.7530000  51.4840000
  31.5750000 141.8700000  52.5170000  32.2140000 141.0350000  52.6970000
  31.4610000 142.4920000  53.4400000  30.1960000 141.4280000  52.0640000
  29.8690000 139.9290000  51.5410000  30.5480000 139.7170000  50.1340000
  30.3900000 138.4010000  49.4830000  30.2160000 137.6700000  50.2610000
  29.5890000 138.3780000  48.7460000  31.7630000 138.0720000  48.9080000
  31.6360000 137.0000000  48.5430000  32.0720000 138.7620000  48.1530000
  32.9430000 137.9510000  49.9460000  33.4370000 139.2160000  50.3730000
  33.5430000 139.8120000  49.4400000  32.6770000 139.6290000  50.9490000
  34.3630000 139.1200000  50.9220000  32.6720000 137.0630000  51.1820000
  32.2020000 136.0700000  50.9020000  33.6610000 136.8950000  51.6190000
  32.0040000 137.5640000  51.8680000  34.1510000 137.3310000  49.2770000
  34.0080000 136.2580000  49.1920000  35.0080000 137.4130000  49.9390000
  34.2640000 137.7150000  48.2760000  30.4730000 138.9490000  52.4520000
  28.4150000 139.8440000  51.3550000  32.2910000 142.1290000  50.1490000
  31.2990000 142.5670000  49.2840000  30.4330000 143.3480000  49.5800000
  31.4230000 141.9610000  47.8880000  31.9410000 140.9740000  47.9980000
  31.9870000 142.6880000  47.2610000  30.0400000 141.6930000  47.2540000
  29.6340000 142.6630000  47.2180000  29.4670000 141.1700000  48.0080000
  29.8960000 140.9830000  45.8770000  28.8650000 140.8300000  45.5630000
  30.2980000 139.9520000  46.0100000  30.6480000 141.5820000  44.6980000
  30.4520000 140.8890000  43.8450000  31.7320000 141.6660000  44.8830000
  30.0000000 142.9330000  44.2290000  30.3580000 143.6570000  44.9220000
  28.8850000 142.9030000  44.3300000  30.4320000 143.3560000  42.7810000
  30.0000000 144.3570000  42.5180000  29.9920000 142.6650000  42.0760000
  31.9510000 143.3630000  42.5940000  32.1390000 143.6330000  41.5230000
  32.2180000 142.3100000  42.8400000  32.7490000 144.3980000  43.4690000
  32.5990000 144.1380000  44.5010000  33.4550000 145.4440000  43.1040000
  33.9330000 146.1860000  43.8150000  33.9850000 145.7840000  41.7810000
  34.1300000 144.8470000  41.1900000  34.9670000 146.2050000  41.7800000
  33.0950000 146.7950000  41.0510000  33.1540000 147.7240000  41.5550000
  32.0140000 146.5150000  40.8470000  33.6670000 147.0620000  39.6590000
  33.8490000 146.1790000  39.1920000  34.6240000 147.5110000  39.8490000
  32.7670000 147.9030000  38.7650000  32.4960000 148.8850000  39.2460000
  31.8440000 147.3640000  38.6860000  33.2980000 148.2120000  37.3760000
  33.5940000 147.2710000  36.9620000  34.2170000 148.8450000  37.5160000
  32.1800000 148.8840000  36.4440000  31.2470000 148.3440000  36.5800000
  32.4360000 148.6920000  35.4080000  32.0340000 150.3910000  36.5770000
  32.9660000 150.8490000  36.4120000  31.7020000 150.6720000  37.5790000
  30.9070000 150.9710000  35.6360000  30.0020000 150.4070000  35.7240000
  31.2820000 150.8610000  34.6600000  30.7820000 151.9990000  35.9210000
  76.1620000   5.2740000  40.6750000  76.9150000   5.5400000  39.9600000
  75.2410000   5.8690000  40.4690000  75.8180000   4.2420000  40.4840000
  76.6560000   5.4890000  42.1400000  76.7380000   6.5470000  42.3410000
  75.9510000   5.0930000  42.8910000  77.9690000   4.7010000  42.4180000
  78.2090000   4.8850000  43.4740000  77.7250000   3.6060000  42.3630000
  79.1090000   5.0410000  41.4440000  78.9210000   4.7780000  40.3390000
  79.4750000   6.0760000  41.5400000  80.2480000   4.0400000  41.8840000
  80.5370000   4.3630000  42.8890000  79.8810000   2.9990000  41.8950000
  81.4320000   4.0480000  40.8890000  81.0940000   3.8350000  39.8840000
  81.9060000   5.0060000  40.8930000  82.4570000   2.8910000  41.0270000
  81.9060000   1.9270000  41.0220000  83.0440000   3.0100000  40.2050000
  83.3430000   2.9500000  42.3070000  82.6560000   2.8190000  43.1960000
  83.9560000   2.0250000  42.2810000  84.3040000   4.1850000  42.3860000
  84.3970000   4.4850000  41.3080000  83.8120000   5.0440000  42.7870000
  85.6640000   3.8810000  43.0590000  86.1980000   3.2700000  42.3080000
  86.2840000   4.7260000  43.2490000  85.5570000   2.9930000  44.3300000
  85.1840000   1.9950000  44.0540000  86.5860000   2.9200000  44.7220000
  84.5160000   3.5910000  45.3240000  83.5530000   3.7650000  44.7040000
  84.2880000   2.8600000  46.0490000  84.9420000   4.8700000  45.8590000
  85.2700000   5.5140000  45.1120000  84.1300000   5.3840000  46.3780000
  86.0510000   4.8080000  46.8510000  85.7450000   4.1890000  47.7150000
  86.9610000   4.3560000  46.4450000  86.4670000   6.2380000  47.2200000
  87.0050000   6.6540000  46.3960000  85.5450000   6.8140000  47.4170000
  87.3120000   6.2320000  48.5000000  86.9010000   5.6330000  49.4360000
  88.5700000   6.7400000  48.3990000  89.3990000   7.0850000  49.5490000
  90.0630000   7.8930000  49.2560000  88.7930000   7.4400000  50.4110000
  90.1490000   5.8250000  50.0030000  89.3880000   5.0150000  50.3060000
  91.1230000   6.1930000  51.1360000  92.1470000   6.0290000  50.8920000
  90.9980000   7.2160000  51.4250000  90.7390000   5.2710000  52.2150000
  90.0450000   5.7280000  53.5800000  91.2500000   6.1540000  54.5210000
  91.9990000   7.3790000  54.3950000  91.6930000   7.8550000  53.5390000
  91.7140000   8.0870000  55.1990000  93.5070000   6.9910000  54.4740000
  93.7770000   6.9370000  55.5690000  93.7610000   6.0530000  53.8410000
  94.3870000   8.0820000  53.9870000  95.7670000   7.5030000  54.0680000
  96.0390000   6.8340000  53.2460000  96.4650000   8.3560000  54.0470000
  95.8660000   6.9200000  54.9900000  94.0430000   8.5370000  52.5880000
  94.0240000   7.7320000  51.8830000  93.0160000   9.0280000  52.6340000
  94.7420000   9.2800000  52.3800000  94.3630000   9.2630000  54.8570000
  94.5170000   9.0430000  55.9370000  93.5000000   9.8440000  54.8380000
  95.1810000   9.8380000  54.5210000  89.1480000   6.8990000  53.4870000
  89.4770000   4.4770000  54.1590000  91.0110000   5.3680000  48.8470000
  91.4730000   4.1050000  48.5900000  91.3120000   3.1340000  49.3320000
  92.1750000   4.0790000  47.2520000  93.1040000   4.6340000  47.3360000
  91.4980000   4.5220000  46.5230000  92.4640000   2.6570000  46.7290000
  91.4940000   2.2510000  46.4720000  92.8890000   1.9630000  47.4350000
  93.2050000   2.7360000  45.4120000  94.2390000   3.1440000  45.5370000
  92.8130000   3.5440000  44.7540000  93.3350000   1.3470000  44.7520000
  92.3420000   0.8580000  44.7620000  94.0070000   0.7560000  45.3500000
  93.8320000   1.4100000  43.2740000  94.8510000   1.1990000  43.3310000
  93.7850000   2.4620000  42.8110000  93.2600000   0.3850000  42.2360000
  93.5420000  -0.5630000  42.7560000  93.8450000   0.3220000  41.2860000
  91.7890000   0.4100000  41.9930000  91.7080000  -0.0230000  40.9980000
  91.3660000   1.4520000  41.9540000  90.9050000  -0.4300000  42.9630000
  91.4700000  -1.0310000  43.6880000  89.6070000  -0.5700000  42.8880000
  89.1050000  -1.1980000  43.6060000  88.6710000   0.1810000  41.9420000
  89.0150000   1.1370000  41.7170000  87.6960000   0.4370000  42.4620000
  88.3220000  -0.6030000  40.6590000  87.4110000  -1.2080000  40.8390000
  89.1210000  -1.3480000  40.4550000  88.3080000   0.2820000  39.4060000
  89.1560000   1.0140000  39.5530000  87.3630000   0.8860000  39.3150000
  88.3980000  -0.4790000  38.0800000  88.3110000   0.2330000  37.2740000
  87.5890000  -1.2280000  38.1380000  89.7140000  -1.2490000  37.8950000
  89.6680000  -1.8200000  36.9040000  89.9220000  -1.8270000  38.7920000
  90.9730000  -0.3100000  37.6300000  91.1980000   0.3780000  38.5200000
  90.7300000   0.4120000  36.8190000  92.2370000  -1.2350000  37.6060000
  92.1260000  -2.0250000  36.9050000  92.2830000  -1.7200000  38.6150000
  93.4530000  -0.3020000  37.4260000  93.3010000   0.2490000  36.4820000
  94.2520000  -0.9230000  37.2490000  93.6080000   0.4330000  38.2790000
 135.2240000  -7.2820000  37.8130000 134.2620000  -7.5830000  38.2930000
 135.9410000  -8.0970000  37.9980000 135.0730000  -7.0440000  36.8250000
 135.6540000  -6.0700000  38.5740000 135.9000000  -6.2980000  39.5910000
 136.4880000  -5.5680000  37.9640000 134.5060000  -5.0520000  38.7340000
 134.2490000  -4.7150000  37.7110000 133.6720000  -5.4260000  39.2670000
 134.9830000  -3.8020000  39.5720000 135.3940000  -4.0430000  40.5610000
 135.6820000  -3.2880000  39.0340000 133.8380000  -2.7450000  39.8590000
 134.3590000  -1.8180000  40.0420000 133.4300000  -2.6720000  38.8850000
 132.9080000  -3.1430000  40.9560000 132.5860000  -4.1750000  40.7450000
 133.4970000  -3.0980000  41.8670000 131.7240000  -2.1520000  40.8750000
 131.1900000  -2.2880000  39.9900000 130.8770000  -2.4550000  41.6090000
 131.9930000  -0.7020000  41.1860000 132.7680000  -0.2930000  40.6000000
 131.2170000  -0.0250000  40.8630000 132.3100000  -0.6040000  42.6910000
 131.5130000  -1.1250000  43.2670000 133.1970000  -1.1600000  42.9300000
 132.5250000   0.8280000  43.2100000 133.2770000   1.3070000  42.5660000
 131.6680000   1.4650000  43.1310000 133.0210000   0.7970000  44.6760000
 132.3030000   0.2960000  45.3120000 133.9820000   0.4130000  44.7110000
 133.1190000   2.1950000  45.2840000 132.1950000   2.7600000  45.2320000
 133.1740000   2.0940000  46.3550000 134.3580000   3.0050000  44.8480000
 135.2430000   2.4250000  45.1730000 134.4090000   3.2170000  43.7980000
 134.4110000   4.3770000  45.5670000 134.4700000   4.1530000  46.6340000
 135.3300000   4.8320000  45.4580000 133.3200000   5.4140000  45.1510000
 133.4400000   5.5330000  44.0430000 132.3700000   4.9270000  45.3970000
 133.6100000   6.7590000  45.8570000 134.3710000   7.6100000  45.4280000
 132.8860000   6.7710000  47.0300000 133.0390000   8.0020000  47.8010000
 132.6930000   7.7570000  48.8190000 134.1270000   8.3130000  47.7580000
 132.0590000   9.0610000  47.2160000 132.2000000   9.1680000  46.1080000
 132.3220000  10.4230000  47.9290000 133.3440000  10.7680000  47.5390000
 131.5490000  11.1630000  47.6110000 132.2960000  10.1880000  49.3820000
 133.0470000  11.2630000  50.3790000 131.8860000  11.7320000  51.4340000
 131.3030000  13.0400000  51.4330000 130.7710000  13.1210000  52.4010000
 132.1410000  13.7390000  51.5120000 130.4570000  13.2270000  50.1050000
 130.0660000  14.3420000  50.0700000 130.9560000  13.0480000  49.2100000
 129.1410000  12.4480000  50.0020000 128.1300000  13.0240000  51.0070000
 128.6020000  12.9430000  51.9870000 127.8110000  14.0530000  50.7560000
 127.3460000  12.3120000  50.9960000 128.5700000  12.6230000  48.6130000
 127.5120000  12.3670000  48.6670000 128.6090000  13.6770000  48.3170000
 129.1080000  12.1400000  47.8720000 129.3090000  10.9970000  50.2660000
 130.1580000  10.5520000  49.6200000 128.3200000  10.5210000  50.1370000
 129.6500000  10.9460000  51.3370000 134.0600000  10.5720000  51.1950000
 133.3600000  12.5130000  49.6280000 130.7650000   8.4650000  47.4930000
 129.7230000   8.9180000  46.8160000 129.7500000   9.9730000  46.2520000
 128.6750000   7.8600000  46.8270000 127.9230000   8.0310000  47.6760000
 129.1440000   6.9010000  46.9950000 127.7280000   7.8150000  45.5930000
 127.4780000   8.8710000  45.2820000 126.8390000   7.2720000  45.9240000
 128.2610000   6.9060000  44.4360000 127.4170000   6.8540000  43.7220000
 128.4230000   5.8320000  44.7150000 129.5110000   7.5480000  43.7750000
 130.2860000   7.5620000  44.5030000 129.3290000   8.6150000  43.5380000
 129.9600000   6.6590000  42.5170000 129.2740000   6.7840000  41.7240000
 129.8800000   5.6220000  42.8780000 131.3140000   7.1280000  41.9510000
 132.0450000   7.2230000  42.7600000 131.1610000   8.2320000  41.6030000
 131.9640000   6.4040000  40.7560000 131.1580000   6.2140000  40.0400000
 132.3200000   5.5130000  41.1840000 133.0470000   7.2330000  40.1230000
 133.7830000   7.5840000  40.8550000 133.2720000   7.4960000  38.7890000
 134.2310000   8.0140000  38.5680000 132.3410000   7.1810000  37.6610000
 132.0140000   8.1450000  37.2920000 131.4580000   6.6870000  38.0430000
 132.9840000   6.4830000  36.4540000 133.0580000   5.4000000  36.7770000
 134.0240000   6.7060000  36.4450000 132.2780000   6.3470000  35.0190000
 131.2990000   5.7630000  35.2500000 132.9350000   5.7700000  34.3580000
 132.1680000   7.7460000  34.3190000 133.1420000   8.1760000  34.0790000
 131.5710000   8.3240000  35.0550000 131.3520000   7.5410000  33.0920000
 130.3830000   7.2520000  33.4800000 131.7740000   6.7620000  32.4050000
 131.1340000   8.8660000  32.3150000 132.0960000   9.2340000  32.0430000
 130.7280000   9.5780000  32.9810000 130.2760000   8.7410000  31.0600000
 129.8760000   9.7260000  30.9210000 129.4500000   8.0770000  31.3140000
 131.1490000   8.2100000  29.9100000 131.8200000   9.0230000  29.6910000
 130.5750000   7.9400000  28.9960000 131.7780000   7.2970000  30.2140000
 143.8220000  97.4620000  39.3700000 144.5380000  97.1090000  40.1550000
 143.6720000  98.4810000  39.5390000 144.2110000  97.3180000  38.3560000
 142.5020000  96.6760000  39.6850000 141.8120000  96.7540000  38.8370000
 142.8940000  95.6630000  39.7920000 141.8010000  97.1220000  41.0400000
 141.0640000  96.3410000  41.3370000 142.5760000  97.0280000  41.8430000
 141.2740000  98.5400000  41.0800000 140.6480000  98.6580000  41.9380000
 142.0730000  99.2900000  41.0670000 140.3650000  98.8270000  39.9390000
 140.9420000  98.7450000  38.9470000 139.6160000  98.0000000  39.9380000
 139.7380000 100.2800000  39.9700000 139.3600000 100.4110000  40.9830000
 140.4980000 100.9830000  39.8130000 138.6200000 100.4400000  38.9500000
 139.0080000 100.3130000  37.9190000 137.8570000  99.7420000  39.1660000
 138.0130000 101.8590000  39.1160000 138.8270000 102.6100000  39.0550000
 137.2820000 102.0170000  38.3700000 137.2560000 102.2690000  40.4090000
 137.9840000 102.3190000  41.2000000 136.8440000 103.2160000  40.5240000
 136.0490000 101.3790000  40.7850000 136.4350000 100.3620000  40.6690000
 135.8700000 101.4450000  41.8800000 134.8050000 101.5380000  39.9410000
 134.9830000 101.4110000  38.8360000 134.1570000 100.7220000  40.1120000
 134.1300000 102.9250000  40.1440000 134.7760000 103.6590000  39.7250000
 133.2030000 103.0410000  39.6310000 133.8740000 103.3740000  41.6150000
 134.7770000 103.4790000  42.2030000 133.4020000 104.3740000  41.5550000
 132.9260000 102.4890000  42.4770000 132.0300000 102.2920000  41.8950000
 133.4380000 101.5630000  42.6770000 132.4530000 102.9350000  43.9090000
 131.7000000 103.7380000  43.9200000 131.8930000 102.0090000  44.2980000
 133.5440000 103.3080000  44.8560000 134.6340000 103.7850000  44.6340000
 133.1650000 102.8890000  46.1120000 133.9820000 103.1040000  47.3500000
 134.8550000 102.4890000  47.2270000 134.2750000 104.1960000  47.3730000
 133.0280000 102.5910000  48.5130000 132.0580000 103.1400000  48.4240000
 133.5150000 103.0240000  49.9260000 134.2750000 102.2850000  50.1800000
 134.1050000 103.9520000  49.7420000 132.3730000 103.0910000  50.8200000
 132.4640000 102.5680000  52.3500000 133.0260000 101.1500000  52.0710000
 132.2500000 100.1260000  51.5280000 131.5120000 100.5830000  50.9340000
 132.8310000  99.3930000  50.9750000 131.6340000  99.3570000  52.6390000
 132.4230000  98.6210000  52.9310000 131.4420000 100.0390000  53.4850000
 130.4840000  98.5050000  52.3150000 130.2340000  97.6200000  53.4390000
 129.9300000  98.1780000  54.3030000 129.3250000  97.0760000  53.0600000
 131.1350000  97.0550000  53.5000000 129.3200000  99.3220000  51.9480000
 129.5180000 100.0480000  51.2200000 128.4490000  98.7760000  51.6170000
 129.0820000  99.8670000  52.9210000 130.9060000  97.5980000  51.1900000
 131.2730000  98.3080000  50.4000000 130.0560000  96.9990000  50.8730000
 131.7570000  97.0410000  51.5950000 133.5850000 103.3700000  52.9000000
 131.1450000 102.4220000  52.9850000 132.7900000 101.1690000  48.4090000
 131.6460000 100.7750000  47.9450000 130.8800000 101.4800000  47.2820000
 131.3910000  99.2720000  48.1150000 130.4670000  99.1490000  48.7080000
 132.2640000  98.8210000  48.6710000 131.2670000  98.6050000  46.7540000
 130.2590000  98.8020000  46.2990000 131.3840000  97.5150000  46.9530000
 132.3880000  98.9610000  45.7410000 133.3670000  98.7470000  46.1530000
 132.4170000 100.0050000  45.4290000 131.9630000  98.0720000  44.5660000
 130.9460000  98.2960000  44.2380000 131.9760000  97.0080000  44.8910000
 132.8520000  98.2070000  43.3720000 133.8390000  97.9190000  43.7590000
 132.8930000  99.2610000  43.1250000 132.4950000  97.3750000  42.1170000
 131.4270000  97.5240000  41.9320000 132.5930000  96.2960000  42.2700000
 133.1620000  97.8580000  40.8080000 134.2700000  97.8760000  40.9180000
 132.8520000  98.8920000  40.5290000 132.9100000  96.9100000  39.6550000
 132.5080000  95.9370000  39.9160000 133.1190000  97.1970000  38.3310000
 132.9190000  96.4510000  37.5550000 133.6160000  98.4670000  37.7700000
 134.4380000  98.2540000  37.0710000 133.9680000  99.1200000  38.6050000
 132.5440000  99.2240000  37.1300000 131.8800000  99.5700000  37.8590000
 131.8390000  98.6030000  36.5240000 132.9590000 100.4620000  36.3050000
 133.7550000 100.1810000  35.6040000 133.3020000 101.1660000  37.0410000
 131.7290000 101.1430000  35.6540000 131.2240000 100.4950000  34.9350000
 132.1830000 101.8480000  35.0370000 130.5410000 101.5870000  36.5870000
 130.3200000 100.8060000  37.3460000 129.6620000 101.8980000  35.9130000
 130.9900000 102.8930000  37.3290000 131.7480000 102.5360000  38.0350000
 130.1670000 103.2990000  37.8490000 131.7470000 103.9970000  36.5290000
 131.1010000 104.3910000  35.6950000 132.7600000 103.6660000  36.1220000
 132.0630000 105.1840000  37.4630000 131.1200000 105.5660000  37.8570000
 132.6360000 105.9520000  37.0430000 132.7460000 104.7780000  38.2830000
 109.4800000  53.1800000  44.3290000 110.5750000  53.0580000  44.4270000
 109.1680000  54.1480000  44.1110000 109.1210000  52.5670000  43.5330000
 108.7130000  52.6810000  45.6010000 108.7740000  51.6640000  45.5540000
 109.1720000  53.1090000  46.4930000 107.2050000  52.9460000  45.5240000
 107.0540000  53.9940000  45.2720000 106.8020000  52.3580000  44.7040000
 106.4910000  52.5980000  46.7870000 106.8080000  51.6060000  47.0900000
 106.7710000  53.3820000  47.5700000 104.9700000  52.6990000  46.6700000
 104.7550000  53.7830000  46.4910000 104.6620000  52.0760000  45.8780000
 104.1760000  52.1410000  47.8890000 104.2600000  51.0800000  47.8580000
 104.5980000  52.5160000  48.8920000 102.6590000  52.3750000  47.8180000
 102.2650000  52.0580000  46.8170000 102.2080000  51.6170000  48.5640000
 102.2210000  53.8120000  48.0450000 102.5620000  54.3380000  47.1380000
 101.1230000  53.8520000  48.1480000 102.8260000  54.5720000  49.2490000
 102.3380000  54.1450000  50.1720000 103.8880000  54.4110000  49.3320000
 102.5830000  56.1270000  49.1540000 101.4990000  56.3240000  48.9610000
 102.9680000  56.7520000  50.0460000 103.5320000  56.7920000  48.0660000
 103.2330000  56.3920000  47.0710000 103.2510000  57.8620000  48.0600000
 105.0810000  56.7460000  48.2070000 105.1980000  57.1030000  49.2330000
 105.3330000  55.6920000  48.0430000 105.9340000  57.6640000  47.3020000
 105.4740000  57.7100000  46.2940000 105.8400000  58.6750000  47.6910000
 107.3830000  57.3000000  47.1640000 107.5060000  56.3350000  46.6750000
 107.8640000  58.0140000  46.5220000 108.2610000  57.4060000  48.4500000
 107.8010000  56.7790000  49.2220000 109.2270000  57.0730000  48.2350000
 108.4450000  58.8580000  48.9680000 109.5550000  59.3500000  48.8870000
 107.3530000  59.4160000  49.4840000 107.5440000  60.6640000  50.1700000
 108.4360000  60.7160000  50.7580000 107.6070000  61.5260000  49.5010000
 106.4230000  60.9520000  51.1790000 106.6920000  61.8800000  51.6720000
 106.3650000  59.8220000  52.2060000 105.5290000  59.9300000  52.8680000
 106.1960000  58.8340000  51.7860000 107.6390000  59.7330000  52.8820000
 107.9130000  58.6570000  54.0640000 107.0420000  59.2740000  55.2790000
 107.7650000  59.8680000  56.4130000 107.0310000  59.9910000  57.1590000
 108.4800000  59.1030000  56.7340000 108.3530000  61.2640000  56.0040000
 109.1040000  61.5110000  56.7490000 108.9390000  61.1750000  55.1220000
 107.5140000  62.4570000  55.7970000 106.6010000  62.7460000  56.9090000
 106.2020000  63.7490000  56.8770000 105.7990000  61.9880000  56.9160000
 107.1950000  62.6010000  57.7680000 108.3580000  63.6270000  55.5930000
 107.7330000  64.5110000  55.4390000 108.9970000  63.6970000  56.4510000
 109.0200000  63.4840000  54.7340000 106.6930000  62.3110000  54.6140000
 105.9660000  63.1590000  54.6600000 106.1010000  61.4130000  54.6000000
 107.4000000  62.3810000  53.7790000 107.3730000  57.3590000  53.7090000
 109.3420000  58.8780000  54.3580000 105.1390000  61.0700000  50.6600000
 104.6700000  62.1180000  50.0030000 105.4150000  63.0180000  49.5650000
 103.1760000  62.1530000  50.0340000 102.8850000  63.0170000  50.5730000
 102.8670000  61.2990000  50.5710000 102.6180000  62.1990000  48.6080000
 103.1980000  62.9650000  47.9800000 101.6110000  62.5700000  48.7320000
 102.5320000  60.8860000  47.8570000 102.0900000  60.1010000  48.5350000
 103.5350000  60.5720000  47.5500000 101.5940000  60.8870000  46.6020000
 102.0290000  61.6060000  45.9010000 100.5580000  61.2020000  46.8690000
 101.5130000  59.5400000  45.8760000 101.0660000  58.8250000  46.6030000
 102.5330000  59.2520000  45.6620000 100.7760000  59.6450000  44.5060000
 101.1840000  60.4270000  43.8640000  99.8320000  59.9910000  44.8120000
 100.6050000  58.3510000  43.5760000 100.2000000  58.7230000  42.5450000
  99.9110000  57.6720000  44.1090000 101.8860000  57.6010000  43.4220000
 102.6920000  58.2250000  43.0910000 101.9210000  56.2660000  43.3590000
 102.8090000  55.8090000  43.0640000 100.7090000  55.3750000  43.6360000
  99.8140000  55.9160000  43.3260000 100.6490000  55.1030000  44.7110000
 100.6240000  54.1100000  42.8350000 101.4720000  53.5250000  43.2100000
 100.8140000  54.2480000  41.7670000  99.3920000  53.1900000  43.0600000
  98.4310000  53.7900000  42.9780000  99.4830000  52.7760000  44.0530000
  99.4220000  52.0890000  41.9790000 100.4500000  51.7210000  41.9240000
  99.2520000  52.4050000  40.9080000  98.4150000  50.9410000  42.3200000
  97.4700000  51.2670000  42.2390000  98.6650000  50.6140000  43.2840000
  98.5100000  49.8400000  41.2390000  98.2030000  50.1730000  40.2770000
  97.6200000  49.1840000  41.4550000  99.8390000  49.1050000  41.0760000
  99.9830000  48.4950000  41.9600000 100.7130000  49.7900000  41.1490000
 100.1350000  48.3740000  39.7910000 101.1200000  47.9020000  39.9020000
 100.2770000  49.0650000  38.9280000  99.3200000  47.6500000  39.5120000
 146.5580000  96.2310000  37.4180000 145.6080000  96.0050000  37.0440000
 147.2440000  96.4320000  36.6220000 146.5410000  97.0750000  38.0420000
 147.1280000  95.0050000  38.1760000 146.6170000  94.8870000  39.1690000
 146.9270000  94.0830000  37.7090000 148.6510000  95.1240000  38.4670000
 148.9400000  96.1370000  38.7430000 148.9170000  94.5870000  39.3560000
 149.5160000  94.5730000  37.3720000 148.9480000  93.7390000  36.8690000
 149.6780000  95.4180000  36.7130000 150.9500000  93.9870000  37.7710000
 151.4750000  93.8110000  36.8230000 151.4730000  94.7190000  38.3600000
 150.7860000  92.6740000  38.5320000 150.1120000  92.8410000  39.3660000
 150.5840000  91.8130000  37.9440000 152.1960000  92.3330000  39.1100000
 152.9350000  92.1530000  38.3000000 152.5810000  93.1180000  39.7710000
 152.2320000  91.0580000  39.9410000 151.7090000  90.2430000  39.4470000
 153.3070000  90.7490000  40.1970000 151.4280000  91.4440000  41.2350000
 151.9610000  92.2340000  41.7860000 150.4120000  91.8380000  41.0450000
 151.2210000  90.1730000  42.1250000 150.9140000  89.3270000  41.4210000
 152.2090000  89.8690000  42.5430000 150.2600000  90.2920000  43.2400000
 150.6630000  90.9200000  44.0030000 149.3360000  90.7780000  42.9100000
 149.9860000  88.9220000  43.8780000 149.5410000  88.2390000  43.1580000
 150.9010000  88.3770000  44.1500000 149.0380000  88.9750000  45.1240000
 148.1310000  89.3220000  44.6560000 148.8830000  87.9630000  45.4180000
 149.3930000  89.8700000  46.3640000 150.4480000  89.6760000  46.6720000
 149.1920000  90.9280000  46.1280000 148.5510000  89.5970000  47.6620000
 148.4700000  88.4670000  47.8300000 149.0130000  90.0340000  48.5270000
 147.1330000  90.0740000  47.5310000 146.6430000  90.8290000  46.6880000
 146.3730000  89.6520000  48.5860000 145.2460000  90.5480000  48.9340000
 145.6910000  91.5410000  48.9860000 144.4700000  90.6670000  48.1180000
 144.5020000  90.1780000  50.2490000 143.6290000  90.8650000  50.4170000
 145.3900000  90.2800000  51.5020000 146.0780000  89.4620000  51.5250000
 146.0590000  91.1860000  51.4990000 144.7030000  90.3240000  52.7670000
 144.3090000  88.9210000  53.5340000 143.0360000  88.4450000  52.7610000
 141.7130000  88.9130000  53.1440000 141.6330000  89.2630000  54.1480000
 141.2900000  89.7290000  52.5140000 140.8250000  87.6450000  53.1190000
 139.8030000  87.9040000  53.4070000 140.6650000  87.4000000  52.0810000
 141.2860000  86.3700000  53.8250000 139.9880000  85.6990000  54.2020000
 139.3860000  85.7370000  53.2700000 140.2060000  84.6200000  54.3710000
 139.4870000  86.1950000  55.0560000 141.9350000  85.4650000  52.8360000
 142.2750000  84.6150000  53.3450000 141.1470000  85.0520000  52.1930000
 142.8490000  85.9990000  52.4260000 142.1080000  86.5380000  55.0580000
 141.6180000  87.0230000  55.8500000 142.9640000  87.0740000  54.7390000
 142.5230000  85.5380000  55.3360000 145.3550000  87.9390000  53.1810000
 143.9330000  89.1840000  54.9150000 143.9660000  88.8510000  50.2100000
 142.9850000  88.5150000  49.3630000 142.4610000  89.1670000  48.4440000
 142.5150000  87.0780000  49.6240000 141.4530000  86.9660000  49.7690000
 142.9590000  86.7640000  50.5760000 142.9910000  86.2040000  48.4480000
 142.2410000  86.3250000  47.7220000 143.1370000  85.1900000  48.7910000
 144.2420000  86.6700000  47.6380000 145.1870000  86.5940000  48.1700000
 144.1110000  87.7570000  47.3270000 144.5090000  85.8710000  46.4030000
 143.6010000  85.8710000  45.7860000 144.6560000  84.8280000  46.7680000
 145.7370000  86.3570000  45.5690000 145.8500000  85.6140000  44.7830000
 146.6460000  86.3000000  46.1650000 145.6480000  87.7130000  44.9140000
 146.5200000  87.8240000  44.2650000 145.7040000  88.4620000  45.7140000
 144.4620000  87.9370000  44.0370000 144.3100000  87.0020000  43.4510000
 144.6950000  88.7230000  43.2370000 143.1250000  88.2360000  44.7340000
 142.9320000  87.7700000  45.7040000 142.0950000  88.9720000  44.3610000
 141.2160000  89.0820000  44.9450000 142.0700000  89.7480000  43.1070000
 142.9200000  90.4300000  43.0310000 141.2230000  90.4080000  43.1310000
 142.0450000  88.8460000  41.8330000 141.0330000  88.5360000  41.7210000
 142.6220000  87.9690000  42.0720000 142.5660000  89.5170000  40.5860000
 143.4630000  90.1000000  40.8020000 141.7250000  90.2180000  40.3440000
 142.9880000  88.5490000  39.4780000 142.1220000  88.0190000  39.2680000
 143.7210000  87.8320000  39.8700000 143.5310000  89.2180000  38.1990000
 144.1920000  89.9910000  38.5290000 142.6540000  89.6550000  37.7000000
 144.3430000  88.2200000  37.2350000 143.7010000  87.4100000  36.8500000
 145.1840000  87.8970000  37.8420000 144.9440000  88.8880000  35.9970000
 145.5840000  89.7600000  36.1720000 144.1070000  89.4050000  35.4840000
 145.4740000  88.0140000  34.9010000 146.3660000  87.4370000  35.2410000
 145.8400000  88.6020000  34.0660000 144.7430000  87.2450000  34.6330000
  34.0670000   8.7470000  34.6190000  33.5180000   8.7110000  33.6650000
  34.0810000   7.7910000  35.1010000  35.0910000   9.0920000  34.4280000
  33.2680000   9.6710000  35.5700000  33.8150000   9.8380000  36.4670000
  33.1470000  10.6430000  35.0240000  31.8810000   9.1560000  35.8810000
  31.2320000   9.3700000  35.1030000  32.0040000   8.0620000  36.0210000
  31.2060000   9.8200000  37.1350000  30.1320000   9.5750000  37.1690000
  31.6480000   9.3990000  38.1010000  31.2230000  11.3590000  37.1810000
  32.2330000  11.6400000  37.5370000  31.1020000  11.6270000  36.1140000
  30.1220000  12.0140000  38.0350000  30.2740000  13.1070000  38.0990000
  29.1810000  11.8100000  37.4620000  29.9220000  11.5640000  39.4900000
  29.0130000  12.0430000  39.8220000  29.6440000  10.4850000  39.5000000
  31.0330000  11.6440000  40.5130000  31.6820000  10.7950000  40.1150000
  31.5520000  12.6150000  40.4010000  30.6100000  11.5530000  42.0710000
  30.3320000  10.5410000  42.3780000  31.4630000  11.7980000  42.6590000
  29.4460000  12.4640000  42.4860000  28.4880000  12.2480000  42.0140000
  29.3200000  12.2700000  43.5220000  29.5790000  13.9800000  42.3460000
  29.6030000  14.2110000  41.2720000  28.6940000  14.4650000  42.7430000
  30.7850000  14.6620000  43.0000000  30.8660000  14.1190000  43.9750000
  31.6610000  14.3550000  42.4090000  30.6580000  16.1550000  43.0830000
  30.7470000  16.6030000  42.0820000  29.6100000  16.4070000  43.3940000
  31.5890000  16.9290000  44.1090000  32.5930000  16.8900000  43.7300000
  31.2380000  17.9830000  44.2310000  31.5180000  16.3920000  45.5660000
  31.5990000  15.2670000  45.6970000  32.3470000  16.7360000  46.1560000
  30.3120000  16.9030000  46.3450000  30.0310000  18.0010000  46.5450000
  29.4920000  15.8340000  46.6710000  28.4640000  16.1470000  47.6230000
  28.1290000  15.2400000  48.2550000  28.8370000  16.8270000  48.4300000
  27.1970000  16.6800000  46.8840000  27.3450000  17.4880000  46.1000000
  26.1460000  17.1510000  47.8820000  25.1910000  17.4020000  47.4280000
  25.9940000  16.3650000  48.5530000  26.4660000  18.3330000  48.5840000
  26.6350000  18.3920000  50.1510000  25.3310000  17.7530000  50.7160000
  24.0400000  18.3350000  50.5900000  23.9810000  19.3570000  50.9300000
  23.6000000  18.2520000  49.6500000  23.1660000  17.4620000  51.4580000
  22.1620000  17.5860000  51.2610000  23.4130000  16.4660000  51.3450000
  23.1570000  17.5670000  52.9730000  21.9590000  16.8700000  53.4510000
  22.0160000  15.8070000  53.1410000  21.7050000  17.1360000  54.4300000
  21.0580000  17.2110000  52.9150000  24.3170000  16.7530000  53.4990000
  25.2380000  17.2950000  53.0780000  24.1830000  16.7020000  54.6030000
  24.1800000  15.7790000  53.0440000  23.2840000  18.9780000  53.5570000
  22.2600000  19.5130000  53.3830000  24.1130000  19.5210000  53.1120000
  23.5410000  19.0030000  54.6460000  27.7150000  17.4620000  50.4810000
  26.7390000  19.7730000  50.5470000  26.5300000  15.6160000  46.2290000
  26.4880000  15.4840000  44.8900000  27.0720000  16.2000000  44.1400000
  25.4380000  14.5120000  44.4360000  24.5090000  15.0620000  44.2290000
  25.2690000  13.8570000  45.2780000  25.9800000  13.6960000  43.2550000
  26.6460000  12.9500000  43.6010000  26.5680000  14.3140000  42.5830000
  24.8270000  12.9120000  42.4620000  24.0080000  13.6340000  42.4470000
  24.4300000  12.0110000  43.0070000  25.1790000  12.5930000  40.9760000
  24.4470000  11.9180000  40.6080000  26.1230000  12.0970000  40.9790000
  25.1890000  13.7470000  39.9710000  25.6460000  14.6850000  40.3790000
  24.1170000  13.9700000  39.7540000  25.8650000  13.4020000  38.5990000
  26.9240000  13.3890000  38.7820000  25.7400000  14.2660000  37.9030000
  25.4140000  12.1030000  37.9710000  24.3550000  12.1230000  37.9330000
  25.6890000  11.2700000  38.6120000  26.0850000  11.9630000  36.6380000
  26.1300000  12.8930000  36.0460000  26.6800000  10.8370000  36.1610000
  27.2930000  10.9010000  35.2870000  26.8220000   9.4700000  36.8500000
  26.1960000   9.4750000  37.7960000  27.8730000   9.1910000  37.0590000
  26.1920000   8.4780000  35.9440000  26.6970000   8.4410000  35.0080000
  25.2290000   8.8360000  35.6990000  26.2220000   7.1010000  36.7650000
  25.4210000   6.4820000  36.4750000  26.1210000   7.2490000  37.8140000
  27.5540000   6.4060000  36.6410000  28.3290000   7.1430000  37.0410000
  27.6830000   6.3680000  35.5430000  27.7290000   5.0690000  37.4680000
  26.9310000   4.4460000  37.0920000  27.6390000   5.2590000  38.5260000
  29.0300000   4.3510000  37.0230000  29.8980000   4.9390000  37.1190000
  28.9570000   4.2360000  35.9380000  29.3290000   3.0460000  37.8060000
  28.5890000   2.2360000  37.6130000  29.1990000   3.3280000  38.8430000
  30.7290000   2.3880000  37.5940000  31.3350000   3.2400000  37.8960000
  30.9670000   2.1400000  36.5070000  30.8730000   1.5930000  38.2750000
 107.3980000  24.8860000  36.9500000 107.4730000  25.8950000  37.3080000
 107.1320000  24.1270000  37.7040000 106.4530000  24.9350000  36.4080000
 108.4800000  24.3750000  35.9590000 109.5330000  24.5040000  36.3720000
 108.2640000  23.3320000  35.6970000 108.5320000  25.2280000  34.6360000
 108.9890000  24.6290000  33.9010000 107.5320000  25.3320000  34.3200000
 109.2740000  26.5680000  34.6640000 109.4290000  26.7480000  33.6170000
 108.6040000  27.3130000  35.0620000 110.6430000  26.5860000  35.4750000
 110.4540000  26.3130000  36.4970000 111.2120000  25.7880000  35.1390000
 111.5980000  27.8320000  35.3630000 111.5160000  28.1920000  34.3020000
 111.1530000  28.5560000  36.0460000 113.0390000  27.4660000  35.7870000
 113.2610000  26.5310000  35.3710000 113.6390000  28.2300000  35.4200000
 113.3480000  27.5590000  37.2730000 113.1780000  28.5830000  37.4450000
 112.5950000  26.8910000  37.8190000 114.7630000  27.0980000  37.5900000
 114.7100000  25.9850000  37.4530000 115.4930000  27.3980000  36.8980000
 115.1220000  27.4330000  39.0630000 114.5690000  26.7960000  39.6980000
 116.1400000  27.0130000  39.1450000 115.0150000  28.9290000  39.5350000
 115.5660000  29.5480000  38.8570000 114.0020000  29.2870000  39.5740000
 115.6640000  29.1530000  40.9520000 116.7620000  28.8740000  40.8220000
 115.7510000  30.2410000  41.3260000 115.0050000  28.3090000  42.0770000
 115.0700000  27.2170000  41.8990000 115.5250000  28.4800000  42.9940000
 113.4750000  28.5340000  42.1930000 113.0200000  28.1140000  41.3340000
 113.0630000  27.9310000  43.0330000 112.9800000  29.9840000  42.4670000
 113.7040000  30.7560000  42.1150000 112.0460000  30.0630000  41.9600000
 112.8110000  30.1030000  43.9810000 111.7180000  30.1570000  44.5390000
 113.9670000  30.0380000  44.6650000 113.9890000  30.1710000  46.0900000
 115.0290000  30.3180000  46.3910000 113.4250000  31.0860000  46.2890000
 113.5390000  28.9110000  46.8340000 112.5440000  28.6460000  46.3150000
 113.2990000  29.1520000  48.2890000 112.8230000  30.1870000  48.3590000
 112.4890000  28.5060000  48.6850000 114.4730000  29.1130000  49.1580000
 114.7950000  27.9660000  50.1990000 115.4100000  26.7940000  49.4220000
 116.8320000  26.5650000  49.4140000 117.0140000  26.0110000  48.4980000
 117.4120000  27.5090000  49.3630000 117.2120000  25.6780000  50.6680000
 118.1950000  25.2180000  50.6310000 117.1430000  26.3810000  51.5080000
 116.4500000  24.3870000  50.9740000 116.4400000  23.5220000  49.8160000
 115.6780000  22.7690000  50.0290000 116.3410000  24.0980000  48.8850000
 117.3560000  22.9930000  49.8040000 117.1200000  23.7920000  52.1720000
 116.5480000  22.7940000  52.4220000 118.0810000  23.5950000  51.7730000
 117.0860000  24.4340000  53.0820000 115.0740000  24.7150000  51.3940000
 115.1580000  25.5060000  52.2180000 114.6550000  23.7590000  51.7080000
 114.5380000  25.1990000  50.5610000 115.8140000  28.3970000  51.1700000
 113.5130000  27.5710000  50.7110000 114.5070000  27.8490000  46.6030000
 114.0870000  26.5540000  46.5490000 112.9470000  26.2800000  46.7190000
 115.1950000  25.6020000  46.1260000 115.5130000  25.0250000  46.9790000
 116.0300000  26.1550000  45.7020000 114.7780000  24.5690000  45.1500000
 113.8590000  24.0590000  45.3590000 115.5880000  23.8550000  45.0430000
 114.5710000  25.0960000  43.7050000 115.5160000  25.4910000  43.3410000
 113.8520000  25.9140000  43.8640000 113.9030000  24.0690000  42.7820000
 112.9110000  23.8260000  43.1840000 114.4650000  23.1370000  42.8360000
 113.6750000  24.6510000  41.3770000 114.6640000  24.9230000  40.9230000
 113.1000000  25.6030000  41.5220000 112.9050000  23.7150000  40.4140000
 111.9820000  23.4330000  40.8800000 113.5210000  22.8240000  40.2960000
 112.5100000  24.2790000  39.0550000 113.3900000  24.7370000  38.5500000
 111.7520000  25.0700000  39.2600000 111.7990000  23.3080000  38.2210000
 110.9010000  22.9660000  38.6710000 112.0840000  22.8350000  36.9770000
 111.3530000  22.1090000  36.5320000 113.3670000  23.1130000  36.2620000
 114.1920000  23.0980000  36.9700000 113.2790000  24.0590000  35.7680000
 113.7160000  22.0480000  35.1780000 112.9430000  22.0750000  34.4170000
 113.8200000  21.1160000  35.5110000 115.1170000  22.3830000  34.5330000
 115.9030000  22.2190000  35.2480000 115.1260000  23.4070000  34.2290000
 115.2290000  21.5270000  33.2390000 114.4280000  21.7650000  32.5700000
 115.0770000  20.4770000  33.5420000 116.5400000  21.7160000  32.5090000
 117.3050000  21.3820000  33.2110000 116.7200000  22.7520000  32.3290000
 116.6410000  20.9190000  31.1860000 115.8500000  21.2250000  30.4980000
 116.5940000  19.8720000  31.4670000 117.9740000  21.0450000  30.4860000
 118.8090000  20.6600000  31.1420000 118.1990000  22.0860000  30.2710000
 117.8710000  20.1610000  29.1890000 117.2740000  20.6050000  28.4000000
 117.4310000  19.1510000  29.2790000 118.8320000  20.1570000  28.6560000
  48.6570000  47.1570000  45.8700000  48.3740000  47.7960000  45.0730000
  47.9350000  47.3490000  46.5890000  48.6540000  46.1340000  45.5000000
  50.0600000  47.4680000  46.1710000  50.1030000  48.3790000  46.7060000
  50.4660000  46.6640000  46.8090000  50.9860000  47.7190000  44.9450000
  50.6170000  48.5380000  44.3150000  51.8970000  48.1800000  45.3290000
  51.0750000  46.5200000  44.0140000  51.3560000  45.5990000  44.5450000
  50.1050000  46.3020000  43.5990000  52.1280000  46.6970000  42.9310000
  52.9460000  47.3330000  43.2760000  52.3210000  45.6470000  42.7220000
  51.5210000  47.3280000  41.6350000  51.0550000  46.4650000  41.2140000
  50.7350000  48.0120000  41.9720000  52.6000000  47.8580000  40.6510000
  53.0870000  46.9480000  40.2690000  52.1380000  48.4000000  39.7670000
  53.6050000  48.8530000  41.2660000  54.2870000  48.2350000  41.8320000
  54.2020000  49.3980000  40.5090000  52.9110000  49.9090000  42.1640000
  52.2120000  50.4610000  41.4880000  52.3200000  49.5090000  43.0360000
  53.8930000  50.9110000  42.7340000  54.7920000  50.3480000  43.0360000
  54.2240000  51.5590000  41.9070000  53.3280000  51.8430000  43.7780000
  54.0910000  52.6130000  43.9030000  52.2990000  52.2440000  43.5370000
  53.2230000  51.0900000  45.1440000  52.4270000  50.2940000  45.1130000
  54.1020000  50.5720000  45.4410000  52.7720000  52.0970000  46.1760000
  53.6320000  52.8340000  46.1780000  51.8510000  52.6020000  45.8670000
  52.6040000  51.6130000  47.6630000  53.4750000  51.1070000  47.9900000
  52.3900000  52.3870000  48.4090000  51.4910000  50.5390000  47.7900000
  51.6400000  49.7580000  47.0390000  51.6280000  50.0760000  48.7600000
  50.1860000  51.0700000  47.6210000  49.4640000  50.9460000  46.6340000
  49.6930000  51.4780000  48.8240000  48.3080000  51.8320000  48.9220000
  48.2780000  52.6360000  49.6850000  48.0540000  52.2400000  47.9540000
  47.3100000  50.6650000  49.1860000  47.1970000  50.1040000  48.3130000
  45.9400000  51.3420000  49.5410000  45.5890000  52.0740000  48.7210000
  45.1980000  50.4740000  49.7340000  46.0490000  52.1360000  50.7720000
  45.6030000  51.5360000  52.2210000  46.7160000  52.1810000  53.0890000
  47.8830000  51.5360000  53.5790000  48.1090000  51.8970000  54.6280000
  47.6640000  50.4340000  53.6780000  49.0810000  51.6420000  52.6530000
  49.8660000  50.9540000  52.8350000  48.7630000  51.4300000  51.6550000
  49.8240000  52.9990000  52.6310000  51.1060000  53.0490000  51.8240000
  51.4500000  54.0890000  52.0080000  51.8050000  52.2460000  52.1650000
  50.8820000  52.9380000  50.7490000  48.9760000  53.9980000  52.0000000
  49.0050000  53.7790000  50.9090000  47.9810000  53.7560000  52.4070000
  49.3710000  54.9780000  52.2830000  50.1210000  53.5400000  54.0190000
  50.6090000  52.6620000  54.4410000  49.2000000  53.8220000  54.5620000
  50.7250000  54.4360000  54.0020000  44.2830000  52.1260000  52.6080000
  45.7050000  50.0510000  52.2900000  47.7180000  49.8060000  50.2570000
  47.0970000  48.5890000  50.3150000  46.4090000  48.0990000  49.4420000
  47.5470000  47.7570000  51.5070000  46.6340000  47.2880000  51.9240000
  47.9150000  48.4420000  52.2400000  48.6160000  46.6480000  51.1550000
  48.1420000  45.8940000  50.4680000  49.0040000  46.0420000  52.0240000
  49.8260000  47.4070000  50.5760000  50.2830000  48.0100000  51.3050000
  49.5440000  47.9990000  49.7680000  50.9030000  46.4190000  50.0680000
  50.4070000  45.7550000  49.3880000  51.1550000  45.7620000  50.8980000
  52.1950000  47.0720000  49.4950000  52.5210000  47.7260000  50.2790000
  51.8620000  47.7710000  48.6760000  53.4720000  46.2860000  48.9990000
  53.8190000  45.6870000  49.8960000  54.2770000  47.0040000  48.6780000
  53.2830000  45.2150000  47.8700000  54.2780000  44.6860000  47.7450000
  52.8540000  45.7880000  47.0300000  52.4380000  44.1620000  48.5880000
  52.6280000  44.0260000  49.6500000  51.3250000  43.5960000  48.1580000
  50.7950000  43.0700000  48.9200000  50.8110000  43.6510000  46.6840000
  51.6080000  43.9230000  45.9600000  49.9430000  44.3530000  46.7130000
  50.2080000  42.2820000  46.3270000  49.4670000  42.0210000  47.0750000
  51.0380000  41.6120000  46.4650000  49.6730000  42.1510000  44.8830000
  48.7530000  42.8080000  44.8600000  49.2000000  41.1830000  44.7580000
  50.6120000  42.5000000  43.7470000  51.4760000  41.8180000  43.8190000
  51.0020000  43.5010000  43.8790000  49.9450000  42.4130000  42.4480000
  48.8750000  42.5560000  42.5230000  50.1670000  41.4130000  42.0490000
  50.5160000  43.5220000  41.5140000  51.6250000  43.5150000  41.4140000
  50.2940000  44.5620000  41.8290000  49.8290000  43.3160000  40.1330000
  48.8080000  43.6430000  40.3250000  49.8850000  42.3220000  39.7180000
  50.3650000  44.2940000  39.0540000  49.7410000  44.4090000  38.1450000
  51.3190000  44.0550000  38.7650000  50.4870000  45.2560000  39.5740000
  45.5250000 132.0750000  40.2870000  46.4230000 132.6100000  40.7870000
  45.4870000 132.4270000  39.3060000  45.7910000 131.0310000  40.2190000
  44.3320000 132.3070000  41.1230000  43.8960000 133.2410000  40.7900000
  43.5910000 131.5400000  40.9430000  44.5810000 132.2390000  42.6560000
  45.1300000 131.3320000  42.9380000  45.2650000 133.0270000  42.8400000
  43.4300000 132.2750000  43.7470000  42.7500000 133.1560000  43.6150000
  42.8180000 131.3870000  43.7900000  43.8600000 132.4420000  45.2130000
  44.6140000 131.7690000  45.4480000  44.3050000 133.4010000  45.2580000
  42.8070000 132.6130000  46.3450000  42.0350000 131.8990000  46.0730000
  43.3150000 132.4220000  47.2890000  42.1090000 133.9620000  46.3360000
  42.8710000 134.7260000  46.3610000  41.5750000 134.0830000  45.4100000
  41.1230000 134.1780000  47.4820000  41.6100000 134.0670000  48.3970000
  40.7960000 135.1970000  47.4600000  39.9020000 133.1800000  47.4460000
  39.3570000 133.3100000  46.5070000  40.3720000 132.1880000  47.5030000
  38.8810000 133.2530000  48.5950000  38.3400000 134.2230000  48.5700000
  38.0220000 132.5520000  48.5250000  39.6470000 133.1810000  49.9300000
  40.3690000 133.9670000  50.0490000  38.8440000 133.2300000  50.6750000
  40.5060000 131.8760000  50.2190000  39.8530000 131.0060000  50.0440000
  41.1950000 131.9140000  49.4450000  41.1990000 131.7630000  51.5240000
  41.6370000 132.6900000  51.8920000  40.5950000 131.4440000  52.3470000
  42.4330000 130.8630000  51.4150000  43.0190000 131.2470000  50.6240000
  43.0650000 130.8190000  52.3240000  42.1790000 129.3880000  51.1410000
  41.8390000 129.0970000  50.1660000  43.1650000 128.8580000  51.1920000
  41.3400000 128.7610000  52.2410000  41.7160000 127.8180000  52.9460000
  40.1030000 129.3040000  52.3590000  39.0810000 128.6270000  53.1700000
  38.2080000 128.6000000  52.5000000  39.4460000 127.6000000  53.3020000
  38.9230000 129.3900000  54.4650000  38.3110000 128.9350000  55.2290000
  38.3650000 130.8070000  54.3390000  38.9420000 131.4480000  55.0290000
  38.4200000 131.2500000  53.2980000  36.9850000 130.7670000  54.7260000
  35.8990000 130.0840000  53.8560000  36.0720000 130.8240000  52.4400000
  34.9160000 131.4310000  51.7520000  35.2430000 131.6050000  50.7440000
  34.1080000 130.6970000  51.6680000  34.5570000 132.7680000  52.4800000
  33.5810000 133.0930000  52.2630000  34.6200000 132.6920000  53.5880000
  35.4300000 133.9350000  52.2790000  35.2380000 134.4370000  50.9330000
  36.0370000 135.2950000  50.8750000  35.2160000 133.7170000  50.2240000
  34.2050000 134.8390000  50.9380000  35.0890000 135.0100000  53.3120000
  35.3600000 134.6500000  54.3310000  35.6320000 135.9230000  53.0860000
  34.0230000 135.1010000  53.3360000  36.7790000 133.5230000  52.5670000
  37.4120000 134.3290000  52.7040000  37.1760000 132.9620000  51.7310000
  36.7700000 132.8850000  53.4290000  36.2120000 128.6530000  53.5980000
  34.5670000 130.4760000  54.4020000  40.1970000 129.6330000  55.1050000
  40.9260000 128.6930000  55.6900000  40.6230000 127.5170000  55.7630000
  42.1710000 129.2940000  56.3170000  42.3350000 128.8120000  57.2470000
  41.9890000 130.3730000  56.6160000  43.4030000 129.0340000  55.4330000
  43.1920000 129.4270000  54.4140000  43.5730000 127.9770000  55.2780000
  44.7290000 129.6140000  55.9880000  44.7860000 129.5060000  57.0440000
  44.7120000 130.6470000  55.6940000  46.0270000 128.9860000  55.5240000
  45.8610000 127.9240000  55.7090000  46.8620000 129.2810000  56.2000000
  46.2950000 129.2130000  54.0350000  46.0040000 130.2470000  53.7650000
  45.6900000 128.4810000  53.5360000  47.7370000 128.8790000  53.5990000
  48.0500000 127.7760000  53.9730000  48.4560000 129.5290000  54.0930000
  47.8180000 128.8830000  52.0780000  48.7890000 128.6720000  51.7630000
  47.6360000 129.8900000  51.7580000  47.0810000 127.7650000  51.3380000
  46.5200000 126.9840000  51.9870000  46.7860000 127.7990000  50.0540000
  46.0340000 127.1180000  49.6150000  47.5800000 128.6680000  49.0360000
  47.9600000 128.0100000  48.2430000  48.4390000 129.2160000  49.4800000
  46.5570000 129.6620000  48.4320000  46.1950000 130.2760000  49.2070000
  45.6820000 129.1650000  48.1100000  47.0940000 130.6740000  47.3610000
  48.0030000 131.3520000  47.6000000  46.2900000 131.4250000  47.0530000
  47.3600000 129.9150000  46.0260000  46.5110000 129.2760000  45.8300000
  48.2500000 129.3150000  46.2030000  47.4610000 130.8750000  44.7890000
  48.2730000 131.5790000  44.9050000  46.5170000 131.3960000  44.5330000
  47.7740000 130.0530000  43.5040000  47.8720000 130.8020000  42.6610000
  46.9040000 129.4080000  43.3590000  49.0790000 129.2010000  43.4830000
  49.1440000 128.6290000  44.3980000  49.9500000 129.8120000  43.4200000
  48.9540000 128.1970000  42.3660000  48.2750000 127.4910000  42.7630000
  49.9090000 127.7440000  42.1550000  48.5780000 128.6700000  41.4620000
 102.5310000 122.4430000  37.5730000 102.8410000 123.5250000  37.6580000
 102.6820000 121.8560000  38.4900000 101.3920000 122.4250000  37.4910000
 103.1660000 121.6600000  36.3800000 102.5670000 120.7730000  36.3070000
 103.0010000 122.2140000  35.4420000 104.6790000 121.4950000  36.4920000
 105.1490000 121.2270000  35.5220000 105.0780000 122.4950000  36.6350000
 105.1140000 120.5850000  37.7070000 104.8540000 120.8820000  38.7190000
 104.5810000 119.6290000  37.4530000 106.6320000 120.2110000  37.7740000
 106.7620000 119.4720000  38.5710000 106.8810000 119.7400000  36.7650000
 107.5530000 121.4000000  37.9640000 107.3300000 122.0770000  37.1900000
 107.1880000 121.9500000  38.8450000 109.0560000 121.1100000  37.8600000
 109.2460000 120.5740000  36.9610000 109.6990000 121.9760000  37.8660000
 109.4840000 120.3020000  39.1060000 108.8530000 119.4310000  39.3490000
 110.5490000 119.9780000  39.0670000 109.5410000 121.2190000  40.3200000
 110.2110000 121.9770000  40.1100000 108.5470000 121.5650000  40.5470000
 110.1520000 120.6470000  41.6240000 110.8340000 119.9080000  41.2350000
 110.7120000 121.4550000  42.1550000 109.1990000 119.9080000  42.4750000
 108.5600000 119.2750000  41.8140000 109.8510000 119.3490000  43.1890000
 108.1980000 120.7840000  43.3350000 107.5510000 121.4220000  42.7020000
 107.5980000 120.0360000  43.8200000 108.8900000 121.6050000  44.4030000
 109.6720000 120.9270000  44.7860000 109.3090000 122.4360000  43.8930000
 107.9800000 122.1310000  45.5980000 107.1570000 122.7330000  45.1230000
 107.6230000 121.2430000  46.1590000 108.7170000 123.0660000  46.5560000
 109.6510000 122.5970000  46.8750000 108.8790000 124.0040000  45.9940000
 107.7650000 123.3630000  47.7360000 106.9140000 124.2200000  47.7240000
 108.0470000 122.6010000  48.8040000 107.2690000 122.8630000  50.0090000
 107.8740000 122.3950000  50.8200000 107.1780000 123.9530000  50.2030000
 105.8150000 122.2980000  49.9810000 105.0680000 123.1330000  50.0260000
 105.4980000 121.4390000  51.3140000 105.9280000 121.8470000  52.1370000
 104.4850000 121.2500000  51.4540000 106.0080000 120.0840000  51.0800000
 106.1230000 118.9930000  52.2960000 107.5790000 119.1380000  52.8710000
 108.6810000 118.5260000  52.1190000 109.4730000 118.5530000  52.8690000
 108.4200000 117.5360000  51.8440000 108.9800000 119.3790000  50.8430000
 108.0920000 119.9260000  50.5700000 109.8920000 119.9430000  50.9760000
 109.1310000 118.6530000  49.4920000 107.8250000 118.0960000  49.1750000
 107.9170000 117.3910000  48.3450000 107.2120000 117.7120000  50.0190000
 107.1700000 118.9270000  48.9750000 109.5060000 119.6310000  48.4630000
 109.7500000 119.1330000  47.5040000 108.6160000 120.2990000  48.2630000
 110.2890000 120.2120000  48.8890000 110.1750000 117.5780000  49.5930000
 111.1080000 117.9000000  50.1030000 110.4360000 117.2350000  48.5940000
 109.8850000 116.7290000  50.1970000 105.2510000 119.3540000  53.3970000
 106.0030000 117.6050000  51.7340000 105.7310000 121.3810000  48.8580000
 104.5590000 120.9140000  48.4450000 103.5160000 121.2040000  49.0190000
 104.6110000 119.8690000  47.3770000 103.7350000 119.2320000  47.3900000
 105.5110000 119.2610000  47.5230000 104.6670000 120.5470000  45.9810000
 105.6540000 121.0170000  45.8440000 103.9300000 121.2890000  46.0020000
 104.3810000 119.6300000  44.8170000 103.4540000 119.1540000  45.0940000
 105.1870000 118.7920000  44.8040000 104.3210000 120.2830000  43.3850000
 105.2740000 120.6480000  43.1750000 103.6520000 121.1060000  43.5790000
 103.8530000 119.4240000  42.2270000 104.6340000 118.6230000  42.0380000
 104.0410000 120.0060000  41.3150000 102.3850000 119.0310000  42.3430000
 102.1670000 118.8260000  43.4150000 102.3260000 118.1550000  41.8120000
 101.3200000 120.0190000  41.8900000 100.2630000 119.7130000  42.0360000
 101.3980000 119.9430000  40.8000000 101.3510000 121.4670000  42.3530000
 101.8620000 121.6860000  43.2940000 100.7270000 122.3970000  41.6810000
 100.7380000 123.3890000  42.1140000  99.9430000 122.1890000  40.4160000
 100.4330000 121.4150000  39.7980000  99.9630000 123.1570000  39.8130000
  98.4820000 121.8550000  40.7060000  98.1840000 122.5560000  41.5120000
  98.3190000 120.8640000  41.1440000  97.7320000 121.8630000  39.3720000
  98.1210000 121.0340000  38.7570000  98.0160000 122.7240000  38.8100000
  96.2090000 121.6450000  39.2600000  95.7080000 122.1780000  40.0740000
  96.1660000 120.5900000  39.3660000  95.6660000 121.9350000  37.8390000
  95.8530000 122.9950000  37.6960000  94.5740000 121.8130000  37.9050000
  96.3390000 121.1750000  36.6360000  97.3180000 121.6910000  36.4240000
  95.7640000 121.4520000  35.7570000  96.3780000 119.5760000  36.6400000
  96.9060000 119.1580000  37.5440000  96.9050000 119.1430000  35.8040000
  94.9240000 119.0270000  36.8110000  94.5180000 119.6020000  37.6030000
  95.0030000 118.0310000  37.2330000  94.2800000 119.0240000  35.8870000
 112.0940000  68.4150000  34.8310000 112.9940000  67.8340000  34.9010000
 112.4130000  69.3990000  34.5240000 111.4390000  67.9900000  33.9660000
 111.2240000  68.4410000  36.1790000 110.2250000  68.8310000  36.0600000
 111.0980000  67.4030000  36.5430000 112.0100000  69.1410000  37.2190000
 112.9280000  68.6120000  37.3450000 112.1950000  70.1160000  36.8190000
 111.2290000  69.2970000  38.5130000 110.2200000  69.7020000  38.3800000
 111.2310000  68.3320000  39.0600000 112.0500000  70.2210000  39.5130000
 113.0030000  69.7790000  39.7740000 112.2500000  71.1420000  38.9950000
 111.0970000  70.6410000  40.7040000 110.4020000  71.3970000  40.3020000
 110.3840000  69.8100000  40.9230000 111.8100000  71.0900000  42.0030000
 112.4810000  70.3490000  42.3860000 112.4030000  72.0230000  41.6970000
 110.8280000  71.6950000  43.0750000 111.4090000  72.2640000  43.7560000
 110.1180000  72.3840000  42.6210000 110.0600000  70.5640000  43.7640000
 109.6680000  69.9890000  43.0200000 110.7140000  69.8560000  44.3330000
 108.9050000  71.0970000  44.5830000 109.3390000  71.8320000  45.1340000
 108.2200000  71.6140000  43.8390000 108.2310000  70.0640000  45.4760000
 107.9050000  69.2170000  44.9000000 108.9690000  69.7050000  46.2310000
 106.9960000  70.6090000  46.2680000 106.4070000  71.3670000  45.6760000
 106.3630000  69.7380000  46.5760000 107.3230000  71.3690000  47.5720000
 108.2340000  70.9950000  47.9370000 107.5380000  72.4460000  47.4380000
 106.2030000  71.2110000  48.7140000 105.3270000  71.7800000  48.3570000
 106.0350000  70.2180000  48.9000000 106.5830000  71.9810000  49.9630000
 106.8400000  73.0050000  49.6490000 105.7600000  71.9460000  50.6860000
 107.7240000  71.3040000  50.6930000 107.6340000  70.1410000  51.1240000
 108.8320000  72.0030000  50.7140000 109.8230000  71.7080000  51.8200000
 110.4350000  72.5520000  51.9510000 109.2630000  71.5000000  52.7100000
 110.7070000  70.4620000  51.4360000 110.0110000  69.6100000  51.3400000
 111.7570000  70.1220000  52.4770000 111.2050000  69.3070000  53.0810000
 112.6350000  69.5880000  52.0410000 112.2010000  71.1710000  53.3250000
 111.5780000  71.4810000  54.7690000 112.7900000  71.5840000  55.6780000
 113.3360000  72.8950000  55.9140000 113.2540000  73.5200000  54.9730000
 112.7420000  73.3110000  56.7560000 114.8440000  72.8680000  56.1640000
 115.0870000  73.9090000  56.3950000 115.0220000  72.2870000  57.0790000
 115.7530000  72.3780000  55.0730000 115.7530000  70.8890000  55.1670000
 114.6990000  70.6250000  55.0360000 116.4420000  70.4750000  54.4170000
 116.1560000  70.5740000  56.1480000 115.3020000  72.6990000  53.6840000
 114.3230000  72.1780000  53.4510000 115.2510000  73.8230000  53.6690000
 116.0580000  72.4760000  52.9250000 117.0780000  73.0340000  55.4060000
 117.4110000  72.9110000  56.4230000 117.0180000  74.0710000  55.1080000
 117.8100000  72.6140000  54.8090000 110.8610000  72.7840000  54.7300000
 110.8740000  70.2990000  55.2010000 111.4680000  70.6290000  50.2350000
 111.2400000  69.9050000  49.1340000 110.2470000  69.2230000  49.0100000
 112.2730000  69.9310000  48.0230000 113.3120000  70.1790000  48.4600000
 112.0740000  70.7380000  47.3090000 112.4110000  68.5450000  47.4460000
 111.5610000  68.1650000  46.9730000 112.8690000  67.8380000  48.1720000
 113.4070000  68.5830000  46.2830000 114.4290000  68.6770000  46.6570000
 113.3290000  69.4240000  45.7010000 113.5700000  67.2910000  45.4910000
 113.6030000  66.4300000  46.1140000 114.5020000  67.2920000  44.8530000
 112.4820000  67.1710000  44.5090000 112.3320000  68.0660000  44.0370000
 111.5820000  67.0380000  45.0580000 112.6190000  65.8870000  43.6140000
 113.4040000  65.2670000  43.9400000 112.9340000  66.2920000  42.6120000
 111.3010000  65.1440000  43.4870000 110.5390000  65.8450000  43.2580000
 110.9930000  64.7710000  44.4620000 111.1890000  64.0240000  42.5200000
 111.7410000  63.1100000  42.9190000 110.2240000  63.9350000  41.5540000
 110.0000000  62.9890000  40.9900000 109.5030000  65.1130000  40.9680000
 109.7410000  65.1780000  39.8810000 109.8950000  66.0430000  41.4300000
 107.9550000  65.0500000  41.2080000 107.7180000  65.0390000  42.2360000
 107.5720000  64.1440000  40.7670000 107.1580000  66.1700000  40.4190000
 107.2590000  65.9590000  39.3170000 107.7140000  67.0540000  40.5750000
 105.6320000  66.2070000  40.7720000 105.5960000  66.3450000  41.8860000
 105.1830000  65.2600000  40.6690000 104.7170000  67.1340000  39.9490000
 103.6970000  67.1670000  40.3490000 104.6660000  66.6180000  38.9560000
 105.3570000  68.5360000  39.7020000 104.8060000  69.0680000  38.9810000
 106.3860000  68.5560000  39.3320000 105.4900000  69.3580000  40.9310000
 106.0580000  68.9710000  41.7510000 104.5130000  69.5000000  41.3100000
 106.0070000  70.7630000  40.6250000 105.5690000  71.1120000  39.7620000
 107.1630000  70.7030000  40.5600000 105.7830000  71.5210000  41.4090000
  88.5510000 143.4840000  38.9910000  89.0310000 144.3900000  39.4490000
  87.7370000 143.8480000  38.4070000  89.3440000 143.1660000  38.3350000
  88.1770000 142.4930000  40.1550000  87.2770000 142.9630000  40.7020000
  87.8710000 141.4910000  39.6780000  89.2650000 142.2480000  41.2690000
  89.2080000 141.2410000  41.7890000  90.2080000 142.3370000  40.7810000
  89.2100000 143.3600000  42.3800000  89.5250000 144.3320000  41.9390000
  88.1880000 143.4200000  42.6900000  90.0480000 142.8660000  43.5850000
  89.8460000 141.8600000  43.8140000  91.1140000 142.9700000  43.2480000
  89.7700000 143.8490000  44.7740000  90.1710000 144.8540000  44.5180000
  88.6650000 143.9640000  44.8220000  90.3900000 143.4110000  46.1630000
  91.4800000 143.6580000  46.0610000  90.0910000 144.1650000  46.9110000
  90.0730000 141.9500000  46.5860000  90.4360000 141.2440000  45.8610000
  90.4670000 141.7650000  47.5640000  88.5790000 141.6190000  46.6520000
  88.0240000 142.2210000  47.3540000  88.1100000 141.8540000  45.7260000
  88.3400000 140.0890000  46.9780000  88.5490000 139.9230000  48.0120000
  87.2390000 139.8720000  46.8280000  89.0960000 139.0060000  46.1700000
  89.0890000 139.2630000  45.1230000  90.1930000 139.0200000  46.5480000
  88.5910000 137.5450000  46.3660000  88.2830000 137.5220000  47.3710000
  87.7620000 137.3760000  45.7220000  89.7390000 136.4930000  46.1540000
  90.2920000 136.8150000  45.2340000  90.2850000 136.4830000  47.0120000
  89.1880000 135.0580000  45.9680000  88.5090000 135.0330000  45.1200000
  89.9760000 134.3260000  45.8060000  88.4090000 134.4450000  47.1510000
  87.5750000 134.9940000  47.5100000  88.1100000 133.4640000  46.7700000
  89.3050000 134.1860000  48.3000000  89.9630000 133.1570000  48.3610000
  89.3280000 135.2030000  49.1840000  90.1780000 135.0650000  50.3290000
  89.5230000 134.6980000  51.1180000  91.0430000 134.4120000  50.1240000
  90.9010000 136.4030000  50.6740000  91.6950000 136.1130000  51.4440000
  89.9210000 137.3800000  51.2380000  90.0800000 138.3780000  50.7700000
  88.9000000 137.0120000  51.0930000  90.2740000 137.5000000  52.6560000
  89.5940000 138.6450000  53.6060000  90.3690000 140.0380000  53.1340000
  91.7310000 140.3050000  53.5320000  91.7380000 140.9110000  54.4250000
  92.1260000 139.3090000  53.8320000  92.3600000 140.9570000  52.3360000
  92.1450000 140.3590000  51.4790000  91.8450000 141.9120000  52.1440000
  93.7770000 141.3850000  52.4050000  94.6470000 140.1520000  52.3530000
  95.6810000 140.5310000  52.6020000  94.3120000 139.3220000  53.0270000
  94.4990000 139.6860000  51.3620000  94.0970000 142.2250000  51.2540000
  93.8880000 141.6880000  50.3260000  93.4220000 143.1030000  51.3420000
  95.1760000 142.4630000  51.2550000  94.1530000 142.2300000  53.5900000
  95.2110000 142.1930000  53.7640000  93.7820000 141.7210000  54.4340000
  93.7140000 143.2300000  53.6070000  88.2560000 138.8800000  53.1800000
  89.9150000 138.4430000  55.0360000  91.4950000 137.0470000  49.4830000
  92.6560000 137.7330000  49.6990000  93.0260000 138.0400000  50.8470000
  93.5340000 138.0890000  48.5410000  93.0580000 137.8630000  47.6030000
  94.3710000 137.4240000  48.5780000  94.0280000 139.5300000  48.5070000
  94.6280000 139.7980000  49.4040000  93.1750000 140.2450000  48.5860000
  94.7200000 139.8450000  47.1460000  95.5510000 139.1450000  47.0730000
  95.0790000 140.8570000  47.1330000  93.8270000 139.9060000  45.8740000
  92.9630000 140.5990000  45.9860000  93.3760000 138.9250000  45.7640000
  94.5800000 140.2750000  44.6060000  95.2640000 139.4640000  44.4170000
  95.1980000 141.1110000  44.7230000  93.5590000 140.3400000  43.4050000
  92.7190000 140.9480000  43.6190000  93.1420000 139.4000000  43.2350000
  94.1510000 140.9850000  42.1530000  94.9790000 140.4660000  41.6920000
  94.4280000 141.9240000  42.4000000  93.0640000 140.7710000  41.0380000
  92.4540000 139.8750000  41.1840000  92.7960000 141.5380000  40.0240000
  92.1600000 141.1760000  39.2710000  93.4910000 142.8360000  39.6040000
  94.2630000 142.9280000  40.3200000  92.8380000 143.7430000  39.7860000
  94.0280000 142.7680000  38.1660000  93.2960000 142.2810000  37.5690000
  94.9700000 142.1610000  38.0590000  94.2690000 144.2640000  37.6440000
  93.4290000 144.9090000  37.8490000  94.3800000 144.1890000  36.5820000
  95.5560000 144.8500000  38.1480000  96.4750000 144.3280000  37.8160000
  95.6320000 144.8800000  39.2430000  95.7250000 146.2610000  37.5430000
  95.8410000 146.1950000  36.5140000  96.7300000 146.6740000  37.9820000
  94.5070000 147.2440000  37.8070000  93.5600000 146.7960000  37.4930000
  94.5980000 148.1990000  37.2510000  94.1460000 147.8540000  39.1870000
  93.3930000 148.5770000  39.0790000  95.0580000 148.4080000  39.4610000
  93.6840000 146.8490000  40.2650000  92.6050000 147.0450000  40.4670000
  94.3060000 146.9280000  41.0930000  93.9110000 145.8250000  40.0070000
 106.4370000 108.3380000  38.7390000 107.0820000 109.1980000  38.4560000
 106.4620000 107.7360000  37.8060000 106.9010000 107.7870000  39.4680000
 105.0200000 108.7150000  39.1870000 104.5860000 109.3530000  38.3930000
 104.4060000 107.7940000  39.2290000 104.9670000 109.4470000  40.5620000
 103.9800000 109.4100000  41.0110000 105.6500000 108.9050000  41.2260000
 105.3430000 110.9490000  40.4310000 106.4630000 110.9260000  40.0760000
 104.6610000 111.4670000  39.7200000 105.1200000 111.6490000  41.7600000
 105.3830000 112.7410000  41.5970000 104.0450000 111.6530000  42.0790000
 106.0760000 111.1300000  42.9310000 105.9650000 110.0440000  42.9990000
 107.1890000 111.4440000  42.6860000 105.7440000 111.8050000  44.3020000
 106.1460000 112.8030000  44.1540000 104.6780000 111.9240000  44.3100000
 106.4640000 111.1710000  45.5010000 107.5480000 111.0890000  45.3320000
 106.3750000 111.9330000  46.2880000 105.7080000 109.8930000  45.8240000
 104.6310000 110.1440000  45.8460000 105.9000000 109.1590000  45.1120000
 106.0710000 109.3770000  47.1610000 105.6740000 110.0820000  47.9570000
 105.5780000 108.4420000  47.3570000 107.5980000 109.0420000  47.2760000
 108.0750000 108.8800000  46.2640000 108.1390000 109.9330000  47.6220000
 107.8710000 107.8150000  48.1820000 107.5540000 108.1640000  49.2350000
 107.0850000 107.1430000  47.9890000 109.2570000 107.2420000  48.2650000
 109.6410000 107.0490000  47.2630000 109.9600000 107.9820000  48.6980000
 109.3640000 105.9440000  49.1300000 108.9560000 105.1610000  48.4960000
 110.3800000 105.7180000  49.5150000 108.5760000 105.8320000  50.4660000
 107.4860000 106.1270000  50.2070000 108.6900000 104.7370000  50.8320000
 109.1460000 106.7450000  51.5860000 109.8740000 106.2380000  52.4340000
 108.7760000 108.0000000  51.5260000 109.5270000 108.9380000  52.3830000
 109.2220000 108.8910000  53.4350000 110.6210000 108.8410000  52.2300000
 109.1300000 110.3540000  51.8970000 109.3570000 110.4050000  50.7900000
 109.8070000 111.5340000  52.5340000 109.3560000 112.5220000  52.2900000
 109.7460000 111.4890000  53.6310000 111.2390000 111.5670000  52.1180000
 112.3900000 111.5810000  53.2000000 112.0760000 113.0630000  53.8580000
 113.1580000 113.8390000  54.4190000 112.7040000 114.6770000  54.9870000
 113.7770000 113.2090000  55.0590000 113.9310000 114.4150000  53.2460000
 114.7430000 115.0550000  53.6760000 114.4840000 113.6880000  52.6750000
 113.2490000 115.3040000  52.2390000 112.4010000 114.4870000  51.3210000
 111.8420000 115.1680000  50.6380000 113.1160000 113.8490000  50.8380000
 111.6040000 113.9690000  51.9070000 112.3370000 116.2440000  53.0180000
 112.9030000 116.6120000  53.8110000 111.9680000 117.0710000  52.3700000
 111.5420000 115.5910000  53.3050000 114.2870000 115.9880000  51.5220000
 114.7110000 116.7820000  52.1370000 113.8570000 116.3390000  50.6070000
 115.0600000 115.2060000  51.2930000 112.1410000 110.5660000  54.2320000
 113.6750000 111.5780000  52.4980000 107.6950000 110.5600000  52.0310000
 106.9400000 110.8070000  50.9250000 107.3660000 110.5920000  49.8480000
 105.5700000 111.5320000  51.1030000 105.2890000 111.5850000  52.2390000
 104.8820000 110.8530000  50.6780000 105.4690000 113.0230000  50.7470000
 105.9430000 113.5910000  51.5040000 104.4890000 113.3830000  50.8690000
 106.0580000 113.3810000  49.3890000 105.5500000 114.2720000  49.0310000
 105.6790000 112.5870000  48.7340000 107.5910000 113.6250000  49.4570000
 108.0850000 113.2570000  50.4270000 107.7900000 114.7540000  49.6060000
 108.5190000 113.1960000  48.2840000 108.2390000 113.6930000  47.4090000
 108.3500000 112.1570000  48.1030000 110.0070000 113.4790000  48.4960000
 110.3550000 113.1040000  49.4730000 110.1710000 114.5630000  48.3860000
 110.8430000 112.8140000  47.3380000 111.8990000 113.2280000  47.3470000
 110.4070000 113.3340000  46.4750000 110.6880000 111.3080000  47.3040000
 110.8390000 110.9160000  48.3160000 110.5080000 110.5350000  46.2540000
 110.4440000 109.4590000  46.4310000 110.4100000 111.0300000  44.8440000
 109.8980000 111.9450000  44.7470000 109.7570000 110.2820000  44.3500000
 111.7650000 111.0440000  44.0860000 112.0780000 109.9990000  43.9390000
 112.5840000 111.5450000  44.6750000 111.6370000 111.7170000  42.7180000
 112.6740000 111.7440000  42.3500000 111.3720000 112.7610000  42.8980000
 110.8360000 111.1930000  41.5980000 109.7440000 111.2610000  41.9240000
 111.1290000 110.1630000  41.4060000 110.8380000 112.0050000  40.2010000
 111.8790000 112.0400000  39.8340000 110.4370000 113.0540000  40.2380000
 110.0640000 111.1840000  39.1760000 109.0600000 111.1460000  39.3790000
 110.4430000 110.1260000  39.2750000 110.3990000 111.6170000  37.7140000
 111.4810000 111.5550000  37.5010000 110.1140000 112.6280000  37.6700000
 109.4810000 110.9470000  36.6620000 109.3670000 109.9020000  36.8520000
 109.8710000 111.0650000  35.6990000 108.3960000 111.3010000  36.9150000
  12.0260000 107.1640000  35.9550000  13.0370000 107.6290000  36.0540000
  11.3430000 107.6480000  35.2130000  12.3020000 106.1380000  35.6110000
  11.5590000 107.1910000  37.4380000  11.5140000 108.2340000  37.8320000
  10.6210000 106.6380000  37.5030000  12.6350000 106.4750000  38.2210000
  13.0400000 105.6630000  37.5970000  13.4310000 107.1820000  38.3820000
  12.2070000 106.1140000  39.6520000  12.0450000 107.0490000  40.1190000
  11.2730000 105.5810000  39.6040000  13.3390000 105.3790000  40.4000000
  13.4590000 104.3630000  39.9780000  14.2450000 105.9710000  40.3870000
  12.9640000 105.1780000  41.8780000  13.1660000 106.0270000  42.4920000
  11.8930000 105.1470000  42.0760000  13.6670000 104.0420000  42.4850000
  13.0600000 103.7320000  43.4060000  13.5800000 103.2020000  41.7850000
  15.1920000 104.2990000  42.9500000  15.2050000 104.9550000  43.8360000
  15.4890000 103.3460000  43.4330000  16.2240000 104.6580000  41.8470000
  16.1050000 104.2090000  40.8740000  16.1280000 105.7320000  41.7240000
  17.6150000 104.3720000  42.4240000  17.8020000 103.3780000  42.5610000
  18.3760000 104.6910000  41.6860000  17.9650000 104.9150000  43.8200000
  18.0260000 105.9790000  43.9190000  17.2760000 104.6500000  44.5790000
  19.2820000 104.4240000  44.4960000  19.2020000 103.3000000  44.5490000
  20.1350000 104.6190000  43.9050000  19.3380000 105.0640000  45.8400000
  19.4280000 106.1280000  45.5450000  18.3620000 105.0240000  46.3110000
  20.6300000 104.5770000  46.5880000  21.5570000 104.7730000  46.0790000
  20.6480000 105.0330000  47.5410000  20.6980000 103.0430000  46.9060000
  20.6290000 102.4320000  45.9710000  21.6220000 102.8300000  47.4760000
  19.6270000 102.6540000  47.9090000  19.7990000 102.7490000  49.1270000
  18.4460000 102.3610000  47.3130000  17.2830000 102.1890000  48.1530000
  16.4640000 101.7680000  47.4570000  17.4870000 101.6110000  48.9600000
  16.8320000 103.5330000  48.7280000  17.6860000 104.0820000  49.0090000
  15.8250000 103.2580000  49.8500000  15.3980000 104.2170000  50.1600000
  15.0960000 102.5830000  49.3910000  16.5650000 102.6300000  51.0280000
  15.7530000 102.2880000  52.3650000  15.6500000 103.7890000  53.0310000
  16.6940000 104.3410000  53.7550000  16.3410000 104.9560000  54.6470000
  17.2110000 103.4900000  54.2990000  17.7190000 105.0710000  52.8750000
  18.6380000 104.9700000  53.3820000  17.7610000 104.4950000  51.9880000
  17.4940000 106.4980000  52.5330000  17.5880000 107.3790000  53.7170000
  18.6860000 107.6450000  53.9400000  17.1490000 108.3200000  53.4180000
  17.1150000 107.0060000  54.6010000  18.4920000 106.9300000  51.5490000
  19.5430000 106.7740000  51.7790000  18.2590000 106.4170000  50.6210000
  18.3840000 108.0090000  51.4420000  16.1570000 106.7270000  51.8980000
  15.4230000 106.4530000  52.6340000  16.2070000 106.1860000  50.9930000
  15.9680000 107.8790000  51.7830000  14.4400000 101.8960000  51.9590000
  16.5150000 101.4050000  53.2570000  16.2850000 104.3740000  47.6520000
  16.2490000 105.7450000  47.8620000  16.5630000 106.2390000  48.9530000
  15.6920000 106.5850000  46.6720000  15.0920000 105.8850000  46.0670000
  16.5030000 106.8270000  45.9590000  14.9110000 107.8400000  47.1660000
  15.5950000 108.5150000  47.6130000  14.1230000 107.5290000  47.8510000
  14.2360000 108.7050000  46.0250000  15.0970000 109.0790000  45.3430000
  13.6530000 109.4990000  46.5010000  13.1400000 107.8580000  45.2900000
  12.7780000 107.0430000  45.9190000  13.8140000 107.3800000  44.5720000
  12.1090000 108.8070000  44.5610000  12.6880000 109.3480000  43.8420000
  11.5650000 109.4550000  45.2200000  11.0070000 108.0050000  43.7830000
  10.3550000 107.3330000  44.4280000  11.4490000 107.4030000  43.0450000
  10.1140000 108.9740000  42.9390000  10.7470000 109.2850000  42.0940000
   9.7680000 109.8280000  43.6040000   8.7590000 108.4430000  42.4820000
   8.1030000 108.1900000  43.3560000   8.2530000 108.3440000  41.2420000
   7.1820000 108.0410000  41.1970000   8.8880000 108.9000000  39.9960000
   9.4090000 108.0690000  39.4790000   9.7160000 109.5860000  40.2430000
   7.7960000 109.5510000  39.0830000   7.3970000 110.3410000  39.7020000
   6.9960000 108.9000000  38.8980000   8.3290000 110.3080000  37.9210000
   9.3980000 110.4370000  38.0760000   7.8060000 111.2730000  37.8970000
   8.2020000 109.6270000  36.5070000   7.1670000 109.6800000  36.2240000
   8.5160000 108.5790000  36.6620000   8.9930000 110.2310000  35.3230000
  10.0340000 110.2320000  35.5780000   8.6670000 111.2960000  35.2160000
   8.6930000 109.5250000  34.0320000   7.6510000 109.9010000  33.7750000
   8.5000000 108.4750000  34.2060000   9.4960000 109.7600000  32.6970000
   9.6310000 110.8630000  32.4580000   9.0420000 109.2810000  31.8270000
  10.9150000 109.1290000  32.7520000  11.4970000 109.3020000  31.8900000
  10.7070000 108.0870000  32.7590000  11.4790000 109.4230000  33.6270000
 120.5620000  87.0800000  34.3520000 121.3180000  87.8450000  34.5490000
 119.9710000  87.3250000  33.4920000 121.0380000  86.1290000  34.1770000
 119.6760000  86.8230000  35.5730000 118.8360000  86.1310000  35.3550000
 120.2220000  86.4090000  36.3820000 119.0480000  88.1560000  36.1840000
 119.7900000  88.7880000  36.6030000 118.6520000  88.8100000  35.3880000
 117.9580000  87.9120000  37.1860000 117.6830000  88.8780000  37.5430000
 117.1360000  87.5620000  36.6100000 118.4010000  87.0310000  38.3830000
 117.5250000  86.8310000  38.9920000 118.6990000  85.9970000  38.0240000
 119.4050000  87.6660000  39.3320000 120.2440000  88.0290000  38.7800000
 118.8890000  88.5300000  39.6970000 119.8120000  86.7210000  40.4530000
 118.8790000  86.2060000  40.7390000 120.5770000  85.9850000  40.1650000
 120.5010000  87.4770000  41.6300000 119.7000000  87.9090000  42.2540000
 120.8720000  86.6880000  42.2790000 121.5290000  88.4900000  41.1410000
 122.2260000  88.0650000  40.4360000 120.9710000  89.2560000  40.5660000
 122.2840000  89.2530000  42.2590000 121.6450000  90.0500000  42.8010000
 122.6250000  88.3950000  42.9030000 123.4710000  90.0330000  41.7780000
 123.8530000  89.9570000  40.7260000 123.2470000  91.0340000  41.9500000
 124.6890000  89.7190000  42.6480000 124.7870000  88.5950000  42.7820000
 125.5860000  90.0880000  42.1350000 124.6170000  90.6150000  43.8590000
 124.9290000  91.5740000  43.4480000 123.5510000  90.7300000  44.2200000
 125.6020000  90.2430000  44.9220000 126.5720000  90.1000000  44.3970000
 125.7750000  91.1210000  45.5080000 125.2460000  89.0960000  45.8870000
 124.9200000  88.2050000  45.4520000 126.1380000  88.8680000  46.4740000
 124.2680000  89.5750000  46.9330000 124.4160000  90.6250000  47.4850000
 123.3650000  88.5900000  47.2360000 122.2700000  89.0300000  48.1290000
 121.8640000  88.1100000  48.4400000 122.6300000  89.5110000  48.9860000
 121.1320000  89.8750000  47.4600000 121.6500000  90.6730000  46.9620000
 120.2280000  90.4940000  48.6000000 120.8750000  91.1370000  49.2820000
 119.5300000  91.2350000  48.2150000 119.4400000  89.4790000  49.2550000
 117.8850000  89.4630000  49.2000000 117.4090000  90.5210000  50.2690000
 117.7890000  91.9170000  50.3750000 117.2430000  92.3330000  51.1990000
 118.8200000  91.9610000  50.5890000 117.5740000  92.6510000  49.0340000
 118.0350000  93.6400000  49.2490000 118.1470000  92.1800000  48.2900000
 116.2490000  92.9350000  48.4730000 116.3380000  93.0830000  46.9480000
 115.2760000  93.3130000  46.7000000 116.9520000  93.9410000  46.6650000
 116.7740000  92.1700000  46.5830000 115.2520000  91.8280000  48.7440000
 114.9440000  91.9090000  49.7690000 114.4190000  92.1510000  48.1460000
 115.5570000  90.7450000  48.4620000 115.6770000  94.1440000  49.0200000
 116.3710000  94.8950000  48.7320000 115.6150000  93.9520000  50.0990000
 114.6910000  94.2910000  48.5350000 117.4290000  89.9160000  47.9030000
 117.4920000  88.1600000  49.6950000 120.3340000  89.1310000  46.4990000
 119.4970000  89.8550000  45.7580000 119.5340000  91.0680000  45.6000000
 118.4340000  88.9820000  45.2030000 117.9760000  88.4970000  46.0820000
 118.8640000  88.1620000  44.6110000 117.2160000  89.7360000  44.5620000
 117.0510000  90.6560000  45.1210000 116.3460000  89.1810000  44.7830000
 117.3810000  89.9330000  43.0660000 116.4880000  90.4710000  42.7510000
 117.3390000  89.0460000  42.5140000 118.5750000  90.7270000  42.5090000
 119.3660000  90.0380000  42.3170000 118.9430000  91.4070000  43.3300000
 118.2600000  91.5330000  41.2660000 117.5290000  92.2720000  41.5000000
 117.8140000  90.8000000  40.5050000 119.4520000  92.3840000  40.7260000
 120.4240000  91.8590000  40.7420000 119.6050000  93.2950000  41.2940000
 119.2050000  92.9460000  39.3420000 119.9430000  93.7380000  39.1080000
 118.1950000  93.3010000  39.3320000 119.1940000  91.8640000  38.2510000
 118.4060000  91.1170000  38.2710000 119.9590000  91.7960000  37.2380000
 119.7530000  91.0110000  36.5090000 121.1570000  92.6950000  37.0760000
 120.9000000  93.7720000  37.2070000 121.6140000  92.6820000  36.1070000
 122.3060000  92.1860000  38.0210000 121.8730000  92.3540000  39.0140000
 123.1970000  92.8500000  38.0050000 122.6290000  90.6700000  37.9910000
 121.7570000  90.0880000  38.0740000 123.3270000  90.4790000  38.7900000
 123.4300000  90.2010000  36.7290000 124.2220000  90.9340000  36.5540000
 122.8300000  90.2160000  35.8290000 124.2400000  88.9120000  36.8330000
 124.9280000  89.0970000  37.7160000 124.8100000  88.7790000  35.9190000
 123.4610000  87.6470000  36.9450000 122.7870000  87.4300000  36.1310000
 122.8460000  87.7770000  37.8550000 124.2710000  86.3110000  37.1800000
 125.1890000  86.6870000  37.6720000 124.5400000  85.8170000  36.2120000
 123.4760000  85.2740000  37.9610000 123.8210000  84.2890000  37.8490000
 122.4580000  85.3560000  37.5490000 123.5040000  85.5380000  39.0070000
   5.1950000  81.3030000  37.9290000   4.9210000  80.3910000  38.5010000
   6.2860000  81.1710000  37.7460000   4.6920000  81.4460000  37.0460000
   5.1160000  82.4860000  38.8490000   5.6130000  83.3250000  38.3110000
   4.0920000  82.7440000  39.0860000   5.9580000  82.3310000  40.0910000
   5.5430000  81.6410000  40.7500000   6.9470000  81.9260000  39.7030000
   6.0510000  83.6770000  40.8140000   6.5480000  84.3840000  40.1430000
   5.0430000  84.1270000  40.9690000   6.8960000  83.6460000  42.1840000
   6.5320000  83.0540000  42.9690000   6.9010000  84.7080000  42.5110000
   8.4000000  83.2960000  41.8280000   8.5230000  82.4340000  41.2090000
   8.7720000  84.1530000  41.1660000   9.4890000  83.2150000  42.9230000
   9.3090000  82.4110000  43.6500000  10.4400000  83.0200000  42.4720000
   9.5310000  84.5250000  43.7990000  10.0570000  85.2890000  43.3100000
   8.5230000  84.9250000  43.9810000  10.1100000  84.2890000  45.2060000
   9.9510000  83.2660000  45.6520000  11.2110000  84.3820000  45.2260000
   9.4230000  85.3630000  46.1910000   9.4070000  86.3450000  45.7500000
   8.3880000  85.0400000  46.4380000  10.1680000  85.2690000  47.5770000
  10.2340000  84.1620000  47.9190000  11.1570000  85.6350000  47.3820000
   9.6840000  86.0320000  48.8950000   8.7080000  85.5520000  49.1250000
  10.3600000  85.9350000  49.7370000   9.5850000  87.5410000  48.7140000
   9.0970000  87.5970000  47.7160000   8.8660000  87.9200000  49.4500000
  10.9410000  88.3150000  48.7280000  11.7070000  87.7120000  48.1600000
  10.8460000  89.2070000  48.1260000  11.3600000  88.6640000  50.1870000
  11.0880000  87.9460000  50.8340000  12.4200000  88.7680000  50.2360000
  10.6980000  89.9310000  50.5970000  11.2160000  91.0140000  50.3150000
   9.6040000  89.7430000  51.3630000   9.0440000  90.9840000  51.8960000
   8.6920000  90.6840000  52.8910000   9.7230000  91.7640000  52.1440000
   7.9190000  91.5280000  51.0310000   7.4990000  92.4070000  51.4000000
   6.7100000  90.5610000  51.0030000   6.1280000  90.9180000  50.1560000
   7.1350000  89.5770000  50.8310000   5.8940000  90.7580000  52.1860000
   5.9850000  89.6630000  53.3190000   4.5060000  89.6980000  53.7940000
   3.3750000  89.1940000  52.9820000   2.5270000  89.6660000  53.4300000
   3.6500000  89.5160000  51.9190000   3.2460000  87.6480000  53.0910000
   2.3970000  87.2090000  52.6160000   4.0740000  87.2840000  52.5230000
   3.3120000  86.9740000  54.4670000   2.3480000  85.7590000  54.4960000
   2.5670000  85.0570000  53.6550000   2.5000000  85.3010000  55.3980000
   1.2780000  86.1090000  54.4460000   4.6700000  86.5630000  54.8410000
   4.8840000  85.6800000  54.2920000   5.3570000  87.3340000  54.6390000
   4.6440000  86.3300000  55.9040000   2.7410000  87.8510000  55.5030000
   3.2430000  88.7620000  55.5970000   2.8960000  87.3770000  56.4860000
   1.7020000  88.0510000  55.3010000   6.2750000  88.3290000  52.6880000
   6.9490000  90.1220000  54.3550000   8.2930000  91.6510000  49.6170000
   8.7240000  92.8660000  49.2310000   8.8200000  93.9050000  49.9190000
   9.0000000  92.8270000  47.6820000   9.1000000  93.7940000  47.3910000
   8.1520000  92.3700000  47.2240000  10.2210000  92.0780000  47.2340000
  10.1720000  91.0490000  47.4810000  11.0970000  92.5510000  47.7690000
  10.3880000  92.2450000  45.7250000  10.4590000  93.2790000  45.5470000
   9.4720000  91.8290000  45.3150000  11.6910000  91.5640000  45.1180000
  11.5390000  90.4660000  45.2560000  12.5230000  91.9180000  45.7250000
  11.8920000  91.8570000  43.5690000  10.9920000  91.8620000  42.9770000
  12.5530000  91.0680000  43.2340000  12.4950000  93.2010000  43.1500000
  13.2760000  93.4840000  43.8430000  11.6920000  93.9640000  43.2190000
  13.0060000  93.2200000  41.6730000  12.0890000  92.9840000  41.0800000
  13.8130000  92.5280000  41.5120000  13.5280000  94.4980000  41.3260000
  14.5230000  94.8380000  41.6320000  12.8960000  95.3780000  40.5630000
  13.4170000  96.3640000  40.5520000  11.5840000  95.2320000  39.7740000
  10.9190000  96.0920000  39.9810000  11.0450000  94.3100000  40.0350000
  11.8410000  95.1730000  38.2500000  12.6960000  94.5700000  38.0000000
  11.8600000  96.1950000  37.9580000  10.6330000  94.6410000  37.4120000
   9.7740000  95.2420000  37.5960000  10.5070000  93.5990000  37.4750000
  10.9670000  94.7990000  35.9180000  11.9290000  94.3660000  35.6840000
  11.2220000  95.8520000  35.8490000   9.8700000  94.2400000  34.9990000
   9.8370000  93.2260000  35.0980000  10.3240000  94.3080000  33.9540000
   8.5080000  94.7970000  35.1970000   8.2670000  94.5240000  36.2150000
   7.7450000  94.2500000  34.6410000   8.3280000  96.2750000  34.8300000
   9.1650000  96.8600000  35.3970000   7.3180000  96.6100000  35.1880000
   8.4240000  96.5940000  33.2640000   8.3940000  97.6640000  33.1260000
   7.5700000  96.1950000  32.6420000   9.3150000  96.2110000  32.8650000
  49.2910000  38.0150000  38.1990000  50.0410000  38.6920000  37.8880000
  48.5330000  38.5960000  38.6920000  48.9200000  37.3120000  37.4590000
  49.9960000  37.1510000  39.2970000  50.9400000  37.6650000  39.3890000
  49.3450000  37.1650000  40.1540000  50.2900000  35.7190000  38.8850000
  50.7330000  35.6940000  37.9230000  50.9800000  35.3330000  39.6830000
  49.0440000  34.7530000  38.8410000  48.1490000  35.1070000  39.4680000
  48.6010000  34.8680000  37.8270000  49.4000000  33.2890000  39.2470000
  49.7890000  32.7840000  38.3570000  50.1680000  33.2750000  39.9250000
  48.0690000  32.6620000  39.7910000  47.2420000  32.8820000  39.1260000
  48.2480000  31.5500000  39.7300000  47.6390000  32.8920000  41.2360000
  47.3980000  33.9690000  41.3570000  46.7440000  32.2390000  41.3710000
  48.7630000  32.6570000  42.2880000  49.0000000  31.5570000  42.1830000
  49.7130000  33.2350000  42.1250000  48.3790000  32.9490000  43.7820000
  47.4330000  32.5550000  44.0310000  49.0900000  32.4970000  44.4380000
  48.3550000  34.4890000  44.1140000  47.3770000  34.9270000  43.7970000
  48.2800000  34.4290000  45.1500000  49.5710000  35.3970000  43.6880000
  49.7520000  35.2770000  42.6050000  49.3530000  36.4090000  43.7690000
  50.8340000  35.0400000  44.4470000  51.0810000  34.0560000  44.0760000
  51.5750000  35.7420000  44.0970000  50.7120000  35.2000000  46.0170000
  50.0930000  35.9950000  46.2620000  50.1300000  34.3020000  46.3590000
  52.0200000  35.2630000  46.8770000  52.7930000  35.8950000  46.4660000
  51.7190000  35.5550000  47.8510000  52.6390000  33.8100000  47.0400000
  52.6420000  33.2890000  46.1000000  53.6460000  33.6930000  47.3540000
  51.7470000  33.0170000  48.0000000  51.8530000  33.1330000  49.2300000
  50.8880000  32.1620000  47.4490000  49.9610000  31.3860000  48.3320000
  50.4640000  30.5680000  48.6830000  49.6470000  32.0310000  49.2040000
  48.6360000  30.9560000  47.6350000  48.0380000  30.4100000  48.3530000
  48.9540000  30.2110000  46.3380000  48.2230000  30.4280000  45.5220000
  50.0340000  30.3750000  46.0720000  48.7020000  28.7670000  46.5590000
  49.6940000  27.9090000  47.4280000  49.0030000  28.0200000  48.8450000
  47.7960000  27.3110000  49.1060000  47.3630000  27.7170000  49.9480000
  47.1730000  27.2100000  48.1830000  48.2310000  25.8730000  49.5570000
  48.6750000  25.3880000  48.8050000  49.0480000  26.0190000  50.2860000
  47.2490000  24.8350000  50.1110000  46.4010000  25.4550000  51.2060000
  45.7220000  24.6150000  51.4880000  46.9790000  25.8320000  52.0880000
  45.7610000  26.2230000  50.6840000  46.4470000  24.4170000  48.9890000
  47.2100000  24.0190000  48.2440000  45.7300000  23.6730000  49.3160000
  45.9230000  25.3160000  48.7260000  47.9410000  23.7250000  50.6770000
  48.3190000  22.9910000  49.9110000  47.2190000  23.1700000  51.2450000
  48.7220000  24.1240000  51.3120000  49.6390000  26.4570000  47.1290000
  51.0560000  28.5180000  47.5140000  47.9030000  32.1730000  47.3140000
  47.0750000  32.6840000  48.2760000  46.7810000  32.1330000  49.3370000
  46.6740000  34.0650000  47.8500000  46.1720000  34.0010000  46.8810000
  47.5250000  34.6860000  47.6680000  45.7610000  34.7640000  48.8690000
  46.2110000  34.6200000  49.8370000  44.7210000  34.2960000  48.9170000
  45.6440000  36.2620000  48.5520000  45.3030000  36.3680000  47.5730000
  46.6520000  36.7940000  48.5820000  44.7480000  37.0400000  49.5470000
  45.2830000  37.0080000  50.5180000  43.8590000  36.4230000  49.6460000
  44.4460000  38.4870000  49.1530000  43.8170000  38.8630000  49.9240000
  43.8630000  38.4960000  48.2530000  45.6480000  39.4100000  49.1000000
  46.5600000  38.8410000  49.2700000  45.5760000  40.2710000  49.8060000
  45.7320000  40.0720000  47.7690000  46.6400000  40.7270000  47.8300000
  44.8270000  40.7140000  47.6820000  45.8270000  39.0490000  46.6390000
  46.5570000  38.3620000  46.8380000  44.9980000  38.9410000  45.6320000
  44.9860000  38.1160000  45.0000000  44.1300000  40.0360000  45.0870000
  43.6650000  40.6630000  45.7810000  43.3280000  39.5250000  44.5280000
  44.9900000  40.8690000  44.1520000  45.6720000  41.4020000  44.8480000
  44.3950000  41.6580000  43.6850000  45.6950000  40.1440000  43.0120000
  46.2410000  39.3280000  43.4520000  46.4140000  40.7870000  42.4820000
  44.6850000  39.4170000  42.1010000  44.0860000  40.1240000  41.6640000
  43.9690000  38.7610000  42.6590000  45.4250000  38.6260000  40.9970000
  46.2720000  38.1530000  41.5160000  45.8770000  39.3490000  40.2780000
  44.5620000  37.5620000  40.2760000  43.5460000  38.0020000  40.2110000
  44.4870000  36.7970000  40.9030000  45.1580000  37.0860000  38.9440000
  46.1380000  36.7160000  39.0750000  45.1540000  37.9300000  38.2270000
  44.3310000  35.9690000  38.3240000  43.2940000  36.2180000  38.1270000
  44.2460000  35.1290000  39.0460000  44.7510000  35.6940000  37.3250000
 114.6790000  49.7090000  32.6070000 114.3720000  50.7330000  32.4070000
 114.8950000  49.5620000  33.6520000 113.7810000  49.1700000  32.3560000
 115.8970000  49.1460000  31.7730000 115.8700000  48.0700000  31.9510000
 115.7470000  49.2580000  30.6910000 117.1750000  49.7980000  32.2340000
 117.8660000  49.7320000  31.3160000 116.9150000  50.7930000  32.4230000
 117.7680000  49.1920000  33.5000000 117.0340000  49.3430000  34.2920000
 117.8770000  48.1090000  33.4560000 119.0810000  49.8990000  33.7970000
 119.7190000  49.8230000  32.8570000 118.8500000  50.9330000  33.8560000
 119.9800000  49.4610000  34.9860000 120.7340000  50.2860000  35.1280000
 119.3430000  49.3540000  35.9410000 120.6750000  48.0670000  34.8010000
 119.8920000  47.2900000  34.8600000 121.1080000  48.0290000  33.7880000
 121.7570000  47.6570000  35.8640000 121.2760000  47.5580000  36.7820000
 122.1020000  46.6260000  35.5570000 122.9210000  48.7170000  36.0550000
 123.6800000  48.5390000  35.3060000 122.4520000  49.7060000  35.9040000
 123.5840000  48.6580000  37.4770000 123.6940000  47.6170000  37.7180000
 124.5920000  49.0750000  37.4490000 122.7480000  49.2850000  38.5180000
 122.7020000  50.3770000  38.2810000 121.7340000  48.8790000  38.4210000
 123.2180000  49.0040000  39.9760000 123.0830000  47.9470000  40.1050000
 124.3120000  49.0900000  40.0510000 122.5090000  49.8910000  40.9950000
 122.1580000  50.7340000  40.3660000 121.6010000  49.4220000  41.3260000
 123.3520000  50.4310000  42.1130000 124.0950000  49.6780000  42.3710000
 123.8450000  51.3550000  41.7970000 122.5420000  50.6440000  43.4600000
 121.9290000  51.4750000  43.2310000 121.9320000  49.7260000  43.5280000
 123.3410000  50.7410000  44.7700000 124.1190000  51.6300000  45.0380000
 123.2270000  49.5740000  45.4120000 123.8150000  49.4410000  46.7820000
 124.8810000  49.8240000  46.7320000 123.0650000  49.8880000  47.4710000
 123.9680000  47.9220000  47.2050000 122.9400000  47.5470000  47.3200000
 124.8460000  47.8360000  48.4850000 125.9180000  47.7930000  48.2960000
 124.7360000  48.6770000  49.1280000 124.5110000  46.6160000  49.1780000
 123.1900000  46.4800000  50.1280000 123.9040000  46.0670000  51.5630000
 124.7920000  46.9180000  52.2310000 124.8400000  47.9620000  51.8630000
 124.4770000  46.8770000  53.2810000 126.1570000  46.2310000  51.9990000
 126.4330000  46.4320000  50.9320000 126.9690000  46.8110000  52.5110000
 126.3830000  44.7560000  52.3620000 125.6210000  44.2980000  53.5220000
 125.8160000  44.8990000  54.4230000 124.5860000  44.4650000  53.2110000
 125.8480000  43.2750000  53.6480000 125.8550000  43.9680000  51.1980000
 125.7820000  42.9020000  51.5500000 124.8610000  44.3520000  51.1130000
 126.3740000  44.1470000  50.2130000 127.8000000  44.4510000  52.5580000
 127.8740000  43.5070000  53.1540000 128.2940000  45.2340000  53.1660000
 128.2500000  44.3000000  51.6030000 122.5910000  47.8080000  50.1800000
 122.3710000  45.3730000  49.7140000 124.7170000  47.2500000  46.1180000
 123.9620000  46.6820000  45.1460000 122.7280000  46.5610000  45.1520000
 124.7970000  45.9540000  44.0850000 124.0680000  45.3000000  43.5930000
 125.6650000  45.4140000  44.4900000 125.1700000  46.8540000  42.8410000
 125.7870000  47.7240000  43.1830000 124.2080000  47.2530000  42.3520000
 125.8960000  45.9780000  41.7610000 125.4500000  45.0580000  41.3650000
 126.8190000  45.6920000  42.2120000 126.1730000  46.8200000  40.4660000
 126.3910000  47.8860000  40.7860000 125.2350000  46.8090000  39.8260000
 127.3120000  46.3170000  39.5790000 128.2060000  46.3260000  40.1670000
 127.4800000  47.0050000  38.7420000 127.0790000  44.9290000  39.0150000
 126.9470000  44.3020000  39.8340000 127.9390000  44.4900000  38.4430000
 125.8930000  44.8190000  38.1230000 126.0680000  45.4120000  37.1560000
 124.9430000  45.1840000  38.6010000 125.8560000  43.3470000  37.7440000
 126.4920000  43.0530000  36.8980000 125.1440000  42.4070000  38.3170000
 125.3140000  41.3740000  37.9770000 124.0020000  42.6060000  39.3050000
 124.1450000  43.4810000  39.9620000 123.9760000  41.7680000  40.0230000
 122.5780000  42.5890000  38.6400000 121.7630000  42.7270000  39.3410000
 122.4470000  41.6250000  38.3070000 122.3950000  43.6760000  37.5280000
 123.0970000  43.6330000  36.7130000 122.5870000  44.6210000  38.0040000
 120.9390000  43.4740000  37.0290000 120.6140000  44.2270000  36.2240000
 120.2440000  43.5160000  37.8470000 120.6450000  42.0450000  36.3650000
 120.4570000  41.3530000  37.1460000 121.5060000  41.7260000  35.8270000
 119.4810000  42.0900000  35.3700000 119.6450000  42.7680000  34.4820000
 118.5470000  42.4080000  35.8310000 119.4010000  40.6520000  34.8140000
 119.2100000  39.9090000  35.6020000 120.3560000  40.4280000  34.4050000
 118.3280000  40.7510000  33.7250000 118.3120000  41.7550000  33.1600000
 117.3150000  40.5220000  34.0260000 118.5450000  39.9600000  32.9170000
 125.3310000  12.1540000  38.5180000 125.8290000  12.2120000  39.5050000
 125.9470000  11.5730000  37.8280000 124.3450000  11.6970000  38.6320000
 125.1200000  13.5240000  37.8450000 125.0370000  14.2590000  38.6920000
 126.0310000  13.6990000  37.2950000 123.9430000  13.6280000  36.8900000
 124.2300000  12.9870000  36.0710000 123.1050000  13.2400000  37.4230000
 123.8790000  15.2000000  36.5190000 124.2180000  15.8160000  37.3710000
 124.6870000  15.4370000  35.7990000 122.4620000  15.7250000  36.0610000
 122.5430000  16.7820000  35.6700000 122.0720000  15.0920000  35.2040000
 121.5400000  15.8630000  37.1690000 121.2520000  14.8770000  37.5220000
 122.0610000  16.4030000  37.9500000 120.2300000  16.6020000  36.9280000
 119.7540000  16.3330000  35.9680000 119.5160000  16.1620000  37.6520000
 120.3090000  18.1430000  37.0280000 121.1370000  18.5300000  36.4390000
 119.5120000  18.7670000  36.6610000 120.4580000  18.5620000  38.5360000
 119.7400000  17.9540000  39.0670000 121.4430000  18.2030000  38.8470000
 120.2770000  20.0750000  38.8130000 120.8270000  20.7280000  38.0640000
 119.2030000  20.2900000  38.7260000 120.7690000  20.4520000  40.2340000
 121.8860000  20.5190000  40.1720000 120.4770000  21.4670000  40.4490000
 120.4860000  19.4990000  41.4090000 119.5050000  19.6960000  41.8990000
 120.4320000  18.4990000  41.0460000 121.6210000  19.4950000  42.4370000
 122.4240000  19.0760000  41.9110000 121.7980000  20.5120000  42.7970000
 121.3650000  18.4700000  43.6290000 121.1200000  17.5020000  43.3040000
 122.2020000  18.3740000  44.2780000 120.2170000  18.9920000  44.5650000
 119.2070000  19.1300000  44.0960000 119.9580000  18.1740000  45.3050000
 120.5990000  20.2960000  45.3590000 121.7100000  20.6160000  45.7490000
 119.5490000  21.1390000  45.5920000 119.5800000  22.1160000  46.6980000
 118.6020000  22.4900000  46.8550000 119.8020000  21.6810000  47.6850000
 120.3180000  23.3820000  46.3520000 121.3760000  23.1840000  46.3490000
 120.1090000  24.5660000  47.4120000 120.0000000  25.5860000  46.9510000
 119.0460000  24.4910000  47.7940000 121.1540000  24.6140000  48.4710000
 121.1050000  23.6430000  49.7300000 121.6600000  22.2530000  49.1430000
 122.7950000  21.5590000  49.7370000 123.1370000  20.7360000  49.0480000
 123.6760000  22.1920000  49.8930000 122.4210000  20.9660000  51.0660000
 123.3380000  20.6020000  51.5320000 122.0680000  21.8150000  51.7640000
 121.3190000  19.9340000  51.1030000 121.2000000  19.1640000  49.7590000
 120.3700000  18.5330000  49.9510000 121.1510000  19.9460000  49.0040000
 122.0310000  18.5150000  49.6720000 121.3190000  18.8720000  52.0990000
 120.6200000  18.1640000  51.6520000 122.2490000  18.2970000  52.0460000
 121.1020000  19.1960000  53.1160000 119.9760000  20.7060000  51.1730000
 119.7000000  21.1430000  50.2340000 119.9560000  21.4250000  51.9540000
 119.1970000  19.9440000  51.4290000 121.9690000  24.1110000  50.8310000
 119.6680000  23.4350000  49.9850000 120.1040000  23.8080000  44.9860000
 118.8710000  24.2330000  44.6060000 117.9420000  24.4160000  45.3340000
 118.7450000  24.4970000  43.1270000 119.7430000  24.9180000  42.8070000
 117.9830000  25.2650000  42.9690000 118.4040000  23.1760000  42.4220000
 117.5190000  22.7750000  42.8520000 119.1570000  22.3890000  42.8600000
 118.3370000  23.1270000  40.8780000 118.0220000  22.1140000  40.4800000
 119.3620000  23.3330000  40.6090000 117.2180000  24.0400000  40.2910000
 117.2960000  25.0930000  40.6320000 116.3580000  23.7920000  40.7870000
 117.0030000  23.8700000  38.7500000 116.2450000  24.4850000  38.3020000
 116.6060000  22.8290000  38.5780000 118.2990000  24.0890000  37.9050000
 119.0960000  23.5290000  38.4130000 118.5230000  25.1280000  38.0490000
 118.2420000  23.6340000  36.4680000 117.4670000  24.2500000  35.9600000
 117.8610000  22.6180000  36.5420000 119.5910000  23.4310000  35.8660000
 120.2880000  22.9250000  36.6150000 119.9650000  23.8380000  34.6640000
 120.9320000  23.5360000  34.3410000 119.1020000  24.5300000  33.6400000
 118.6010000  25.4580000  34.0050000 118.4920000  23.7360000  33.2870000
 119.9490000  24.8220000  32.4160000 120.3510000  23.9930000  31.9950000
 120.8580000  25.3420000  32.6930000 119.1180000  25.5870000  31.3590000
 118.7000000  26.5080000  31.7940000 118.2180000  25.0520000  31.0390000
 119.8720000  25.9830000  30.0870000 120.3660000  25.0800000  29.6760000
 120.6550000  26.5950000  30.5070000 119.0930000  26.8300000  29.0200000
 118.4740000  27.5350000  29.5120000 118.3920000  26.1240000  28.5090000
 120.0330000  27.5600000  27.9760000 120.8050000  26.7970000  27.6300000
 120.5390000  28.3150000  28.5430000 119.2900000  28.2190000  26.8140000
 118.6370000  27.5020000  26.1980000 120.0740000  28.5200000  26.0870000
 118.4550000  29.5050000  27.1320000 119.1600000  30.2130000  27.5430000
 117.6140000  29.4070000  27.7890000 118.0560000  29.9860000  26.2370000
  29.2880000  35.0700000  39.0490000  29.7400000  34.9930000  37.9940000
  29.5820000  36.0020000  39.5090000  28.2000000  35.0390000  39.0070000
  29.7610000  33.8190000  39.7830000  29.7640000  32.9660000  39.1250000
  30.8150000  34.0680000  40.1210000  28.9470000  33.4850000  41.0240000
  29.4430000  32.6340000  41.4130000  29.0840000  34.2470000  41.7560000
  27.5030000  33.0330000  40.7070000  26.8930000  33.9110000  40.6410000
  27.4890000  32.4730000  39.7360000  26.8440000  32.1840000  41.7950000
  25.9310000  31.7240000  41.3500000  27.5730000  31.3700000  41.9640000
  26.6240000  32.8910000  43.1690000  27.5270000  33.4220000  43.4540000
  25.8720000  33.6970000  42.8550000  26.0480000  32.0850000  44.2970000
  26.7140000  31.3290000  44.6340000  25.8050000  32.7480000  45.1270000
  24.7720000  31.3320000  43.9290000  24.9970000  30.8060000  42.9850000
  24.4890000  30.6650000  44.7170000  23.4770000  32.1610000  43.7640000
  23.1190000  32.4700000  44.7280000  23.7470000  33.1180000  43.3160000
  22.3620000  31.4290000  42.9630000  22.2430000  30.4850000  43.4890000
  21.4590000  31.9660000  43.0770000  22.6740000  31.3370000  41.4870000
  22.3740000  32.3400000  41.0670000  23.6610000  31.2320000  41.2650000
  22.0420000  30.1700000  40.6120000  20.9880000  30.2900000  40.7660000
  22.2820000  30.3130000  39.5690000  22.5010000  28.7670000  41.0050000
  23.6000000  28.6630000  40.7150000  22.4200000  28.8350000  42.0880000
  21.5470000  27.5530000  40.5920000  21.7090000  27.3220000  39.5000000
  21.9190000  26.7890000  41.2110000  20.0310000  27.7450000  40.8570000
  19.7400000  28.7090000  40.4640000  19.4720000  26.9040000  40.2770000
  19.8240000  27.5130000  42.3250000  19.3170000  26.5160000  42.8100000
  20.2810000  28.5090000  43.0570000  20.3630000  28.5150000  44.4700000
  20.7550000  29.4600000  44.7160000  19.3390000  28.4320000  44.8650000
  21.2510000  27.3530000  45.0290000  20.7530000  26.3350000  45.0300000
  21.6240000  27.7050000  46.5040000  20.6920000  28.1260000  46.9870000
  22.0350000  26.8920000  47.0690000  22.7010000  28.6810000  46.5920000
  22.7070000  29.8010000  47.7740000  22.9550000  28.8870000  49.0250000
  24.3200000  28.4590000  49.3680000  25.0580000  29.2330000  49.4100000
  24.2150000  28.0310000  50.4050000  24.6480000  27.2660000  48.4010000
  23.8210000  26.5610000  48.5020000  24.6240000  27.7040000  47.3980000
  25.9000000  26.4400000  48.5840000  25.8720000  25.4460000  47.5160000
  24.8580000  24.9880000  47.5820000  26.0220000  25.8900000  46.4910000
  26.6480000  24.7460000  47.7240000  27.0960000  27.3230000  48.4560000
  27.0600000  27.8170000  47.5170000  27.1190000  28.0840000  49.2280000
  27.9750000  26.6990000  48.4840000  25.9390000  25.7240000  49.9360000
  26.7190000  24.9600000  49.9550000  25.0650000  25.1490000  50.0380000
  26.0440000  26.4490000  50.7250000  23.8850000  30.5970000  47.6500000
  21.4190000  30.3710000  47.8610000  22.4590000  27.3050000  44.2410000
  23.3630000  26.3730000  44.4840000  23.3610000  25.6090000  45.4230000
  24.3770000  26.3570000  43.3080000  23.8480000  26.8420000  42.4860000
  24.6340000  25.4010000  43.0720000  25.6670000  27.0570000  43.5750000
  26.3370000  26.4240000  44.1920000  25.5710000  27.9950000  44.0660000
  26.3720000  27.4050000  42.2420000  26.9980000  28.2780000  42.4270000
  25.5910000  27.7150000  41.5330000  27.2840000  26.2070000  41.7790000
  27.9240000  25.8040000  42.5750000  27.9850000  26.6400000  41.0630000
  26.6030000  24.9930000  41.0670000  25.9570000  25.4300000  40.2370000
  26.1150000  24.4160000  41.8130000  27.7720000  24.2090000  40.3630000
  28.4660000  23.7890000  41.1120000  28.4690000  24.7990000  39.8320000
  27.2870000  23.1220000  39.4490000  26.2460000  23.2680000  39.0290000
  27.3240000  22.2110000  40.0710000  28.2440000  22.8250000  38.2850000
  29.2230000  22.5100000  38.6350000  27.9960000  22.9210000  36.9920000
  28.8000000  22.8500000  36.2930000  26.6990000  23.3660000  36.4490000
  25.9320000  22.7620000  36.9660000  26.6270000  23.1130000  35.3230000
  26.5790000  24.8720000  36.6670000  27.4000000  25.3000000  36.0870000
  26.7060000  25.0520000  37.7370000  25.1680000  25.4790000  36.3470000
  24.5120000  25.1910000  37.1480000  24.7410000  25.0710000  35.3460000
  25.2030000  27.0650000  36.2130000  25.9280000  27.2120000  35.3920000
  25.6940000  27.5800000  37.0570000  23.8680000  27.8490000  36.0800000
  23.2630000  27.7450000  36.9260000  23.3290000  27.3690000  35.2270000
  23.8000000  29.3380000  35.9250000  22.8810000  29.4090000  35.3850000
  24.6650000  29.7110000  35.4160000  23.6700000  30.2180000  37.2440000
  22.9240000  29.7170000  37.9180000  23.3510000  31.2550000  36.9660000
  25.0310000  30.3210000  37.9990000  25.4360000  29.3220000  38.2290000
  24.9060000  30.8510000  38.9520000  25.7500000  30.8150000  37.4020000
 136.3980000  51.2800000  36.8720000 137.2240000  51.5440000  36.2350000
 135.7340000  52.0750000  36.8820000 135.8810000  50.4990000  36.4170000
 136.8340000  50.7810000  38.2220000 137.5420000  51.5100000  38.6260000
 136.0340000  50.7530000  38.8860000 137.4710000  49.3600000  38.1380000
 136.6710000  48.6150000  37.8320000 138.3140000  49.4020000  37.4150000
 138.0130000  49.1190000  39.5520000 138.7000000  49.9140000  39.8590000
 137.2450000  49.1930000  40.2420000 138.6900000  47.7260000  39.6920000
 137.9800000  46.8420000  39.4980000 139.3930000  47.6860000  38.8760000
 139.4160000  47.5500000  41.0450000 140.0550000  48.5010000  41.1920000
 138.6490000  47.5070000  41.8600000 140.3010000  46.2550000  41.0730000
 141.1870000  46.3930000  40.3960000 140.7660000  46.1970000  42.0330000
 139.6380000  44.9230000  40.8900000 139.2780000  44.7540000  39.8430000
 140.3990000  44.1330000  40.8950000 138.6160000  44.3400000  41.9450000
 137.7020000  45.0090000  41.9720000 138.3040000  43.3030000  41.6290000
 139.1730000  44.2300000  43.3980000 139.9450000  43.4990000  43.4600000
 139.6410000  45.1890000  43.6960000 138.1960000  44.0010000  44.5860000
 137.7190000  43.0540000  44.3520000 138.6390000  43.9120000  45.5730000
 137.0330000  45.1230000  44.6210000 137.4210000  46.1600000  44.6290000
 136.4200000  44.9320000  43.7990000 136.0760000  45.0900000  45.8190000
 135.9370000  44.0860000  46.2530000 136.5050000  45.6680000  46.6460000
 134.6470000  45.6300000  45.5940000 134.5520000  46.0850000  44.6250000
 133.9440000  44.8350000  45.6580000 134.2370000  46.6920000  46.6170000
 135.0220000  47.4940000  46.7520000 133.4410000  47.3390000  46.2950000
 133.7980000  46.0750000  47.9350000 133.6970000  44.8690000  48.1500000
 133.5590000  47.0220000  48.8670000 132.9100000  46.6700000  50.0740000
 133.2020000  45.6240000  50.2640000 133.4660000  47.1870000  50.9130000
 131.4220000  47.0430000  50.0190000 131.4360000  48.0140000  49.6030000
 130.8680000  46.9980000  51.4420000 131.6070000  47.3930000  52.1310000
 130.0270000  47.6320000  51.4460000 130.4260000  45.7110000  51.8940000
 131.3970000  44.5500000  52.4680000 131.5690000  43.6890000  51.1820000
 130.5510000  42.8270000  50.7290000 129.8500000  42.4780000  51.4690000
 129.9690000  43.2410000  49.9170000 131.2140000  41.5490000  50.0940000
 130.4250000  40.8140000  49.7210000 131.9370000  41.9070000  49.2760000
 132.1390000  40.7600000  50.9900000 132.3240000  39.3250000  50.5960000
 131.4340000  38.7720000  50.5230000 132.7620000  39.2860000  49.6320000
 132.9320000  38.8530000  51.4020000 133.4710000  41.3410000  51.0060000
 134.0650000  40.8150000  51.7030000 134.0290000  41.3000000  50.0450000
 133.3420000  42.4070000  51.2580000 131.5980000  40.7210000  52.3490000
 132.2020000  40.1080000  53.0270000 130.5930000  40.2760000  52.2480000
 131.4190000  41.7190000  52.7500000 132.7300000  45.0410000  52.8140000
 130.5840000  43.7660000  53.4560000 130.6870000  46.0990000  49.0920000
 129.3730000  46.3530000  48.8620000 128.7370000  47.2980000  49.3310000
 128.8120000  45.4310000  47.9550000 127.7320000  45.6780000  47.8120000
 128.8750000  44.5380000  48.4840000 129.3780000  45.2460000  46.5420000
 128.9000000  44.3590000  46.0470000 130.4440000  44.9430000  46.6170000
 129.3640000  46.4020000  45.5880000 128.3900000  46.8700000  45.5970000
 129.5030000  46.0390000  44.5980000 130.4490000  47.4740000  45.8160000
 131.4250000  47.0330000  45.9570000 130.2670000  47.9750000  46.7420000
 130.5080000  48.3910000  44.5980000 130.6840000  49.3900000  44.9880000
 129.5670000  48.3120000  44.0700000 131.6470000  48.0420000  43.5660000
 132.5950000  48.2590000  43.9940000 131.4310000  48.6890000  42.7270000
 131.6590000  46.6330000  42.9950000 130.7530000  46.4850000  42.4490000
 131.6120000  45.9070000  43.8970000 132.8670000  46.3810000  42.1830000
 133.7940000  46.3820000  42.7980000 132.9070000  46.1600000  40.8270000
 133.8600000  46.1230000  40.4070000 131.7870000  46.3060000  39.8530000
 130.9690000  46.7470000  40.4110000 131.2800000  45.3700000  39.5530000
 132.2220000  47.2680000  38.7020000 133.2180000  46.9900000  38.4220000
 132.3620000  48.2280000  39.2130000 131.3370000  47.3140000  37.4850000
 130.2810000  47.5090000  37.8410000 131.3990000  46.3250000  36.9850000
 131.6650000  48.4750000  36.4340000 131.4930000  49.4240000  36.8850000
 130.8940000  48.2780000  35.6690000 133.1020000  48.3270000  35.9030000
 133.8520000  48.4660000  36.6250000 133.3140000  49.0980000  35.1560000
 133.3320000  46.9550000  35.2530000 132.7100000  46.8760000  34.3610000
 132.9800000  46.1410000  35.8610000 134.7820000  46.6290000  34.8050000
 134.8580000  45.6600000  34.3600000 135.4180000  46.5920000  35.7680000
 135.3250000  47.6410000  33.8940000 135.8480000  48.3990000  34.5300000
 134.5700000  48.1460000  33.2890000 136.1460000  47.3290000  33.2660000
 131.2290000  51.2660000  33.0640000 130.3260000  50.7340000  33.3490000
 132.0370000  50.5940000  32.9500000 130.9790000  51.7470000  32.1050000
 131.6290000  52.4340000  33.9950000 132.4830000  53.0250000  33.6730000
 130.7930000  53.0630000  34.0580000 131.8920000  52.0630000  35.4730000
 131.0280000  51.4720000  35.7860000 132.7860000  51.4120000  35.3910000
 131.9160000  53.3490000  36.4210000 132.8530000  53.7530000  36.3070000
 131.1210000  54.0980000  36.1410000 131.7820000  52.9180000  37.8430000
 130.7250000  52.7620000  38.0710000 132.2190000  51.9420000  37.9090000
 132.3260000  54.0140000  38.8190000 133.4520000  54.1520000  38.5280000
 131.8390000  54.9520000  38.6710000 132.2820000  53.7350000  40.3420000
 132.7750000  54.5440000  40.7540000 131.2440000  53.6800000  40.7210000
 132.9180000  52.3990000  40.8300000 132.3850000  51.5420000  40.4290000
 133.9980000  52.3980000  40.5320000 132.9880000  52.1680000  42.3490000
 133.4210000  53.0520000  42.8480000 131.9240000  52.0860000  42.7230000
 133.6810000  50.9150000  42.6900000 133.0610000  50.1260000  42.3040000
 134.6830000  50.8220000  42.2220000 133.8670000  50.6440000  44.2050000
 134.0420000  51.4990000  44.8400000 132.8860000  50.2590000  44.6430000
 134.9430000  49.6780000  44.6590000 135.0570000  49.7120000  45.6950000
 134.6690000  48.6420000  44.3630000 136.3050000  49.9720000  44.0170000
 136.3510000  49.6220000  42.9770000 136.5850000  51.0270000  43.9980000
 137.4240000  49.2580000  44.8270000 137.3160000  49.5660000  45.8540000
 137.1690000  48.1990000  44.8550000 138.8560000  49.3910000  44.3380000
 139.0350000  48.9570000  43.3350000 139.1340000  50.4170000  44.1890000
 139.9140000  48.8150000  45.2320000 140.7480000  49.4520000  45.8160000
 139.8770000  47.4760000  45.2820000 140.4770000  46.6920000  46.3700000
 140.1360000  45.7220000  46.2470000 141.5140000  46.7510000  46.2600000
 140.1350000  47.1850000  47.8290000 140.8020000  48.0090000  48.1830000
 140.1560000  46.0390000  48.8810000 139.8770000  45.1020000  48.4630000
 141.2120000  45.9890000  49.2030000 139.2460000  46.4370000  49.9190000
 138.9240000  45.6570000  51.1870000 137.7760000  44.6660000  50.7430000
 136.3100000  44.9250000  50.9510000 136.1680000  45.9550000  51.2950000
 135.7550000  44.8350000  49.9740000 135.7760000  43.9400000  51.9880000
 134.7040000  44.0300000  52.0040000 135.9370000  42.8910000  51.7090000
 136.2390000  44.0150000  53.4380000 135.4940000  43.0280000  54.1660000
 135.8730000  42.9710000  55.2480000 134.4250000  43.3020000  54.2040000
 135.6590000  42.0600000  53.5490000 137.6160000  43.4950000  53.6020000
 138.0010000  43.3490000  54.6230000 137.7540000  42.5170000  53.1530000
 138.1920000  44.3380000  53.0990000 135.9820000  45.3330000  54.0840000
 136.4960000  46.1520000  53.4440000 136.4940000  45.3760000  55.0520000
 134.8940000  45.5400000  54.1060000 140.1380000  44.8690000  51.6320000
 138.2830000  46.6790000  52.0310000 138.8340000  47.8150000  47.8160000
 138.6210000  48.8810000  48.6110000 139.5420000  49.6000000  49.0340000
 137.1950000  49.2940000  48.8640000 136.9290000  48.9200000  49.8980000
 136.5590000  48.7790000  48.2000000 136.9100000  50.7500000  48.9300000
 137.7140000  51.2910000  49.4440000 136.0070000  50.9510000  49.5940000
 136.8910000  51.4470000  47.5370000 136.1780000  51.0550000  46.8780000
 137.9200000  51.3560000  47.0750000 136.5210000  52.9120000  47.7440000
 137.3610000  53.5410000  48.0500000 135.7120000  52.9710000  48.4930000
 135.8550000  53.5070000  46.4970000 135.4230000  54.4280000  46.6880000
 135.0530000  52.8350000  46.2040000 136.8520000  53.7950000  45.3430000
 137.5020000  52.8950000  45.1450000 137.5930000  54.5120000  45.5210000
 136.1630000  53.9720000  43.9530000 135.3260000  54.7080000  44.0380000
 135.7090000  53.0200000  43.7270000 137.1990000  54.3920000  42.9250000
 137.9420000  53.5950000  42.7530000 137.2300000  55.5420000  42.2380000
 137.9350000  55.7560000  41.5030000 136.2500000  56.7230000  42.3260000
 136.7660000  57.5940000  42.6670000 135.5570000  56.5290000  43.1290000
 135.3840000  56.9360000  41.0550000 134.5100000  57.4670000  41.3640000
 135.0530000  55.9650000  40.6510000 136.0490000  57.8010000  39.9100000
 135.5650000  57.5560000  38.9440000 137.0800000  57.5790000  39.8960000
 135.9570000  59.3050000  40.2780000 136.4030000  59.5190000  41.2200000
 134.8830000  59.6240000  40.3990000 136.6670000  60.2230000  39.1600000
 136.1490000  60.1280000  38.1900000 137.6420000  59.7600000  39.0400000
 136.9270000  61.6680000  39.5610000 135.9110000  62.1200000  39.6130000
 137.4940000  62.1900000  38.6990000 137.7280000  61.9190000  40.8220000
 137.1750000  61.6680000  41.7340000 137.8730000  62.9830000  40.8970000
 139.1560000  61.2550000  40.7740000 139.7720000  61.8680000  40.1090000
 139.1260000  60.3050000  40.2610000 139.6120000  61.1800000  41.8200000
   4.4540000 122.2660000  46.6010000   5.1300000 121.5140000  46.1460000
   3.6500000 121.7350000  47.1870000   4.9400000 122.8770000  47.3260000
   3.8970000 123.0120000  45.4300000   3.4300000 122.3200000  44.6480000
   3.0680000 123.6600000  45.7100000   5.0390000 123.7960000  44.7140000
   5.5580000 124.4320000  45.4900000   5.8060000 123.2020000  44.2140000
   4.5120000 124.7150000  43.6180000   4.0830000 124.1910000  42.7860000
   3.7770000 125.3410000  44.1250000   5.6500000 125.6110000  42.9780000
   6.3400000 126.1130000  43.6700000   6.2790000 124.9680000  42.3260000
   4.9410000 126.6910000  42.0890000   4.1940000 126.2630000  41.4100000
   4.3280000 127.3220000  42.7150000   5.7960000 127.7850000  41.3410000
   6.6190000 127.3150000  40.8040000   5.1090000 128.2580000  40.6980000
   6.5720000 128.6630000  42.3600000   7.3890000 128.0900000  42.8430000
   7.1040000 129.4820000  41.8580000   5.6070000 129.3390000  43.3880000
   4.9360000 129.7710000  42.6760000   5.1040000 128.6700000  44.1140000
   6.2640000 130.4680000  44.2600000   6.5570000 131.1820000  43.4970000
   5.5700000 130.9370000  44.9300000   7.5620000 130.0820000  45.1150000
   8.2340000 129.6440000  44.4310000   8.0660000 130.9090000  45.4820000
   7.1820000 129.0000000  46.1150000   6.3150000 129.3640000  46.5910000
   6.9070000 128.0440000  45.6550000   8.1870000 128.6770000  47.3070000
   8.6150000 129.5780000  47.7540000   7.6700000 128.0310000  48.0400000
   9.5000000 127.9300000  46.7930000   9.1370000 127.0140000  46.3880000
   9.9610000 128.5120000  46.0310000  10.4780000 127.6010000  47.9360000
   9.8570000 127.4670000  48.8540000  10.9290000 126.6590000  47.6710000
  11.4950000 128.6920000  48.1280000  12.4660000 128.9040000  47.4160000
  11.4260000 129.2750000  49.3120000  12.5000000 130.0230000  49.8860000
  12.3110000 130.1670000  50.9180000  13.4300000 129.5010000  49.7440000
  12.6550000 131.4310000  49.2650000  12.8030000 131.3430000  48.1830000
  13.8600000 132.1940000  49.8260000  14.7110000 131.7570000  49.2750000
  13.7600000 133.2620000  49.5660000  13.9660000 132.0870000  51.2250000
  15.3380000 132.2090000  52.0620000  15.9730000 130.7270000  51.9140000
  17.3480000 130.5800000  51.6680000  17.6200000 129.5780000  51.2960000
  17.6650000 131.3900000  50.9700000  18.0700000 130.7280000  52.9640000
  17.4610000 131.1580000  53.6920000  18.2260000 129.6770000  53.4140000
  19.3940000 131.3310000  52.9640000  20.3830000 130.5360000  52.1940000
  20.1310000 130.6340000  51.1540000  21.4430000 130.8800000  52.3650000
  20.2630000 129.5370000  52.6170000  19.4510000 132.6690000  52.2700000
  18.6230000 133.2680000  52.6160000  20.4280000 133.1720000  52.5440000
  19.4080000 132.5590000  51.1290000  20.0280000 131.4880000  54.3410000
  21.0390000 131.8420000  54.1740000  20.0300000 130.5070000  54.8640000
  19.4650000 132.2950000  54.8250000  16.2530000 133.2260000  51.5100000
  15.0720000 132.3340000  53.5220000  11.5190000 132.3540000  49.5530000
  10.4180000 132.3820000  48.7590000  10.2040000 131.8240000  47.6910000
   9.5170000 133.4780000  49.1230000   9.8900000 134.3530000  48.6330000
   9.4650000 133.5380000  50.2500000   8.0020000 133.1120000  48.6250000
   7.5480000 132.2810000  49.2420000   8.1160000 132.7150000  47.5840000
   7.1190000 134.3130000  48.6350000   7.7070000 135.1170000  48.0900000
   7.0700000 134.6080000  49.6980000   5.7080000 134.1250000  48.0910000
   5.3810000 133.1190000  48.4470000   5.6940000 134.1110000  47.0100000
   4.6250000 135.1650000  48.4470000   4.5880000 135.2690000  49.5600000
   3.7450000 134.6210000  48.2530000   4.7340000 136.5430000  47.7630000
   5.5290000 137.1350000  48.0870000   3.8380000 137.0860000  47.8970000
   4.8620000 136.3840000  46.2090000   4.0890000 135.7360000  45.8620000
   5.8070000 136.0020000  45.9660000   4.7120000 137.7370000  45.5290000
   4.9120000 138.5510000  46.1200000   4.4630000 137.9090000  44.2280000
   4.4400000 138.9300000  43.8740000   4.1500000 136.7010000  43.2390000
   4.6210000 135.7650000  43.5640000   4.4960000 137.0420000  42.2870000
   2.6690000 136.5550000  43.1490000   2.3070000 137.4700000  42.7030000
   2.1260000 136.5100000  44.1020000   2.2910000 135.1900000  42.4930000
   2.7030000 134.3950000  43.0900000   2.8040000 135.1120000  41.5430000
   0.7810000 135.1800000  42.4430000   0.3540000 136.0680000  41.8880000
   0.4040000 135.2960000  43.4400000   0.2000000 133.8290000  41.8530000
   0.7600000 133.0370000  42.3930000   0.3920000 133.7930000  40.8020000
  -1.2690000 133.7160000  42.1050000  -1.8020000 134.6590000  41.8410000
  -1.3530000 133.5730000  43.2250000  -1.9260000 132.4740000  41.3840000
  -1.3630000 131.5350000  41.5270000  -2.0320000 132.6490000  40.3480000
  -3.3990000 132.2940000  41.7920000  -3.4920000 131.9880000  42.8620000
  -3.8130000 131.4110000  41.2260000  -4.0150000 133.1910000  41.6440000
 117.7770000  32.6910000  40.0060000 117.1490000  32.8740000  39.1710000
 117.1910000  32.1940000  40.7350000 118.6210000  32.0810000  39.7700000
 118.0610000  34.1570000  40.6030000 118.0760000  34.9800000  39.7970000
 117.2220000  34.4770000  41.2730000 119.3350000  34.2600000  41.4590000
 119.3400000  35.2240000  41.8410000 119.3760000  33.5100000  42.2780000
 120.6110000  34.1530000  40.6990000 120.7110000  33.1120000  40.4730000
 120.6760000  34.6990000  39.6500000 121.7630000  34.4940000  41.5890000
 122.6480000  34.5710000  41.0210000 121.5870000  35.4540000  42.0280000
 122.0450000  33.4850000  42.8040000 121.2600000  33.5670000  43.5110000
 121.9740000  32.4940000  42.4790000 123.3250000  33.5890000  43.5410000
 123.3040000  32.9620000  44.4230000 124.0410000  33.1770000  42.8380000
 123.6790000  35.0060000  43.8710000 124.3300000  35.4380000  43.1330000
 122.9300000  35.6870000  44.1520000 124.5640000  34.9560000  45.1490000
 123.8430000  34.6910000  45.9290000 125.2960000  34.1520000  45.0290000
 125.0950000  36.3510000  45.6360000 124.2450000  36.9750000  45.8200000
 125.5480000  36.2870000  46.6270000 126.1330000  37.1460000  44.8770000
 125.7660000  37.3050000  43.8400000 126.1760000  38.1060000  45.2770000
 127.5250000  36.4660000  44.8920000 127.6220000  35.4590000  44.5440000
 128.2220000  36.9810000  44.1810000 128.1210000  36.3970000  46.3190000
 127.8890000  37.3530000  46.7940000 127.6710000  35.6190000  46.9220000
 129.6620000  36.2610000  46.2910000 129.8380000  35.1340000  46.1170000
 129.9960000  36.7500000  45.3850000 130.4290000  36.7940000  47.5160000
 131.4990000  36.9500000  47.1850000 130.0610000  37.8140000  47.6660000
 130.1890000  36.0910000  48.8030000 129.5530000  35.0750000  48.8890000
 130.8760000  36.6620000  49.8210000 130.8450000  36.1100000  51.1810000
 130.7420000  35.0260000  51.1270000 131.7030000  36.4140000  51.6970000
 129.8320000  36.7750000  52.1090000 130.2780000  37.6950000  52.5160000
 129.5410000  35.8940000  53.3120000 128.6800000  35.3520000  53.0960000
 130.4030000  35.2620000  53.4830000 129.2830000  36.6700000  54.4580000
 128.9060000  35.8750000  55.7920000 127.2730000  35.7720000  55.6260000
 126.4750000  36.8670000  55.1590000 126.3610000  37.6340000  55.8830000
 127.0540000  37.2940000  54.3120000 125.1550000  36.3780000  54.5820000
 125.3490000  35.5020000  53.9650000 124.6530000  36.0940000  55.5210000
 124.2620000  37.3450000  53.8770000 123.0980000  36.6380000  53.3330000
 122.5630000  36.1260000  54.1360000 122.4090000  37.3660000  52.9750000
 123.3780000  35.9570000  52.5320000 123.7290000  38.2980000  54.9210000
 124.6150000  38.6560000  55.3940000 123.2040000  38.9780000  54.3190000
 123.0530000  37.7100000  55.5580000 124.9000000  38.0280000  52.7360000
 125.7540000  38.6240000  53.1640000 124.1670000  38.6540000  52.2860000
 125.3000000  37.2390000  52.1900000 129.5820000  34.5370000  55.7810000
 129.1850000  36.7980000  56.8950000 128.6220000  36.9840000  51.3910000
 128.3760000  38.2210000  50.8410000 129.0580000  39.2000000  50.8710000
 127.1000000  38.1180000  49.9890000 126.4270000  37.4310000  50.5160000
 127.3430000  37.8220000  48.9930000 126.3640000  39.4680000  49.8960000
 126.2420000  39.9550000  50.9130000 125.4000000  39.2880000  49.5330000
 127.0270000  40.5830000  49.1110000 127.6390000  41.0930000  49.7700000
 126.2780000  41.3510000  48.8760000 127.8350000  40.1620000  47.7750000
 127.0720000  39.7280000  47.0980000 128.5870000  39.4360000  48.0470000
 128.4560000  41.4630000  47.0840000 129.1910000  41.8460000  47.7730000
 127.7160000  42.2480000  46.9130000 129.1920000  41.0900000  45.8160000
 129.6740000  40.2450000  46.1920000 129.9620000  41.9070000  45.5800000
 128.4440000  40.7550000  44.5180000 128.0880000  41.7080000  44.1090000
 127.5970000  40.1120000  44.7620000 129.3180000  40.0840000  43.4750000
 130.2730000  39.6430000  43.8150000 128.9180000  39.9080000  42.2420000
 129.5540000  39.4570000  41.4510000 127.6900000  40.6720000  41.6610000
 128.0170000  41.4990000  41.1400000 126.9720000  40.9550000  42.4000000
 126.8880000  39.7990000  40.6770000 127.6090000  39.3800000  39.9730000
 126.1900000  40.5090000  40.2200000 126.1750000  38.6230000  41.3160000
 125.3000000  38.9810000  41.9120000 126.7450000  38.1480000  42.0400000
 125.4670000  37.5880000  40.4100000 124.9930000  36.8310000  41.0320000
 126.1760000  36.9740000  39.8600000 124.4750000  38.1830000  39.3600000
 124.9630000  38.7610000  38.6310000 123.9240000  38.9280000  39.9190000
 123.5830000  37.1290000  38.7020000 122.9300000  36.7000000  39.4460000
 124.1840000  36.3150000  38.3070000 122.5950000  37.7980000  37.6590000
 121.9600000  38.4460000  38.3090000 122.0140000  36.9650000  37.2360000
 123.1690000  38.6270000  36.5000000 123.7320000  38.0580000  35.7310000
 123.8720000  39.3570000  36.8270000 122.3860000  39.1590000  35.9600000
 139.7080000  10.9540000  41.4080000 139.6730000   9.8970000  41.7250000
 140.0340000  11.3860000  42.3670000 140.3920000  11.0960000  40.5690000
 138.2680000  11.4440000  41.0580000 137.5340000  11.0710000  41.7660000
 138.1880000  12.5040000  41.1130000 137.7550000  11.0220000  39.6520000
 138.4860000  11.3920000  38.9100000 137.9000000   9.9760000  39.5710000
 136.2450000  11.3260000  39.3100000 136.1690000  10.9670000  38.3090000
 135.5530000  10.7270000  39.9160000 135.8240000  12.7960000  39.2030000
 135.8780000  13.2590000  40.1850000 136.4120000  13.4040000  38.5260000
 134.3510000  12.7980000  38.8070000 134.1060000  12.2710000  37.8550000
 133.7640000  12.2470000  39.5550000 133.8400000  14.2110000  38.5230000
 134.5260000  14.5480000  37.7450000 132.8080000  14.1800000  38.2210000
 133.8830000  15.2520000  39.6750000 134.9600000  15.4400000  39.9150000
 133.3400000  16.1990000  39.3110000 133.0460000  14.8160000  40.8770000
 132.0230000  14.5360000  40.6290000 133.5020000  13.8860000  41.2540000
 133.0350000  15.7660000  42.1170000 132.2980000  16.5770000  41.9040000
 132.7070000  15.2290000  43.0590000 134.3590000  16.4100000  42.3840000
 134.6120000  17.2560000  41.6880000 134.1880000  16.9650000  43.2720000
 135.6500000  15.6460000  42.5430000 135.4640000  14.9820000  43.3500000
 135.8600000  14.9500000  41.6830000 136.9000000  16.4720000  42.8670000
 137.0180000  17.0200000  41.9290000 136.7480000  17.2090000  43.5990000
 138.2010000  15.6450000  43.0930000 138.2360000  14.8990000  42.3300000
 139.0990000  16.2670000  43.0650000 138.2520000  14.9490000  44.4540000
 137.2460000  14.5160000  44.5580000 138.9450000  14.1240000  44.4470000
 138.4960000  15.7850000  45.6860000 139.5190000  16.3910000  45.8710000
 137.4740000  15.7110000  46.5360000 137.5730000  16.1150000  47.9310000
 136.8230000  15.6170000  48.5090000 138.5290000  15.8240000  48.3200000
 137.4770000  17.6640000  48.0960000 138.4080000  18.0630000  47.9110000
 137.1590000  18.0180000  49.5790000 137.9440000  17.6450000  50.2180000
 137.1750000  19.1340000  49.7020000 135.8960000  17.4010000  49.8520000
 135.2810000  17.7610000  51.3530000 135.9380000  16.6200000  52.1860000
 135.2630000  15.3210000  52.3710000 135.6330000  14.7720000  53.2630000
 134.1790000  15.5500000  52.4680000 135.4800000  14.4720000  51.0700000
 134.6220000  13.7450000  50.9370000 135.5680000  14.9620000  50.0740000
 136.7110000  13.5700000  51.0860000 136.8770000  12.6590000  52.2650000
 137.7700000  12.1330000  51.8420000 137.0420000  13.3190000  53.1130000
 135.9480000  12.0520000  52.3000000 136.6730000  12.7960000  49.8630000
 137.3560000  11.9220000  50.0170000 135.6370000  12.4600000  49.5030000
 136.9510000  13.5620000  49.1890000 137.8780000  14.4880000  51.1300000
 137.8830000  14.9270000  52.1520000 137.8060000  15.3110000  50.4220000
 138.6930000  13.8550000  51.0490000 135.8580000  19.0530000  51.7560000
 133.8680000  17.6230000  51.3260000 136.4360000  18.1180000  47.2010000
 136.5900000  19.3590000  46.7080000 137.4550000  20.1040000  47.1490000
 135.6610000  19.7320000  45.5980000 135.0530000  20.6030000  45.9080000
 135.0430000  18.8560000  45.3210000 136.3670000  20.0880000  44.2520000
 137.0300000  19.2010000  44.0010000 136.9950000  21.0100000  44.4670000
 135.4730000  20.5920000  43.0310000 135.0460000  21.5290000  43.2640000
 134.6310000  19.9070000  42.9240000 136.0740000  20.5600000  41.6020000
 136.5620000  19.5890000  41.5480000 136.8550000  21.3650000  41.5860000
 134.9000000  20.8850000  40.6440000 134.7550000  21.9780000  40.8470000
 134.0100000  20.4800000  40.9660000 135.0820000  20.4710000  39.1390000
 135.9680000  20.8990000  38.7240000 134.1710000  20.7670000  38.5260000
 135.2370000  18.9930000  38.9090000 134.3440000  18.5650000  39.0790000
 135.9890000  18.6260000  39.6400000 135.6280000  18.5730000  37.4800000
 135.1470000  19.0880000  36.6530000 136.5250000  17.6670000  37.1470000
 136.7030000  17.3860000  36.0330000 137.3560000  16.8020000  38.0920000
 137.1720000  15.6940000  38.0200000 137.1890000  17.1100000  39.1100000
 138.8730000  16.9570000  37.7660000 139.1530000  18.0470000  37.5690000
 139.0300000  16.3160000  36.8960000 139.7770000  16.4080000  38.8930000
 139.6430000  16.7570000  39.8950000 140.7840000  16.7180000  38.6460000
 139.8220000  14.9080000  38.8690000 139.2820000  14.4620000  38.0380000
 139.2310000  14.5500000  39.7150000 141.2480000  14.3170000  38.9140000
 141.8170000  14.6480000  38.0430000 141.2600000  13.2050000  38.7400000
 142.0120000  14.5330000  40.2730000 142.4490000  15.5100000  40.2470000
 142.9180000  13.8630000  40.2140000 141.3790000  14.2810000  41.6200000
 141.2430000  13.2160000  41.7760000 140.4990000  14.8870000  41.7450000
 142.2600000  14.7710000  42.8060000 143.3590000  14.7530000  42.5300000
 141.9720000  14.4110000  43.8210000 142.1880000  15.8060000  42.7990000
 135.7280000 114.5820000  33.4530000 134.8650000 115.3190000  33.4130000
 135.3390000 113.6320000  32.9740000 136.7000000 114.8130000  33.0220000
 136.1690000 114.2150000  34.9730000 135.2730000 113.9940000  35.5220000
 136.8100000 113.3380000  34.9030000 136.9190000 115.3750000  35.5410000
 137.8130000 115.6010000  34.8920000 136.3690000 116.3410000  35.5070000
 137.3470000 115.1470000  36.9860000 136.5240000 115.1480000  37.6990000
 137.6390000 114.0710000  37.0580000 138.3800000 116.1300000  37.6230000
 139.3300000 116.2000000  37.0440000 137.8490000 117.0610000  37.5030000
 138.8630000 115.8970000  39.0520000 137.9760000 115.7420000  39.7180000
 139.4110000 114.9980000  39.0330000 139.8540000 117.0060000  39.6410000
 140.6520000 117.0960000  38.9240000 139.3440000 117.9720000  39.7300000
 140.3240000 116.5930000  40.9840000 139.4400000 116.4920000  41.5740000
 140.7800000 115.5820000  41.0200000 141.2270000 117.5790000  41.7190000
 142.1900000 117.6240000  41.2470000 140.8540000 118.6100000  41.6210000
 141.4890000 117.3320000  43.2160000 141.6130000 116.2280000  43.2750000
 142.4440000 117.8690000  43.5660000 140.3530000 117.6570000  44.1890000
 139.9820000 118.6920000  43.9120000 139.5200000 116.8540000  44.1440000
 140.8100000 117.8210000  45.7120000 141.7890000 118.3880000  45.6270000
 140.1040000 118.5270000  46.2390000 141.1610000 116.4570000  46.3960000
 140.3860000 115.8090000  46.2120000 142.1150000 116.0500000  45.9270000
 141.3520000 116.7620000  47.8950000 142.1590000 117.4840000  48.0730000
 140.4760000 117.3310000  48.2220000 141.5610000 115.5540000  48.8270000
 142.2600000 114.8900000  48.2620000 142.1220000 115.6770000  49.8230000
 140.3230000 114.6680000  49.0240000 139.1880000 114.9330000  48.6040000
 140.6190000 113.5320000  49.6620000 139.4910000 112.7590000  50.2800000
 138.5750000 112.8100000  49.6990000 139.8280000 111.7380000  50.4050000
 139.3020000 113.3180000  51.7710000 140.2750000 113.5220000  52.2460000
 138.4080000 112.4030000  52.6800000 138.8210000 112.3050000  53.6930000
 137.4190000 112.7240000  52.8870000 138.3210000 111.0680000  52.1620000
 136.9870000 110.4510000  51.4070000 136.0170000 109.7970000  52.4730000
 134.7020000 109.3410000  52.1950000 134.2940000 109.0750000  53.2130000
 134.1460000 110.1490000  51.7020000 134.8420000 108.0570000  51.3570000
 133.8540000 107.9170000  50.9880000 135.5850000 108.2460000  50.5820000
 135.3300000 106.8260000  51.9920000 136.8050000 106.7870000  52.2310000
 137.1280000 105.7220000  52.2320000 137.3900000 107.2630000  51.4080000
 137.1030000 107.2360000  53.1840000 134.6910000 106.5650000  53.3330000
 134.8550000 105.5050000  53.5590000 135.1220000 107.1140000  54.1220000
 133.6300000 106.9050000  53.2800000 134.9740000 105.7300000  51.1290000
 135.8190000 105.5130000  50.4410000 134.0510000 105.9390000  50.5390000
 134.7640000 104.7820000  51.7450000 136.4630000 111.5980000  50.6740000
 137.5250000 109.3940000  50.5890000 138.5690000 114.5260000  51.6520000
 139.0380000 115.7290000  51.9510000 140.2170000 115.9230000  52.0490000
 137.9960000 116.8140000  52.1370000 138.2370000 117.2540000  53.1260000
 137.0360000 116.3360000  52.1940000 138.0730000 117.9570000  51.0880000
 138.3830000 117.5460000  50.1410000 138.8230000 118.5650000  51.5330000
 136.7220000 118.7060000  50.9160000 136.4220000 119.0580000  51.9270000
 135.9030000 118.0080000  50.7340000 136.6560000 119.7910000  49.8370000
 137.3420000 120.6250000  50.0800000 135.6000000 120.1650000  49.8140000
 137.2050000 119.3080000  48.4470000 136.7380000 118.3730000  48.2120000
 138.2440000 119.1460000  48.5720000 136.7680000 120.2450000  47.3110000
 137.3530000 119.9030000  46.4680000 136.9950000 121.3140000  47.5430000
 135.2470000 120.2460000  46.8940000 135.1650000 120.9610000  46.0710000
 134.5170000 120.6030000  47.6230000 134.7510000 118.9120000  46.3680000
 134.1400000 118.3850000  47.1200000 135.0560000 118.3360000  45.1930000
 134.5990000 117.3930000  44.8640000 135.8820000 118.8780000  44.0790000
 136.8690000 118.9430000  44.3620000 135.5060000 119.9350000  43.9780000
 135.7330000 118.1590000  42.7240000 134.6580000 118.2820000  42.3400000
 135.9000000 117.0970000  42.9680000 136.6950000 118.6370000  41.6140000
 136.2940000 118.2720000  40.6150000 137.6490000 118.1250000  41.7710000
 136.9000000 120.1420000  41.3840000 137.0570000 120.6230000  42.3460000
 136.0360000 120.6400000  40.9760000 138.0610000 120.4810000  40.3640000
 137.7870000 120.0900000  39.3790000 138.9880000 119.9980000  40.6530000
 138.2410000 122.0180000  40.3160000 138.3520000 122.4470000  41.3230000
 137.3200000 122.5760000  39.9690000 139.4390000 122.3530000  39.3640000
 139.0690000 122.2530000  38.3230000 140.3150000 121.6500000  39.4870000
 139.8540000 123.8050000  39.5880000 139.7730000 124.1070000  40.6750000
 139.0890000 124.4480000  39.1150000 140.8250000 123.9800000  39.0900000
  52.3880000  98.0850000  40.8990000  52.7200000  98.1900000  39.8800000
  51.6630000  97.2830000  40.9640000  53.2950000  97.7730000  41.5290000
  51.7040000  99.3420000  41.3230000  51.4870000  99.3460000  42.3820000
  52.4600000 100.0970000  41.2510000  50.4590000  99.8160000  40.5560000
  50.7490000 100.1840000  39.5450000  49.7210000  99.0430000  40.3990000
  49.7500000 100.9630000  41.2520000  49.5810000 100.4830000  42.1800000
  50.3800000 101.8630000  41.3080000  48.4660000 101.4000000  40.5990000
  48.7600000 101.7970000  39.5890000  47.8260000 100.5050000  40.2730000
  47.6310000 102.3350000  41.4440000  48.2590000 103.1370000  41.7180000
  46.8290000 102.7300000  40.7580000  46.8460000 101.6860000  42.5590000
  46.1200000 101.0720000  42.0850000  47.5450000 101.0040000  43.1080000
  46.1450000 102.6970000  43.5310000  45.4540000 103.3200000  42.8930000
  45.5830000 102.1900000  44.2910000  47.1340000 103.6280000  44.2400000
  47.9590000 103.0810000  44.6060000  47.6480000 104.2810000  43.5310000
  46.6140000 104.4260000  45.5540000  45.5790000 104.7830000  45.3690000
  46.4590000 103.6910000  46.3110000  47.6010000 105.4580000  46.2160000
  47.6330000 106.3520000  45.5520000  47.3540000 105.7210000  47.2320000
  48.9970000 104.9250000  46.3770000  49.5130000 104.7120000  45.4140000
  49.6120000 105.5960000  46.9870000  49.1410000 103.6350000  47.2130000
  48.5040000 102.8750000  46.7850000  50.2390000 103.3150000  47.1930000
  48.7420000 103.7550000  48.7210000  49.2970000 104.4690000  49.3200000
  47.6530000 104.0720000  48.7560000  48.5860000 102.3400000  49.4050000
  47.9440000 101.7090000  48.6700000  49.5990000 101.8450000  49.3090000
  47.8950000 102.5130000  50.7350000  48.0580000 103.4250000  51.5650000
  46.9860000 101.5050000  50.9250000  46.2310000 101.4960000  52.1890000
  45.7520000 100.5320000  52.2500000  46.8930000 101.6400000  53.0270000
  45.0570000 102.5960000  52.1130000  45.4020000 103.6850000  52.0360000
  44.1390000 102.4080000  53.3290000  43.0830000 102.6820000  53.1740000
  44.1070000 101.3560000  53.6590000  44.6380000 103.0240000  54.5630000
  43.7740000 103.0750000  55.8430000  43.3760000 104.5760000  55.9330000
  42.0460000 104.9980000  55.5730000  41.3380000 104.2020000  55.6370000
  41.8310000 105.8510000  56.2770000  41.9850000 105.4450000  54.1070000
  42.4060000 106.4110000  54.1850000  42.5420000 104.7370000  53.4790000
  40.6160000 105.5130000  53.4920000  40.6290000 106.3640000  52.3000000
  41.2380000 105.9180000  51.4810000  39.5370000 106.4950000  52.0380000
  41.0120000 107.3630000  52.6020000  40.1440000 104.2040000  52.9580000
  40.1950000 103.3910000  53.6550000  39.1160000 104.3600000  52.6550000
  40.7370000 103.9490000  52.1220000  39.5900000 106.0240000  54.4700000
  38.6860000 106.2020000  53.8710000  40.0480000 106.9780000  54.7900000
  39.6150000 105.2990000  55.2480000  42.5540000 102.2540000  55.7760000
  44.6900000 102.7820000  56.9470000  44.4280000 102.2200000  50.8700000
  43.5020000 103.0650000  50.3750000  42.9170000 103.8730000  51.0990000
  43.3220000 103.1390000  48.9280000  43.0410000 102.1610000  48.5370000
  44.1880000 103.6010000  48.4370000  42.1300000 104.0010000  48.5680000
  42.1150000 105.0430000  49.0350000  41.2270000 103.4180000  48.8690000
  42.0690000 104.3110000  47.0290000  42.9920000 104.5260000  46.5260000
  41.5400000 105.2280000  47.0330000  41.1970000 103.2950000  46.2100000
  40.8830000 103.7920000  45.2570000  40.2010000 102.9750000  46.5950000
  41.8980000 101.9780000  45.7950000  42.1000000 101.3500000  46.6850000
  42.9220000 102.2340000  45.3210000  41.1880000 101.0920000  44.7170000
  40.2520000 100.6120000  45.1010000  41.8220000 100.2810000  44.4850000
  40.9200000 101.8210000  43.3970000  41.8760000 102.2630000  42.9150000
  40.3100000 102.7210000  43.5680000  39.9810000 101.0370000  42.4530000
  38.9240000 100.9590000  42.8160000  40.3700000 100.6440000  41.2470000
  39.7070000 100.0460000  40.5860000  41.8650000 100.6690000  40.8460000
  42.3980000  99.9360000  41.4070000  42.2780000 101.5710000  41.0180000
  42.1850000 100.4930000  39.3450000  41.5880000 101.2600000  38.7320000
  41.9620000  99.4350000  39.1740000  43.6820000 100.7480000  39.1200000
  44.2330000 100.9000000  40.0610000  43.8850000 101.6520000  38.5150000
  44.3820000  99.6080000  38.3080000  43.7350000  99.2960000  37.4680000
  44.4510000  98.7120000  38.9310000  45.7530000 100.0490000  37.8200000
  46.3740000 100.5690000  38.6180000  45.6190000 100.7890000  37.0220000
  46.6560000  98.8100000  37.3070000  46.0930000  98.2030000  36.6250000
  46.9730000  98.2390000  38.1840000  47.9270000  99.3060000  36.7010000
  48.5440000  98.4510000  36.5640000  48.3470000 100.0400000  37.3760000
  47.7540000  99.9950000  35.3080000  47.1470000  99.4360000  34.5230000
  48.7290000 100.2280000  34.9450000  47.1650000 100.8850000  35.5140000
  17.6330000 120.4090000  34.8830000  17.9140000 119.5200000  35.3970000
  18.3230000 120.5870000  34.0840000  16.5850000 120.4340000  34.5880000
  17.8210000 121.4490000  35.9600000  18.8970000 121.3160000  36.0630000
  17.6330000 122.4880000  35.5750000  17.0850000 121.1140000  37.2840000
  17.6270000 120.3230000  37.7600000  17.2150000 121.9490000  37.8940000
  15.5790000 120.7550000  37.1980000  15.2190000 121.7430000  36.8760000
  15.3620000 120.0330000  36.3930000  14.9320000 120.3140000  38.5440000
  15.1830000 120.9870000  39.4350000  13.8180000 120.3270000  38.4240000
  15.3350000 118.8750000  38.8660000  15.1300000 118.1770000  38.0120000
  16.3890000 118.7590000  39.0810000  14.6880000 118.3400000  40.1670000
  14.9290000 118.8980000  40.9990000  13.5520000 118.3110000  40.0240000
  15.1210000 116.9230000  40.5440000  14.8830000 116.1210000  39.7630000
  16.2260000 116.8600000  40.6670000  14.5150000 116.4970000  41.9280000
  14.8540000 117.0930000  42.7400000  13.4530000 116.5190000  41.9180000
  14.9390000 115.0300000  42.2820000  14.1370000 114.3290000  42.1640000
  15.8150000 114.6970000  41.6700000  15.5130000 114.9610000  43.7430000
  16.0980000 114.1080000  43.9210000  16.2270000 115.7830000  43.9710000
  14.3870000 115.0980000  44.8130000  14.1260000 116.1880000  44.9250000
  13.4760000 114.6260000  44.4910000  14.7290000 114.4740000  46.2010000
  15.5900000 114.8840000  46.6580000  13.8740000 114.8500000  46.8430000
  14.6790000 112.9280000  46.2680000  13.6520000 112.5650000  45.9730000
  15.3070000 112.4490000  45.4940000  14.9780000 112.4780000  47.6730000
  14.6800000 113.1110000  48.5120000  14.4140000 111.5530000  47.8090000
  16.3750000 112.1390000  47.8050000  17.1980000 112.5370000  47.0320000
  16.5850000 111.5710000  49.0220000  17.9320000 111.4960000  49.4800000
  18.4410000 112.4330000  49.1270000  17.9230000 111.4590000  50.5890000
  18.6430000 110.2660000  48.9970000  17.9990000 109.4120000  49.0650000
  20.0070000 109.9680000  49.7060000  19.7570000 109.0700000  50.2140000
  20.8570000 109.7800000  49.0920000  20.3570000 110.9970000  50.6400000
  19.9890000 111.0050000  52.2060000  21.4280000 110.8390000  52.8290000
  22.0710000 109.5660000  52.7510000  21.4390000 108.9330000  53.3220000
  22.0060000 109.3200000  51.7060000  23.4560000 109.7530000  53.3340000
  24.0100000 108.8810000  53.0280000  23.7280000 110.7050000  52.8790000
  23.5820000 109.7860000  54.7960000  23.3540000 108.5270000  55.4810000
  22.3460000 108.2380000  55.2010000  24.0750000 107.7890000  55.0970000
  23.5200000 108.5980000  56.5370000  24.9860000 110.1980000  55.1350000
  25.0270000 110.3460000  56.2240000  25.6800000 109.3960000  54.8960000
  25.1870000 111.1970000  54.6640000  22.6500000 110.7510000  55.3800000
  22.8990000 110.6920000  56.4580000  21.6280000 110.4780000  55.0940000
  22.9380000 111.7310000  54.8630000  19.4850000 112.3110000  52.5690000
  19.1640000 109.8580000  52.4720000  19.0460000 110.3940000  47.6280000
  19.2060000 109.3360000  46.7970000  19.1110000 108.1960000  47.1810000
  19.3580000 109.7290000  45.3560000  19.9600000 108.8540000  44.9480000
  20.0190000 110.5790000  45.1180000  17.9630000 109.8820000  44.6780000
  17.7530000 110.8650000  44.7670000  17.1510000 109.2400000  45.0290000
  18.1910000 109.6500000  43.2180000  18.5710000 108.6340000  42.9790000
  18.8950000 110.3760000  42.8930000  17.0160000 109.8710000  42.2240000
  17.3530000 109.5200000  41.2150000  16.7330000 110.9720000  42.1530000
  15.9530000 108.9080000  42.5600000  15.8100000 108.8710000  43.5750000
  16.2760000 107.9010000  42.1710000  14.5840000 109.2410000  41.8190000
  14.1750000 110.2300000  42.1690000  13.9220000 108.3650000  42.0800000
  14.7270000 109.3150000  40.2640000  15.1610000 108.3500000  39.9060000
  15.3900000 110.1170000  39.9090000  13.3920000 109.7020000  39.5790000
  12.4880000 109.3680000  40.1110000  13.2480000 110.4140000  38.4790000
  12.1780000 110.4820000  38.0700000  14.3890000 110.8930000  37.5660000
  14.0170000 110.9220000  36.4920000  15.2220000 110.0980000  37.5430000
  14.8230000 112.3270000  38.0710000  15.2510000 112.3140000  39.0720000
  13.8930000 112.9330000  38.0290000  15.8710000 112.8570000  37.0620000
  15.5460000 112.6820000  36.0530000  16.7640000 112.2860000  37.2300000
  16.2630000 114.3550000  37.3040000  16.4730000 114.3090000  38.3890000
  15.4000000 115.0260000  37.1430000  17.4780000 114.8220000  36.5310000
  17.2080000 114.7960000  35.4970000  18.4380000 114.2490000  36.6590000
  17.7550000 116.3070000  36.8400000  16.7630000 116.8430000  37.0300000
  18.2440000 116.6300000  35.8940000  18.6860000 116.4610000  38.0400000
  19.5040000 115.7690000  37.9970000  18.1560000 116.1650000  38.9280000
  19.4690000 117.7600000  38.1890000  20.3070000 117.5220000  38.7680000
  18.9820000 118.4570000  38.7740000  19.9010000 118.2460000  37.3080000
 112.3730000  32.1580000  38.3960000 111.6520000  31.6620000  39.0760000
 112.6050000  31.4900000  37.5410000 112.0120000  33.2150000  38.1170000
 113.6490000  32.4830000  39.1130000 114.1880000  31.5410000  39.3350000
 114.2870000  33.1590000  38.4880000 113.2390000  33.3330000  40.3800000
 112.8810000  34.3420000  40.1600000 112.4560000  32.8980000  40.9770000
 114.4770000  33.4330000  41.1890000 114.9820000  32.5490000  41.2420000
 115.1720000  34.1800000  40.8430000 113.9990000  33.8690000  42.5960000
 113.5390000  34.8400000  42.3840000 113.2080000  33.2600000  42.9310000
 115.0890000  34.2350000  43.6420000 115.4760000  35.1600000  43.2250000
 114.6130000  34.4790000  44.5730000 116.1920000  33.2200000  43.6290000
 115.7330000  32.2770000  43.8200000 116.6340000  33.0620000  42.6930000
 117.4110000  33.3950000  44.6730000 117.1250000  33.0690000  45.7330000
 118.2040000  32.6690000  44.4470000 117.9730000  34.8340000  44.6360000
 118.2260000  34.9930000  43.5960000 117.1780000  35.4860000  44.7870000
 119.1100000  34.9990000  45.6800000 118.7650000  34.8680000  46.7810000
 119.8020000  34.2350000  45.6380000 119.8490000  36.3540000  45.5720000
 120.2830000  36.4660000  44.5630000 119.0400000  37.1040000  45.6150000
 121.0240000  36.7240000  46.5490000 121.6890000  35.8880000  46.6110000
 121.5660000  37.4680000  46.1200000 120.4690000  37.1580000  47.9970000
 119.8830000  38.0040000  47.8360000 119.8670000  36.3300000  48.4210000
 121.5580000  37.4860000  49.0270000 122.3110000  36.6920000  49.0980000
 122.0910000  38.3860000  48.6370000 120.9480000  37.7650000  50.4200000
 120.7530000  36.8200000  50.8990000 121.6540000  38.3130000  51.0930000
 119.6320000  38.5450000  50.5140000 119.5950000  39.7510000  50.3220000
 118.6020000  37.6870000  50.7120000 117.3050000  38.2650000  50.9380000
 117.2360000  38.2740000  52.0760000 117.1860000  39.2680000  50.4840000
 116.0920000  37.5200000  50.3050000 115.1760000  38.0570000  50.6520000
 115.8870000  36.0100000  50.7710000 116.4920000  35.3600000  50.1370000
 116.2490000  35.9930000  51.8190000 114.4620000  35.6930000  50.8040000
 113.8680000  34.5150000  51.6960000 113.6600000  33.2690000  50.6800000
 114.4700000  32.1020000  50.7170000 114.2520000  31.5180000  49.8750000
 115.5420000  32.3480000  50.7460000 114.0960000  31.2480000  52.0020000
 114.5360000  30.2950000  51.8270000 114.4270000  31.8210000  52.8040000
 112.6670000  30.7990000  52.3050000 112.6310000  29.6140000  53.1980000
 113.0720000  29.7820000  54.1510000 111.6350000  29.2930000  53.3960000
 113.1240000  28.7970000  52.7360000 111.9270000  31.9560000  52.8350000
 112.0250000  32.8400000  52.2550000 110.9020000  31.7190000  52.8730000
 112.2680000  32.2100000  53.8040000 111.8790000  30.2940000  51.1670000
 112.4190000  29.4970000  50.7330000 111.6830000  31.1080000  50.4530000
 110.9060000  30.0660000  51.5870000 114.8210000  34.2760000  52.7970000
 112.5200000  34.8970000  52.0540000 116.0630000  37.4770000  48.8460000
 115.7320000  38.5990000  48.1660000 115.5030000  39.6190000  48.6910000
 115.9220000  38.5230000  46.6830000 116.2490000  37.4630000  46.4310000
 116.8340000  39.0930000  46.4250000 114.6410000  38.9700000  45.9540000
 114.5820000  40.0590000  46.0020000 113.7250000  38.6400000  46.4870000
 114.7890000  38.5960000  44.5280000 114.6750000  37.5450000  44.3550000
 115.7550000  38.7960000  44.1280000 113.8180000  39.3140000  43.5790000
 114.1010000  40.3550000  43.4700000 112.8290000  39.3170000  43.8300000
 114.0110000  38.5580000  42.2020000 113.6500000  37.5000000  42.3250000
 115.0710000  38.5290000  41.8450000 113.1780000  39.1790000  40.9720000
 113.4850000  38.7410000  40.0480000 113.4110000  40.2110000  40.8330000
 111.6400000  39.2990000  41.1740000 111.4300000  39.9610000  41.9980000
 111.1380000  38.3630000  41.4660000 110.7540000  39.6830000  39.9120000
 110.3890000  40.7130000  40.0590000 110.3800000  38.8180000  38.9630000
 109.6530000  39.0770000  38.1750000 111.0040000  37.4510000  38.8810000
 110.2880000  36.6250000  39.0280000 111.7260000  37.3660000  39.7510000
 111.7100000  37.2470000  37.5120000 112.6660000  37.7610000  37.5030000
 111.0170000  37.5420000  36.7190000 111.9930000  35.7780000  37.1890000
 111.2940000  35.0630000  37.7100000 112.9990000  35.5840000  37.5030000
 112.1460000  35.4240000  35.6940000 113.0200000  36.0180000  35.4230000
 111.2430000  35.6750000  35.1310000 112.4850000  33.9870000  35.2830000
 111.8720000  33.1950000  35.6910000 113.5050000  33.7520000  35.6850000
 112.3300000  33.8100000  33.7060000 112.8910000  34.6190000  33.2290000
 111.2980000  33.9780000  33.3750000 112.7750000  32.3970000  33.2230000
 113.8840000  32.3340000  33.3260000 112.5530000  32.2230000  32.1370000
 112.1190000  31.1730000  33.9080000 111.0140000  31.3700000  33.9880000
 112.3890000  31.1210000  34.9970000 112.2600000  30.2380000  33.3590000
 102.4090000 144.9980000  36.9940000 101.5380000 144.5540000  36.5110000
 103.3420000 144.6130000  36.4800000 102.5080000 146.0500000  36.8290000
 102.4580000 144.5590000  38.4190000 102.3640000 143.4740000  38.4420000
 103.4370000 144.8540000  38.8560000 101.2980000 145.0610000  39.2860000
 101.3660000 144.6490000  40.2790000 101.5530000 146.1640000  39.3460000
  99.8860000 144.7720000  38.8220000  99.6520000 145.4230000  38.0330000
  99.8150000 143.8400000  38.2920000  98.8420000 144.7570000  39.9870000
  97.8370000 144.5060000  39.6970000  99.1410000 143.9750000  40.6660000
  98.7910000 146.1350000  40.7200000  99.7530000 146.6300000  40.7900000
  98.2640000 146.9200000  40.0850000  98.3330000 146.0510000  42.1620000
  98.8670000 145.2440000  42.6610000  98.5470000 146.9740000  42.6660000
  96.8940000 145.6480000  42.2770000  96.3580000 146.5130000  41.9500000
  96.6590000 144.7460000  41.6180000  96.3570000 145.4200000  43.7100000
  96.8040000 144.4710000  44.0290000  96.6190000 146.2640000  44.4580000
  94.8280000 145.1880000  43.6950000  94.2810000 146.1520000  43.4180000
  94.5770000 144.4200000  42.8950000  94.2500000 144.7010000  45.0850000
  93.2640000 144.6310000  44.8990000  94.5870000 143.7660000  45.4780000
  94.5430000 145.7060000  46.2540000  95.5780000 145.8670000  46.2600000
  94.1530000 146.6410000  45.8950000  94.0870000 145.2680000  47.6680000
  93.0680000 144.8790000  47.5980000  94.5630000 144.3640000  48.0870000
  94.1810000 146.3570000  48.8390000  93.6240000 147.3080000  48.5790000
  93.5850000 145.9050000  49.6010000  95.6540000 146.6500000  49.2290000
  96.3050000 146.6290000  48.3510000  95.8520000 147.6480000  49.5190000
  96.3410000 145.7340000  50.1970000  95.7700000 144.8100000  50.6550000
  97.6400000 146.1250000  50.4650000  98.5810000 145.2290000  51.2080000
  99.5310000 145.7730000  51.3500000  98.1220000 144.9090000  52.1040000
  98.9630000 144.0120000  50.2880000  98.0430000 143.5620000  49.9390000
  99.7240000 142.9630000  51.0420000 100.7700000 142.9770000  50.6300000
  99.6900000 143.2040000  52.0980000  99.1350000 141.6350000  50.7870000
  98.5350000 140.8130000  52.0470000  99.8220000 140.4060000  52.9120000
 100.9800000 140.0660000  52.2600000 101.2800000 139.0270000  52.3090000
 101.0510000 140.4720000  51.3120000 101.9320000 141.0010000  53.1020000
 101.7100000 142.0870000  52.9650000 101.8260000 140.7520000  54.1810000
 103.4260000 140.8830000  52.8880000 104.1470000 141.7240000  53.8400000
 105.1860000 141.5470000  53.6430000 103.7410000 142.7380000  53.8420000
 103.9460000 141.2640000  54.8280000 104.0330000 139.4670000  52.9560000
 105.1710000 139.4100000  52.8170000 103.9210000 139.1860000  54.0350000
 103.5260000 138.8190000  52.2640000 103.6230000 141.4570000  51.5110000
 103.3570000 142.5060000  51.4340000 102.9440000 140.8050000  50.9210000
 104.6170000 141.2280000  51.2020000  97.8510000 141.7260000  53.0000000
  97.8720000 139.5790000  51.6750000  99.8200000 144.4430000  49.1620000
  99.2490000 144.5900000  47.9730000  98.1180000 144.8810000  47.8300000
 100.2870000 144.3310000  46.8910000 101.2380000 143.8980000  47.3050000
 100.5870000 145.2180000  46.4050000  99.7410000 143.3890000  45.8250000
 100.5180000 143.3170000  45.0080000  98.9300000 143.8380000  45.3010000
  99.2190000 142.0780000  46.3110000  98.5270000 142.1560000  47.0650000
 100.0360000 141.4840000  46.6990000  98.5810000 141.2240000  45.2550000
  97.6630000 141.7130000  45.0370000  98.2440000 140.3510000  45.7440000
  99.3310000 140.8530000  44.0050000 100.2590000 140.3090000  44.2630000
  99.6920000 141.7830000  43.5120000  98.4100000 140.0410000  43.0390000
  97.4220000 140.4110000  43.2370000  98.4460000 138.9450000  43.2200000
  98.7490000 140.2850000  41.5970000  99.8170000 140.0440000  41.4610000
  98.6350000 141.3970000  41.4120000  98.0110000 139.5820000  40.5450000
  97.6710000 138.5940000  40.8930000  97.7250000 140.0750000  39.3190000
  97.2390000 139.4230000  38.6360000  98.0360000 141.4590000  38.6370000
  98.3580000 142.1870000  39.3780000  97.1300000 141.7800000  38.1960000
  99.1700000 141.2890000  37.5450000  99.2230000 142.1890000  36.9310000
  98.8750000 140.3910000  36.9020000 100.5500000 140.9330000  38.1940000
 100.5660000 140.0740000  38.9130000 100.8700000 141.8560000  38.7030000
 101.5780000 140.8010000  37.1010000 101.7260000 141.6770000  36.5220000
 101.1790000 140.1250000  36.3520000 102.8990000 140.3550000  37.6020000
 102.8300000 139.5230000  38.3490000 103.2800000 141.2630000  38.1890000
 103.8030000 140.0200000  36.3560000 104.0100000 140.8880000  35.7000000
 103.3500000 139.2280000  35.7470000 105.2050000 139.5490000  36.7840000
 105.7450000 140.3680000  37.3170000 105.7800000 139.2850000  35.8870000
 105.1150000 138.3090000  37.5950000 104.5370000 138.4840000  38.4910000
 106.1520000 138.1020000  37.8780000 104.7330000 137.4140000  37.0900000
  11.2210000  79.5150000  40.1750000  10.5370000  80.2500000  40.6890000
  10.9020000  79.4750000  39.1510000  12.2390000  79.8170000  40.2650000
  10.9510000  78.0880000  40.8330000   9.9230000  77.8130000  40.5580000
  11.6770000  77.3090000  40.4620000  11.0470000  78.1650000  42.3740000
  11.9630000  78.5430000  42.8530000  10.2820000  78.7250000  42.8360000
  10.8810000  76.7750000  43.0090000  10.4100000  76.1790000  42.2640000
  11.8990000  76.2760000  43.1590000  10.1590000  76.7180000  44.3650000
   9.0810000  76.9470000  44.1800000  10.1260000  75.6640000  44.6980000
  10.8260000  77.5920000  45.5050000  11.8410000  77.2640000  45.4660000
  10.7780000  78.6430000  45.3120000  10.2720000  77.4410000  46.9140000
   9.2270000  77.7040000  46.9180000  10.3140000  76.3860000  47.2220000
  11.0350000  78.4940000  47.7700000  10.8150000  79.4870000  47.3640000
  10.6480000  78.5770000  48.8850000  12.6230000  78.3900000  47.9120000
  12.8480000  77.3810000  48.3490000  13.0870000  78.5450000  46.9370000
  13.2730000  79.5160000  48.8040000  13.1370000  79.2470000  49.8950000
  14.3640000  79.5090000  48.5940000  12.8270000  80.9430000  48.4800000
  11.7240000  81.2450000  48.5280000  13.2270000  81.5950000  49.3210000
  13.4800000  81.3150000  47.1910000  14.5340000  80.8710000  47.0880000
  12.8640000  80.9330000  46.3600000  13.4910000  82.8330000  46.8520000
  13.9010000  82.8940000  45.8660000  12.4780000  83.3930000  46.8910000
  14.4570000  83.5480000  47.8570000  14.0480000  83.3640000  48.8770000
  15.4280000  83.1100000  47.9280000  14.6990000  85.0820000  47.6680000
  15.3250000  85.3080000  46.8020000  13.7210000  85.5360000  47.5290000
  15.1870000  85.6560000  48.9760000  16.3050000  85.4260000  49.3450000
  14.2130000  86.2340000  49.6680000  14.6380000  86.6380000  51.0350000
  15.6000000  86.2340000  51.4410000  14.5480000  87.6970000  51.0900000
  13.5050000  86.1660000  52.0150000  12.6400000  86.3890000  51.4610000
  13.5490000  86.9540000  53.3580000  13.1590000  86.2820000  54.1550000
  14.5650000  87.2810000  53.5610000  12.7060000  88.1140000  53.2870000
  12.2890000  89.0680000  54.5980000  11.1770000  88.1540000  55.3630000
   9.7750000  88.3890000  55.2750000   9.3110000  87.8000000  56.0510000
   9.6510000  89.4420000  55.4370000   9.3250000  88.1400000  53.8470000
   8.3510000  88.6160000  53.7170000  10.0510000  88.5590000  53.2170000
   9.1180000  86.7770000  53.4830000   8.7750000  86.6620000  52.0300000
   9.6000000  87.0530000  51.3670000   8.4140000  85.6910000  51.8370000
   7.9050000  87.3400000  51.9220000  10.3520000  85.9540000  53.7230000
  10.5830000  85.9350000  54.7950000  10.0490000  84.9190000  53.4540000
  11.1710000  86.3860000  53.0670000   8.0250000  86.1870000  54.2880000
   7.8990000  85.1330000  54.0400000   7.1910000  86.8180000  53.9470000
   8.1650000  86.4230000  55.4100000  13.4550000  89.0910000  55.4960000
  11.6390000  90.2630000  54.1440000  13.4950000  84.7290000  52.1850000
  12.4590000  83.9260000  51.8160000  11.4900000  84.3400000  51.1550000
  12.7280000  82.4730000  52.2480000  13.3860000  82.4810000  53.1670000
  13.2290000  81.9970000  51.3640000  11.5190000  81.5870000  52.7240000
  10.7820000  82.2120000  53.1150000  11.8110000  80.8640000  53.4510000
  10.8730000  80.7930000  51.6420000  11.5480000  79.9180000  51.4120000
  10.7280000  81.4310000  50.8330000   9.4910000  80.4710000  52.1670000
   9.1500000  81.4610000  52.3830000   9.5030000  79.8150000  53.0270000
   8.5650000  79.7590000  51.2450000   7.7620000  79.3710000  51.8250000
   9.0710000  78.9840000  50.6940000   7.9270000  80.7430000  50.2990000
   7.9320000  81.7530000  50.7280000   6.9180000  80.5020000  50.2960000
   8.6190000  80.8840000  48.9290000   8.6860000  79.8700000  48.4590000
   9.6310000  81.2540000  49.0780000   7.9330000  81.8820000  48.0230000
   7.8090000  82.8550000  48.4780000   7.2790000  81.4910000  46.8960000
   6.6690000  82.2630000  46.4270000   7.5550000  80.2450000  46.1230000
   7.0210000  79.4120000  46.5690000   8.5980000  80.0880000  46.1670000
   7.0130000  80.4620000  44.6600000   7.4040000  81.4420000  44.2690000
   5.9240000  80.5960000  44.6460000   7.2910000  79.2090000  43.8160000
   6.8870000  78.3640000  44.3200000   8.3750000  79.0960000  43.8100000
   6.7640000  79.2680000  42.3800000   7.3830000  80.0010000  41.8330000
   5.7570000  79.6490000  42.3740000   6.7980000  77.9300000  41.6340000
   7.8430000  77.7480000  41.4110000   6.3280000  78.1660000  40.7250000
   6.1970000  76.7330000  42.2400000   5.1480000  76.9110000  42.4280000
   6.7250000  76.4670000  43.1410000   6.1610000  75.4560000  41.3520000
   5.7340000  75.5800000  40.4420000   5.6020000  74.6710000  41.8660000
   7.6290000  75.1220000  41.2350000   7.8000000  74.0870000  40.8660000
   8.1040000  75.1810000  42.1820000   8.2210000  75.8010000  40.5910000
 101.5450000  38.0370000  41.7600000 100.4120000  37.9350000  41.8280000
 101.9230000  37.1490000  41.2060000 101.7460000  38.8970000  41.1100000
 102.2360000  38.0760000  43.1170000 101.8700000  37.2180000  43.7130000
 103.3130000  38.0130000  43.1970000 101.9820000  39.4290000  43.8590000
 102.7490000  40.1030000  43.5570000 100.9670000  39.8100000  43.7230000
 102.2280000  39.3020000  45.3650000 101.9690000  40.2470000  45.7870000
 101.5340000  38.6350000  45.8260000 103.6980000  38.9550000  45.7340000
 103.9270000  37.9060000  45.5730000 104.3440000  39.5240000  45.0360000
 103.9560000  39.1580000  47.2270000 103.6040000  40.1350000  47.5440000
 103.3360000  38.4840000  47.8650000 105.4210000  39.0060000  47.5530000
 105.9240000  39.6750000  46.9290000 105.6180000  39.3020000  48.5540000
 106.1240000  37.6450000  47.3850000 106.0730000  37.3740000  46.2840000
 107.1730000  37.5680000  47.7490000 105.3180000  36.6310000  48.2130000
 105.2780000  36.9780000  49.2900000 104.3400000  36.5380000  47.8280000
 105.9340000  35.2600000  48.1320000 107.0470000  35.2770000  48.2080000
 105.5820000  34.6190000  48.9510000 105.6800000  34.5580000  46.8200000
 105.8810000  35.2500000  45.9730000 106.4690000  33.8050000  46.8660000
 104.2930000  33.8710000  46.7510000 103.5440000  34.5900000  46.8480000
 104.1790000  33.4170000  45.7560000 103.9650000  32.9360000  47.9380000
 104.9090000  32.3540000  48.1360000 103.7970000  33.5990000  48.7440000
 102.7500000  31.9890000  47.7880000 102.9820000  31.4640000  46.8170000
 102.7560000  31.2270000  48.6040000 101.3540000  32.6240000  47.7710000
 101.3450000  33.4590000  47.0140000 100.6480000  31.7640000  47.5540000
 100.9100000  33.1170000  49.1560000 100.1210000  32.5220000  49.8240000
 101.6230000  34.2260000  49.5730000 101.3740000  34.6790000  50.9170000
 101.1000000  35.6780000  50.9130000 100.4990000  34.1120000  51.4000000
 102.6050000  34.3880000  51.7650000 102.8050000  33.2780000  51.4480000
 102.3440000  34.5670000  53.3280000 103.1290000  34.0810000  53.8320000
 102.4060000  35.6240000  53.6080000 101.1290000  33.9220000  53.7280000
 100.8890000  33.0430000  55.0530000  99.8030000  33.8920000  55.9430000
 100.1700000  35.0730000  56.7040000  99.4400000  35.4040000  57.4480000
 101.0400000  34.8930000  57.3170000 100.3020000  36.0950000  55.6090000
 101.1730000  35.9070000  54.9610000  99.4320000  36.0530000  54.9670000
 100.4110000  37.4930000  56.0550000  99.2860000  38.0640000  56.6850000
  99.4110000  39.1330000  56.8110000  98.4430000  37.9430000  55.9830000
  99.1360000  37.6270000  57.6330000 101.7040000  37.6750000  56.8140000
 102.0390000  38.6890000  56.5730000 101.5760000  37.4220000  57.8770000
 102.4500000  37.0190000  56.3790000 100.5950000  38.3570000  54.8360000
 101.3180000  37.9300000  54.1180000 101.0190000  39.3260000  55.1550000
  99.6210000  38.5320000  54.3180000 100.2110000  31.8070000  54.6890000
 102.0920000  32.9320000  55.8100000 103.6790000  35.2230000  51.3950000
 104.9450000  34.7540000  51.6730000 105.1180000  33.6400000  52.0440000
 106.0620000  35.7570000  51.5680000 105.6890000  36.7910000  51.6020000
 106.5070000  35.6320000  50.5790000 107.1820000  35.6610000  52.6770000
 107.8010000  34.7820000  52.6480000 106.7220000  35.6070000  53.6800000
 108.1370000  36.8110000  52.4820000 109.0720000  36.5710000  52.9740000
 107.6520000  37.5700000  53.1120000 108.5030000  37.3560000  51.0350000
 107.5610000  37.7610000  50.6050000 108.7490000  36.5500000  50.3380000
 109.6430000  38.3550000  51.1530000 110.5530000  37.7830000  51.4100000
 109.4040000  38.9660000  52.0390000 109.8240000  39.2090000  49.9400000
 110.5230000  40.0130000  50.1910000 108.8590000  39.6630000  49.6110000
 110.5870000  38.4050000  48.8850000 110.0420000  37.5200000  48.5150000
 111.4590000  37.9290000  49.3650000 111.1610000  39.2660000  47.7420000
 112.0680000  39.7420000  47.9520000 110.7290000  39.4060000  46.5180000
 111.1630000  40.1030000  45.8560000 109.3570000  38.8820000  46.0140000
 108.4970000  39.4020000  46.4420000 109.2260000  37.8890000  46.2430000
 109.2640000  39.0370000  44.5250000 110.1250000  38.5010000  44.0810000
 109.3530000  40.0210000  44.0950000 108.0280000  38.3850000  44.0170000
 107.1110000  38.6900000  44.5780000 108.0520000  37.2580000  44.1610000
 108.0130000  38.6100000  42.4610000 108.8420000  38.0520000  42.0300000
 108.2010000  39.6220000  42.2200000 106.8210000  38.1410000  41.7900000
 105.9740000  38.6920000  42.1680000 106.6250000  37.0940000  42.0100000
 106.9060000  38.3920000  40.2810000 107.5430000  37.7080000  39.8790000
 107.2670000  39.3950000  40.2020000 105.6090000  38.3340000  39.4420000
 105.9430000  38.3870000  38.4620000 104.9440000  39.2060000  39.7200000
 104.8210000  36.9890000  39.5980000 103.7830000  37.0770000  39.2640000
 104.6140000  36.7140000  40.6480000 105.3060000  36.0910000  39.1290000
  74.7330000 101.7670000  45.6870000  74.7210000 102.2150000  46.6860000
  75.6660000 101.2960000  45.5510000  74.0020000 101.0310000  45.7410000
  74.3610000 102.7730000  44.5960000  74.9850000 103.6710000  44.8260000
  74.6950000 102.4160000  43.6690000  72.9270000 103.1400000  44.4440000
  72.3280000 102.2220000  44.2650000  72.5550000 103.5560000  45.3260000
  72.7250000 104.1600000  43.2070000  73.3800000 105.0360000  43.3910000
  72.9610000 103.6300000  42.2520000  71.3790000 104.7430000  42.9560000
  70.7830000 104.7370000  43.8230000  71.4610000 105.7840000  42.4990000
  70.5600000 103.8190000  41.9790000  69.6360000 104.4190000  41.8220000
  71.1740000 103.9380000  41.0620000  70.3290000 102.3840000  42.4540000
  71.2400000 101.8130000  42.3020000  70.1930000 102.2840000  43.5510000
  69.1520000 101.6800000  41.7770000  69.4150000 101.4240000  40.7190000
  68.9200000 100.8360000  42.3750000  67.8550000 102.4600000  41.7100000
  67.9070000 103.3170000  40.9950000  67.0230000 101.8230000  41.3440000
  67.2000000 102.9840000  43.0320000  67.9530000 103.5160000  43.5570000
  66.3560000 103.6410000  42.8570000  66.7250000 101.8920000  44.0300000
  65.7380000 101.5320000  43.8110000  67.5050000 101.1350000  44.0710000
  66.5400000 102.3350000  45.5040000  65.7050000 102.9910000  45.5260000
  66.2770000 101.4350000  46.0940000  67.7460000 102.9330000  46.2850000
  68.6550000 102.2850000  46.0970000  68.0550000 103.8860000  45.8180000
  67.5290000 103.3720000  47.7830000  67.1820000 102.5530000  48.4120000
  68.4460000 103.6260000  48.1750000  66.5730000 104.5670000  47.9790000
  66.8560000 105.3380000  47.2920000  65.5410000 104.1550000  47.9570000
  66.7310000 105.1540000  49.4480000  67.4630000 104.6800000  50.2910000
  66.0020000 106.2600000  49.6520000  66.1960000 106.9550000  50.9330000
  65.3760000 107.6210000  51.1640000  66.2560000 106.2500000  51.7430000
  67.4340000 107.9090000  50.9140000  68.3690000 107.4040000  51.0440000
  67.2190000 108.9450000  51.9980000  67.4380000 109.9580000  51.6090000
  66.2140000 109.0620000  52.4120000  68.2030000 108.6940000  53.0830000
  67.8760000 107.8350000  54.4520000  69.2680000 107.0220000  54.6840000
  69.4240000 105.6080000  54.3150000  70.2150000 105.1450000  54.9570000
  68.4990000 105.0730000  54.5390000  69.9880000 105.6120000  52.8490000
  70.1440000 104.4940000  52.7890000  69.3480000 106.0480000  52.0770000
  71.2660000 106.1820000  52.4960000  71.4000000 105.8880000  51.0470000
  70.7650000 106.6650000  50.6030000  72.3790000 105.9770000  50.7350000
  71.0030000 104.8680000  50.8880000  71.3470000 107.7010000  52.7320000
  72.2210000 108.0640000  52.2250000  70.4520000 108.2250000  52.3320000
  71.5370000 107.8900000  53.8160000  72.3800000 105.5630000  53.2220000
  73.2220000 106.1830000  53.1050000  72.5320000 104.4600000  52.9710000
  72.1670000 105.5960000  54.2860000  67.6420000 108.7680000  55.6080000
  66.7450000 106.9600000  54.0670000  67.4490000 108.6410000  49.6460000
  68.3220000 108.2870000  48.7380000  69.0530000 107.2880000  48.7260000
  68.1600000 109.1930000  47.5400000  68.7790000 108.7550000  46.7790000
  68.6290000 110.1110000  47.8660000  66.6710000 109.4710000  47.1160000
  66.6790000 110.3530000  46.4070000  66.1340000 109.7140000  47.9850000
  66.0250000 108.2590000  46.3450000  65.0250000 108.7010000  46.2220000
  66.0270000 107.4370000  47.0040000  66.6680000 107.9760000  44.9940000
  67.6910000 107.6040000  45.1890000  66.7700000 108.9040000  44.3210000
  65.7270000 107.0270000  44.2220000  64.7190000 107.4180000  44.3250000
  65.7280000 106.0730000  44.8620000  66.1150000 106.7840000  42.7650000
  65.5930000 105.9990000  42.3460000  67.1980000 106.5180000  42.7540000
  65.8330000 108.0600000  41.8800000  66.4380000 108.8910000  42.3380000
  64.7670000 108.3660000  41.8820000  66.4310000 107.8750000  40.5510000
  67.2150000 107.1680000  40.4130000  66.2020000 108.6400000  39.4910000
  66.8540000 108.6330000  38.5720000  65.2260000 109.7580000  39.4470000
  64.9000000 109.9920000  40.4920000  64.3610000 109.3360000  38.9240000
  65.7660000 111.0110000  38.7200000  65.8240000 110.6620000  37.5930000
  66.7670000 111.3230000  39.0590000  64.8220000 112.2800000  38.7760000
  63.8450000 111.9860000  38.3240000  65.1220000 113.0300000  38.0370000
  64.8330000 112.8540000  40.1950000  65.6710000 113.5380000  40.3390000
  64.9240000 112.1020000  41.0250000  63.6540000 113.7760000  40.4360000
  63.7210000 114.1410000  41.5340000  62.7280000 113.2000000  40.4020000
  63.5240000 115.0430000  39.5970000  63.2130000 114.7310000  38.5990000
  64.4440000 115.6840000  39.3480000  62.4320000 115.9840000  39.9800000
  61.5660000 115.4130000  40.2170000  62.1550000 116.6220000  39.1890000
  62.7360000 116.8970000  41.1270000  63.7410000 117.4530000  41.1520000
  62.7630000 116.2000000  41.9890000  61.8980000 117.5240000  41.3110000
 125.8800000 144.6000000  42.6780000 126.5060000 144.9950000  43.4560000
 125.4980000 145.3910000  42.0360000 126.3610000 143.9450000  41.9560000
 124.6120000 143.8670000  43.2190000 124.0210000 143.3990000  42.3870000
 124.8580000 143.0700000  43.8780000 123.7240000 144.9290000  43.9760000
 123.6570000 145.9680000  43.6640000 122.7200000 144.5420000  43.7840000
 123.8740000 144.8800000  45.5140000 123.9340000 143.8520000  45.8320000
 124.8280000 145.2800000  45.8360000 122.7240000 145.5020000  46.2920000
 123.1070000 146.5190000  46.7360000 121.8800000 145.6900000  45.6190000
 122.2190000 144.5610000  47.3550000 122.3270000 143.4510000  47.1720000
 122.7770000 144.7700000  48.2340000 120.7390000 144.7940000  47.6540000
 120.5610000 145.8410000  47.8290000 120.1830000 144.5460000  46.7520000
 120.2750000 144.1070000  48.9430000 120.9890000 144.3680000  49.7540000
 119.3410000 144.7060000  49.1100000 119.9890000 142.5480000  48.8420000
 118.9970000 142.4640000  48.3710000 120.6390000 142.0660000  48.1080000
 120.0240000 141.7340000  50.1610000 119.2050000 142.1540000  50.7750000
 119.8880000 140.6650000  50.0290000 121.4160000 141.8960000  50.8820000
 121.6620000 142.9560000  51.1550000 121.4240000 141.3110000  51.8240000
 122.6480000 141.3810000  50.1620000 122.8040000 141.9560000  49.2460000
 123.4490000 141.6930000  50.8710000 122.6880000 139.8240000  49.9340000
 122.4300000 139.3470000  50.9180000 121.9260000 139.6560000  49.1180000
 124.0510000 139.3200000  49.4550000 124.3030000 139.7650000  48.4500000
 124.7950000 139.6570000  50.2640000 124.3310000 137.8100000  49.2450000
 123.7130000 137.4610000  48.4330000 125.3650000 137.6720000  48.9450000
 124.1540000 137.1170000  50.5560000 124.5700000 137.5310000  51.6200000
 123.5350000 135.9880000  50.3580000 122.9290000 135.2370000  51.4490000
 122.8860000 134.1890000  51.0920000 123.5550000 135.3320000  52.3850000
 121.5240000 135.6490000  51.8610000 121.4110000 136.7440000  51.9060000
 121.0460000 135.0580000  53.1840000 121.3990000 135.6760000  53.9760000
 119.9950000 135.0570000  53.0780000 121.4390000 133.6810000  53.4600000
 122.6570000 133.3100000  54.5110000 121.7830000 133.0000000  55.7700000
 121.7530000 133.7590000  57.0000000 121.9260000 132.9430000  57.6950000
 122.6400000 134.3660000  57.1000000 120.4360000 134.5810000  57.2180000
 120.3670000 134.9010000  58.2820000 120.5120000 135.4870000  56.6620000
 119.1400000 134.0460000  56.8220000 118.9150000 134.3100000  55.4250000
 119.5680000 133.6700000  54.7930000 117.8480000 134.1560000  55.2530000
 119.1110000 135.3520000  55.2790000 118.9740000 132.5830000  57.1870000
 118.0020000 132.2340000  56.9290000 119.7870000 132.1520000  56.6070000
 119.1190000 132.4380000  58.2890000 118.1140000 134.7730000  57.5680000
 118.4390000 134.7250000  58.6100000 117.1180000 134.3090000  57.4610000
 118.0480000 135.6790000  57.1040000 123.3880000 132.0610000  54.0980000
 123.4060000 134.5300000  54.7770000 120.6170000 135.1610000  50.7820000
 120.0720000 135.8830000  49.8850000 120.5710000 136.8680000  49.5070000
 118.6730000 135.3670000  49.4850000 118.3890000 134.4150000  49.9430000
 118.7340000 135.2670000  48.3920000 117.5570000 136.3100000  49.8680000
 117.4370000 136.4370000  50.9370000 116.7030000 135.7210000  49.5870000
 117.3890000 137.6610000  49.1270000 117.2800000 137.4660000  47.9800000
 118.2360000 138.3300000  49.2870000 116.2350000 138.4790000  49.5960000
 116.4630000 138.7000000  50.6610000 115.3140000 137.9830000  49.5690000
 116.0360000 139.8390000  48.8530000 116.0530000 139.6160000  47.8310000
 116.7570000 140.6470000  49.0970000 114.7330000 140.5280000  49.2010000
 114.8290000 140.7530000  50.2460000 113.9160000 139.7850000  49.0430000
 114.4540000 141.8100000  48.3680000 113.4770000 142.1500000  48.6940000
 114.5560000 141.8030000  47.2760000 115.4550000 142.8660000  48.8030000
 115.4840000 143.0300000  49.9450000 116.2490000 143.6110000  48.0830000
 116.7550000 144.4160000  48.6300000 116.4520000 143.5670000  46.5690000
 115.6890000 143.1440000  45.9720000 117.3710000 143.0020000  46.3870000
 116.8870000 145.0080000  46.0390000 117.4170000 145.6240000  46.7840000
 115.9790000 145.5510000  45.7980000 117.6930000 144.9290000  44.6700000
 117.0830000 144.4390000  43.9910000 118.4480000 144.2360000  44.7650000
 118.2530000 146.2450000  44.3210000 118.6450000 146.7230000  45.2360000
 117.3700000 146.8640000  44.1140000 119.3110000 146.3600000  43.2700000
 120.3080000 146.0200000  43.6690000 119.5320000 147.3700000  43.0000000
 118.9940000 145.5350000  41.9710000 119.0660000 144.4760000  42.2390000
 119.8330000 145.6660000  41.2400000 117.6900000 145.8970000  41.2900000
 117.6320000 146.9820000  41.2320000 116.9300000 145.4470000  41.9610000
 117.5990000 145.2710000  39.9130000 117.4000000 144.2210000  39.9600000
 118.4730000 145.4680000  39.2540000 116.7910000 145.7070000  39.3890000
  84.8580000 124.0860000  34.9220000  85.7150000 124.6390000  34.4920000
  84.5150000 123.3910000  34.1830000  85.2490000 123.4550000  35.7300000
  83.7410000 125.0340000  35.3380000  83.1460000 125.2320000  34.4200000
  82.9710000 124.6180000  36.0500000  84.2800000 126.4310000  35.6380000
  84.9480000 126.6770000  34.8090000  83.4270000 127.1020000  35.5720000
  84.9960000 126.4320000  37.0560000  84.3270000 126.0540000  37.8200000
  85.8580000 125.7460000  36.9400000  85.4020000 127.8360000  37.5700000
  86.1230000 128.2790000  36.8550000  84.4750000 128.4690000  37.5200000
  86.1140000 127.8840000  38.9240000  87.0430000 127.3420000  38.9350000
  86.3470000 128.9420000  39.1360000  85.2490000 127.4690000  40.1130000
  84.3490000 128.1760000  40.1910000  84.9700000 126.4270000  39.9340000
  86.0870000 127.5990000  41.4010000  86.9540000 126.9830000  41.2640000
  86.3510000 128.6480000  41.5230000  85.2130000 127.1980000  42.5830000
  84.3000000 127.7540000  42.5840000  84.9830000 126.2070000  42.4160000
  85.9820000 127.4080000  43.9450000  87.0180000 127.0860000  43.8190000
  86.1110000 128.4850000  44.2270000  85.3370000 126.7930000  45.1940000
  85.3940000 125.7090000  45.0420000  85.9350000 127.0960000  46.0520000
  83.8740000 127.1710000  45.4620000  83.8490000 128.1940000  45.7470000
  83.2180000 127.0410000  44.5990000  83.2700000 126.4360000  46.6550000
  83.2830000 125.4010000  46.4230000  83.9640000 126.5300000  47.5220000
  81.8160000 126.8500000  47.0990000  81.0430000 126.6960000  46.3310000
  81.4570000 126.1800000  47.9080000  81.7050000 128.2850000  47.6700000
  82.6990000 128.6280000  48.0560000  81.2380000 128.9960000  46.9790000
  80.6890000 128.3670000  48.8770000  79.5030000 128.0710000  48.7330000
  81.1630000 128.8850000  50.0100000  80.4700000 128.6800000  51.2160000
  80.8640000 129.3020000  52.0260000  79.4090000 128.9540000  51.0450000
  80.6470000 127.1830000  51.6340000  80.4820000 126.5010000  50.7790000
  79.6960000 126.8130000  52.8570000  78.7240000 126.4240000  52.4810000
  80.2330000 125.9630000  53.3470000  79.5040000 127.8800000  53.7710000
  78.5260000 127.6300000  54.9620000  77.1920000 128.1040000  54.3430000
  77.0920000 129.4880000  53.9300000  77.8730000 130.0590000  54.5050000
  77.2170000 129.4990000  52.7990000  75.7600000 130.0730000  54.3620000
  75.8990000 131.1430000  54.1160000  74.9570000 129.6450000  53.7490000
  75.2990000 129.9130000  55.7650000  74.8220000 128.5810000  56.1000000
  75.6040000 127.8340000  56.0460000  74.4980000 128.6030000  57.1470000
  73.9790000 128.3160000  55.4500000  76.3080000 130.3720000  56.7030000
  76.7560000 131.3010000  56.3050000  75.7700000 130.6000000  57.6350000
  77.0460000 129.5990000  56.7210000  74.0000000 130.7320000  55.7400000
  74.3200000 131.7840000  55.9610000  73.4360000 130.3730000  56.5500000
  73.4580000 130.6230000  54.7820000  78.2810000 126.1880000  55.0850000
  78.7460000 128.5070000  56.1660000  82.0520000 126.9620000  51.9860000
  82.8330000 126.1880000  51.2090000  82.3770000 125.6710000  50.1800000
  84.2620000 126.1770000  51.8320000  84.3610000 126.5700000  52.9390000
  84.7660000 126.9850000  51.3030000  85.1240000 124.8620000  51.6100000
  84.6930000 123.9710000  51.9450000  86.0660000 124.9860000  52.1570000
  85.4720000 124.6910000  50.1130000  86.0840000 125.6500000  49.7380000
  84.5670000 124.4990000  49.5740000  86.3180000 123.3640000  49.9970000
  85.6060000 122.6420000  50.1940000  87.1240000 123.3710000  50.6980000
  86.8200000 123.3300000  48.5360000  87.7740000 123.8500000  48.5440000
  86.1070000 123.6340000  47.7970000  87.1510000 121.9520000  48.1280000
  86.2040000 121.4220000  48.2280000  87.9580000 121.3580000  48.6630000
  87.4130000 121.8690000  46.6760000  86.7980000 122.5130000  46.1150000
  87.2300000 120.8010000  46.3280000  88.8730000 122.2460000  46.2880000
  89.6370000 121.8890000  46.9630000  89.2750000 123.1340000  45.3680000
  90.2760000 123.4040000  45.2630000  88.3000000 123.7940000  44.3400000
  88.6440000 124.8690000  44.2150000  87.2720000 123.8420000  44.8100000
  88.2990000 123.0720000  43.0100000  88.3160000 122.0370000  43.2190000
  89.3350000 123.3110000  42.6000000  87.1970000 123.5990000  42.0420000
  87.3900000 124.6590000  41.8840000  86.2110000 123.4900000  42.4190000
  87.2520000 122.9170000  40.6510000  87.1500000 121.8790000  40.7950000
  88.2360000 123.1110000  40.1890000  86.2170000 123.1480000  39.5710000
  86.4130000 124.0180000  38.9720000  85.2890000 123.3590000  40.1460000
  86.0090000 121.9970000  38.5240000  86.9090000 121.7820000  37.9690000
  85.2230000 122.3430000  37.8640000  85.4890000 120.6390000  38.9570000
  84.5200000 120.6330000  39.5350000  86.2260000 120.0720000  39.5470000
  85.2270000 119.8250000  37.6700000  84.6560000 118.9050000  38.0510000
  86.1660000 119.6740000  37.0580000  84.5090000 120.4340000  37.0630000
  52.0650000  92.1360000  36.7130000  52.9540000  91.6230000  36.8820000
  52.3360000  93.1920000  37.0550000  51.9090000  92.1060000  35.6130000
  50.9480000  91.4710000  37.5450000  49.9680000  91.8800000  37.2730000
  51.0240000  90.4380000  37.2390000  51.0710000  91.5650000  39.0770000
  52.0640000  91.1670000  39.3780000  51.0200000  92.5800000  39.3990000
  49.9310000  90.7060000  39.7600000  48.9780000  90.9620000  39.3390000
  50.0100000  89.6670000  39.4210000  49.7720000  90.8570000  41.3200000
  48.8230000  90.3650000  41.5850000  50.5780000  90.3820000  41.9400000
  49.5950000  92.3230000  41.7800000  50.4650000  92.9130000  41.4070000
  48.7860000  92.6660000  41.1770000  49.3300000  92.3690000  43.2980000
  49.9800000  91.7960000  43.9390000  49.4730000  93.4360000  43.6390000
  47.9440000  92.0050000  43.6500000  47.3270000  92.7140000  43.0590000
  47.6730000  90.9900000  43.4250000  47.7020000  92.2800000  45.1560000
  48.5050000  91.8130000  45.7310000  47.6950000  93.3320000  45.5220000
  46.3830000  91.5710000  45.6470000  46.3230000  90.5780000  45.2490000
  46.5020000  91.3220000  46.7520000  44.9880000  92.1180000  45.2050000
  44.9940000  92.4810000  44.1420000  44.2070000  91.3950000  45.3220000
  44.5060000  93.3400000  46.0120000  44.5970000  93.1480000  47.0960000
  45.1340000  94.1910000  45.6860000  42.9980000  93.7760000  45.8580000
  42.7860000  93.9030000  44.7850000  42.3600000  92.8840000  46.1690000
  42.6120000  95.0680000  46.6040000  43.3780000  95.8810000  46.5090000
  41.7000000  95.4490000  46.0580000  42.3570000  94.8540000  48.0720000
  43.1490000  94.2500000  48.4040000  42.3500000  95.8670000  48.4850000
  41.0440000  94.2070000  48.4750000  40.2610000  93.7740000  47.6890000
  40.9820000  94.1830000  49.7970000  39.8250000  93.6040000  50.4380000
  39.0300000  94.3960000  50.3630000  39.5150000  92.6490000  50.0520000
  39.9700000  93.6380000  52.0060000  38.9860000  93.3210000  52.2900000
  40.3130000  94.9970000  52.6130000  41.2150000  94.8250000  53.1930000
  40.5430000  95.7390000  51.7700000  39.3320000  95.4450000  53.5200000
  38.2060000  96.5240000  53.0990000  39.0840000  97.7770000  52.6640000
  39.0110000  99.1110000  53.2060000  39.3750000  99.8320000  52.4710000
  38.0520000  99.4620000  53.4100000  39.8510000  99.1560000  54.5120000
  39.6680000 100.0870000  55.0070000  39.5570000  98.2790000  55.1790000
  41.4250000  98.9600000  54.3850000  41.7880000  97.5520000  53.9760000
  41.5740000  96.8950000  54.8220000  41.1540000  97.3640000  53.0680000
  42.8500000  97.5160000  53.6350000  42.0410000  99.9260000  53.4340000
  41.6800000  99.6220000  52.4870000  41.6310000 100.8650000  53.7560000
  43.1230000  99.7280000  53.4610000  42.0450000  99.0970000  55.7200000
  41.3720000  98.7540000  56.4350000  42.2030000 100.1840000  55.9500000
  43.0610000  98.7140000  55.6850000  37.5270000  95.8920000  51.9420000
  37.4080000  96.8560000  54.2970000  40.8540000  92.6790000  52.5980000
  40.4020000  91.4600000  53.0490000  39.2840000  91.1020000  52.9620000
  41.5030000  90.6360000  53.6300000  41.4420000  90.6400000  54.6970000
  42.4700000  91.0230000  53.3420000  41.5920000  89.2400000  53.0230000
  41.8410000  89.2980000  51.9370000  40.5840000  88.8380000  53.1720000
  42.5650000  88.2450000  53.7320000  42.1880000  87.9350000  54.7680000
  43.4930000  88.6660000  53.9070000  42.8740000  86.9380000  52.8740000
  41.9700000  86.4440000  52.7110000  43.3360000  86.2800000  53.6280000
  43.6520000  87.1790000  51.5810000  44.5430000  87.7750000  51.8180000
  42.9100000  87.7290000  50.9130000  44.0390000  85.8110000  51.0570000
  43.1930000  85.1020000  51.1190000  44.8560000  85.3630000  51.7100000
  44.5750000  85.7660000  49.6310000  44.9960000  84.7410000  49.4400000
  45.3540000  86.5480000  49.5570000  43.5090000  85.9720000  48.6010000
  42.6140000  85.5200000  48.9190000  43.6380000  86.6990000  47.4890000
  42.7340000  87.0180000  46.8210000  44.9330000  87.2970000  47.0280000
  45.8000000  87.0910000  47.6080000  44.7220000  88.3460000  47.0480000
  45.2040000  87.0100000  45.5530000  45.5100000  85.9740000  45.4800000
  46.0990000  87.5070000  45.2590000  44.0370000  87.2840000  44.4520000
  43.2020000  86.7440000  44.8360000  44.2970000  86.7370000  43.5060000
  43.6890000  88.7500000  44.1810000  44.5720000  89.3260000  44.4120000
  42.9440000  89.0140000  44.9590000  43.1770000  89.1550000  42.8210000
  42.0960000  88.7990000  42.6140000  43.7840000  88.8250000  42.0020000
  43.1690000  90.6720000  42.6510000  44.2850000  90.9180000  42.7810000
  42.5170000  91.1160000  43.4500000  42.6260000  91.2150000  41.3450000
  42.5090000  92.3010000  41.4760000  41.6640000  90.7640000  41.1210000
  43.6630000  90.9290000  40.1920000  44.6950000  91.3130000  40.3690000
  43.3130000  91.3290000  39.2540000  43.8080000  89.8410000  39.9840000
  77.3610000   9.4950000  42.8740000  77.6320000  10.3400000  43.4320000
  78.3300000   9.1420000  42.6510000  76.8750000   8.7640000  43.5340000
  76.4660000   9.6800000  41.6350000  76.8930000  10.4000000  40.9760000
  76.3960000   8.7300000  41.1150000  75.0060000  10.0720000  42.0910000
  75.0410000  10.5770000  43.0270000  74.5440000  10.6760000  41.4050000
  74.2500000   8.8070000  42.3860000  74.2020000   8.2610000  41.4710000
  74.8020000   8.2490000  43.1930000  72.8500000   9.1700000  42.9270000
  72.3110000   9.8540000  42.2760000  72.2990000   8.2800000  43.0370000
  72.7800000   9.7470000  44.3330000  73.1030000   9.0490000  45.1130000
  73.4830000  10.6420000  44.3720000  71.4120000  10.3260000  44.7550000
  70.9910000  11.0140000  44.0330000  70.6560000   9.5720000  44.6730000
  71.3540000  10.8790000  46.2350000  71.3850000  10.0150000  46.8150000
  72.2220000  11.5410000  46.4220000  70.0100000  11.5790000  46.6550000
  69.7530000  12.4410000  45.9970000  69.2530000  10.8370000  46.6260000
  70.1650000  12.0640000  48.1130000  70.4250000  11.1750000  48.6560000
  71.1340000  12.5730000  48.2360000  68.9720000  12.8480000  48.6660000
  68.9260000  13.7930000  48.0430000  68.0730000  12.2350000  48.6060000
  69.1940000  13.5430000  50.0040000  69.8880000  14.2850000  49.7440000
  68.2350000  14.0190000  50.3660000  69.6770000  12.5460000  51.1300000
  69.0870000  11.6480000  51.1540000  70.6530000  12.1360000  50.8270000
  69.8260000  13.0880000  52.4630000  68.9230000  13.4940000  52.7830000
  69.9990000  12.1360000  53.0220000  70.8420000  14.1960000  52.6100000
  70.7720000  14.8870000  51.7710000  70.6570000  14.7440000  53.5170000
  72.2540000  13.7840000  52.6320000  72.9040000  13.5380000  53.6030000
  72.7700000  13.6370000  51.3900000  74.0410000  12.9520000  51.4120000
  74.7500000  13.5360000  51.9860000  73.9270000  11.9590000  51.7740000
  74.5870000  12.7970000  50.0280000  73.7650000  12.4530000  49.3540000
  75.7620000  11.7550000  49.8950000  75.2770000  10.8130000  49.6250000
  76.4470000  11.9700000  49.1170000  76.5530000  11.5790000  51.1250000
  77.9030000  12.5600000  51.4530000  77.2320000  13.8300000  52.0830000
  77.3320000  14.0820000  53.4850000  76.4890000  13.6510000  54.0980000
  78.3020000  13.5950000  53.7460000  77.3590000  15.6300000  53.7140000
  77.2800000  15.8200000  54.8180000  78.3760000  16.0340000  53.4810000
  76.3260000  16.5340000  53.0750000  76.5950000  17.8940000  53.5930000
  76.0520000  18.6020000  52.9730000  76.1610000  17.9830000  54.5910000
  77.6670000  17.8930000  53.4840000  76.4530000  16.5050000  51.5240000
  75.6420000  17.1310000  51.0680000  77.4520000  16.7860000  51.3750000
  76.4730000  15.5440000  51.0150000  74.9300000  16.2520000  53.4570000
  74.4030000  17.0990000  53.0810000  74.9520000  16.1160000  54.5940000
  74.6030000  15.3720000  52.7970000  78.8210000  11.8490000  52.4320000
  78.4010000  13.0810000  50.1910000  75.0990000  14.0960000  49.6690000
  75.2320000  14.2810000  48.3860000  75.0500000  13.4680000  47.5160000
  75.5790000  15.7130000  48.0260000  75.0760000  16.3710000  48.7250000
  75.3720000  15.8970000  47.0310000  77.0750000  15.9060000  48.1120000
  77.4130000  15.8590000  49.1580000  77.2610000  16.9960000  47.9550000
  78.0670000  15.0880000  47.1820000  77.8810000  15.3170000  46.1430000
  77.8010000  13.9950000  47.2800000  79.5800000  15.2670000  47.4440000
  79.6270000  14.8640000  48.5050000  79.7920000  16.3740000  47.4460000
  80.6440000  14.5180000  46.5840000  81.5240000  14.4630000  47.0940000
  80.8130000  15.0240000  45.6020000  80.2700000  13.0190000  46.2720000
  79.2740000  12.9400000  45.8270000  80.1940000  12.4200000  47.2130000
  81.2980000  12.2310000  45.3020000  80.9360000  11.3040000  44.9900000
  82.2240000  11.9840000  45.7690000  81.6290000  13.1680000  44.1150000
  82.5320000  13.7640000  44.3250000  80.9850000  13.4080000  42.9720000
  81.3490000  14.1580000  42.1910000  79.6000000  12.8980000  42.6620000
  79.3340000  12.2270000  43.5060000  79.6890000  12.3280000  41.7660000
  78.5870000  13.9470000  42.4900000  78.8620000  14.7770000  41.8310000
  78.4710000  14.4660000  43.4410000  77.2140000  13.4020000  42.1360000
  76.8920000  12.6200000  42.7680000  77.3510000  12.9140000  41.1850000
  76.0180000  14.3810000  41.9360000  76.1590000  15.0200000  41.0290000
  76.0080000  14.9870000  42.8140000  74.6030000  13.7390000  41.8550000
  74.5050000  13.0040000  41.1500000  73.9730000  14.5360000  41.5680000
  74.1290000  13.2240000  43.2390000  75.0130000  12.8180000  43.7410000
  73.4400000  12.3910000  43.1950000  73.4910000  14.1780000  44.2330000
  73.3160000  13.7370000  45.2360000  72.4800000  14.3780000  43.7860000
  74.1880000  15.5840000  44.3540000  73.5410000  16.1180000  45.0700000
  74.1060000  16.1130000  43.4160000  75.2540000  15.5530000  44.6180000
  57.3900000 101.9410000  37.4610000  57.0780000 102.0840000  38.4630000
  57.0110000 101.0250000  37.0390000  57.0020000 102.8640000  36.9030000
  58.9540000 102.0960000  37.5540000  59.3590000 102.3220000  36.6030000
  59.1450000 102.8340000  38.3080000  59.6260000 100.8110000  38.1390000
  59.1180000 100.4920000  39.0580000  59.4940000 100.0020000  37.4990000
  61.1330000 101.1160000  38.2560000  61.6110000 100.0900000  38.2030000
  61.4850000 101.8330000  37.5060000  61.5080000 101.7110000  39.7220000
  61.2390000 102.7800000  39.6670000  60.8860000 101.2600000  40.4840000
  63.0560000 101.5650000  39.9290000  63.3680000 100.5130000  39.8080000
  63.7150000 102.0410000  39.1990000  63.4950000 102.0160000  41.3880000
  62.8970000 101.4120000  42.0940000  64.5610000 101.8170000  41.6340000
  63.1550000 103.5120000  41.7090000  63.5570000 104.1670000  40.9030000
  62.0660000 103.6130000  41.5450000  63.5220000 103.9980000  43.0700000
  64.4750000 103.7340000  43.5420000  63.4860000 105.0860000  42.8600000
  62.4780000 103.7050000  44.1160000  62.3610000 102.6280000  44.1250000
  62.9540000 104.0320000  45.0550000  61.1520000 104.5360000  44.1230000
  61.3930000 105.5460000  43.9730000  60.5300000 104.2370000  43.3190000
  60.4220000 104.4430000  45.4900000  61.0240000 104.9190000  46.2890000
  59.4440000 105.0150000  45.3490000  60.1450000 103.0000000  46.0610000
  59.5010000 102.4880000  45.2950000  61.0640000 102.4170000  46.1690000
  59.4400000 103.0260000  47.4520000  59.5890000 102.0200000  47.8990000
  59.9930000 103.6770000  48.1090000  57.9690000 103.3780000  47.5930000
  57.7830000 104.2840000  47.0200000  57.3360000 102.6940000  47.1360000
  57.6630000 103.6620000  49.0260000  56.8340000 103.0720000  49.6810000
  58.4460000 104.6360000  49.5670000  58.1960000 105.0030000  50.9670000
  58.6640000 106.0200000  51.2260000  57.1680000 105.0450000  51.1940000
  58.9870000 104.1200000  51.9150000  58.8020000 104.6350000  52.8990000
  60.4430000 104.0630000  51.6070000  60.5130000 103.7900000  50.5750000
  60.7380000 105.0910000  51.7350000  61.1000000 103.1630000  52.5300000
  61.6100000 103.5710000  53.9340000  63.2060000 103.5970000  53.7150000
  63.9470000 104.8340000  53.4710000  64.9510000 104.6530000  53.0380000
  63.2930000 105.3760000  52.7840000  64.0730000 105.6120000  54.7590000
  64.5780000 106.5640000  54.6880000  63.0510000 105.9570000  55.0350000
  64.7280000 104.9410000  55.9130000  65.1520000 105.9760000  56.8320000
  65.7310000 105.5070000  57.6500000  65.9070000 106.6690000  56.3990000
  64.3000000 106.4550000  57.2920000  63.7710000 104.0330000  56.6990000
  62.9260000 104.6010000  57.0430000  63.3710000 103.2490000  55.9160000
  64.3090000 103.4800000  57.4380000  65.9450000 104.0560000  55.5320000
  65.6000000 103.2540000  54.7930000  66.4410000 103.5130000  56.3810000
  66.6920000 104.7390000  55.0300000  61.1070000 104.9210000  54.2100000
  61.2560000 102.5190000  54.9010000  58.5240000 102.7090000  52.0330000
  57.2990000 102.4110000  52.3500000  56.5690000 103.1930000  52.9480000
  56.9460000 101.0350000  52.0660000  57.5550000 100.6160000  51.2440000
  55.9020000 100.9220000  51.6420000  57.1780000 100.0370000  53.3010000
  56.5230000 100.5040000  54.0410000  58.1530000 100.0610000  53.7290000
  56.8250000  98.5990000  52.8920000  55.8370000  98.6320000  52.3790000
  56.6440000  97.9740000  53.8400000  57.7990000  97.9400000  51.9830000
  58.6340000  97.7590000  52.6190000  58.0100000  98.7200000  51.2150000
  57.3620000  96.4840000  51.3390000  56.9850000  95.7310000  51.9800000
  58.1990000  96.0910000  50.7710000  56.2110000  96.7080000  50.3160000
  56.4300000  97.6080000  49.7780000  55.2670000  97.0020000  50.6990000
  55.9730000  95.4620000  49.4370000  55.0150000  95.6620000  48.9810000
  55.7500000  94.6080000  50.0390000  57.0300000  95.0710000  48.3830000
  57.7140000  94.1350000  48.5420000  57.1820000  95.6860000  47.1970000
  57.9050000  95.3440000  46.5000000  56.4380000  96.9170000  46.6860000
  55.9210000  97.4270000  47.4550000  55.7440000  96.6990000  45.8850000
  57.6160000  97.8950000  46.3300000  58.3890000  97.3670000  45.6710000
  58.1480000  98.1240000  47.2320000  57.1570000  99.3460000  45.7820000
  58.0990000  99.8530000  45.4230000  56.5980000  99.8160000  46.5950000
  56.3260000  99.2190000  44.5130000  55.4090000  98.6260000  44.7810000
  56.9340000  98.7040000  43.7320000  55.9520000 100.5440000  43.9540000
  55.2750000 100.9630000  44.6810000  55.3380000 100.3520000  43.0510000
  57.0680000 101.6100000  43.6830000  57.8730000 101.1040000  43.1790000
  57.4710000 101.9300000  44.6440000  56.6180000 102.8750000  42.8660000
  57.3800000 103.7240000  42.8600000  55.8410000 103.3690000  43.4180000
  56.1510000 102.5510000  41.4450000  55.3840000 101.7640000  41.4360000
  57.0610000 102.3610000  40.8490000  55.7790000 103.4340000  40.9550000
  58.4230000  53.8920000  37.7040000  59.1560000  53.2570000  38.1720000
  58.6730000  54.9070000  37.9770000  58.5380000  53.8000000  36.6250000
  57.0980000  53.3880000  38.1810000  57.1870000  53.3980000  39.2530000
  56.3150000  54.0490000  37.8840000  56.7960000  51.9890000  37.5940000
  56.6580000  52.1180000  36.5260000  57.6480000  51.2990000  37.7410000
  55.5330000  51.4270000  38.1470000  55.4030000  50.3780000  37.9130000
  55.4760000  51.3900000  39.2730000  54.2930000  52.1390000  37.6770000
  54.4130000  53.1790000  37.9980000  54.2130000  52.0980000  36.6430000
  53.1360000  51.4770000  38.3610000  53.2080000  50.4200000  38.2460000
  53.2150000  51.6030000  39.4510000  51.7550000  51.8370000  37.8190000
  51.6330000  51.5000000  36.8230000  51.1450000  51.2150000  38.4180000
  51.4510000  53.3330000  37.9360000  52.0840000  54.0570000  37.3750000
  50.4180000  53.5100000  37.5300000  51.3570000  53.7640000  39.4260000
  50.6110000  53.2510000  40.0280000  52.3250000  53.6780000  39.9990000
  50.9000000  55.2540000  39.5040000  51.4760000  56.0490000  38.9370000
  49.9180000  55.4030000  39.0600000  50.8020000  55.9000000  40.8990000
  51.8910000  56.0030000  41.2450000  50.3440000  56.8820000  40.9300000
  49.9340000  55.1340000  41.9270000  48.9680000  55.0300000  41.4210000
  50.3440000  54.1440000  41.9820000  49.7250000  55.6840000  43.3350000
  49.3450000  56.7230000  43.2610000  48.9400000  55.1060000  43.8040000
  51.0890000  55.6670000  44.1860000  51.5290000  54.7180000  43.8590000
  51.7010000  56.4390000  43.7750000  50.8790000  55.8630000  45.7420000
  50.4710000  56.8220000  45.8150000  50.2940000  55.0340000  46.1460000
  52.2620000  55.8200000  46.4260000  53.2180000  56.3510000  45.8730000
  52.2690000  55.1340000  47.5920000  53.5650000  55.1150000  48.3080000
  53.7760000  54.2040000  48.9450000  54.3150000  55.0760000  47.5200000
  53.6980000  56.4500000  49.1720000  54.7000000  56.5550000  49.5420000
  52.9100000  56.4740000  50.4730000  52.6090000  57.5090000  50.6580000
  51.9940000  55.9240000  50.4850000  53.7060000  56.1220000  51.6460000
  53.1400000  56.1860000  53.0550000  53.4970000  57.6820000  53.4700000
  52.5080000  58.6930000  53.3660000  51.8800000  58.6840000  52.5170000
  51.7310000  58.5240000  54.1440000  53.1080000  60.0980000  53.7850000
  52.3420000  60.8600000  53.8130000  53.5430000  60.0100000  54.7290000
  54.1230000  60.7970000  52.8570000  53.5590000  60.9100000  51.4280000
  53.2870000  59.9050000  51.1720000  52.7290000  61.6170000  51.4540000
  54.3660000  61.3770000  50.7990000  54.4770000  62.0470000  53.4530000
  55.0210000  61.9160000  54.3900000  55.1270000  62.6320000  52.7470000
  53.5720000  62.6340000  53.5190000  55.3720000  59.9300000  52.7810000
  54.9080000  59.0520000  52.3090000  55.6930000  59.7000000  53.8320000
  56.1000000  60.4770000  52.1630000  51.6500000  56.1550000  52.9410000
  53.8540000  55.2320000  53.9530000  53.4600000  57.5660000  48.3710000
  53.9140000  58.7980000  48.7660000  54.5800000  59.0060000  49.7040000
  53.2570000  59.9000000  47.9820000  53.5410000  60.8120000  48.4400000
  52.1820000  59.7700000  48.0890000  53.5970000  59.8870000  46.4860000
  53.2150000  58.9700000  45.9870000  54.6770000  59.8660000  46.4250000
  53.0760000  61.0780000  45.7360000  53.3200000  62.0200000  46.2130000
  51.9900000  60.9670000  45.7170000  53.5170000  61.2250000  44.2960000
  54.5650000  61.0940000  44.1860000  53.2420000  62.2000000  43.9890000
  52.7900000  60.2330000  43.4450000  51.7720000  60.5750000  43.3910000
  52.7950000  59.2330000  43.9500000  53.4440000  60.0930000  42.0100000
  54.5220000  59.9910000  42.2870000  53.3290000  61.0220000  41.4590000
  53.0260000  58.9310000  41.0850000  53.1710000  59.2350000  40.0970000
  52.0370000  58.6360000  41.3740000  53.9180000  57.6340000  41.3550000
  53.7170000  57.0740000  42.2650000  54.8910000  57.0860000  40.5560000
  55.3840000  56.1100000  40.8320000  55.3030000  57.6680000  39.1710000
  56.3270000  57.5200000  39.0420000  55.0820000  58.7370000  39.2260000
  54.6790000  57.0680000  37.9180000  53.5960000  56.8990000  38.0550000
  55.1540000  56.1080000  37.9030000  54.9570000  57.9050000  36.7330000
  55.9880000  57.8700000  36.5260000  54.6170000  58.8980000  36.9950000
  54.2010000  57.4540000  35.4980000  53.1000000  57.2370000  35.6790000
  54.7050000  56.4970000  35.1640000  54.4230000  58.7130000  34.5160000
  55.4850000  58.8040000  34.5070000  53.9650000  59.6410000  34.6830000
  54.0550000  58.2570000  33.1180000  52.9790000  58.0560000  33.1690000
  54.5780000  57.3220000  32.8490000  54.3310000  59.3170000  32.0140000
  55.3480000  59.7950000  32.2830000  53.5480000  60.1240000  31.8390000
  54.4260000  58.6370000  30.6000000  53.3810000  58.3970000  30.3060000
  54.9710000  57.7060000  30.6210000  54.9190000  59.2900000  29.8590000
   6.9940000 129.8980000  37.8740000   7.3420000 129.1160000  38.5730000
   6.3350000 129.5370000  37.1240000   6.4230000 130.6060000  38.4530000
   8.2740000 130.7180000  37.3970000   8.7610000 130.3280000  36.5090000
   7.8720000 131.6900000  37.0680000   9.2540000 130.8270000  38.5890000
   8.7700000 131.3550000  39.4260000   9.4730000 129.8330000  38.9840000
  10.6530000 131.4450000  38.2080000  11.0240000 130.9230000  37.2820000
  10.5280000 132.4740000  37.9050000  11.7080000 131.3300000  39.3500000
  11.8090000 130.2140000  39.5640000  12.6590000 131.7690000  39.0780000
  11.2490000 131.8720000  40.6970000  10.9110000 132.8970000  40.6490000
  10.4820000 131.1450000  41.0330000  12.3240000 131.8380000  41.8180000
  12.7960000 130.8370000  41.8420000  13.0050000 132.6390000  41.6200000
  11.7240000 132.1560000  43.2140000  10.9610000 132.9060000  43.0360000
  11.2010000 131.2970000  43.7820000  12.8520000 132.8770000  44.0340000
  13.8760000 132.4020000  43.9660000  12.9100000 133.9330000  43.6440000
  12.3980000 133.0890000  45.5060000  11.2820000 133.1940000  45.5710000
  12.5410000 132.1050000  45.9380000  13.1410000 134.2760000  46.2170000
  13.1370000 135.1840000  45.6670000  12.6570000 134.3590000  47.1300000
  14.6400000 133.9940000  46.3590000  14.8100000 132.9760000  46.7170000
  15.0420000 134.0970000  45.4080000  15.2830000 134.7980000  47.4760000
  15.1740000 135.8530000  47.1920000  14.7510000 134.5850000  48.4670000
  16.7750000 134.4860000  47.6820000  16.9010000 133.4220000  47.7100000
  17.4890000 134.8180000  46.8690000  17.2480000 134.9740000  49.0550000
  16.4550000 135.0100000  49.7450000  17.9920000 134.3930000  49.5810000
  17.6010000 136.4130000  49.0100000  18.6880000 136.8970000  48.7470000
  16.6730000 137.2120000  49.4630000  16.9040000 138.6730000  49.3890000
  15.9970000 139.0620000  49.8490000  17.7820000 138.9070000  49.9180000
  17.0130000 139.2610000  47.9510000  17.9000000 138.8640000  47.4230000
  17.0680000 140.7850000  47.9420000  18.0200000 141.1430000  48.3250000
  16.9890000 141.1840000  46.9510000  15.9550000 141.4080000  48.6600000
  16.1340000 141.8570000  50.1510000  14.7940000 141.1970000  50.7150000
  13.7000000 141.9470000  51.0780000  12.9260000 141.2690000  51.4090000
  13.9650000 142.7010000  51.8720000  13.0610000 142.6390000  49.8630000
  12.4760000 143.5240000  50.1680000  13.8650000 142.9690000  49.1660000
  12.0830000 141.9040000  48.9790000  10.8270000 141.5190000  49.6720000
  10.5510000 140.8270000  48.9430000  10.8800000 140.9590000  50.6570000
  10.0710000 142.3070000  49.7570000  11.7020000 142.8660000  47.9320000
  10.8760000 142.4360000  47.3500000  11.3920000 143.7910000  48.4330000
  12.5590000 143.1350000  47.2800000  12.7730000 140.5890000  48.4200000
  12.6560000 139.8490000  49.1760000  13.8150000 140.7520000  48.2320000
  12.2470000 140.2530000  47.5800000  17.3700000 141.2750000  50.7080000
  16.0170000 143.3020000  50.2650000  15.7760000 138.8720000  47.2460000
  15.7510000 139.0390000  45.9360000  16.6540000 139.4470000  45.3060000
  14.4150000 138.8040000  45.3340000  13.6690000 139.4980000  45.7960000
  14.0640000 137.7910000  45.6690000  14.4340000 138.9880000  43.7650000
  15.1540000 138.3790000  43.3320000  14.7770000 139.9990000  43.5530000
  13.1490000 138.6380000  42.9920000  13.3450000 138.5850000  41.9140000
  12.4130000 139.4020000  43.1820000  12.6410000 137.3190000  43.3670000
  12.6000000 137.1780000  44.4460000  13.3280000 136.5510000  43.0800000
  11.2250000 136.9970000  42.7490000  11.3530000 136.7800000  41.7190000
  10.5610000 137.7980000  43.0440000  10.6590000 135.6680000  43.2080000
  10.8390000 135.4350000  44.2790000  11.1710000 134.9270000  42.5440000
   9.1460000 135.5280000  42.8380000   9.1540000 135.8010000  41.8020000
   8.4880000 136.1810000  43.2610000   8.6250000 134.1340000  42.9750000
   8.8720000 133.5880000  43.9400000   8.0070000 133.4290000  42.0120000
   7.8070000 132.3610000  42.1490000   7.6210000 133.9390000  40.6460000
   7.5740000 133.0780000  39.9480000   8.3830000 134.6390000  40.1240000
   6.1770000 134.5310000  40.8120000   6.1460000 135.3030000  41.5770000
   5.5210000 133.6480000  41.0970000   5.5790000 135.1340000  39.5240000
   6.3860000 135.6660000  38.9830000   4.7750000 135.9550000  39.7540000
   5.0250000 134.0460000  38.6040000   4.3870000 133.4420000  39.1800000
   5.7760000 133.3440000  38.2680000   4.1970000 134.5640000  37.4850000
   3.3630000 135.1010000  37.8640000   3.7800000 133.7590000  36.9180000
   4.9760000 135.5270000  36.5030000   5.6320000 134.8640000  35.9750000
   5.5440000 136.2400000  37.0650000   4.1500000 136.2490000  35.4730000
   3.2080000 136.6130000  36.0160000   3.8850000 135.4390000  34.8550000
   4.7860000 137.2780000  34.5460000   5.5840000 136.7870000  33.8960000
   5.3160000 138.0970000  35.0990000   4.0460000 137.5510000  33.7630000
   2.5680000  46.5450000  34.2460000   2.1440000  45.8150000  34.8820000
   3.4960000  46.1750000  33.8120000   1.9200000  46.7660000  33.3850000
   2.7720000  47.9060000  35.0570000   3.3920000  48.5610000  34.3850000
   1.8980000  48.4410000  35.3870000   3.5970000  47.6110000  36.3430000
   3.0480000  47.0400000  37.0810000   4.4250000  46.9140000  35.9910000
   4.0200000  48.9060000  37.0830000   4.6670000  49.5740000  36.5720000
   3.0510000  49.4490000  37.2480000   4.5640000  48.7310000  38.4850000
   3.8820000  48.2210000  39.0630000   5.4650000  48.0840000  38.3620000
   5.1300000  50.0670000  39.1910000   5.8950000  50.4610000  38.5290000
   4.2400000  50.6890000  39.2990000   5.7610000  49.6950000  40.5060000
   6.4660000  48.9040000  40.3190000   6.3040000  50.5620000  41.0100000
   4.8530000  49.2200000  41.6480000   4.4760000  48.2380000  41.3270000
   5.5330000  49.0150000  42.4450000   3.7200000  50.1600000  42.1190000
   4.2060000  51.1020000  42.4590000   3.2300000  50.5210000  41.2250000
   2.7990000  49.7020000  43.2290000   3.3700000  49.7780000  44.1880000
   1.8790000  50.3230000  43.3450000   2.3970000  48.2230000  43.2520000
   1.9340000  47.9570000  42.2960000   3.3320000  47.6480000  43.2820000
   1.3790000  47.7580000  44.3890000   1.7830000  48.0130000  45.3620000
   0.4510000  48.2610000  44.3010000   1.0290000  46.3040000  44.4690000
   1.2080000  45.8260000  43.5210000   1.8290000  45.8950000  45.1290000
  -0.2990000  45.9920000  45.1690000  -1.1650000  46.4360000  44.6710000
  -0.4370000  44.9600000  45.1430000  -0.3460000  46.3540000  46.6500000
  -0.5640000  47.4430000  46.7210000  -1.2850000  46.0510000  47.0310000
   0.8130000  45.8700000  47.4730000   0.7290000  44.9590000  48.2500000
   1.9110000  46.6370000  47.3890000   3.1180000  46.1250000  48.0040000
   2.8440000  45.6900000  48.9410000   3.6750000  45.3650000  47.3040000
   4.2240000  47.2440000  48.1800000   4.9590000  46.7080000  48.7870000
   3.6960000  48.3970000  49.0340000   3.7230000  49.1940000  48.1210000
   2.6990000  48.2880000  49.4110000   4.6290000  48.6950000  50.0570000
   4.6030000  47.9040000  51.4380000   3.2340000  48.4340000  52.1790000
   3.2350000  49.6850000  52.8160000   3.3310000  49.5580000  53.8730000
   4.1200000  50.3080000  52.4280000   1.9130000  50.3070000  52.4650000
   1.9220000  50.6700000  51.4340000   1.1190000  49.5650000  52.5530000
   1.3420000  51.3090000  53.4110000   2.1750000  52.4150000  53.8050000
   1.5000000  53.2010000  54.1750000   2.8800000  52.0770000  54.4830000
   2.6650000  52.7290000  52.8670000   0.0410000  51.8210000  52.8580000
   0.3830000  52.2960000  51.9090000  -0.7090000  51.0190000  52.7990000
  -0.2380000  52.6400000  53.5250000   0.8870000  50.5410000  54.6300000
   1.8400000  50.1320000  54.9980000   0.2960000  49.6880000  54.4090000
   0.3410000  51.2460000  55.2330000   4.6030000  46.4590000  51.1860000
   5.7020000  48.4780000  52.1420000   4.7100000  47.6920000  46.8830000
   6.0290000  47.9200000  46.7280000   6.8680000  47.5000000  47.5290000
   6.3240000  48.9310000  45.6030000   5.5560000  49.6800000  45.4110000
   6.4100000  48.3370000  44.7090000   7.6660000  49.6930000  45.7900000
   8.4030000  48.8810000  45.9400000   7.4760000  50.4250000  46.6370000
   8.1590000  50.5190000  44.6040000   8.8980000  51.1880000  45.0110000
   7.3770000  51.1320000  44.1990000   8.7150000  49.6100000  43.5200000
   7.8740000  49.1680000  43.0640000   9.3530000  48.9170000  44.0540000
   9.4730000  50.4970000  42.6060000  10.1430000  51.1710000  43.2230000
   8.8930000  51.1250000  41.8750000  10.3110000  49.7270000  41.5560000
  11.0210000  49.0900000  41.9990000  10.8340000  50.5710000  41.0570000
   9.5200000  49.0230000  40.4620000  10.0330000  49.0460000  39.5280000
   8.6550000  49.6250000  40.2980000   9.0860000  47.5930000  40.9350000
   9.0420000  47.4280000  42.0230000   9.1120000  46.5210000  40.1790000
   8.7690000  45.6210000  40.6070000   9.5270000  46.3760000  38.7370000
  10.5100000  45.9470000  38.7590000   9.6740000  47.3380000  38.1800000
   8.4930000  45.4430000  37.9960000   7.4810000  45.7800000  38.3070000
   8.6920000  44.4470000  38.5070000   8.7090000  45.4750000  36.4870000
   9.7520000  45.4960000  36.2220000   8.2260000  46.4210000  36.2990000
   7.8720000  44.3860000  35.7220000   6.8780000  44.3470000  36.0290000
   8.1940000  43.3800000  35.9890000   7.7130000  44.5340000  34.2030000
   7.4370000  45.6010000  34.0000000   6.9660000  43.8720000  33.7770000
   9.0910000  44.1190000  33.6980000   9.3310000  43.0160000  33.9290000
   9.8760000  44.6070000  34.3150000   9.4170000  44.3540000  32.1990000
   9.1740000  45.3460000  31.9250000   8.7730000  43.6910000  31.6280000
  10.9600000  44.2320000  31.8540000  11.4700000  44.9890000  32.5060000
  11.2080000  44.4620000  30.7890000  11.4570000  43.3010000  32.1180000
  28.2340000  22.0220000  33.6000000  28.3310000  21.9710000  32.4980000
  29.2130000  22.3990000  33.9280000  27.5980000  22.8740000  33.7220000
  27.8120000  20.6920000  34.2600000  27.6400000  21.0250000  35.2760000
  26.8480000  20.4180000  33.8320000  28.7270000  19.5220000  34.0070000
  28.3190000  18.5150000  34.3160000  29.0060000  19.3760000  32.9500000
  30.0740000  19.7850000  34.7210000  30.7640000  18.8980000  34.6060000
  30.6390000  20.6930000  34.3970000  29.9280000  20.1500000  36.2290000
  30.9070000  20.3080000  36.5680000  29.4020000  21.1420000  36.3740000
  29.1890000  18.9580000  36.9190000  28.2960000  18.5680000  36.2890000
  29.8400000  18.1150000  36.8160000  28.7230000  19.1920000  38.3910000
  27.9440000  19.9490000  38.2760000  28.2450000  18.3160000  38.6750000
  29.8690000  19.6730000  39.3070000  30.3130000  20.5940000  38.9050000
  29.4080000  19.9760000  40.2620000  31.0990000  18.6540000  39.4170000
  30.6660000  17.7440000  39.6250000  31.6640000  18.5720000  38.4260000
  32.1390000  18.8390000  40.5820000  31.7530000  18.6570000  41.5440000
  32.9100000  18.0120000  40.4810000  32.8800000  20.1500000  40.5750000
  33.3620000  20.3700000  39.5850000  32.0820000  20.9050000  40.6820000
  33.8220000  20.1540000  41.7330000  33.2180000  20.0160000  42.6270000
  34.5150000  19.4220000  41.5260000  34.4720000  21.5110000  41.7900000
  34.7930000  21.7820000  40.8320000  33.6950000  22.2390000  42.0040000
  35.7250000  21.6470000  42.6710000  36.5660000  21.0170000  42.2680000
  35.9730000  22.7060000  42.6450000  35.4570000  21.2990000  44.2210000
  34.9910000  20.3020000  44.3120000  36.3710000  21.3920000  44.7980000
  34.4950000  22.2510000  44.9100000  34.4900000  23.4340000  44.7060000
  33.5990000  21.6510000  45.7200000  32.5300000  22.4560000  46.2940000
  32.0270000  21.8180000  47.0230000  32.8340000  23.4190000  46.6420000
  31.4180000  22.6870000  45.1340000  31.9840000  23.0300000  44.3410000
  30.3830000  23.8610000  45.5030000  30.8850000  24.7680000  45.7410000
  29.8520000  24.0030000  44.5130000  29.4180000  23.5060000  46.5400000
  29.6930000  23.9950000  48.0750000  30.1810000  22.7030000  48.8260000
  29.1690000  21.6800000  49.2080000  28.6660000  21.9840000  50.1120000
  28.3930000  21.7240000  48.4940000  29.7710000  20.2300000  49.1270000
  29.0620000  19.4720000  49.1010000  30.3580000  20.1830000  48.2590000
  30.6470000  19.6870000  50.3120000  30.9730000  18.2640000  49.9890000
  30.0760000  17.6250000  50.1390000  31.4670000  18.1480000  49.0000000
  31.6890000  17.9170000  50.8720000  31.9280000  20.4830000  50.2770000
  32.5530000  20.2920000  51.1580000  32.4610000  20.2990000  49.3660000
  31.5360000  21.4530000  50.2250000  29.8300000  19.8380000  51.5440000
  29.1200000  19.1010000  51.7160000  29.3090000  20.7580000  51.5890000
  30.5960000  19.7710000  52.3270000  30.8210000  24.9240000  48.1000000
  28.4230000  24.3340000  48.6250000  30.7630000  21.5300000  44.7230000
  30.1990000  21.4720000  43.5150000  30.2530000  22.3480000  42.6710000
  29.3860000  20.1860000  43.3970000  29.0330000  19.7630000  44.3390000
  29.9730000  19.4730000  42.8080000  28.0120000  20.4100000  42.7190000
  28.0520000  20.9390000  41.7960000  27.4040000  21.0090000  43.2910000
  27.2950000  19.0340000  42.3920000  26.9760000  18.5390000  43.2430000
  28.1860000  18.5050000  41.9010000  26.2030000  19.1290000  41.3200000
  26.5960000  19.7580000  40.5430000  25.2670000  19.5870000  41.7390000
  25.9490000  17.7360000  40.7580000  25.7090000  16.9870000  41.5560000
  26.8800000  17.2660000  40.2990000  24.6470000  17.6700000  39.9450000
  23.7570000  17.7830000  40.6160000  24.5060000  16.6110000  39.7500000
  24.6810000  18.5090000  38.6630000  25.3520000  18.1820000  37.8720000
  24.8900000  19.5690000  38.9610000  23.3620000  18.6480000  38.0010000
  22.9180000  19.4770000  38.3460000  22.8130000  17.8580000  37.0690000
  21.9000000  18.1250000  36.5390000  23.5280000  16.6310000  36.5400000
  22.7830000  15.7530000  36.5920000  24.3770000  16.3370000  37.1380000
  23.9060000  16.7150000  35.0290000  24.5410000  17.6430000  34.9170000
  23.0650000  16.9210000  34.4540000  24.6240000  15.4690000  34.4440000
  25.3880000  15.0700000  35.1130000  25.1250000  15.7020000  33.5400000
  23.6220000  14.2760000  34.1540000  22.6440000  14.6740000  34.2490000
  23.6480000  13.6760000  35.0350000  23.7880000  13.3920000  32.9020000
  24.8090000  13.2370000  32.8220000  23.5930000  14.0340000  32.0500000
  22.7810000  12.2370000  32.7090000  22.7180000  11.9500000  31.6550000
  21.8790000  12.5940000  33.1150000  23.1400000  11.0130000  33.5540000
  22.9000000  11.1280000  34.6060000  24.1730000  10.7590000  33.3570000
  22.4260000   9.7870000  33.1110000  22.3670000   9.7750000  31.9880000
  21.3440000   9.8760000  33.3120000  22.8500000   8.8970000  33.5450000
  74.3600000 125.9370000  44.3090000  74.2340000 126.2020000  43.2730000
  73.5470000 126.2220000  44.9880000  74.4310000 124.8470000  44.4300000
  75.6700000 126.6690000  44.8190000  75.4070000 127.6520000  45.2730000
  76.1460000 126.0990000  45.6320000  76.6340000 126.9060000  43.6230000
  76.7630000 125.9580000  43.0350000  76.1880000 127.5920000  42.9650000
  78.0050000 127.3430000  44.1340000  77.8740000 128.2040000  44.7450000
  78.4320000 126.5710000  44.7580000  78.8500000 127.6960000  42.9560000
  78.9570000 126.8180000  42.3670000  78.2740000 128.3630000  42.3420000
  80.2050000 128.3160000  43.1890000  80.0900000 129.0160000  43.9800000
  80.9030000 127.6020000  43.5480000  80.7280000 128.9880000  41.9160000
  80.9220000 128.2130000  41.1420000  79.9370000 129.6290000  41.5660000
  82.0460000 129.8000000  42.0090000  82.9490000 129.1230000  42.0740000
  82.2470000 130.4170000  41.0780000  82.0640000 130.8490000  43.1570000
  81.2670000 131.4990000  42.9500000  81.9420000 130.3570000  44.1690000
  83.4040000 131.6000000  43.2230000  83.8850000 131.7180000  42.2550000
  83.2350000 132.6320000  43.5760000  84.5150000 130.9300000  44.1810000
  84.3380000 129.8280000  43.9790000  85.5390000 131.2450000  43.8150000
  84.2430000 131.1400000  45.6800000  83.9760000 132.1880000  45.7180000
  83.3260000 130.6070000  46.0510000  85.5000000 130.9510000  46.5230000
  86.0770000 130.1910000  46.0320000  86.1000000 131.8980000  46.5790000
  85.3420000 130.5680000  48.0000000  84.9880000 129.5740000  47.9220000
  86.3020000 130.4290000  48.4720000  84.4230000 131.3600000  48.9080000
  83.4260000 131.4930000  48.4410000  84.2140000 130.8780000  49.8390000
  84.9340000 132.7030000  49.3220000  86.0850000 133.0410000  49.3280000
  83.9720000 133.5130000  49.7340000  84.2640000 134.8070000  50.3880000
  84.1400000 134.6530000  51.4760000  85.3060000 135.0720000  50.1780000
  83.3030000 135.8600000  49.8260000  83.7470000 136.8320000  50.0140000
  81.8800000 135.9250000  50.4670000  81.2340000 136.6290000  49.8940000
  81.4380000 134.9620000  50.4830000  81.7900000 136.4090000  51.8180000
  81.8650000 137.9560000  52.2710000  83.4340000 138.3190000  52.2860000
  83.8350000 139.7160000  52.2150000  84.1240000 139.8980000  51.2070000
  83.0040000 140.3980000  52.5800000  85.1160000 139.8610000  53.0960000
  85.9670000 139.4020000  52.5730000  85.3450000 140.8950000  53.1710000
  85.0630000 139.4520000  54.5200000  86.1180000 140.2370000  55.2910000
  85.9470000 141.2900000  55.2430000  86.1570000 139.9510000  56.3160000
  87.1170000 140.0230000  54.7690000  83.8360000 139.9120000  55.1370000
  83.7920000 139.6770000  56.1740000  83.6560000 140.9410000  54.9380000
  82.9810000 139.3910000  54.7210000  85.3950000 137.9780000  54.6030000
  84.6240000 137.3690000  54.0920000  85.4740000 137.6750000  55.6510000
  86.2650000 137.8330000  53.8910000  81.2000000 138.7600000  51.2190000
  81.3230000 138.0910000  53.6870000  83.0910000 135.6910000  48.4010000
  84.1250000 136.0360000  47.6510000  85.1050000 136.6260000  48.0660000
  83.9980000 135.5990000  46.1970000  82.9120000 135.6960000  45.9520000
  84.2270000 134.5410000  46.0950000  84.7760000 136.3360000  45.0940000
  85.3640000 137.1490000  45.5400000  84.0040000 136.8020000  44.4460000
  85.5730000 135.4030000  44.1900000  84.9970000 134.6890000  43.6150000
  86.1470000 134.7250000  44.7980000  86.3180000 136.3860000  43.2410000
  87.0010000 136.9760000  43.7870000  85.5930000 137.0060000  42.6520000
  87.1310000 135.5910000  42.1710000  86.4510000 135.0010000  41.6390000
  87.7830000 134.9170000  42.6980000  87.8870000 136.4900000  41.1960000
  87.2930000 137.1330000  40.5600000  88.2440000 135.7460000  40.5440000
  88.9740000 137.3160000  41.8260000  89.6040000 136.6420000  42.4010000
  88.6080000 138.0310000  42.5790000  89.8470000 138.0360000  40.7930000
  89.3130000 138.7850000  40.2500000  91.0580000 137.6680000  40.3550000
  91.5600000 138.2000000  39.5710000  92.0200000 136.8110000  41.0360000
  91.6810000 136.5600000  42.0110000  92.8930000 137.4000000  41.2550000
  92.3790000 135.5640000  40.2920000  93.1900000 135.0950000  40.7810000
  92.6980000 135.8160000  39.2770000  91.3220000 134.4790000  40.2050000
  91.6900000 133.7310000  39.4780000  90.3890000 134.8730000  39.7610000
  90.9600000 133.8200000  41.5350000  90.5310000 134.5520000  42.2420000
  91.8670000 133.3850000  42.0600000  89.9980000 132.6820000  41.3190000
  88.9690000 133.1020000  41.0070000  89.8660000 132.1820000  42.3540000
  90.3250000 131.6050000  40.3410000  91.3670000 131.1860000  40.4630000
  90.2360000 131.9930000  39.2810000  89.3200000 130.3500000  40.4060000
  88.2850000 130.5860000  40.5270000  89.6910000 129.6030000  41.1620000
  89.5920000 129.4990000  39.1260000  90.6110000 129.7090000  38.7950000
  88.9760000 129.9700000  38.3960000  89.2720000 128.3700000  39.1120000
 108.7150000  99.9760000  35.7200000 109.4120000  99.7290000  34.9360000
 107.9700000 100.7860000  35.4550000 108.1150000  99.1920000  35.8860000
 109.4990000 100.2800000  36.9250000 108.8800000 100.1360000  37.8250000
 110.3520000  99.5850000  36.8750000 109.9960000 101.7170000  36.9790000
 110.3260000 101.9510000  35.9880000 109.2170000 102.4370000  37.1770000
 111.1310000 101.9660000  37.9070000 112.0560000 101.4250000  37.5550000
 111.3140000 103.0170000  37.7880000 110.8770000 101.5880000  39.3270000
 109.8020000 101.5090000  39.5720000 111.3660000 100.6210000  39.4590000
 111.6030000 102.5470000  40.3300000 112.6500000 102.2850000  40.3440000
 111.5160000 103.5940000  39.9920000 110.9700000 102.6600000  41.7350000
 110.2450000 103.4480000  41.7910000 110.4550000 101.7520000  42.0420000
 112.0340000 103.0460000  42.7550000 112.6160000 102.1560000  42.9160000
 112.6580000 103.8310000  42.4020000 111.4280000 103.4480000  44.1860000
 110.7410000 104.3280000  44.0730000 110.6880000 102.6790000  44.4020000
 112.4050000 103.7560000  45.2870000 113.2140000 104.4540000  44.8070000
 111.8300000 104.2090000  46.0920000 113.1620000 102.5730000  45.8050000
 113.6850000 102.1200000  44.9300000 113.8830000 103.0500000  46.5270000
 112.3660000 101.4660000  46.4710000 112.0340000 101.8730000  47.3900000
 111.5580000 101.2410000  45.7770000 113.1960000 100.2170000  46.6150000
 113.5800000  99.8360000  45.7070000 114.0000000 100.3630000  47.3060000
 112.1790000  99.1110000  47.1990000 111.2400000  99.1150000  46.5860000
 112.7350000  98.0920000  47.2770000 111.7050000  99.3830000  48.6560000
 111.2200000 100.3140000  48.7070000 111.0650000  98.5500000  49.0240000
 112.9640000  99.3330000  49.5280000 113.4220000  98.2560000  49.8960000
 113.3430000 100.5760000  49.8300000 114.6370000 100.7210000  50.6330000
 114.3080000 100.3460000  51.5860000 115.3240000  99.9360000  50.3060000
 115.2020000 102.1830000  50.7320000 116.0410000 102.2020000  51.4510000
 114.0940000 103.1610000  51.2870000 113.8700000 103.9110000  50.5130000
 113.1930000 102.5280000  51.4490000 114.4780000 103.7080000  52.5310000
 114.4150000 102.9940000  53.9290000 112.9810000 103.4180000  54.6280000
 112.9860000 104.4620000  55.6300000 111.9990000 104.6890000  55.9090000
 113.5570000 104.1360000  56.5710000 113.6940000 105.8190000  55.1140000
 114.1590000 106.3250000  55.9260000 114.5340000 105.4550000  54.5570000
 113.0450000 106.7500000  54.0900000 113.9140000 107.9290000  53.8770000
 113.5400000 108.5880000  53.0790000 114.0220000 108.5740000  54.8160000
 114.9210000 107.5650000  53.6430000 112.7600000 106.0620000  52.8080000
 112.3540000 106.9790000  52.2640000 113.7060000 105.7150000  52.3760000
 112.0170000 105.2980000  52.8810000 111.7810000 107.2890000  54.5480000
 111.0720000 106.4840000  54.3990000 111.5950000 108.2680000  54.0590000
 111.9520000 107.3520000  55.6110000 114.4640000 101.5370000  53.6970000
 115.5400000 103.5920000  54.6220000 115.5270000 102.5550000  49.3720000
 116.8170000 102.6520000  48.9930000 117.8110000 102.6820000  49.7380000
 116.9530000 102.6190000  47.4970000 117.4990000 103.5540000  47.3510000
 115.9220000 102.6590000  47.1010000 117.8020000 101.4260000  46.9940000
 117.2480000 100.4850000  47.2330000 118.6760000 101.3310000  47.6270000
 118.1640000 101.4420000  45.4830000 118.5110000 100.5140000  45.1310000
 118.9200000 102.2080000  45.1560000 116.9560000 101.5620000  44.6470000
 116.5660000 102.6090000  44.7860000 116.1820000 100.9320000  44.9890000
 117.1090000 101.1360000  43.2130000 117.3650000 100.0270000  43.1830000
 117.8870000 101.7030000  42.7830000 115.8480000 101.2930000  42.3530000
 115.6800000 102.4170000  42.3230000 114.8980000 100.8520000  42.7940000
 116.0530000 100.8490000  40.8970000 116.5780000  99.9540000  40.8330000
 116.6890000 101.6210000  40.4880000 114.7320000 100.8190000  40.1620000
 113.9060000 100.9930000  40.8360000 114.6660000 100.6740000  38.8390000
 113.6800000 100.8070000  38.4100000 115.7010000 100.1010000  37.8640000
 116.6610000  99.9970000  38.3360000 115.8860000 100.7730000  37.0710000
 115.3020000  98.7840000  37.1740000 115.2780000  97.9360000  37.8100000
 116.0230000  98.4490000  36.4070000 114.0000000  98.8790000  36.3850000
 113.9120000  99.7220000  35.7160000 113.1880000  99.1140000  37.0630000
 113.8680000  97.6450000  35.4720000 113.5810000  96.7360000  36.0140000
 114.8320000  97.3990000  35.0080000 112.8330000  97.9010000  34.4500000
 113.2280000  98.5580000  33.7150000 111.9740000  98.3730000  34.8910000
 112.5580000  96.5970000  33.6680000 112.0440000  95.9360000  34.4080000
 113.4630000  96.1540000  33.2980000 111.6090000  96.8160000  32.4350000
 111.8750000  97.7090000  31.8400000 110.5780000  96.8230000  32.8120000
 111.7570000  95.7380000  31.3820000 112.7030000  95.7140000  30.8630000
 110.9420000  95.8080000  30.7030000 111.6030000  94.8220000  31.9610000
  36.5150000  96.4730000  41.4950000  36.5630000  96.3750000  40.4270000
  35.5280000  96.0530000  41.7830000  37.1900000  95.8040000  42.0450000
  36.6950000  97.9870000  41.8270000  37.6460000  98.2920000  41.4060000
  35.9540000  98.6370000  41.4420000  36.5980000  98.4030000  43.2450000
  36.3010000  99.4540000  43.4120000  35.7280000  97.9040000  43.6990000
  37.9240000  98.0700000  44.0250000  38.1410000  97.0220000  43.8640000
  38.7880000  98.6230000  43.7480000  37.8300000  98.2070000  45.5850000
  37.6930000  99.2710000  45.9480000  37.0320000  97.5190000  45.9560000
  39.1660000  97.7260000  46.1960000  39.1470000  96.5970000  46.0390000
  40.0170000  98.1950000  45.6650000  39.4260000  97.8820000  47.6540000
  38.6530000  97.3060000  48.2070000  40.3710000  97.4320000  47.9390000
  39.4730000  99.3690000  47.9480000  40.2480000  99.9990000  47.4510000
  38.4940000  99.7680000  47.7470000  39.8150000  99.6780000  49.4410000
  39.2710000  99.0840000  50.1670000  40.7850000  99.4550000  49.5750000
  39.6420000 101.1450000  49.8500000  40.1370000 101.3510000  50.8220000
  40.0970000 101.8350000  49.1230000  38.1670000 101.5200000  49.9500000
  37.5830000 101.2810000  49.0090000  37.7780000 101.0760000  50.8790000
  38.1400000 103.0720000  50.1760000  38.3870000 103.3370000  51.1560000
  38.8310000 103.5560000  49.5120000  36.6950000 103.5510000  49.8060000
  36.3930000 102.8760000  48.9460000  36.0660000 103.5030000  50.6740000
  36.7260000 105.0230000  49.4620000  37.1490000 105.2270000  48.4780000
  35.7500000 105.3610000  49.3420000  37.4580000 105.9600000  50.4370000
  38.4190000 105.6270000  50.6370000  37.5270000 107.0590000  50.0100000
  36.7300000 106.0770000  51.6890000  35.9590000 107.0270000  51.9230000
  36.9920000 105.1730000  52.6170000  36.3360000 105.2790000  53.9010000
  36.8390000 104.6920000  54.6520000  36.3050000 106.3140000  54.3470000
  34.8450000 104.8420000  53.7800000  34.3280000 105.6840000  53.2610000
  34.0700000 104.5620000  55.1520000  33.1950000 104.0070000  54.9610000
  34.6630000 103.8970000  55.7940000  33.6300000 105.8290000  55.6900000
  34.1720000 106.3530000  57.1410000  33.5810000 105.2880000  58.1720000
  32.3040000 105.5360000  58.6710000  32.3580000 105.1550000  59.6850000
  32.2010000 106.6210000  58.7300000  31.3460000 104.9230000  57.7310000
  30.3580000 105.3570000  57.7940000  31.6930000 105.1630000  56.7980000
  31.2450000 103.4270000  57.7410000  32.5990000 102.7690000  57.5220000
  32.9120000 103.1260000  56.5800000  33.2850000 103.0480000  58.3120000
  32.5040000 101.7050000  57.4680000  30.6750000 102.8220000  59.0420000
  29.6120000 103.0730000  59.1120000  30.7180000 101.7360000  58.9260000
  31.1430000 103.1650000  60.0000000  30.2820000 103.0980000  56.5560000
  30.7580000 103.0900000  55.6250000  29.4410000 103.7640000  56.4820000
  29.9610000 102.1000000  56.6810000  35.6050000 106.0840000  57.1130000
  33.6530000 107.7620000  57.2600000  34.6320000 103.7490000  52.8620000
  35.0660000 102.4750000  53.0000000  35.9120000 102.1410000  53.8370000
  34.4390000 101.5900000  51.9990000  34.5460000 102.1470000  51.1290000
  33.3370000 101.5940000  52.0060000  35.0480000 100.1930000  51.7600000
  35.0260000  99.5990000  52.6790000  36.1080000 100.3780000  51.6870000
  34.4010000  99.4310000  50.5290000  34.4550000 100.0700000  49.6170000
  33.3350000  99.2300000  50.5880000  35.1900000  98.0860000  50.3390000
  34.6770000  97.2720000  50.9640000  36.1710000  98.1260000  50.8580000
  35.2940000  97.2720000  48.9830000  36.0450000  96.4610000  49.1550000
  35.6450000  97.8180000  48.0960000  33.9890000  96.5650000  48.5520000
  33.4360000  96.2230000  49.4030000  34.1710000  95.6440000  48.0540000
  32.9570000  97.4620000  47.7330000  32.5980000  98.3210000  48.3110000
  32.0990000  96.7530000  47.5920000  33.5250000  97.8350000  46.3770000
  33.7560000  97.0000000  45.6650000  33.7190000  99.0640000  45.8920000
  34.1240000  99.1270000  44.9150000  33.4060000 100.4020000  46.5810000
  32.8590000 100.2250000  47.4390000  32.7690000 101.0700000  45.9160000
  34.7530000 101.0370000  47.0590000  35.4430000 100.3200000  47.4890000
  34.4710000 101.6800000  47.8690000  35.3310000 101.7800000  45.8640000
  34.7240000 102.6100000  45.3780000  35.4340000 101.0740000  45.0510000
  36.7520000 102.3590000  46.0900000  37.4680000 101.6230000  46.4780000
  36.7220000 103.0540000  46.9070000  37.3390000 102.8040000  44.7540000
  37.5510000 102.0120000  44.0820000  38.3650000 103.1170000  45.0360000
  36.6450000 103.9810000  44.0060000  35.7730000 103.7150000  43.4120000
  37.3800000 104.1860000  43.2370000  36.4820000 105.1960000  44.9030000
  37.4200000 105.4680000  45.2850000  35.9820000 104.9880000  45.8530000
  35.7790000 106.3960000  44.1930000  35.8700000 107.2890000  44.9350000
  34.7670000 106.2560000  43.8880000  36.3810000 106.8020000  43.3720000
 149.2950000  32.8100000  43.6310000 149.4680000  33.2510000  42.6560000
 149.9660000  31.9630000  43.7180000 149.3720000  33.5470000  44.3940000
 147.8420000  32.2830000  43.5900000 147.5270000  31.7140000  44.4200000
 147.2480000  33.2250000  43.5330000 147.3900000  31.5060000  42.3480000
 146.4010000  31.0240000  42.5450000 147.1630000  32.1820000  41.5070000
 148.4020000  30.5160000  41.7780000 149.4090000  30.9220000  41.7800000
 148.4470000  29.7840000  42.5090000 148.0550000  29.9040000  40.4280000
 148.0460000  30.7120000  39.6920000 148.9180000  29.3080000  40.1770000
 146.6850000  29.1510000  40.3160000 146.7900000  28.1900000  40.8110000
 145.9050000  29.6060000  40.8110000 146.1600000  28.9010000  38.8510000
 146.0670000  29.8780000  38.3680000 146.9430000  28.4220000  38.2480000
 144.7410000  28.1780000  38.8780000 144.0160000  28.9860000  39.2050000
 144.5140000  28.0700000  37.8470000 144.7840000  26.8100000  39.6100000
 145.5350000  26.1590000  39.2300000 144.9790000  27.0630000  40.6780000
 143.6070000  25.9370000  39.3970000 143.4770000  25.7980000  38.3180000
 143.9940000  24.9810000  39.8710000 142.1980000  26.3920000  40.0190000
 142.0570000  27.4380000  39.5930000 141.4540000  25.7250000  39.7380000
 142.0420000  26.6150000  41.5670000 142.2380000  25.6740000  41.9810000
 142.7380000  27.4030000  41.9480000 140.5430000  26.8790000  41.9110000
 140.2710000  27.9040000  41.4470000 139.8390000  26.2630000  41.4340000
 140.2670000  26.6730000  43.4100000 140.8710000  27.3560000  44.0080000
 139.1600000  26.9660000  43.5970000 140.5400000  25.2520000  43.9610000
 140.0030000  24.6240000  43.1670000 141.5990000  25.0380000  44.1350000
 139.7310000  25.0880000  45.2520000 139.4180000  26.0370000  45.9130000
 139.3850000  23.8360000  45.5030000 138.6160000  23.5240000  46.6770000
 138.7830000  22.4940000  47.0060000 138.9910000  24.1570000  47.5050000
 137.1470000  23.9050000  46.4610000 137.2080000  24.9770000  46.5430000
 136.1590000  23.2230000  47.3860000 135.2120000  22.8730000  46.8770000
 136.6110000  22.2980000  47.9000000 135.6680000  24.0160000  48.5210000
 136.3310000  23.9920000  49.9730000 135.8010000  22.7860000  50.8160000
 134.5310000  22.9270000  51.5800000 134.5600000  22.3220000  52.5200000
 134.3090000  23.9420000  51.9670000 133.3520000  22.5310000  50.7300000
 132.4220000  22.7510000  51.1700000 133.4290000  23.1280000  49.8960000
 133.1270000  21.1200000  50.3250000 134.3760000  20.5930000  49.6400000
 135.2490000  20.6850000  50.1920000 134.2740000  19.5560000  49.3870000
 134.4800000  21.1890000  48.7230000 132.7700000  20.2710000  51.5090000
 132.0600000  20.8550000  52.0750000 132.4030000  19.2550000  51.2100000
 133.7300000  20.1860000  52.0120000 132.0550000  20.9720000  49.4150000
 131.2210000  21.3610000  49.9310000 131.9140000  19.9360000  49.1240000
 132.2270000  21.5530000  48.5480000 137.7330000  23.6000000  49.7150000
 136.1170000  25.2730000  50.6040000 136.7620000  23.6250000  45.0490000
 136.6470000  24.5920000  44.0960000 136.4420000  25.7640000  44.4050000
 136.7210000  23.9670000  42.7250000 135.9130000  23.2940000  42.6000000
 137.6490000  23.2590000  42.6320000 136.6650000  25.0730000  41.6910000
 137.3290000  25.8280000  42.0340000 135.6240000  25.4920000  41.6330000
 137.3250000  24.5280000  40.3780000 137.1560000  23.4910000  40.3110000
 138.3600000  24.6120000  40.3750000 136.7700000  25.0700000  39.0530000
 136.4970000  26.1650000  39.1700000 135.7630000  24.5470000  38.9800000
 137.7670000  24.8450000  37.8520000 137.7090000  23.7740000  37.5630000
 138.7700000  25.0060000  38.2690000 137.4330000  25.7610000  36.6340000
 137.2510000  26.7720000  37.0250000 136.5080000  25.4320000  36.2530000
 138.5810000  25.7080000  35.6770000 138.8070000  24.7090000  35.4340000
 139.3910000  26.2600000  36.1420000 138.0280000  26.5170000  34.4780000
 137.6320000  27.4990000  34.7900000 137.8980000  26.1190000  33.2040000
 137.4050000  26.8310000  32.4850000 138.2020000  24.7810000  32.5700000
 138.8140000  24.0970000  33.1670000 138.6870000  24.8560000  31.5670000
 136.8770000  24.0320000  32.3740000 137.0820000  23.1530000  31.7430000
 136.1310000  24.6580000  31.7700000 136.1790000  23.6910000  33.6830000
 135.7010000  24.4850000  34.0340000 136.8610000  23.4050000  34.4710000
 135.0000000  22.6920000  33.4250000 135.3890000  21.8380000  32.9100000
 134.3380000  23.2040000  32.6780000 134.1720000  22.1810000  34.6610000
 133.4850000  23.0050000  34.9940000 134.8110000  21.8450000  35.4790000
 133.1900000  20.9620000  34.3220000 133.8370000  20.1960000  33.9200000
 132.6350000  21.3590000  33.5110000 132.2830000  20.5870000  35.4990000
 131.6070000  21.4870000  35.6950000 132.9530000  20.3690000  36.3480000
 131.4430000  19.3520000  35.0680000 130.9570000  18.8620000  35.9060000
 132.0850000  18.5800000  34.7030000 130.7160000  19.6980000  34.2770000
  39.8080000 124.4070000  44.1810000  38.9350000 124.9960000  44.4780000
  40.7390000 124.7080000  44.7510000  39.6100000 123.3030000  44.3750000
  40.1630000 124.5920000  42.7200000  40.6330000 125.6130000  42.4690000
  40.8620000 123.8490000  42.4550000  38.9500000 124.4640000  41.8890000
  38.2020000 125.1950000  42.2920000  39.2840000 124.7290000  40.9390000
  38.1880000 123.1510000  42.0180000  38.7870000 122.3460000  41.5840000
  37.8160000 123.0170000  43.0880000  36.8790000 123.1410000  41.1360000
  36.1360000 123.8590000  41.3850000  37.2800000 123.3600000  40.1490000
  36.1020000 121.7830000  41.0940000  35.9090000 121.4500000  40.0650000
  36.8030000 121.0440000  41.4720000  34.8550000 121.7090000  41.9030000
  34.0700000 122.4040000  41.3690000  34.3410000 120.7450000  41.8190000
  34.9390000 122.1230000  43.3760000  35.2330000 123.1910000  43.4310000
  33.8860000 122.1850000  43.7930000  35.8270000 121.2690000  44.4040000
  35.3820000 120.2440000  44.3670000  36.8070000 121.2190000  44.0290000
  35.8570000 121.8080000  45.8070000  34.8230000 121.8170000  46.1090000
  36.4590000 121.2070000  46.4910000  36.3320000 123.2810000  45.8620000
  37.3970000 123.3170000  45.6600000  35.8480000 123.8960000  45.0960000
  36.0290000 124.0060000  47.1790000  34.9530000 124.2470000  47.1030000
  36.2020000 123.3490000  48.0370000  36.9640000 125.2250000  47.4380000
  37.0230000 125.7960000  46.4840000  36.4840000 125.8260000  48.1980000
  38.3830000 124.8740000  48.0330000  38.8590000 124.1790000  47.3660000
  38.9560000 125.8120000  47.8660000  38.4280000 124.2900000  49.4780000
  37.6350000 123.5050000  49.5760000  39.3670000 123.7930000  49.6810000
  38.0870000 125.2440000  50.4970000  38.9540000 125.9450000  51.0440000
  36.7890000 125.4270000  50.7370000  36.3100000 126.5610000  51.5110000
  36.8200000 126.4510000  52.4650000  36.7800000 127.4040000  51.0250000
  34.8020000 126.7110000  51.9360000  34.6020000 127.6980000  52.3220000
  34.3510000 125.7150000  53.0430000  35.2240000 125.3240000  53.6770000
  33.6800000 126.1940000  53.7180000  33.6570000 124.5310000  52.4630000
  32.0580000 124.5050000  52.3330000  31.6520000 123.5710000  53.5560000
  30.7940000 124.1220000  54.6330000  31.0680000 123.4100000  55.4150000
  31.0940000 125.1840000  54.9490000  29.3040000 124.1370000  54.2000000
  28.6130000 124.5660000  55.0530000  29.2900000 124.7040000  53.2830000
  28.6830000 122.8060000  53.7960000  29.0820000 122.3690000  52.4990000
  30.1700000 122.0700000  52.5340000  28.5480000 121.4310000  52.2330000
  28.9510000 123.1230000  51.7090000  28.9940000 121.6720000  54.7600000
  28.3950000 120.7420000  54.4080000  30.0060000 121.3530000  54.5710000
  28.8810000 121.8540000  55.7970000  27.2290000 122.9810000  53.7530000
  26.9870000 123.7290000  53.0630000  26.8170000 123.2940000  54.6990000
  26.8250000 122.0130000  53.5120000  31.5150000 125.8700000  52.5800000
  31.6760000 123.7750000  51.1120000  34.1070000 126.3860000  50.6700000
  33.2500000 127.3050000  50.1580000  33.0770000 128.4610000  50.5320000
  32.5920000 126.6730000  49.0090000  31.6310000 126.2310000  49.2940000
  33.1600000 125.8060000  48.7210000  32.2550000 127.5890000  47.7910000
  31.8490000 128.5540000  48.1290000  31.4800000 127.1890000  47.1420000
  33.5670000 127.8640000  46.9760000  33.2760000 128.6190000  46.2150000
  33.7460000 127.0270000  46.2970000  34.8530000 128.3180000  47.5960000
  35.2020000 127.5040000  48.3040000  34.6680000 129.2560000  48.1510000
  35.9700000 128.7010000  46.6760000  35.6180000 129.4070000  45.9080000
  36.3200000 127.8080000  46.1330000  37.2320000 129.1290000  47.5290000
  37.3750000 128.2950000  48.2200000  36.8960000 130.0570000  48.0350000
  38.5030000 129.3420000  46.7050000  38.8260000 128.4170000  46.2440000
  39.2640000 129.5370000  47.4350000  38.2860000 130.5550000  45.7460000
  37.7770000 131.3530000  46.2060000  38.6500000 130.5260000  44.4760000
  38.3170000 131.3970000  43.9190000  39.4340000 129.5360000  43.5840000
  39.5450000 128.5440000  44.0710000  40.4630000 129.8640000  43.4640000
  38.7320000 129.3660000  42.2210000  39.2050000 128.5830000  41.6220000
  38.6770000 130.2730000  41.6390000  37.3460000 128.7030000  42.4010000
  36.6640000 129.2800000  43.0820000  37.4910000 127.7740000  42.9570000
  36.7590000 128.3200000  41.0380000  37.5340000 128.2400000  40.2310000
  36.1960000 129.2430000  40.7280000  35.8860000 127.0720000  41.0340000
  36.5150000 126.1780000  41.1350000  35.4710000 127.0790000  40.0530000
  34.7460000 126.9280000  42.1840000  34.1290000 127.8090000  42.2570000
  35.2630000 126.7320000  43.1330000  33.7700000 125.7520000  42.0260000
  34.3660000 124.8960000  41.9110000  33.0950000 125.8320000  41.1240000
  32.8950000 125.5370000  43.2140000  33.4550000 125.6080000  44.1080000
  32.3850000 124.5820000  43.2130000  32.3080000 126.4410000  43.2720000
 145.5530000  55.4460000  37.5230000 146.1350000  54.6820000  37.0120000
 146.0260000  56.4210000  37.3930000 144.5560000  55.5920000  36.9640000
 145.1420000  55.0500000  38.9540000 144.5030000  55.8120000  39.3310000
 144.5970000  54.0770000  38.9720000 146.1950000  54.9440000  39.9610000
 146.8080000  54.0480000  39.7310000 146.9090000  55.7230000  39.9060000
 145.8570000  54.7570000  41.4190000 146.6870000  55.0880000  42.0180000
 145.0780000  55.5290000  41.7530000 145.5880000  53.2550000  41.8740000
 144.7710000  52.8440000  41.3080000 146.4980000  52.6950000  41.6170000
 145.2090000  53.1480000  43.3630000 145.9380000  53.5370000  44.0100000
 144.3150000  53.7950000  43.6380000 145.0560000  51.7070000  43.7730000
 144.4050000  51.0610000  43.0720000 146.0450000  51.1510000  43.6510000
 144.4880000  51.5540000  45.1730000 143.5070000  52.1250000  45.2770000
 144.1930000  50.5230000  45.4710000 145.5250000  51.7450000  46.2040000
 146.1430000  50.8700000  46.3260000 146.1920000  52.5900000  45.9850000
 144.8790000  51.8970000  47.5710000 144.2300000  51.0380000  47.6780000
 145.7900000  51.8700000  48.1790000 144.0500000  53.1560000  47.8810000
 143.1920000  53.2500000  47.1140000 143.6940000  53.1330000  48.8810000
 144.9730000  54.3740000  47.7880000 145.9890000  54.1160000  48.0050000
 145.0200000  54.5160000  46.7440000 144.4390000  55.6310000  48.5290000
 143.3680000  55.4060000  48.6680000 144.8200000  55.7620000  49.5490000
 144.4580000  56.9590000  47.7580000 145.4650000  57.1170000  47.4590000
 143.7990000  56.9460000  46.8640000 143.9140000  58.1410000  48.6090000
 144.5950000  58.2570000  49.4510000 144.1540000  59.0000000  47.9620000
 142.4230000  58.0910000  48.8260000 141.6140000  57.9990000  47.9240000
 142.0870000  58.2080000  50.1080000 140.7750000  57.8540000  50.4720000
 140.4890000  58.2910000  51.4730000 140.1310000  58.2700000  49.8100000
 140.5270000  56.3010000  50.6180000 139.4580000  56.3710000  50.8700000
 141.4520000  55.7590000  51.7510000 141.6600000  56.4630000  52.6350000
 140.8950000  54.9160000  52.2130000 142.7480000  55.2860000  51.2550000
 143.2660000  53.8360000  51.6930000 142.3240000  52.7570000  51.0420000
 141.2530000  52.1060000  51.7350000 141.4720000  51.9160000  52.7640000
 140.3630000  52.7790000  51.6950000 141.0580000  50.7380000  51.0520000
 140.1890000  50.2940000  51.5350000 140.8510000  50.8860000  50.0320000
 142.1590000  49.7490000  51.1460000 142.9550000  49.8230000  52.3970000
 142.3810000  49.6210000  53.2860000 143.8380000  49.2520000  52.2300000
 143.3600000  50.8520000  52.4180000 141.5410000  48.3620000  51.2240000
 141.1450000  48.0970000  52.2310000 140.6860000  48.2190000  50.4750000
 142.3560000  47.7310000  50.7960000 143.0950000  49.8960000  49.9740000
 143.6250000  50.8220000  50.1900000 142.4670000  49.9950000  49.0990000
 143.7570000  49.0060000  49.9660000 144.6780000  53.5890000  51.1930000
 142.9550000  53.7560000  53.1460000 140.6770000  55.5960000  49.4300000
 139.8840000  54.5060000  49.3740000 138.8270000  54.4130000  49.9810000
 140.2940000  53.4110000  48.4100000 139.4530000  52.6810000  48.4730000
 141.2120000  53.0210000  48.7100000 140.3600000  53.8680000  46.9750000
 141.2520000  54.5120000  46.9130000 139.5350000  54.5420000  46.8410000
 140.4640000  52.8130000  45.8850000 139.4440000  52.3570000  45.7080000
 141.1950000  52.0350000  46.0660000 140.7650000  53.4590000  44.4840000
 141.7130000  53.9650000  44.5510000 140.0850000  54.2420000  44.3160000
 140.7070000  52.4980000  43.3550000 139.7080000  52.1700000  43.0830000
 141.2700000  51.6780000  43.6970000 141.3450000  53.1440000  42.0810000
 142.4130000  53.0340000  42.2230000 141.0950000  54.2040000  42.1730000
 140.7670000  52.6860000  40.7380000 141.2970000  53.1220000  39.8610000
 139.6830000  53.0100000  40.7510000 140.8370000  51.2210000  40.6480000
 140.4110000  50.6680000  41.4410000 141.4930000  50.5680000  39.7010000
 141.5970000  49.5300000  39.8480000 141.9850000  51.1710000  38.3990000
 142.9470000  51.7490000  38.5240000 141.2500000  51.8680000  37.9670000
 142.3790000  50.0470000  37.3760000 142.8990000  49.2860000  37.8830000
 143.1110000  50.4600000  36.6270000 141.2520000  49.4740000  36.5050000
 140.6930000  50.1930000  35.8600000 140.5930000  48.9530000  37.2510000
 141.6200000  48.4160000  35.3940000 142.1290000  47.5870000  35.8230000
 142.2810000  48.7640000  34.5790000 140.3060000  47.7640000  34.9070000
 139.5950000  48.5140000  34.4480000 139.7860000  47.3360000  35.7500000
 140.7020000  46.7440000  33.8180000 141.4220000  47.1910000  33.1850000
 139.8860000  46.5100000  33.1570000 141.2870000  45.4680000  34.3910000
 142.0990000  45.7280000  35.0320000 141.9020000  44.9120000  33.6330000
 140.3290000  44.4220000  34.9930000 140.0490000  44.6510000  36.0170000
 140.8650000  43.3880000  34.9860000 139.4480000  44.2500000  34.4190000
   5.4730000 120.7250000  42.7230000   6.4440000 121.1640000  42.9230000
   5.1690000 120.1050000  43.6100000   4.8450000 121.6080000  42.5550000
   5.7570000 119.8580000  41.4930000   4.9020000 119.8690000  40.8280000
   6.4860000 120.3530000  40.8790000   6.3760000 118.4700000  41.6170000
   5.6300000 117.8410000  42.1090000   6.4860000 118.1570000  40.5440000
   7.7790000 118.3540000  42.3270000   8.4140000 119.0530000  41.8410000
   7.5040000 118.7680000  43.3160000   8.3530000 116.9390000  42.4170000
   7.6300000 116.1690000  42.5820000   8.8650000 116.6790000  41.5180000
   9.3330000 116.9390000  43.5860000   8.6780000 117.2140000  44.4240000
   9.7340000 115.9050000  43.7540000  10.5750000 117.9660000  43.5510000
  11.1800000 117.8360000  42.6450000  10.1730000 118.9800000  43.6000000
  11.3130000 117.6540000  44.8370000  10.7090000 117.8210000  45.7310000
  11.6100000 116.6720000  44.8990000  12.6300000 118.4360000  45.0000000
  13.1970000 118.0860000  45.8300000  13.1430000 118.3460000  44.0150000
  12.4800000 119.9070000  45.0640000  12.0120000 120.2680000  44.1410000
  11.8390000 120.1130000  45.9360000  13.8550000 120.7120000  45.1410000
  14.3370000 120.3210000  46.0480000  14.4660000 120.3240000  44.3100000
  13.6380000 122.2290000  45.1370000  13.2990000 122.4440000  44.1070000
  12.8240000 122.3770000  45.8580000  14.9220000 123.0320000  45.3560000
  15.6640000 122.7160000  44.6000000  14.9140000 124.1820000  45.1990000
  15.7420000 122.7670000  46.6310000  15.1600000 123.1310000  47.4920000
  16.0020000 121.7140000  46.8840000  17.1200000 123.5720000  46.6650000
  17.7650000 123.2660000  45.8250000  16.9520000 124.5980000  46.5940000
  17.8790000 123.3210000  47.9730000  18.3690000 122.1960000  48.1580000
  17.9330000 124.3770000  48.7430000  18.6890000 124.3220000  50.0330000
  18.1520000 123.6870000  50.6970000  19.7040000 123.9490000  49.8940000
  18.7350000 125.6900000  50.6160000  19.2100000 126.3550000  49.9000000
  19.5500000 125.6830000  51.9200000  19.2150000 124.8420000  52.5440000
  20.6100000 125.6050000  51.7770000  19.2750000 126.8870000  52.6620000
  19.8780000 127.1280000  54.0880000  19.1490000 126.0240000  55.0110000
  17.7770000 126.0980000  55.4780000  17.6850000 125.4400000  56.4090000
  17.6510000 127.0980000  55.9050000  16.8560000 125.6140000  54.3650000
  17.1710000 125.9370000  53.3560000  16.7550000 124.5660000  54.3940000
  15.4320000 126.0760000  54.3440000  14.7000000 125.3380000  53.2910000
  15.1780000 125.5070000  52.3790000  14.8660000 124.2710000  53.4780000
  13.6680000 125.6460000  53.3660000  14.8430000 125.8770000  55.7520000
  15.4360000 126.3080000  56.5410000  13.8660000 126.2940000  55.6820000
  14.7610000 124.7880000  55.8100000  15.4790000 127.5430000  53.9590000
  14.5850000 128.0660000  54.2470000  15.7510000 127.6100000  52.9420000
  16.3660000 127.9130000  54.5810000  21.3290000 126.8310000  54.0670000
  19.4090000 128.4340000  54.6260000  17.3630000 126.1240000  50.8720000
  16.8300000 127.1090000  50.0480000  17.4520000 127.9440000  49.4920000
  15.3460000 127.0250000  49.8640000  14.8790000 127.7640000  49.1850000
  14.9070000 127.3360000  50.8660000  14.8510000 125.6290000  49.4120000
  15.3860000 124.9300000  50.0990000  15.2040000 125.4130000  48.3970000
  13.3550000 125.4460000  49.6030000  12.8040000 126.2200000  49.0530000
  13.1110000 125.5490000  50.6620000  12.8260000 124.0730000  49.0950000
  13.3470000 123.2940000  49.6200000  12.8530000 123.8610000  48.0030000
  11.2820000 123.9630000  49.3490000  10.9660000 123.0130000  48.9580000
  10.7940000 124.7890000  48.8870000  10.9090000 124.0160000  50.8600000
  10.9010000 125.0800000  51.1070000  11.7140000 123.5360000  51.4270000
   9.6200000 123.3570000  51.2780000   9.3900000 123.6610000  52.2660000
   9.7080000 122.2740000  51.0840000   8.4340000 123.7180000  50.4210000
   8.6200000 123.9790000  49.4140000   7.1560000 123.5760000  50.7500000
   6.5330000 123.7750000  49.9560000   6.5350000 122.9630000  52.0330000
   6.0480000 123.8260000  52.4980000   7.2780000 122.7570000  52.7430000
   5.7340000 121.7400000  51.5830000   6.3490000 121.1280000  51.0060000
   4.9640000 122.0270000  50.9300000   5.0490000 120.8330000  52.6260000
   4.1200000 121.3470000  52.9160000   5.6350000 120.5750000  53.5280000
   4.5510000 119.5570000  51.8870000   5.4760000 118.9300000  51.6400000
   4.1400000 119.8460000  50.9830000   3.6440000 118.7770000  52.8670000
   2.6980000 119.1000000  52.9690000   3.9800000 118.9370000  53.8980000
   3.6110000 117.2650000  52.4660000   3.3220000 117.1830000  51.4160000
   2.8380000 116.7680000  53.1450000   4.9030000 116.5520000  52.6800000
   5.4200000 116.7200000  51.7830000   4.7070000 115.4730000  52.7120000
   5.8110000 116.9800000  53.9430000   5.3480000 116.8630000  54.8980000
   6.0790000 118.0780000  53.8740000   6.7150000 116.4450000  53.9720000
 116.8440000 100.2830000  34.0240000 116.3810000  99.3850000  33.6000000
 116.2690000 101.1030000  33.7050000 116.9550000 100.4240000  35.1420000
 118.2910000 100.3960000  33.4480000 118.2050000 100.5180000  32.3780000
 118.8200000 101.1970000  33.9330000 119.1230000  99.1510000  33.8210000
 118.6370000  98.2200000  33.4030000 120.1260000  99.1930000  33.4740000
 119.2670000  98.8800000  35.3710000 119.4570000  99.8420000  35.8930000
 118.3170000  98.4970000  35.7110000 120.2370000  97.7660000  35.8340000
 120.1050000  96.8220000  35.3410000 121.1890000  98.1710000  35.5980000
 120.1600000  97.6270000  37.3500000 119.2500000  97.0450000  37.4970000
 120.9810000  96.9790000  37.5920000 120.0070000  98.8070000  38.2810000
 120.9790000  99.3550000  38.2250000 119.1640000  99.4390000  38.0020000
 119.9130000  98.5340000  39.8530000 120.8240000  98.0390000  40.1460000
 119.7930000  99.4910000  40.3500000 118.7250000  97.6420000  40.1780000
 117.8550000  98.1090000  39.8120000 118.8520000  96.7470000  39.6120000
 118.6500000  97.3170000  41.7380000 119.6230000  96.8700000  41.9260000
 118.4930000  98.2250000  42.4220000 117.6690000  96.1630000  41.9160000
 117.6260000  95.3730000  41.0510000 117.9580000  95.6340000  42.7610000
 116.2600000  96.7280000  42.2060000 115.9470000  97.3510000  41.4190000
 115.5130000  95.8690000  42.1610000 116.0130000  97.3090000  43.6080000
 116.7350000  98.0730000  43.9450000 115.0740000  97.8630000  43.5520000
 116.0030000  96.3760000  44.7030000 115.1060000  95.7960000  44.4510000
 116.9370000  95.7810000  44.6650000 116.0160000  97.0400000  46.1150000
 115.2880000  97.9280000  46.1130000 115.6300000  96.2990000  46.8550000
 117.3960000  97.5600000  46.5350000 118.2900000  97.8220000  45.8170000
 117.2790000  97.9200000  47.8790000 118.4160000  98.3490000  48.6600000
 119.1570000  98.8740000  48.0500000 118.0130000  98.9760000  49.4300000
 119.1490000  97.1180000  49.1330000 118.4800000  96.2760000  49.4640000
 120.0670000  97.4730000  50.2750000 120.3300000  98.4740000  50.3880000
 120.9700000  96.8580000  50.0970000 119.5440000  97.0650000  51.5010000
 118.4120000  97.8950000  52.2380000 117.0420000  97.5640000  51.5610000
 116.4100000  96.2860000  51.8180000 115.7580000  96.0920000  50.9490000
 117.1730000  95.5330000  51.7760000 115.7070000  96.1990000  53.1810000
 115.1780000  95.2030000  53.2400000 116.5010000  96.2250000  53.9940000
 114.7880000  97.2770000  53.6670000 114.3980000  97.1220000  55.0950000
 115.2650000  97.4470000  55.6280000 113.4800000  97.7240000  55.4000000
 114.2380000  96.1010000  55.2750000 115.1590000  98.7240000  53.5680000
 116.1150000  98.7610000  54.0930000 115.3200000  99.0260000  52.5490000
 114.3750000  99.3830000  54.1220000 113.5650000  97.0440000  52.9740000
 113.3230000  96.0170000  53.2010000 113.8790000  97.0210000  51.9180000
 112.8640000  97.8090000  53.2080000 118.3890000  97.4020000  53.6280000
 118.6870000  99.3130000  52.0400000 120.0570000  96.6330000  48.1380000
 119.6960000  95.5650000  47.3600000 118.6850000  94.8850000  47.4670000
 120.8410000  95.1960000  46.3820000 121.6100000  94.7020000  46.9660000
 121.1580000  96.1650000  45.9020000 120.3090000  94.2140000  45.3630000
 119.4740000  94.6850000  44.8880000 120.0160000  93.3420000  45.9120000
 121.3650000  93.9680000  44.2510000 121.1030000  93.0410000  43.6870000
 122.3320000  93.5680000  44.7340000 121.6090000  95.0920000  43.2430000
 121.9050000  95.9880000  43.8390000 120.6600000  95.2470000  42.8160000
 122.7650000  94.9170000  42.2490000 122.5960000  93.9770000  41.6800000
 123.6110000  94.6400000  42.8560000 122.9760000  96.2060000  41.4130000
 123.1950000  97.1140000  42.0940000 122.0690000  96.3920000  40.8280000
 124.0610000  96.1190000  40.3390000 123.7680000  95.4910000  39.5460000
 124.9450000  95.6420000  40.8460000 124.2900000  97.4200000  39.5540000
 123.8540000  98.2860000  39.9960000 124.9400000  97.4990000  38.4100000
 125.0570000  98.5190000  37.9290000 125.7650000  96.4090000  37.8140000
 125.6710000  95.6000000  38.4920000 126.7670000  96.7450000  37.7860000
 125.2240000  96.0930000  36.4270000 125.2670000  97.0140000  35.8490000
 124.1490000  95.7530000  36.5600000 126.0150000  95.0600000  35.6300000
 127.0860000  95.0930000  35.7630000 125.8240000  95.2120000  34.5380000
 125.6630000  93.6070000  36.0390000 124.5970000  93.3740000  35.9420000
 125.9120000  93.4920000  37.0920000 126.6300000  92.6500000  35.2370000
 127.5410000  93.1190000  34.8790000 126.0830000  92.2230000  34.4120000
 127.1000000  91.3860000  36.0400000 126.2370000  90.8800000  36.4720000
 127.7830000  91.7310000  36.7870000 127.8440000  90.3830000  35.1270000
 127.2140000  90.0940000  34.3130000 128.1230000  89.5310000  35.6830000
 129.1660000  90.9550000  34.5050000 129.7560000  90.1130000  34.1010000
 129.7850000  91.4980000  35.2650000 128.9610000  91.6480000  33.7350000
 105.3680000  41.8540000  35.8100000 105.9200000  42.7540000  35.9190000
 104.6960000  41.9430000  34.9410000 106.0690000  41.1520000  35.4690000
 104.6320000  41.2200000  37.0070000 104.2850000  40.2380000  36.7420000
 105.2670000  41.1380000  37.8810000 103.4970000  42.1290000  37.4230000
 103.9290000  43.1050000  37.5590000 102.7300000  42.0760000  36.6560000
 102.8590000  41.5150000  38.7110000 102.2850000  40.6020000  38.4430000
 103.6320000  41.2690000  39.5070000 101.8440000  42.4580000  39.3520000
 102.3530000  43.2090000  39.8940000 101.2750000  42.9410000  38.6140000
 100.7970000  41.6950000  40.2440000 100.3860000  40.8460000  39.7150000
 101.3330000  41.4250000  41.2280000  99.5960000  42.5640000  40.5400000
  99.9980000  43.4370000  41.0880000  99.2040000  42.9920000  39.6150000
  98.5550000  41.8710000  41.3720000  99.0650000  41.2630000  42.1360000
  98.0040000  42.6970000  41.9010000  97.6310000  41.0670000  40.5000000
  96.9480000  41.6910000  39.9330000  98.0610000  40.4460000  39.7770000
  96.6590000  40.2100000  41.3780000  95.9940000  40.8410000  42.0070000
  95.9380000  39.6990000  40.6350000  97.2550000  39.1550000  42.3480000
  97.6560000  38.3300000  41.8070000  98.0910000  39.5520000  42.9190000
  96.2630000  38.5620000  43.3450000  95.4000000  38.2850000  42.6890000
  96.6120000  37.7190000  43.7870000  95.7880000  39.4930000  44.4920000
  95.8280000  40.4830000  44.0720000  94.7980000  39.3400000  44.7830000
  96.5520000  39.5820000  45.7830000  96.0100000  39.9970000  46.5880000
  96.5900000  38.4990000  46.0870000  97.9940000  40.0910000  45.7710000
  98.5650000  39.3590000  45.1370000  98.0670000  41.0390000  45.1610000
  98.5930000  40.2470000  47.1230000  99.7090000  39.8780000  47.3420000
  97.7840000  40.7810000  48.0610000  98.2970000  41.0590000  49.4410000
  98.5930000  40.1960000  50.0460000  99.2060000  41.6700000  49.4130000
  97.3140000  42.1450000  50.0770000  97.2330000  43.1270000  49.5220000
  97.7750000  42.5240000  51.4920000  97.3420000  43.4500000  51.8310000
  97.1870000  41.7830000  52.1170000  99.2010000  42.4200000  51.6430000
 100.0950000  43.5910000  51.0950000  99.7780000  44.6430000  52.2660000
 100.9100000  45.2370000  52.9450000 100.6470000  45.7370000  53.8850000
 101.7700000  44.5580000  53.1510000 101.4880000  46.3840000  52.0010000
 102.2680000  46.8950000  52.4860000 102.0210000  45.9070000  51.1280000
 100.5630000  47.4870000  51.5370000 101.3050000  48.4980000  50.7240000
 100.7820000  49.3900000  50.7670000 102.2820000  48.6340000  51.1770000
 101.4020000  48.1240000  49.6680000  99.4410000  46.9640000  50.7030000
  98.8910000  47.8780000  50.2730000  99.8330000  46.3600000  49.9180000
  98.7070000  46.2780000  51.3020000 100.0260000  48.1340000  52.7700000
  99.4280000  48.8870000  52.4970000 100.9590000  48.4990000  53.2710000
  99.4560000  47.3770000  53.2450000 101.4790000  43.1400000  51.1440000
  99.5360000  44.1080000  49.8760000  96.0250000  41.5100000  50.1220000
  94.9280000  42.1930000  49.9290000  94.8810000  43.4400000  50.1250000
  93.7210000  41.3430000  49.5740000  92.8870000  41.8240000  50.1240000
  93.8930000  40.3310000  49.9940000  93.4550000  41.3140000  48.0830000
  92.6600000  40.6310000  47.8850000  94.2700000  40.9080000  47.4900000
  93.1390000  42.7460000  47.5580000  94.0040000  43.4420000  47.7130000
  92.3330000  43.2150000  48.1450000  92.7260000  42.8210000  46.0970000
  91.8840000  43.5400000  45.9950000  92.2570000  41.8520000  45.8970000
  93.7650000  43.0370000  45.0060000  94.6270000  42.4790000  45.2260000
  94.0450000  44.1270000  45.0940000  93.3330000  42.6190000  43.6010000
  92.2910000  42.7550000  43.5080000  93.5730000  41.5130000  43.5530000
  93.9530000  43.3110000  42.4050000  93.4560000  42.9620000  41.4660000
  95.0160000  43.0280000  42.3450000  93.7310000  44.8580000  42.4720000
  92.7250000  45.1370000  42.6620000  94.5670000  45.8800000  42.2510000
  94.2360000  46.8820000  42.2970000  96.0180000  45.6810000  41.8000000
  96.2310000  44.6530000  41.7190000  96.7330000  45.9760000  42.5860000
  96.4280000  46.5280000  40.6440000  97.5180000  46.5200000  40.5410000
  96.1610000  47.5560000  40.9240000  95.6210000  46.2290000  39.3490000
  94.6320000  46.0810000  39.6900000  95.9890000  45.3540000  38.8430000
  95.6270000  47.3370000  38.2640000  96.6610000  47.5950000  37.8520000
  95.2560000  48.2000000  38.8390000  94.5930000  47.0720000  37.1540000
  94.6790000  46.0520000  36.8480000  94.8810000  47.6930000  36.2990000
  93.0400000  47.1570000  37.4150000  92.8790000  46.5720000  38.3050000
  92.4120000  46.6700000  36.6990000  92.5550000  48.6150000  37.7090000
  92.7460000  49.2080000  36.8860000  93.0620000  49.0950000  38.5390000
  91.1040000  48.5910000  38.2020000  90.6320000  49.5140000  37.8070000
  91.1400000  48.5130000  39.3170000  90.5540000  47.7600000  37.7800000
 142.7150000  75.0790000  40.4640000 141.7380000  75.5970000  40.7130000
 143.4460000  75.8880000  40.8100000 142.8090000  74.1040000  41.0240000
 142.8280000  74.9450000  38.9250000 142.1470000  74.2320000  38.4340000
 142.7220000  75.9060000  38.4230000 144.2030000  74.4900000  38.4660000
 144.4010000  73.5840000  39.0470000 144.1370000  74.2500000  37.4300000
 145.4440000  75.3360000  38.6890000 145.4760000  76.0740000  37.8330000
 145.3870000  75.9060000  39.6230000 146.7580000  74.3830000  38.6160000
 146.6830000  73.5520000  39.3490000 146.7990000  74.0770000  37.5470000
 147.9600000  75.2050000  39.1710000 148.5390000  75.4400000  38.2210000
 147.7780000  76.1620000  39.7110000 148.8800000  74.3700000  40.0600000
 149.0720000  73.3530000  39.6290000 149.8770000  74.8840000  39.9740000
 148.4250000  74.3520000  41.5060000 148.2710000  75.4100000  41.6950000
 147.5050000  73.7360000  41.4590000 149.4340000  73.7410000  42.4670000
 150.4300000  74.1670000  42.4150000 149.1210000  74.0400000  43.4660000
 149.4730000  72.2010000  42.4260000 149.7720000  71.9030000  41.4370000
 150.2920000  71.9520000  43.0870000 148.2030000  71.5360000  42.7450000
 147.4560000  71.6140000  41.9250000 148.4260000  70.4790000  42.9180000
 147.4140000  72.0540000  43.9690000 148.0140000  71.9140000  44.8720000
 147.2640000  73.1280000  43.8410000 145.9780000  71.3250000  44.0800000
 145.3230000  71.6060000  43.3030000 146.1310000  70.2120000  44.0820000
 145.2800000  71.6510000  45.3440000 145.9000000  71.5030000  46.2670000
 144.9720000  72.6980000  45.2890000 144.0190000  70.8050000  45.6880000
 143.3400000  70.9330000  44.8950000 144.1670000  69.6960000  45.7470000
 143.3390000  71.2960000  46.9460000 143.1410000  72.4280000  47.3330000
 142.9820000  70.2920000  47.7310000 142.1530000  70.4460000  48.8460000
 142.7370000  70.8370000  49.7280000 141.3500000  71.0820000  48.6170000
 141.7450000  68.9540000  49.3390000 141.3490000  68.5480000  48.4310000
 140.6510000  68.8280000  50.5080000 139.6080000  68.7820000  50.1520000
 140.7190000  67.8970000  50.9770000 140.7770000  69.8890000  51.6550000
 141.7790000  69.8280000  52.8440000 140.8190000  69.5740000  54.1140000
 139.9830000  70.6430000  54.5650000 139.8060000  70.5100000  55.6130000
 140.5380000  71.5370000  54.4940000 138.6690000  70.6420000  53.7920000
 138.0780000  71.5320000  53.9890000 138.8480000  70.8320000  52.7340000
 137.6110000  69.5060000  53.8590000 138.0010000  68.4430000  52.9680000
 137.4580000  67.5220000  53.1730000 137.8040000  68.7040000  51.8960000
 139.1310000  68.2760000  53.0450000 137.5510000  68.8650000  55.2260000
 137.3490000  69.5830000  55.9880000 136.7880000  68.0420000  55.1730000
 138.5750000  68.3810000  55.3900000 136.2490000  70.0250000  53.5390000
 135.5310000  69.2800000  53.8120000 136.1610000  70.3380000  52.5000000
 136.0450000  70.9070000  54.0930000 142.5870000  68.5920000  52.6700000
 142.4470000  71.1310000  52.9960000 142.9730000  68.2960000  49.7340000
 143.0060000  66.9100000  49.5900000 142.0550000  66.1750000  49.3590000
 144.3840000  66.2900000  49.7230000 144.5900000  66.0060000  50.7680000
 145.0610000  67.1310000  49.5810000 144.6510000  65.2070000  48.7470000
 144.0150000  64.2690000  48.9950000 145.6490000  64.8360000  48.8350000
 144.4470000  65.5680000  47.2640000 143.5910000  66.2220000  47.1940000
 144.3070000  64.6430000  46.6040000 145.6210000  66.3590000  46.6920000
 146.5550000  65.9340000  47.0570000 145.6370000  67.4170000  47.0370000
 145.7710000  66.3910000  45.1800000 146.1660000  67.4390000  45.0470000
 144.7970000  66.3820000  44.7170000 146.7070000  65.2340000  44.6330000
 146.4360000  64.1900000  45.0430000 147.7150000  65.4080000  45.1150000
 146.7490000  65.3500000  43.0710000 147.0530000  66.4230000  42.7930000
 145.7310000  65.1430000  42.7290000 147.8190000  64.3270000  42.5540000
 148.7490000  64.1500000  43.1880000 147.6360000  63.6500000  41.3930000
 148.4210000  62.9400000  41.0720000 146.5040000  63.6740000  40.4230000
 145.7760000  64.4110000  40.8080000 146.0230000  62.6990000  40.4410000
 146.9290000  63.9740000  38.9410000 146.0660000  64.1590000  38.3580000
 147.5090000  63.1220000  38.4970000 147.7070000  65.3220000  38.8500000
 147.8680000  65.4650000  37.8120000 148.7040000  65.2340000  39.3380000
 146.8820000  66.5180000  39.4290000 146.6400000  66.3600000  40.4490000
 145.8920000  66.4940000  38.9670000 147.6060000  67.8230000  39.1500000
 147.5170000  68.0950000  38.1120000 148.7140000  67.6810000  39.1810000
 147.0620000  69.0200000  39.8740000 147.7280000  69.8250000  39.7540000
 146.9890000  68.8830000  40.9290000 145.5860000  69.4890000  39.4960000
 144.9250000  68.6240000  39.3430000 145.6740000  69.9710000  38.4890000
 145.0150000  70.5600000  40.4620000 144.6380000  70.1210000  41.4210000
 144.2300000  71.0770000  39.8410000 145.7860000  71.2660000  40.7590000
 146.4180000 117.6280000  36.2480000 147.4220000 117.8000000  35.9330000
 145.9860000 118.6060000  36.5660000 145.8240000 117.2360000  35.4220000
 146.4480000 116.6110000  37.3640000 146.6000000 115.6760000  36.8400000
 147.3130000 116.7280000  38.0430000 145.1180000 116.5960000  38.0930000
 145.0100000 117.4940000  38.6180000 144.3260000 116.5450000  37.2980000
 144.8930000 115.3340000  38.9940000 144.6880000 114.5050000  38.3350000
 145.7590000 115.0970000  39.6030000 143.7520000 115.3960000  39.9750000
 144.0440000 116.0420000  40.8320000 142.9180000 115.8910000  39.5200000
 143.2820000 114.0180000  40.4720000 142.6110000 114.2200000  41.3570000
 142.7000000 113.4960000  39.7290000 144.3980000 113.1090000  41.0510000
 145.0090000 112.8620000  40.1680000 145.0300000 113.6460000  41.7440000
 143.9530000 111.7440000  41.6480000 143.4500000 111.1510000  40.8950000
 144.7900000 111.1380000  41.9490000 142.9670000 111.8520000  42.8640000
 141.9980000 112.1900000  42.5690000 142.8850000 110.8050000  43.0430000
 143.3360000 112.6380000  44.1270000 143.3930000 113.7160000  43.8130000
 142.6020000 112.3370000  44.8340000 144.7600000 112.2150000  44.6900000
 144.7790000 111.1550000  44.7840000 145.6360000 112.4420000  44.0600000
 145.0890000 112.9900000  46.0310000 144.6390000 112.4680000  46.8360000
 146.1780000 112.8170000  46.2530000 144.9070000 114.5480000  45.9140000
 145.5370000 114.9880000  45.1440000 143.8530000 114.7580000  45.7910000
 145.2390000 115.2850000  47.2510000 144.6100000 114.7690000  48.0520000
 146.3050000 115.2880000  47.4250000 144.7710000 116.7350000  47.1110000
 145.2410000 117.2150000  46.2980000 143.6860000 116.8520000  46.9880000
 145.1140000 117.5590000  48.3640000 144.5110000 117.5350000  49.4100000
 146.2430000 118.3000000  48.1610000 146.7160000 119.0450000  49.2590000
 147.3840000 119.7910000  48.7460000 145.9740000 119.6880000  49.7520000
 147.5990000 118.2570000  50.2410000 147.0600000 117.3300000  50.6510000
 147.8340000 119.0820000  51.5430000 148.0770000 118.4060000  52.4150000
 148.6720000 119.6970000  51.3600000 146.5990000 119.7630000  51.9590000
 146.5460000 121.2800000  52.0740000 144.9600000 121.6160000  52.3810000
 144.0130000 121.8180000  51.2750000 143.1840000 122.5460000  51.6550000
 144.5190000 122.4370000  50.5080000 143.4060000 120.4930000  50.6990000
 142.5900000 120.7150000  49.9630000 144.1880000 119.9010000  50.1760000
 142.7310000 119.5770000  51.6940000 142.0650000 120.3790000  52.7630000
 142.5770000 121.2560000  52.9500000 141.0880000 120.6130000  52.3960000
 141.9450000 119.8130000  53.7200000 141.6140000 118.7920000  51.0150000
 141.1700000 118.1460000  51.8110000 140.9560000 119.5300000  50.5470000
 142.0850000 118.1100000  50.2680000 143.6550000 118.6070000  52.2860000
 143.9770000 117.8340000  51.6030000 143.1600000 118.1450000  53.1190000
 144.5020000 119.1930000  52.5960000 147.4470000 121.7890000  53.1660000
 146.8060000 121.7660000  50.7100000 148.8570000 117.8240000  49.5890000
 149.0190000 116.5910000  49.0910000 148.2560000 115.7030000  49.3520000
 150.2460000 116.4300000  48.2980000 150.5610000 115.3870000  48.5040000
 150.9970000 117.0980000  48.8380000 150.0490000 116.6000000  46.7520000
 149.3200000 115.8090000  46.4130000 150.9520000 116.4040000  46.2540000
 149.4100000 117.9280000  46.2780000 150.0260000 118.7960000  46.5650000
 148.4470000 118.1180000  46.7860000 149.1090000 118.0250000  44.7260000
 149.7690000 117.3020000  44.2570000 149.3510000 118.9560000  44.3030000
 147.6760000 117.8070000  44.2890000 146.9780000 118.4780000  44.8930000
 147.3530000 116.8150000  44.6360000 147.4120000 117.8500000  42.7460000
 146.3380000 117.5830000  42.6710000 148.0530000 117.0740000  42.2480000
 147.5850000 119.2340000  42.1040000 148.4980000 119.6650000  42.4190000
 146.8210000 119.8660000  42.6350000 147.5520000 119.1910000  40.5940000
 146.5570000 119.0310000  40.2330000 148.5010000 119.4460000  39.6860000
 148.2280000 119.3000000  38.6610000 149.8270000 120.0730000  39.9510000
 149.8850000 120.4140000  40.9900000 149.9600000 120.9850000  39.3430000
 151.0280000 119.0700000  39.7530000 150.7750000 117.9330000  39.5330000
 151.6480000 119.1400000  40.6580000 151.9220000 119.4420000  38.5600000
 152.1340000 120.5080000  38.5910000 151.3070000 119.3830000  37.5710000
 153.2200000 118.6510000  38.4140000 152.8470000 117.7100000  37.9750000
 153.5770000 118.3580000  39.3700000 154.1150000 119.4570000  37.5150000
 153.6190000 119.8670000  36.6390000 154.7390000 118.7270000  37.0350000
 154.9260000 120.4330000  38.3340000 155.2550000 119.9000000  39.2370000
 154.3040000 121.2800000  38.7790000 156.1490000 120.9840000  37.5170000
 155.8880000 121.3970000  36.5510000 156.7470000 120.1730000  37.2540000
 156.8870000 122.0340000  38.3060000 157.5960000 121.5700000  38.9950000
 156.0950000 122.5330000  38.8930000 157.5350000 122.6510000  37.7380000
  50.5360000  11.4000000  32.1290000  51.3220000  11.2440000  32.8570000
  50.5700000  12.4820000  31.8240000  50.6730000  10.8030000  31.2610000
  49.2130000  11.1170000  32.9530000  49.1040000  11.8470000  33.7920000
  48.3180000  11.2620000  32.2970000  49.2260000   9.6550000  33.4970000
  49.3940000   8.9870000  32.6310000  50.1410000   9.5100000  34.1450000
  48.0390000   9.1500000  34.2950000  47.2640000   9.0290000  33.5570000
  48.2450000   8.1590000  34.7570000  47.4680000  10.0650000  35.4510000
  47.0850000  10.9780000  34.9280000  46.6400000   9.5750000  35.7620000
  48.3890000  10.2180000  36.6110000  48.4460000   9.3000000  37.0140000
  49.3870000  10.5530000  36.1820000  47.8010000  11.3060000  37.5320000
  47.9030000  12.2480000  37.0270000  46.7120000  11.2870000  37.6100000
  48.3390000  11.4040000  38.9370000  49.4050000  11.4450000  38.9330000
  47.8540000  12.3030000  39.4080000  47.8270000  10.1740000  39.7420000
  46.8640000   9.8430000  39.3050000  48.4250000   9.3080000  39.5300000
  47.7750000  10.3750000  41.2370000  47.0000000  11.0910000  41.4430000
  47.4700000   9.3640000  41.5890000  49.1150000  10.7290000  41.8250000
  49.3110000  11.7900000  41.7400000  49.0880000  10.4760000  42.8910000
  50.2660000   9.8070000  41.2360000  49.8890000   8.7810000  41.4920000
  50.3170000   9.8840000  40.0870000  51.5500000  10.1000000  41.9510000
  52.1170000  10.9170000  41.4410000  51.4310000  10.3380000  43.0150000
  52.5530000   8.9800000  41.7830000  52.4860000   8.6100000  40.7020000
  53.6330000   9.3080000  41.9420000  52.5150000   7.6980000  42.6460000
  51.6900000   7.1060000  42.3640000  53.3340000   7.0600000  42.4040000
  52.4360000   8.0320000  44.0730000  53.3740000   8.2530000  44.7900000
  51.1920000   8.1500000  44.5060000  50.9200000   8.2890000  45.9520000
  49.9010000   7.9220000  46.1430000  51.5760000   7.7290000  46.6310000
  50.9350000   9.7070000  46.4790000  51.8880000  10.1170000  46.3700000
  50.4110000   9.7410000  47.9830000  50.9080000   8.9710000  48.5610000
  50.7120000  10.6800000  48.4580000  49.0200000   9.6330000  47.9890000
  48.1110000   9.6170000  49.2950000  48.0960000   8.1070000  49.6690000
  47.5420000   7.0560000  48.8450000  46.7330000   7.4440000  48.2400000
  48.3300000   6.6830000  48.1160000  46.9910000   5.9300000  49.8110000
  46.4960000   5.1790000  49.1490000  47.8080000   5.4140000  50.2500000
  46.0130000   6.2380000  50.8940000  44.9540000   7.2010000  50.4940000
  45.5250000   8.1340000  50.3740000  44.3690000   6.9080000  49.5770000
  44.3640000   7.4030000  51.3400000  45.2120000   5.0570000  51.2500000
  44.8350000   4.6260000  50.2860000  45.9670000   4.4840000  51.7500000
  44.4600000   5.3060000  51.9940000  46.6760000   6.7360000  52.1350000
  47.3520000   5.9340000  52.5400000  45.8290000   6.8780000  52.8440000
  47.1410000   7.7440000  51.8790000  48.9320000  10.2960000  50.2970000
  46.8110000  10.1840000  49.0180000  50.0370000  10.4910000  45.6310000
  49.8060000  11.7380000  45.9320000  50.5280000  12.3880000  46.7270000
  48.5470000  12.2860000  45.3010000  47.9280000  12.7250000  46.0970000
  48.0150000  11.5010000  44.8580000  48.8950000  13.3850000  44.3170000
  49.6380000  13.0920000  43.5780000  49.0960000  14.2570000  44.9350000
  47.6370000  13.7870000  43.5970000  46.9180000  14.2220000  44.3080000
  47.1430000  12.9530000  43.1500000  47.8650000  14.8380000  42.4390000
  48.3940000  14.3690000  41.6060000  48.4180000  15.6810000  42.7730000
  46.4300000  15.4170000  41.9820000  45.9450000  15.9170000  42.7740000
  45.8540000  14.5270000  41.6730000  46.5660000  16.3230000  40.7450000
  47.3120000  17.0610000  41.0300000  45.6210000  16.8750000  40.6900000
  46.9000000  15.5680000  39.4110000  46.2280000  15.8930000  38.6200000
  46.7590000  14.4790000  39.5640000  48.3830000  15.8700000  39.0130000
  49.2580000  15.3940000  39.4730000  48.7330000  16.7680000  38.0770000
  49.7540000  16.7980000  37.8720000  47.8900000  17.6160000  37.1500000
  46.9270000  17.4940000  37.4730000  48.0010000  17.3590000  36.1510000
  48.3670000  19.0900000  37.1450000  49.4380000  19.1790000  37.0590000
  48.0700000  19.6820000  38.0160000  47.7500000  19.8400000  35.8580000
  46.6870000  19.5950000  35.7870000  48.2470000  19.6020000  34.9240000
  47.7920000  21.3600000  36.0770000  48.7990000  21.7750000  36.3160000
  47.0450000  21.6800000  36.8030000  47.4500000  22.1570000  34.8230000
  48.1570000  21.9970000  34.0630000  47.3190000  23.1840000  35.1700000
  46.0800000  21.7640000  34.1670000  45.2890000  21.6380000  34.8960000
  46.1840000  20.8920000  33.6240000  45.5320000  22.7140000  33.1370000
  46.2130000  22.9720000  32.4120000  45.2090000  23.6410000  33.5780000
  44.3440000  22.0290000  32.4650000  43.7080000  22.7430000  31.8990000
  43.7070000  21.5590000  33.2520000  44.6790000  21.3040000  31.7960000
  95.4200000 112.9140000  36.6740000  94.9240000 112.1150000  36.0400000
  94.6490000 113.6940000  36.9230000  95.9140000 112.4490000  37.5950000
  96.5840000 113.5430000  36.0100000  96.3510000 114.4360000  35.3860000
  97.2680000 113.9280000  36.7820000  97.3510000 112.5820000  35.1570000
  96.8160000 111.9990000  34.4440000  98.0790000 113.1770000  34.7010000
  98.1490000 111.4630000  35.9680000  97.5000000 110.9010000  36.6010000
  98.4920000 110.6470000  35.2900000  99.3580000 111.9960000  36.8800000
 100.1540000 112.0650000  36.1610000  99.1310000 113.0020000  37.2450000
  99.9150000 111.1270000  38.0110000  99.1120000 110.5080000  38.5140000
 100.5790000 110.3430000  37.5820000 100.6790000 111.9970000  39.0080000
 101.3610000 112.6870000  38.5110000  99.9120000 112.5370000  39.5520000
 101.4700000 111.2200000  40.0570000 102.0500000 110.4550000  39.6040000
 102.2670000 111.9850000  40.4200000 100.5850000 110.6650000  41.1910000
 100.0360000 111.5690000  41.5700000  99.8550000 109.9130000  40.7530000
 101.4520000 110.2090000  42.3280000 101.6430000 109.1210000  42.1700000
 102.4100000 110.7000000  42.3540000 100.8220000 110.4410000  43.6980000
 101.5070000 109.9030000  44.3740000 100.7360000 111.5110000  43.9920000
  99.4210000 109.7600000  43.8910000  98.6970000 110.0160000  43.0980000
  99.5660000 108.7050000  43.9580000  98.7460000 110.1630000  45.2150000
  99.4620000 110.0250000  45.9700000  98.4910000 111.2050000  45.1260000
  97.5150000 109.3460000  45.5390000  96.7520000 109.2920000  44.7390000
  97.7850000 108.2510000  45.7020000  96.7460000 109.7840000  46.7340000
  96.2670000 110.6850000  46.5120000  95.8940000 109.0340000  46.9090000
  97.4880000 109.9840000  48.0400000  98.2960000 110.8460000  48.3000000
  97.1810000 109.1130000  48.9960000  97.7800000 109.2030000  50.3370000
  98.0090000 110.2340000  50.5680000  97.1220000 108.7900000  51.0720000
  99.0530000 108.2310000  50.3880000  98.6070000 107.2690000  50.3010000
  99.8910000 108.2070000  51.6700000  99.1990000 107.8160000  52.4560000
 100.7660000 107.6830000  51.3960000 100.2110000 109.4960000  52.1340000
 101.6210000 110.2730000  52.0790000 101.2510000 111.7470000  51.5970000
 100.7290000 111.9170000  50.2790000 100.1590000 110.9640000  49.9660000
 100.0160000 112.7370000  50.2960000 102.0500000 112.1880000  49.5130000
 102.4720000 113.1210000  49.7970000 102.8780000 111.4740000  49.7320000
 102.0320000 112.0550000  48.0250000 103.2930000 112.5830000  47.4860000
 104.1230000 112.0200000  47.8600000 103.2500000 112.5780000  46.4020000
 103.3130000 113.6320000  47.8010000 101.8350000 110.5900000  47.7370000
 102.4390000 109.9900000  48.3710000 100.8070000 110.3220000  47.9470000
 102.0420000 110.3210000  46.7040000 100.8710000 112.6930000  47.3980000
 100.8620000 113.7530000  47.6950000  99.9550000 112.2260000  47.5950000
 100.9460000 112.5620000  46.2580000 102.1550000 110.3610000  53.4610000
 102.5890000 109.7000000  51.0620000  99.9360000 108.4430000  49.2930000
  99.9550000 107.5280000  48.3020000  98.9970000 106.8220000  48.0070000
 101.2520000 107.6600000  47.5260000 102.0850000 107.8190000  48.1860000
 101.1830000 108.4260000  46.7670000 101.6080000 106.2770000  46.8790000
 100.9010000 106.0630000  46.0630000 101.4890000 105.5560000  47.6780000
 103.0800000 106.1890000  46.4390000 103.2300000 105.2240000  45.9270000
 103.7540000 106.3570000  47.2900000 103.4400000 107.1330000  45.2340000
 104.4880000 107.2390000  45.1850000 103.1300000 108.1540000  45.5160000
 102.7660000 106.9000000  43.8110000 102.9400000 107.7770000  43.1780000
 101.6960000 106.7690000  43.9040000 103.4650000 105.7200000  43.1450000
 103.4650000 104.8250000  43.6960000 104.4920000 106.0500000  43.0080000
 102.8170000 105.3910000  41.8110000 102.9670000 106.1950000  41.0520000
 101.7740000 105.3440000  42.0460000 103.3760000 104.1240000  41.2730000
 104.3860000 104.2310000  40.9940000 102.7980000 103.0150000  40.8630000
 103.4100000 102.2780000  40.3130000 101.3500000 102.7360000  40.9900000
 100.8140000 103.4470000  41.5880000 101.2310000 101.6760000  41.4290000
 100.6690000 102.7890000  39.6070000 101.2100000 102.3430000  38.8140000
 100.5720000 103.8060000  39.3580000  99.1810000 102.3140000  39.5450000
  98.6940000 103.0320000  40.2060000  98.9690000 101.3610000  39.9400000
  98.5120000 102.3420000  38.1560000  97.4810000 102.1020000  38.3200000
  99.0350000 101.6120000  37.5550000  98.6420000 103.7360000  37.5370000
  99.6990000 103.9920000  37.4710000  98.1520000 104.4560000  38.1490000
  98.0040000 103.8660000  36.1650000  98.4570000 103.2690000  35.3530000
  97.9780000 104.9160000  35.7940000  96.5740000 103.4610000  36.1740000
  96.0960000 104.0120000  36.9330000  96.3700000 102.3980000  36.2610000
  95.8140000 103.8100000  34.8070000  94.7480000 103.6900000  34.9000000
  96.1850000 103.2050000  33.9920000  95.9320000 104.8440000  34.5640000
  85.6840000 120.0380000  43.0680000  86.5120000 120.2380000  43.7790000
  85.9940000 120.4620000  42.0880000  85.6210000 118.8880000  42.8790000
  84.3780000 120.6060000  43.6490000  83.9120000 121.2270000  42.8430000
  83.7110000 119.7190000  43.8240000  84.4150000 121.3620000  44.9420000
  84.7000000 120.5600000  45.6700000  85.1010000 122.1340000  44.8410000
  83.0270000 121.8150000  45.3830000  82.7520000 122.6200000  44.6330000
  82.2270000 120.9960000  45.3400000  83.1580000 122.3770000  46.8220000
  83.7180000 121.6740000  47.4000000  83.8560000 123.2410000  46.7690000
  81.8810000 122.7670000  47.4870000  81.4230000 123.6370000  47.1300000
  81.2130000 122.0240000  47.2670000  82.0720000 122.9870000  48.9960000
  82.8020000 123.8070000  48.9770000  81.1470000 123.3260000  49.5020000
  82.6350000 121.7750000  49.8270000  83.5640000 121.4120000  49.5160000
  82.9590000 122.1830000  50.7580000  81.6200000 120.6450000  50.1410000
  80.7450000 121.0970000  50.6740000  81.2820000 120.1270000  49.1550000
  82.1350000 119.6040000  51.1020000  82.4690000 120.1300000  52.0500000
  81.3620000 118.8660000  51.2420000  83.1910000 118.7560000  50.3960000
  82.8640000 118.6910000  49.3720000  84.2000000 119.2410000  50.4350000
  83.3380000 117.3600000  51.1590000  82.3380000 116.9200000  51.1300000
  83.9210000 116.7150000  50.5170000  83.9300000 117.4390000  52.5880000
  84.9300000 117.9050000  52.5150000  83.3900000 118.1830000  53.1770000
  84.1580000 116.0910000  53.2500000  84.8650000 115.5140000  52.5600000
  84.5370000 116.2340000  54.2690000  82.8360000 115.2410000  53.3640000
  82.2260000 114.9780000  52.4720000  83.1500000 114.2560000  53.7510000
  81.9760000 115.8810000  54.3760000  82.0230000 115.6580000  55.5370000
  81.0440000 116.7680000  53.8920000  80.0390000 117.3040000  54.7920000
  79.3020000 117.7840000  54.0550000  79.4710000 116.5440000  55.3160000
  80.5520000 118.3730000  55.8270000  81.2450000 117.9570000  56.5480000
  79.3320000 118.9110000  56.6930000  78.7200000 118.1670000  57.2340000
  79.7040000 119.7350000  57.2310000  78.4520000 119.5910000  55.7840000
  77.2690000 120.5330000  56.2910000  78.0130000 121.9110000  56.6410000
  77.9710000 122.9490000  55.6950000  78.8770000 123.6390000  55.9240000
  78.0950000 122.5360000  54.6910000  76.6960000 123.8260000  55.8890000
  76.7750000 124.6760000  55.3240000  75.8630000 123.1640000  55.6040000
  76.4170000 124.2900000  57.2760000  75.7480000 125.6220000  57.1020000
  75.6010000 126.0750000  58.0960000  76.3530000 126.2080000  56.4150000
  74.7240000 125.5390000  56.6640000  75.5500000 123.3230000  58.1300000
  75.2610000 123.7930000  59.0120000  74.6450000 123.1090000  57.5030000
  76.2020000 122.5440000  58.3880000  77.6420000 124.7120000  57.9910000
  78.2310000 123.8580000  58.2250000  77.2960000 125.2200000  58.8340000
  78.0930000 125.3550000  57.2470000  76.3860000 120.7510000  55.1750000
  76.6790000 119.9150000  57.5360000  81.1640000 119.5280000  55.1470000
  82.1480000 120.1390000  55.8320000  82.4640000 119.8610000  56.9890000
  82.7740000 121.2010000  55.0050000  82.3970000 122.1610000  55.3320000
  82.4160000 121.1510000  53.9470000  84.2500000 121.1390000  55.1300000
  84.6320000 120.1340000  54.8030000  84.4760000 121.3370000  56.2310000
  84.9400000 122.1570000  54.2220000  84.7130000 123.1570000  54.6030000
  84.4880000 122.0290000  53.2210000  86.4610000 122.1280000  54.2260000
  86.8020000 122.0170000  55.2600000  86.8170000 123.0590000  53.8070000
  87.0380000 120.9240000  53.4080000  86.6360000 120.9890000  52.4410000
  86.6680000 120.0180000  53.8800000  88.5300000 120.7950000  53.3800000
  88.8360000 119.8790000  52.9070000  88.9950000 120.8780000  54.3450000
  89.2110000 121.9010000  52.5440000  89.1590000 122.8610000  52.9980000
  88.7860000 121.9480000  51.5080000  90.7060000 121.4500000  52.3720000
  91.2820000 121.3600000  53.2680000  91.3140000 121.1380000  51.1770000
  92.3000000 120.6830000  51.1500000  90.7750000 121.3990000  49.8000000
  91.4240000 121.9860000  49.1590000  89.8960000 121.8840000  49.9220000
  90.5550000 120.0610000  49.0420000  91.5110000 119.4250000  49.0060000
  90.3990000 120.3030000  48.0000000  89.4990000 119.1400000  49.6550000
  88.6360000 119.7570000  50.0610000  89.9220000 118.6620000  50.5580000
  89.1000000 118.0780000  48.5960000  90.0180000 117.5770000  48.3000000
  88.6700000 118.6810000  47.8210000  88.0210000 117.1210000  49.2020000
  87.2590000 117.7730000  49.7100000  88.5680000 116.5560000  49.9440000
  87.3670000 116.1980000  48.2350000  87.1150000 115.2410000  48.7070000
  88.1190000 115.9760000  47.4330000  86.0930000 116.7730000  47.5790000
  85.3520000 116.9460000  48.3500000  85.7620000 115.9270000  46.9500000
  86.1880000 118.0370000  46.6840000  86.1190000 118.9500000  47.2600000
  85.4500000 118.0040000  45.8480000  87.2450000 118.0050000  46.3720000
   5.7060000  15.8930000  36.5060000   5.9950000  16.8560000  36.0270000
   4.7480000  15.5440000  36.0610000   6.4750000  15.2670000  36.2500000
   5.4170000  16.1980000  37.9650000   4.9410000  17.2330000  37.9980000
   4.6240000  15.6010000  38.3240000   6.7250000  16.0240000  38.8440000
   7.1910000  15.0590000  38.6780000   7.4310000  16.8260000  38.4490000
   6.3660000  16.2520000  40.3600000   7.2500000  16.6990000  40.8090000
   5.6610000  17.0330000  40.4920000   5.7810000  15.0450000  41.1800000
   5.4720000  15.3610000  42.2130000   4.9620000  14.7500000  40.5020000
   6.7600000  13.8070000  41.3550000   6.2900000  12.9420000  41.8700000
   6.9210000  13.4200000  40.3850000   8.1440000  14.1900000  41.9400000
   8.7540000  14.8440000  41.3010000   7.9560000  14.8770000  42.7860000
   8.9340000  13.0600000  42.5550000   8.4370000  12.9010000  43.4910000
   8.9130000  12.1790000  41.9400000  10.3870000  13.3860000  42.8980000
  10.9100000  13.7500000  42.0200000  10.3810000  14.1530000  43.5960000
  11.1400000  12.1620000  43.5140000  11.0100000  11.2490000  42.9540000
  12.2170000  12.4530000  43.4860000  10.7590000  11.8670000  45.0210000
   9.6790000  11.8360000  45.0330000  11.1700000  10.9620000  45.3540000
  11.2190000  12.9110000  45.9710000  12.3270000  12.7530000  45.8490000
  10.9500000  13.9220000  45.6290000  10.6950000  12.7230000  47.4250000
  10.9780000  11.7430000  47.7670000  11.2370000  13.4080000  48.0700000
   9.1550000  13.0260000  47.5020000   8.6080000  12.1460000  47.0490000
   8.8900000  13.0670000  48.5300000   8.6720000  14.3890000  46.9120000
   8.8430000  14.4970000  45.8190000   7.6290000  14.4830000  47.1480000
   9.4290000  15.5570000  47.5330000  10.4480000  16.0350000  47.0310000
   8.8880000  15.8510000  48.6880000   9.4210000  16.9790000  49.3240000
  10.4520000  17.1720000  49.1790000   8.9730000  17.8910000  49.0250000
   9.3790000  16.6850000  50.8330000   8.3550000  16.4460000  51.1700000
   9.7360000  17.9250000  51.6240000   8.7420000  18.3580000  51.8440000
  10.2140000  17.6080000  52.5390000  10.5070000  18.9520000  50.9650000
  12.0950000  18.7690000  50.7460000  12.7170000  20.1960000  51.1990000
  12.9670000  20.4050000  52.6240000  12.1270000  20.0320000  53.2240000
  13.8220000  19.8020000  52.9540000  13.0450000  21.9020000  52.8950000
  13.7270000  22.1390000  53.6860000  13.4690000  22.3260000  52.0120000
  11.6920000  22.6160000  52.9840000  11.7640000  24.0850000  52.8170000
  12.5530000  24.3180000  53.5580000  12.0630000  24.2140000  51.7820000
  10.7590000  24.5280000  52.9970000  10.8150000  22.2180000  51.8570000
  10.6030000  21.1460000  51.8950000   9.9090000  22.8600000  51.8770000
  11.3070000  22.4190000  50.8590000  10.9340000  22.1700000  54.2090000
  11.4550000  22.6040000  55.1490000  10.8030000  21.1040000  54.1340000
   9.9830000  22.7140000  54.2260000  12.6230000  17.7190000  51.6570000
  12.2720000  18.6570000  49.3640000  10.2640000  15.6450000  51.0270000
  10.1730000  14.9900000  52.1940000   9.3050000  15.2380000  53.0340000
  11.2360000  13.9350000  52.2930000  11.8790000  14.2030000  53.1430000
  11.7160000  13.9190000  51.3170000  10.7120000  12.5850000  52.5400000
   9.9310000  12.5980000  53.3170000  11.6100000  12.0500000  52.8110000
  10.1930000  11.8570000  51.2460000  11.0010000  11.8440000  50.5480000
   9.3310000  12.5390000  50.9920000   9.6460000  10.4950000  51.5260000
   8.9240000  10.4810000  52.2840000  10.5100000   9.9010000  51.8930000
   9.0410000   9.8050000  50.3200000   9.8920000   9.6710000  49.6510000
   8.4070000  10.4860000  49.7580000   8.3480000   8.4860000  50.6520000
   7.6870000   8.7240000  51.5510000   9.1320000   7.7050000  50.9360000
   7.5880000   7.9520000  49.4490000   7.0340000   7.0930000  49.7730000
   8.1820000   7.6230000  48.6760000   6.4290000   8.8670000  49.0780000
   5.6700000   9.0160000  49.8050000   6.2880000   9.4060000  47.9000000
   5.3920000  10.0430000  47.7170000   7.2120000   9.3500000  46.7090000
   8.1420000   8.9200000  47.1350000   7.6090000  10.3150000  46.3680000
   6.6550000   8.5040000  45.5620000   6.6070000   7.4470000  45.8880000
   7.4040000   8.5260000  44.8200000   5.3610000   8.9900000  44.9400000
   4.4720000   8.8140000  45.6480000   5.2100000   8.3160000  44.0980000
   5.5810000  10.4630000  44.4820000   6.2900000  10.4400000  43.7230000
   5.9560000  11.0830000  45.2470000   4.3190000  11.0680000  43.7480000
   3.4380000  10.3560000  43.9250000   4.4870000  10.9450000  42.6830000
   3.9790000  12.5800000  44.0520000   4.8590000  13.1900000  43.9140000
   3.6740000  12.5710000  45.0750000   2.8650000  12.9660000  43.0310000
   2.1440000  12.1950000  42.9640000   3.2600000  13.2360000  41.9270000
   2.0950000  14.2550000  43.4500000   2.7250000  15.0050000  43.8750000
   1.2550000  14.0430000  44.0870000   1.7350000  14.7770000  42.5720000
  63.3540000  54.1850000  33.9910000  62.6790000  53.4210000  33.5960000
  63.9670000  53.8070000  34.8820000  63.9490000  54.3360000  33.0660000
  62.3560000  55.3940000  34.3050000  61.8250000  55.6660000  33.4110000
  61.6670000  55.1230000  35.0110000  63.1840000  56.6190000  34.8960000
  63.7860000  56.4520000  35.7790000  63.8600000  56.8510000  34.1510000
  62.3620000  57.8790000  35.0790000  61.9960000  58.2550000  34.0980000
  61.4200000  57.6780000  35.5640000  62.9820000  59.0990000  35.6830000
  63.3880000  58.9170000  36.6730000  63.8540000  59.4710000  35.1290000
  61.9400000  60.2240000  35.7390000  61.5380000  60.3710000  34.7940000
  61.1870000  59.8370000  36.4980000  62.3820000  61.5720000  36.1850000
  63.1370000  61.9230000  35.5220000  61.4860000  62.2040000  36.1740000
  63.1270000  61.3440000  37.4760000  62.6100000  60.6800000  38.1510000
  64.1080000  60.8670000  37.3330000  63.3480000  62.6450000  38.1570000
  63.9840000  63.3120000  37.5960000  62.4250000  63.1550000  38.1320000
  63.8600000  62.6260000  39.6120000  64.8110000  62.0800000  39.6000000
  63.9500000  63.7000000  39.9060000  62.9500000  61.9370000  40.6530000
  62.9720000  60.8110000  40.5310000  63.3790000  62.0560000  41.6270000
  61.4920000  62.4680000  40.6610000  61.1130000  62.5810000  39.6490000
  60.7900000  61.7970000  41.1760000  61.2170000  63.7100000  41.3970000
  61.7920000  64.6160000  41.0520000  60.2140000  64.0610000  41.1910000
  61.3480000  63.6640000  42.9620000  60.6510000  62.8960000  43.3760000
  62.3920000  63.4450000  43.1890000  61.0220000  65.0820000  43.5110000
  61.6250000  65.8900000  42.9950000  59.9760000  65.4420000  43.2710000
  61.1990000  65.2070000  44.9970000  60.3730000  64.7480000  45.7550000
  62.2560000  65.9900000  45.3650000  62.5580000  66.1220000  46.8200000
  63.1840000  67.0340000  46.9170000  61.5940000  66.3670000  47.3310000
  63.1200000  64.8190000  47.5410000  62.4330000  63.9770000  47.3620000
  63.3100000  64.9780000  49.0750000  64.2320000  64.5360000  49.5070000
  63.2950000  66.0260000  49.4100000  62.2740000  64.2270000  49.7110000
  62.4930000  62.6380000  50.0530000  61.1600000  61.8960000  49.6540000
  60.9070000  61.5770000  48.3200000  60.6100000  62.4300000  47.8110000
  61.8650000  61.2230000  47.7640000  59.8360000  60.4490000  48.2660000
  59.8060000  60.2110000  47.2030000  60.3230000  59.6700000  48.8800000
  58.4100000  60.5780000  48.8420000  58.4450000  60.7210000  50.3200000
  58.7200000  59.7370000  50.7630000  59.2140000  61.4350000  50.5890000
  57.4830000  60.9790000  50.6870000  57.9150000  61.8060000  48.1770000
  58.0290000  61.6840000  47.0860000  56.8680000  61.7550000  48.4960000
  58.3140000  62.7550000  48.5700000  57.4410000  59.4560000  48.4060000
  56.4730000  59.7770000  48.7810000  57.7180000  58.5350000  48.7700000
  57.3960000  59.3890000  47.3680000  63.5880000  62.1390000  49.1840000
  62.6620000  62.4710000  51.5160000  64.4380000  64.4790000  46.9130000
  64.4410000  63.7580000  45.8300000  63.4790000  63.0920000  45.5000000
  65.7740000  63.5600000  45.2130000  66.3970000  64.2480000  45.7110000
  65.7250000  63.8860000  44.1990000  66.3030000  62.1250000  45.4300000
  65.4510000  61.5110000  45.5110000  67.0660000  62.1020000  46.2600000
  67.0610000  61.7730000  44.2150000  67.9780000  62.3520000  44.0940000
  66.5080000  61.9530000  43.3180000  67.6050000  60.3340000  44.0800000
  66.8320000  59.5640000  44.2450000  68.3800000  60.2800000  44.8480000
  68.2450000  60.0050000  42.6440000  68.4540000  58.9330000  42.5540000
  69.1910000  60.5090000  42.4680000  67.3610000  60.4490000  41.4490000
  67.3260000  61.5230000  41.3310000  66.3010000  60.0100000  41.5090000
  67.9100000  59.9710000  40.0810000  68.0340000  58.8360000  40.0340000
  68.8850000  60.3940000  39.9320000  67.1060000  60.4370000  38.8870000
  66.3410000  61.1360000  39.0850000  67.3980000  60.1090000  37.6890000
  66.8130000  60.4720000  36.9200000  68.4130000  59.0190000  37.3930000
  67.8600000  58.1000000  37.3930000  69.2360000  59.0530000  38.1660000
  69.1940000  59.3080000  36.0710000  68.4780000  59.4850000  35.2670000
  69.7710000  58.4140000  35.7560000  70.1840000  60.4580000  36.0120000
  70.9720000  60.1760000  36.7620000  69.7550000  61.4030000  36.3450000
  70.9010000  60.5430000  34.6550000  70.0690000  60.6500000  33.9350000
  71.3960000  59.5720000  34.4330000  71.8970000  61.7120000  34.4480000
  71.1820000  62.5560000  34.7010000  72.1470000  61.8510000  33.3950000
  73.1860000  61.8480000  35.2870000  73.8330000  61.0190000  35.0380000
  72.9190000  61.7520000  36.3880000  73.9210000  63.1960000  35.0030000
  73.2600000  64.0350000  34.9560000  74.4460000  63.1010000  34.0760000
  75.0160000  63.5940000  36.0410000  74.5200000  63.6210000  36.9740000
  75.3450000  64.6360000  35.7740000  75.7500000  62.8550000  35.9850000
  -7.9780000  38.6720000  43.2390000  -7.6310000  38.2300000  44.2360000
  -9.0400000  38.4800000  43.2420000  -7.8250000  39.7670000  43.1920000
  -7.4380000  37.8590000  42.1080000  -7.6080000  36.7900000  42.3110000
  -7.8170000  38.0970000  41.0910000  -5.9060000  37.9040000  42.0250000
  -5.3930000  37.7960000  43.0100000  -5.5420000  37.0770000  41.4020000
  -5.4400000  39.2040000  41.2880000  -5.6870000  39.1410000  40.1740000
  -5.8880000  40.0170000  41.7460000  -3.9130000  39.5970000  41.2380000
  -3.4550000  38.6490000  40.8890000  -3.6260000  40.3850000  40.5860000
  -3.2470000  40.0400000  42.5600000  -3.7770000  40.9850000  42.8120000
  -3.5740000  39.3610000  43.4590000  -1.7540000  40.3370000  42.6250000
  -1.4690000  41.0780000  41.9540000  -1.5810000  40.6720000  43.6600000
  -0.8820000  39.0850000  42.4240000  -0.9610000  38.7160000  41.4510000
   0.1070000  39.4950000  42.5370000  -1.2010000  38.0110000  43.5130000
  -1.2670000  38.4890000  44.5430000  -2.0410000  37.4800000  43.2880000
  -0.0160000  36.9690000  43.7220000   0.2060000  36.4570000  42.7770000
   0.8340000  37.4930000  44.0770000  -0.4060000  35.9330000  44.8010000
  -0.9150000  36.5830000  45.6040000  -1.1580000  35.2210000  44.5250000
   0.7100000  35.1570000  45.5220000   1.5140000  35.7750000  45.9430000
   0.2620000  34.6380000  46.4080000   1.4480000  34.0500000  44.7110000
   0.7780000  33.3790000  44.1680000   1.9580000  34.4930000  43.8720000
   2.3650000  33.0980000  45.5180000   2.8230000  33.8360000  46.1660000
   1.8610000  32.3840000  46.2620000   3.3810000  32.4800000  44.5590000
   2.8290000  31.9550000  43.7920000   3.8810000  33.2580000  44.0760000
   4.3290000  31.6200000  45.3860000   3.9800000  30.6000000  45.9130000
   5.5260000  32.2100000  45.5670000   6.3470000  31.7910000  46.7730000
   5.6740000  31.4570000  47.5550000   7.0000000  30.9320000  46.4790000
   7.1970000  32.9660000  47.1130000   8.0460000  33.0410000  46.4400000
   7.8750000  33.0140000  48.5960000   8.3000000  34.0030000  48.8320000
   7.2490000  32.6000000  49.3860000   9.0240000  32.1700000  48.6350000
   9.0230000  30.6730000  49.1980000   9.4030000  30.6920000  50.7110000
   8.6010000  31.2830000  51.7670000   8.8890000  32.3010000  52.0230000
   7.5610000  31.2950000  51.3550000   8.6200000  30.3520000  52.9970000
   7.7310000  30.5930000  53.5940000   8.4410000  29.3150000  52.7830000
   9.8260000  30.4320000  53.8930000  10.9820000  29.7490000  53.2820000
  10.9780000  30.0220000  52.2620000  11.9590000  30.2190000  53.7020000
  10.8670000  28.6530000  53.4680000  10.2060000  31.7880000  54.3380000
   9.3660000  32.4360000  54.6190000  10.9560000  31.8070000  55.1750000
  10.7280000  32.3630000  53.5780000   9.4380000  29.7490000  55.1590000
   8.5840000  30.2900000  55.5230000  10.3270000  29.6310000  55.7620000
   9.1180000  28.7760000  54.9280000   7.6260000  30.1760000  49.1110000
   9.9790000  29.8550000  48.3850000   6.4140000  34.1630000  46.9460000
   6.5010000  34.9290000  45.8840000   7.4670000  34.8990000  45.1360000
   5.3190000  35.8830000  45.8600000   5.4180000  36.5500000  46.6640000
   4.3200000  35.3110000  46.0350000   5.1000000  36.6630000  44.5650000
   4.7760000  36.0220000  43.6720000   6.0520000  37.1920000  44.3600000
   3.9890000  37.6950000  44.7390000   4.3200000  38.2270000  45.6530000
   3.1040000  37.1320000  44.8380000   3.9140000  38.7570000  43.5510000
   4.8960000  39.2230000  43.3070000   3.2450000  39.5560000  43.9530000
   3.3990000  38.1160000  42.2520000   2.4690000  37.6530000  42.4710000
   4.1720000  37.3960000  41.8560000   3.0400000  39.1550000  41.1950000
   3.9010000  39.6860000  40.8380000   2.3910000  39.9420000  41.5360000
   2.4090000  38.4750000  39.9640000   2.2570000  39.2490000  39.1910000
   1.4600000  38.0670000  40.2330000   3.3600000  37.4110000  39.4990000
   4.3440000  37.8860000  39.2480000   3.2630000  36.0920000  39.4330000
   4.1470000  35.5110000  39.1440000   2.0570000  35.3230000  39.9110000
   1.1960000  35.8210000  40.4730000   2.4410000  34.5380000  40.5030000
   1.2310000  34.7470000  38.7090000   1.6900000  33.8800000  38.1250000
   1.1470000  35.5620000  37.9300000  -0.0990000  34.2150000  39.1690000
  -0.6630000  35.0220000  39.6180000   0.0710000  33.4600000  39.8820000
  -0.9470000  33.6310000  38.0250000  -0.2320000  32.9620000  37.5050000
  -1.1540000  34.3880000  37.3240000  -2.3790000  33.0850000  38.4080000
  -2.0880000  32.3750000  39.2470000  -2.8520000  32.5210000  37.6560000
  -3.4240000  34.1930000  38.8300000  -3.3550000  35.0640000  38.1340000
  -3.1750000  34.5540000  39.8170000  -4.9210000  33.7200000  38.7930000
  -4.8850000  32.8180000  39.3590000  -5.0780000  33.5200000  37.6920000
  -5.9700000  34.6400000  39.3080000  -5.7960000  35.6220000  38.8020000
  -6.0270000  34.7220000  40.3650000  -6.9290000  34.1270000  38.9950000
 128.0610000  64.4010000  36.0180000 127.4260000  63.5960000  35.6010000
 129.1720000  64.1810000  35.8320000 127.7630000  65.3320000  35.5580000
 127.7540000  64.4530000  37.5420000 128.0270000  63.4070000  37.8720000
 128.4260000  65.2330000  37.8130000 126.3070000  64.8230000  37.7830000
 125.9510000  65.6480000  37.2030000 125.6220000  64.0330000  37.5670000
 126.1370000  65.1490000  39.2760000 126.3410000  64.3330000  39.9700000
 126.8070000  65.9920000  39.4590000 124.7020000  65.6300000  39.5960000
 124.3310000  66.4070000  38.8800000 124.0350000  64.7480000  39.4330000
 124.5050000  66.1390000  41.0450000 123.4930000  65.8800000  41.3720000
 125.0860000  65.5250000  41.7170000 124.7440000  67.6960000  41.2140000
 124.3080000  68.2060000  40.3330000 124.1580000  68.0750000  42.0580000
 126.2570000  68.1580000  41.4340000 126.7910000  67.9960000  40.5740000
 126.2940000  69.2230000  41.5460000 127.0520000  67.4200000  42.5730000
 127.2530000  66.3530000  42.3710000 128.0690000  67.7860000  42.6540000
 126.3660000  67.4480000  43.9640000 126.1020000  68.5200000  44.2530000
 125.4930000  66.8530000  43.9120000 127.2760000  66.9110000  45.1110000
 128.2240000  67.3880000  44.9270000 126.8760000  67.1230000  46.0630000
 127.4480000  65.3910000  44.9770000 126.4740000  64.9870000  45.0550000
 127.9450000  65.2890000  43.9660000 128.4370000  64.8360000  45.9910000
 129.4330000  65.2720000  45.8130000 128.1930000  65.1760000  47.0260000
 128.7360000  63.3570000  45.9030000 128.5130000  63.0110000  44.8190000
 129.7790000  63.1520000  46.1190000 127.8300000  62.4670000  46.8630000
 126.8240000  62.7730000  46.6010000 127.9420000  61.4270000  46.5970000
 128.1140000  62.6370000  48.3560000 128.5260000  63.6230000  48.8500000
 127.6950000  61.5480000  49.0900000 128.1140000  61.4950000  50.4460000
 128.3510000  60.4300000  50.6570000 129.0140000  62.0860000  50.6660000
 126.9190000  61.6950000  51.3960000 127.3200000  61.6810000  52.3960000
 125.8490000  60.5390000  51.2310000 124.8980000  60.8580000  51.6620000
 125.8100000  60.4270000  50.1700000 126.3090000  59.2680000  51.9500000
 126.2520000  59.1900000  53.4850000 127.5810000  60.0000000  53.8920000
 128.7640000  59.2140000  53.8940000 128.9890000  58.8630000  54.8820000
 128.7820000  58.3200000  53.2310000 129.8950000  60.1290000  53.5010000
 130.7380000  59.4760000  53.3910000 129.6910000  60.5690000  52.5330000
 130.2950000  61.1710000  54.5280000 131.3860000  62.0010000  53.9750000
 132.0780000  61.2320000  53.6190000 130.9800000  62.5570000  53.1450000
 131.7620000  62.6550000  54.6640000 129.2400000  62.0810000  54.8090000
 129.6390000  62.8050000  55.6000000 129.0880000  62.6210000  53.8960000
 128.3980000  61.5330000  55.1950000 130.7470000  60.5410000  55.7270000
 129.9560000  60.1660000  56.3310000 131.2450000  61.3570000  56.2340000
 131.3310000  59.7160000  55.3910000 125.1210000  60.0140000  53.9160000
 126.3910000  57.8250000  53.9590000 126.2080000  63.0570000  51.1170000
 126.7930000  64.0930000  51.7110000 127.8030000  63.9810000  52.3400000
 125.9100000  65.3000000  51.7140000 125.2610000  65.3740000  52.6200000
 125.3030000  65.2060000  50.7680000 126.6360000  66.6800000  51.5750000
 127.1560000  66.8980000  52.5240000 125.8820000  67.4100000  51.4580000
 127.6330000  66.6740000  50.4070000 127.0690000  66.5260000  49.4300000
 128.4380000  65.9340000  50.4790000 128.2780000  68.0270000  50.1670000
 128.7320000  68.3030000  51.1160000 127.5050000  68.7530000  50.0160000
 129.1650000  68.0530000  48.9210000 128.6560000  67.4720000  48.1400000
 130.0970000  67.4790000  49.0280000 129.3740000  69.5050000  48.4810000
 129.7940000  70.0880000  49.2490000 128.4370000  69.8910000  48.2220000
 130.4070000  69.6420000  47.3050000 129.9190000  69.0740000  46.4820000
 131.3450000  69.1030000  47.6020000 130.6510000  71.0990000  46.9450000
 131.2230000  71.6040000  47.7510000 130.3620000  71.7030000  45.8110000
 130.6310000  72.7430000  45.6830000 129.5890000  71.1080000  44.6460000
 128.5440000  71.4600000  44.6940000 129.6150000  70.0130000  44.5400000
 130.1150000  71.7500000  43.2900000 131.0770000  71.1890000  43.1550000
 130.3970000  72.8130000  43.3720000 129.2520000  71.5220000  42.0830000
 128.2670000  72.0100000  42.2190000 129.0300000  70.4790000  42.0040000
 129.9960000  72.0030000  40.8280000 131.0570000  71.6910000  40.7340000
 129.9990000  73.1200000  40.8830000 129.2340000  71.5290000  39.5730000
 129.3180000  70.4580000  39.5670000 129.8220000  71.8240000  38.7200000
 127.7370000  71.8830000  39.5530000 127.7010000  73.0030000  39.5730000
 127.1960000  71.5140000  40.4630000 126.9810000  71.3060000  38.3890000
 127.3120000  70.3590000  38.1910000 127.0370000  71.9410000  37.4770000
 125.4610000  71.4110000  38.6390000 125.1460000  70.8840000  39.6210000
 124.9890000  70.8280000  37.8760000 125.1070000  72.4430000  38.5950000
  50.8220000 139.9500000  37.9820000  50.2910000 139.1960000  38.6620000
  50.3760000 139.9330000  37.0270000  50.4600000 141.0130000  38.3220000
  52.3320000 139.7770000  37.8670000  52.9370000 140.5510000  37.2540000
  52.6740000 140.0820000  38.8830000  52.7900000 138.2920000  37.5820000
  52.5990000 137.9670000  36.5350000  53.8960000 138.3050000  37.8130000
  52.1630000 137.1820000  38.4800000  52.3020000 137.5640000  39.4960000
  51.0800000 137.2230000  38.3070000  52.7340000 135.7710000  38.3780000
  52.1400000 135.0980000  38.9420000  52.7470000 135.3810000  37.4120000
  54.1800000 135.6600000  38.9500000  54.8410000 136.2210000  38.2120000
  54.3370000 135.9710000  39.9590000  54.8090000 134.2380000  38.8040000
  54.7650000 133.8420000  37.8580000  55.8400000 134.2270000  39.0150000
  54.1150000 133.2540000  39.8510000  53.0110000 133.2990000  39.9020000
  54.3620000 132.2100000  39.5730000  54.6520000 133.6150000  41.2570000
  55.7460000 133.5380000  41.1790000  54.3090000 134.7130000  41.5060000
  53.8880000 132.6870000  42.2240000  52.9100000 132.6660000  41.9390000
  54.3140000 131.7420000  42.0740000  53.9980000 133.0880000  43.7150000
  55.0260000 132.9830000  44.1230000  53.8500000 134.1220000  43.7780000
  52.9670000 132.3120000  44.5080000  51.9990000 132.1790000  43.9360000
  53.3870000 131.3350000  44.5140000  52.7050000 132.9020000  45.9860000
  52.4160000 133.9180000  45.8670000  51.8260000 132.3290000  46.3370000
  53.8850000 132.8280000  47.0290000  54.6250000 133.4820000  46.7890000
  53.3610000 133.1920000  47.9470000  54.5620000 131.4380000  47.2530000
  54.8460000 130.9790000  46.2940000  55.4080000 131.4860000  47.9010000
  53.6660000 130.4580000  48.0430000  52.9420000 130.8380000  48.9600000
  53.8510000 129.1750000  47.6980000  53.0470000 128.1940000  48.4250000
  53.5620000 127.2280000  48.3780000  52.8860000 128.3790000  49.4560000
  51.6920000 127.9180000  47.7480000  51.0870000 128.7600000  47.7890000
  50.8260000 127.0140000  48.5890000  49.8100000 127.2450000  48.3350000
  51.0830000 126.0070000  48.3020000  51.0220000 127.2410000  49.9750000
  51.6890000 126.1860000  50.9670000  50.6220000 124.9600000  50.9420000
  49.3320000 125.2270000  51.5230000  49.5230000 126.0350000  52.3170000
  48.5540000 125.4750000  50.7810000  48.8870000 123.9220000  52.1000000
  47.8770000 124.1680000  52.3380000  48.9070000 123.1400000  51.3170000
  49.5070000 123.3730000  53.3620000  48.6880000 122.3010000  53.9100000
  48.1000000 121.8410000  53.1000000  49.2450000 121.6290000  54.5350000
  48.0200000 122.7820000  54.5440000  50.8960000 122.9060000  53.0770000
  51.1930000 122.2310000  53.8630000  50.8130000 122.4360000  52.1280000
  51.4990000 123.7970000  52.9990000  49.6250000 124.4120000  54.4150000
  48.6000000 124.7780000  54.6340000  50.2780000 125.2190000  54.0760000
  49.9680000 123.9050000  55.3300000  52.9330000 125.6410000  50.4060000
  51.7400000 126.6980000  52.3750000  51.8550000 127.4060000  46.3980000
  51.8980000 128.3260000  45.4400000  51.7140000 129.5420000  45.5020000
  52.4400000 127.7260000  44.1890000  51.6420000 127.7500000  43.4120000
  52.9350000 126.7050000  44.2430000  53.5090000 128.7400000  43.7130000
  54.2190000 128.7470000  44.4820000  53.0070000 129.7050000  43.5060000
  54.4860000 128.2740000  42.6000000  55.1110000 127.4800000  42.9390000
  55.1910000 129.1400000  42.4800000  53.8060000 127.9590000  41.2620000
  52.9470000 127.2600000  41.4540000  54.5360000 127.5570000  40.5660000
  53.1190000 129.1180000  40.5590000  53.8160000 130.0160000  40.4400000
  52.3490000 129.4920000  41.2710000  52.4730000 128.9320000  39.1000000
  51.8020000 128.1300000  39.0800000  53.2080000 128.7770000  38.2950000
  51.7130000 130.1730000  38.6570000  51.2380000 130.2570000  37.7100000
  52.4110000 131.0550000  38.8510000  50.5850000 130.3960000  39.6340000
  50.9830000 130.6110000  40.6430000  49.2740000 130.4390000  39.4450000
  48.5710000 130.6350000  40.2000000  48.6460000 130.2640000  38.0700000
  47.7940000 129.6270000  38.0980000  49.3140000 129.7600000  37.3580000
  48.1210000 131.5600000  37.3620000  48.8480000 132.3480000  37.5190000
  47.2290000 131.9200000  37.9550000  47.7890000 131.1130000  35.9250000
  47.4170000 130.1230000  35.9650000  48.6320000 131.2790000  35.2950000
  46.5890000 131.9290000  35.4440000  46.8140000 133.0120000  35.5850000
  45.6250000 131.7090000  36.0410000  46.1470000 131.7580000  33.9610000
  47.0530000 131.9070000  33.3450000  45.5090000 132.5620000  33.7420000
  45.5700000 130.4160000  33.5560000  44.6510000 130.2870000  33.9780000
  46.2250000 129.7370000  33.9390000  45.4690000 130.2590000  32.0280000
  46.4260000 130.4040000  31.5330000  44.7840000 130.9860000  31.5800000
  45.0160000 128.8240000  31.6920000  43.9600000 128.6390000  31.9170000
  45.6890000 128.1780000  32.3090000  45.2410000 128.4470000  30.7390000
   2.8020000  64.9310000  51.4060000   2.7460000  65.9640000  51.4670000
   3.8880000  64.5830000  51.5420000   2.2870000  64.5950000  52.3150000
   2.1890000  64.3710000  50.0530000   2.4230000  63.2670000  49.9930000
   1.1150000  64.4240000  50.1430000   2.7050000  65.0950000  48.7730000
   3.7330000  64.9630000  48.7420000   2.2180000  64.5890000  47.9420000
   2.3350000  66.5720000  48.6200000   1.2470000  66.6880000  48.7640000
   2.8000000  67.1760000  49.4300000   2.6540000  67.2290000  47.2560000
   2.3390000  66.5430000  46.5400000   2.0650000  68.1080000  47.2110000
   4.2000000  67.4700000  47.0630000   4.3920000  68.3340000  47.7140000
   4.6850000  66.6480000  47.5110000   4.5500000  67.8370000  45.6220000
   4.1660000  67.0730000  44.9760000   4.0340000  68.7690000  45.3220000
   6.0390000  67.9220000  45.3680000   6.3140000  68.9380000  45.7390000
   6.5990000  67.2050000  46.0280000   6.3800000  67.7560000  43.8960000
   6.2370000  66.7140000  43.8420000   5.6600000  68.3840000  43.3880000
   7.8030000  68.3040000  43.6100000   7.9670000  68.2640000  42.5680000
   7.8750000  69.3370000  43.9620000   8.9030000  67.5260000  44.3670000
   9.9110000  67.9570000  44.3550000   8.7410000  67.6700000  45.4510000
   8.8070000  66.0510000  44.1540000   7.9740000  65.6350000  44.6100000
   8.6990000  65.8400000  43.0740000   9.9800000  65.2300000  44.6920000
   9.9610000  64.2510000  44.1490000  10.8270000  65.6530000  44.3310000
  10.0940000  65.0390000  46.1950000   9.5670000  65.8610000  46.5130000
   9.5270000  64.1670000  46.5150000  11.4100000  65.0890000  46.8880000
  12.0730000  64.3990000  46.4260000  11.7910000  66.0660000  46.8140000
  11.2580000  64.7750000  48.3360000  10.6560000  63.8230000  48.8080000
  11.9200000  65.6850000  49.1160000  11.7500000  65.5430000  50.5610000
  10.7320000  65.9300000  50.8060000  11.8160000  64.4810000  50.8750000
  12.9160000  66.2830000  51.2610000  13.8710000  66.0310000  50.7730000
  12.9370000  66.0190000  52.7550000  13.9110000  66.3480000  53.1440000
  12.1580000  66.5020000  53.3890000  12.9190000  64.5980000  53.0740000
  14.0740000  63.5560000  52.6050000  13.5540000  62.9810000  51.1510000
  12.9310000  61.7000000  50.9620000  12.9730000  61.5540000  49.8520000
  13.5220000  60.8920000  51.4820000  11.4370000  61.8310000  51.3920000
  11.3620000  62.0710000  52.4310000  11.0590000  62.5820000  50.8230000
  10.5260000  60.6710000  51.0100000  10.8960000  59.3620000  51.5610000
  10.0840000  58.7250000  51.3400000  11.8840000  59.0310000  51.1230000
  10.9530000  59.4330000  52.6950000   9.2030000  61.0930000  51.6650000
   8.8790000  62.0970000  51.2900000   8.4190000  60.4140000  51.3470000
   9.3640000  61.0220000  52.7690000  10.4270000  60.6340000  49.5230000
  11.4340000  60.7140000  49.0970000   9.8040000  61.5120000  49.1000000
  10.0600000  59.6390000  49.2250000  15.3430000  64.3480000  52.4870000
  13.9950000  62.4740000  53.5230000  12.6300000  67.6840000  51.0900000
  13.6780000  68.4500000  50.8430000  14.7980000  68.2390000  51.1030000
  13.3170000  69.6770000  50.0670000  13.5420000  70.5210000  50.7070000
  12.1450000  69.6800000  49.9480000  13.9460000  69.7910000  48.5970000
  13.7630000  68.8220000  48.1640000  15.0090000  69.8190000  48.6210000
  13.3590000  70.8310000  47.6790000  13.5530000  71.7910000  48.1350000
  12.2990000  70.5840000  47.6540000  13.9730000  70.8060000  46.2670000
  15.0570000  71.0710000  46.3120000  13.5890000  71.6420000  45.7140000
  13.7690000  69.4530000  45.4660000  12.6550000  69.1830000  45.4480000
  14.3150000  68.6370000  45.9830000  14.2550000  69.4920000  44.0360000
  15.2960000  69.7390000  43.9020000  13.6560000  70.3470000  43.5600000
  13.9180000  68.1600000  43.2770000  14.2780000  67.3140000  43.8790000
  14.5440000  68.0980000  42.3200000  12.4970000  68.0040000  42.9200000
  11.9080000  68.5630000  43.5570000  12.0330000  67.1710000  41.9750000
  10.9420000  67.1080000  41.9130000  12.8840000  66.3540000  41.0270000
  13.9420000  66.4190000  41.2140000  12.6920000  66.7400000  39.9950000
  12.4880000  64.8220000  41.0330000  12.9320000  64.4100000  40.1020000
  11.3890000  64.7710000  41.0270000  12.9580000  64.0700000  42.2750000
  12.2580000  64.4510000  43.0570000  13.9930000  64.1930000  42.6180000
  12.8720000  62.5780000  42.1180000  13.5250000  62.2830000  41.2790000
  11.8530000  62.2560000  41.8610000  13.2460000  61.8610000  43.4640000
  12.5980000  62.1960000  44.2980000  14.2570000  62.0420000  43.7550000
  13.0870000  60.3520000  43.3200000  13.6940000  59.9520000  42.4490000
  12.0300000  60.1270000  43.1070000  13.3790000  59.5560000  44.5850000
  14.3900000  59.6750000  44.8820000  13.3240000  58.4980000  44.5030000
  12.5550000  60.0110000  45.7800000  12.7290000  61.0110000  46.0400000
  12.8830000  59.4230000  46.5720000  11.5170000  59.7620000  45.6550000
 117.0340000  49.5300000  37.5710000 116.6970000  49.8970000  38.4850000
 116.3020000  49.7560000  36.8310000 117.8880000  50.0780000  37.3410000
 117.4000000  47.9850000  37.5080000 116.4470000  47.4340000  37.4660000
 117.9430000  47.8250000  36.5330000 118.3360000  47.5640000  38.6630000
 119.2700000  48.0810000  38.5300000 117.9480000  47.8370000  39.6470000
 118.7320000  46.0830000  38.6070000 117.8640000  45.5160000  38.1380000
 119.5220000  46.0940000  37.8990000 119.1280000  45.5040000  39.9920000
 118.3960000  45.9810000  40.5920000 118.9980000  44.3670000  39.9700000
 120.5350000  45.9500000  40.4020000 121.4660000  45.4730000  39.9170000
 120.5980000  46.9860000  40.1580000 120.7570000  45.6550000  41.9150000
 120.6400000  44.6060000  42.1500000 121.7500000  46.0100000  42.1390000
 119.7890000  46.3190000  42.9680000 118.8570000  45.7290000  43.0080000
 120.2440000  46.4710000  43.9960000 119.2900000  47.7720000  42.5290000
 120.1630000  48.1720000  42.1570000 118.6070000  47.6530000  41.6300000
 118.6030000  48.7390000  43.5150000 117.8080000  48.1660000  44.0430000
 119.3150000  49.1770000  44.2740000 117.7430000  49.8150000  42.8080000
 116.9400000  49.3440000  42.2440000 117.2630000  50.5050000  43.5080000
 118.5600000  50.7030000  41.8950000 119.4490000  51.1100000  42.3950000
 118.8000000  50.1120000  40.9890000 117.6930000  51.9830000  41.5140000
 116.8090000  51.6400000  40.9500000 117.2860000  52.5300000  42.3900000
 118.4130000  53.0560000  40.6640000 118.8140000  52.5230000  39.7600000
 117.6290000  53.7500000  40.3030000 119.5850000  53.7350000  41.4380000
 120.2150000  52.8780000  41.8840000 120.2730000  54.2100000  40.6820000
 119.1330000  54.6090000  42.6330000 118.1920000  55.3660000  42.5510000
 119.9510000  54.4250000  43.7110000 119.5520000  54.8570000  45.0600000
 120.3640000  54.8870000  45.7900000 119.1620000  55.8570000  45.0090000
 118.4770000  53.8520000  45.5680000 118.4020000  54.0390000  46.6000000
 118.9840000  52.3900000  45.3730000 118.6730000  52.0780000  44.3540000
 120.0540000  52.3760000  45.4620000 118.3870000  51.4540000  46.3660000
 119.2340000  51.2620000  47.7170000 120.3950000  50.2720000  47.3630000
 120.1410000  48.8860000  47.0010000 119.2230000  48.7640000  46.4470000
 120.9630000  48.5370000  46.4150000 120.1450000  48.1050000  48.3020000
 121.1690000  47.9680000  48.6220000 119.6100000  48.8120000  48.9570000
 119.4480000  46.8290000  48.4290000 119.3910000  46.3060000  49.8150000
 118.9770000  45.3010000  49.7820000 120.4580000  46.2720000  50.1130000
 118.8360000  47.0840000  50.2700000 117.9960000  46.9490000  48.0150000
 117.4780000  46.1450000  48.4770000 117.7110000  47.9110000  48.4130000
 118.0360000  46.9210000  46.8930000 120.1870000  45.8070000  47.5650000
 121.1940000  45.7340000  48.0130000 120.3520000  46.0620000  46.5530000
 119.5410000  44.9330000  47.6260000 119.7370000  52.6280000  48.0490000
 118.3490000  50.6270000  48.6590000 117.1980000  54.0320000  44.9120000
 116.3030000  54.9900000  45.2880000 116.4740000  55.6110000  46.3240000
 115.0200000  55.1230000  44.4470000 114.3030000  54.5880000  45.0680000
 115.1580000  54.5620000  43.5410000 114.3320000  56.4560000  44.2110000
 115.0350000  57.0830000  43.5960000 114.1890000  57.0010000  45.1100000
 112.9210000  56.3400000  43.4970000 112.2490000  57.1700000  43.6890000
 112.3200000  55.4370000  43.7890000 113.2130000  56.1670000  41.9840000
 113.5420000  55.1720000  41.7870000 113.9620000  56.8200000  41.5750000
 112.0420000  56.3790000  41.0180000 111.5510000  57.3570000  41.1740000
 111.3000000  55.5910000  41.0960000 112.6130000  56.3730000  39.5610000
 113.3360000  55.5330000  39.4680000 113.0800000  57.3690000  39.3590000
 111.4300000  56.0580000  38.6970000 110.5490000  56.7030000  39.0120000
 111.1650000  55.0510000  38.8650000 111.6650000  56.2020000  37.2900000
 112.5910000  55.7240000  36.9580000 110.8630000  56.7210000  36.3600000
 111.2420000  56.7610000  35.3010000 109.4970000  57.2560000  36.6310000
 109.3100000  58.1330000  35.9850000 109.4990000  57.5130000  37.6640000
 108.3930000  56.2860000  36.3350000 108.5080000  55.3330000  36.8640000
 108.5100000  56.1500000  35.2700000 107.0090000  56.8170000  36.5930000
 106.9070000  56.8750000  37.6580000 106.2970000  56.0990000  36.3390000
 106.6760000  58.1370000  35.8690000 106.8550000  58.0870000  34.8090000
 107.2340000  58.9380000  36.3180000 105.1850000  58.4490000  36.1190000
 104.9250000  58.2550000  37.1630000 104.6230000  57.8560000  35.4400000
 104.8980000  59.9580000  35.8300000 105.3130000  60.3330000  34.8590000
 105.3690000  60.4990000  36.5600000 103.4070000  60.2310000  35.8070000
 103.0170000  60.3070000  36.8230000 102.8020000  59.4370000  35.4120000
 102.9730000  61.6070000  35.0970000 101.8600000  61.6260000  35.0640000
 103.3070000  61.7240000  34.0760000 103.4960000  62.4160000  35.5510000
   8.5450000  21.5500000  27.1390000   8.1500000  22.4000000  26.6350000
   9.0560000  21.0220000  26.3650000   9.0700000  21.8830000  27.9970000
   7.4170000  20.6300000  27.7000000   6.7260000  20.5480000  26.8650000
   7.8160000  19.6280000  27.8120000   6.6040000  21.2010000  28.8700000
   6.1660000  22.1830000  28.5210000   5.8750000  20.4230000  29.0730000
   7.3920000  21.3700000  30.2170000   8.2610000  21.9710000  29.9910000
   6.6840000  21.7870000  30.8760000   7.9010000  20.0290000  30.8720000
   7.0830000  19.2810000  30.6720000   8.7460000  19.6440000  30.3410000
   8.3010000  20.0720000  32.4430000   8.7890000  21.0230000  32.6350000
   7.3950000  20.1040000  32.9750000   9.0720000  18.8490000  33.0160000
   8.4620000  17.9580000  32.7780000  10.0970000  18.8660000  32.5860000
   9.1680000  18.9510000  34.5370000   9.7340000  19.8470000  34.7520000
   8.1750000  19.0980000  34.9680000   9.7690000  17.7220000  35.2650000
   9.1350000  16.8320000  35.0770000  10.7900000  17.3910000  35.0140000
   9.8480000  18.0030000  36.7610000  10.2540000  19.0330000  36.9150000
   8.8460000  18.0790000  37.1540000  10.5550000  16.9230000  37.5060000
  10.1710000  15.9300000  37.1810000  11.6620000  16.9680000  37.4210000
  10.2850000  17.0560000  38.9890000   9.2210000  16.9590000  39.2350000
  10.8150000  16.2980000  39.4390000  10.7430000  18.3850000  39.6420000
  10.4780000  19.2590000  39.0190000  10.1380000  18.5370000  40.4650000
  12.2670000  18.2750000  40.0440000  12.2600000  17.3630000  40.6740000
  12.8770000  18.1480000  39.1500000  12.9410000  19.3930000  40.8570000
  13.1820000  20.1750000  40.2500000  12.3020000  19.6290000  41.6620000
  14.2970000  18.9760000  41.4210000  15.4500000  19.5050000  41.2110000
  14.2100000  18.0280000  42.3620000  15.4930000  17.7030000  43.0870000
  15.3140000  16.7690000  43.6860000  16.2700000  17.4920000  42.3320000
  15.9490000  18.8090000  44.0510000  16.0950000  19.7540000  43.4720000
  17.3210000  18.4200000  44.5360000  17.9030000  18.5750000  43.5530000
  17.5310000  19.1460000  45.3620000  17.3820000  17.0360000  44.9850000
  17.1040000  16.6150000  46.4610000  15.5420000  16.4060000  46.5170000
  14.9120000  15.0880000  46.5380000  13.8500000  15.2650000  46.1620000
  15.3720000  14.4410000  45.8140000  14.9090000  14.5400000  48.0630000
  14.3870000  13.5530000  48.2200000  15.9770000  14.4900000  48.3240000
  14.3530000  15.4510000  49.1480000  14.5740000  14.7210000  50.4690000
  15.6470000  14.5890000  50.5940000  14.1330000  15.2550000  51.2580000
  14.2020000  13.6890000  50.5020000  15.0820000  16.6850000  49.2820000
  14.5230000  17.3030000  49.9360000  16.1260000  16.7050000  49.4150000
  14.9570000  17.1400000  48.2630000  12.9530000  15.7670000  48.9400000
  12.3360000  14.8640000  48.8890000  12.8750000  16.1910000  47.9260000
  12.6430000  16.4680000  49.6480000  17.7290000  15.2720000  46.7810000
  17.3650000  17.7660000  47.3490000  15.0310000  18.9930000  45.1900000
  13.7970000  19.4820000  44.9650000  13.6310000  20.4260000  44.2320000
  12.7550000  18.8010000  45.8360000  12.8960000  19.2220000  46.9030000
  12.9110000  17.7640000  45.9580000  11.3030000  19.0350000  45.3200000
  11.1280000  20.0870000  45.0440000  10.5810000  18.6040000  46.0350000
  11.0100000  18.2000000  44.1210000  11.0910000  17.1650000  44.4300000
  11.7550000  18.3930000  43.3760000   9.5720000  18.4060000  43.5260000
   8.8240000  18.0150000  44.2130000   9.4580000  17.6400000  42.7780000
   9.3420000  19.8020000  42.9040000  10.1100000  19.9750000  42.2130000
   9.4130000  20.5570000  43.7050000   8.0630000  19.7020000  42.1320000
   7.3220000  19.5050000  42.8810000   8.0220000  18.8740000  41.5080000
   7.5650000  20.9130000  41.3030000   8.3150000  21.1730000  40.5390000
   7.3630000  21.7380000  41.9260000   6.2650000  20.6270000  40.6240000
   5.4150000  21.0280000  41.1530000   6.1830000  20.2870000  39.3410000
   5.2080000  20.3630000  38.8680000   7.2880000  20.1520000  38.2660000
   7.0690000  19.2930000  37.6460000   8.2680000  19.9930000  38.7500000
   7.5220000  21.3390000  37.3890000   8.3840000  21.1610000  36.6970000
   7.7920000  22.2400000  37.9780000   6.1910000  21.6190000  36.4910000
   5.5170000  22.0220000  37.2320000   5.8440000  20.5850000  36.2330000
   6.4160000  22.5850000  35.3900000   7.3310000  22.2030000  34.9030000
   6.5820000  23.5460000  35.8740000   5.3070000  22.6950000  34.2710000
   5.1150000  21.7730000  33.7880000   5.7150000  23.3740000  33.5590000
   3.9250000  23.2400000  34.7440000   3.9500000  24.0660000  35.4040000
   3.3740000  22.4210000  35.1820000   2.9570000  23.6320000  33.6510000
   3.3950000  24.4820000  33.1500000   2.0800000  24.0040000  34.1170000
   2.4390000  22.5420000  32.6410000   1.7290000  23.0350000  31.9770000
   1.9430000  21.6840000  33.0830000   3.2580000  22.2190000  32.0790000
  97.9390000  89.3650000  35.1760000  97.3530000  88.4450000  35.0940000
  97.9540000  89.8350000  34.1630000  97.5030000  90.0490000  35.8690000
  99.3690000  89.0510000  35.6740000  99.3330000  88.3360000  36.4300000
  99.9770000  88.6170000  34.8830000 100.1750000  90.2960000  36.1230000
 100.2360000  90.9090000  35.2260000  99.8200000  90.8840000  36.8870000
 101.7300000  90.1390000  36.3980000 102.0790000  89.3420000  35.7570000
 102.3230000  91.0820000  36.3290000 102.0670000  89.6380000  37.8060000
 101.9640000  88.5990000  37.8890000 103.1580000  89.6610000  37.8740000
 101.5520000  90.4700000  39.0260000 101.7500000  91.5270000  38.8770000
 100.4470000  90.3890000  39.2290000 102.2770000  90.0930000  40.3970000
 101.9700000  89.0770000  40.6370000 103.3510000  90.1890000  40.4160000
 101.8060000  90.9530000  41.5970000 100.7240000  91.1860000  41.4730000
 101.8930000  90.3890000  42.5470000 102.6540000  92.2980000  41.5120000
 103.7300000  92.0450000  41.3770000 102.3230000  92.8170000  40.5840000
 102.5130000  93.3790000  42.6320000 102.9040000  92.9390000  43.5720000
 103.1430000  94.2320000  42.3810000 101.0370000  93.7940000  42.8560000
 100.6850000  94.2430000  41.9410000 100.4630000  92.8810000  43.2350000
 100.9600000  94.8580000  43.8680000 101.4850000  94.5110000  44.7000000
 101.6040000  95.6730000  43.4550000  99.5510000  95.3380000  44.2550000
  99.6020000  96.3310000  44.6850000  98.9800000  95.4570000  43.3260000
  98.7300000  94.5140000  45.2390000  99.0360000  93.4320000  45.1040000
  99.1200000  94.7920000  46.2700000  97.1810000  94.4830000  45.0950000
  96.7920000  95.5120000  44.8860000  96.8930000  93.8240000  44.2730000
  96.6260000  93.9950000  46.3550000  96.0000000  92.9670000  46.5530000
  96.9240000  94.8120000  47.3930000  96.5080000  94.3960000  48.7270000
  96.6980000  95.2140000  49.5150000  95.4280000  94.1790000  48.7520000
  97.3780000  93.2050000  49.1890000  97.2630000  92.4170000  48.4580000
  96.9000000  92.4730000  50.4720000  96.1360000  93.0210000  50.9870000
  96.4240000  91.6150000  50.1240000  97.9650000  92.0250000  51.3720000
  97.6170000  91.0650000  52.6030000  97.3570000  92.0480000  53.7680000
  98.4000000  92.6300000  54.6110000  97.9160000  93.1460000  55.4890000
  99.0270000  91.8650000  55.1050000  99.2830000  93.5490000  53.8040000
 100.3000000  93.5340000  54.2410000  99.3780000  93.1000000  52.8070000
  98.7860000  94.9690000  53.5860000  99.8260000  95.6670000  52.7590000
  99.6380000  96.7240000  52.8860000 100.8060000  95.3240000  53.0180000
  99.5400000  95.5170000  51.6770000  97.3800000  95.0540000  53.0080000
  97.3450000  94.4300000  52.0920000  96.6480000  94.6310000  53.7430000
  97.1850000  96.1160000  52.7710000  98.7790000  95.6220000  54.9230000
  98.4420000  96.6530000  54.8430000  99.7540000  95.5550000  55.4020000
  98.0340000  95.1950000  55.5090000  96.3880000  90.3030000  52.3040000
  98.7870000  90.2840000  52.8650000  98.7730000  93.6900000  49.4210000
  99.7110000  93.2660000  48.5540000  99.5070000  92.4520000  47.6760000
 100.9660000  94.0660000  48.5230000 100.6510000  94.9900000  48.7740000
 101.3920000  94.1090000  47.5190000 101.9000000  93.5590000  49.6280000
 101.3740000  93.1580000  50.4880000 102.3740000  94.4400000  50.0070000
 103.0110000  92.5150000  49.3000000 103.8540000  92.6450000  49.9490000
 103.2780000  92.6690000  48.2960000 102.6650000  91.0060000  49.3890000
 101.8460000  90.8160000  48.7050000 102.3230000  90.7390000  50.4540000
 103.8640000  90.0700000  48.9100000 104.6860000  90.1910000  49.5980000
 104.0990000  90.5200000  47.9350000 103.5810000  88.6190000  48.6130000
 103.2940000  88.0890000  49.5180000 104.5000000  88.1680000  48.3200000
 102.6590000  88.3760000  47.4030000 103.1000000  88.8740000  46.5550000
 101.6940000  88.8020000  47.6050000 102.6590000  86.8160000  47.1670000
 103.3370000  86.2000000  47.7850000 101.8990000  86.1860000  46.2500000
 101.8990000  85.0560000  46.2560000 100.9340000  86.7570000  45.2170000
 101.0090000  87.8660000  44.9720000  99.9360000  86.5060000  45.5670000
 101.0690000  86.0620000  43.8260000 100.1750000  86.1650000  43.2420000
 101.2910000  85.0500000  43.9570000 102.1230000  86.5680000  42.8820000
 103.1640000  86.2410000  43.1680000 102.1760000  87.6940000  42.9080000
 101.7190000  85.9920000  41.4920000 100.7410000  86.2730000  41.1690000
 101.6730000  84.9450000  41.6220000 102.7850000  86.1030000  40.4410000
 103.7750000  85.6780000  40.7340000 102.9300000  87.1950000  40.4290000
 102.2630000  85.4490000  39.1680000 101.3250000  85.8530000  38.8600000
 102.1930000  84.3630000  39.1520000 103.2160000  85.7380000  37.9410000
 104.1660000  85.3710000  38.1470000 103.3920000  86.7530000  37.9800000
 102.8000000  85.1010000  36.5900000 103.5000000  85.2430000  35.7440000
 101.7200000  85.2350000  36.3030000 102.9020000  84.0070000  36.6580000
  39.0330000   1.5960000  33.2870000  38.7730000   2.2300000  32.3700000
  38.1100000   1.0270000  33.5480000  39.7940000   0.8820000  32.9850000
  39.4210000   2.3930000  34.4820000  39.8800000   3.3310000  34.1160000
  38.5670000   2.6770000  35.0650000  40.3260000   1.6620000  35.4890000
  39.9060000   0.6400000  35.5730000  41.3590000   1.5250000  35.2160000
  40.4020000   2.3460000  36.9010000  41.0740000   3.1910000  36.7960000
  39.5570000   2.8080000  37.1830000  41.0260000   1.4970000  37.9620000
  41.2220000   2.2320000  38.7630000  40.3440000   0.8500000  38.3410000
  42.3140000   0.6470000  37.6300000  42.2190000   0.0240000  36.8220000
  43.0230000   1.3220000  37.3490000  42.9670000  -0.2220000  38.7390000
  42.3150000  -1.1380000  38.9860000  43.9640000  -0.5490000  38.3930000
  43.0810000   0.5490000  40.1430000  42.1270000   0.9160000  40.5360000
  43.4600000  -0.1710000  40.9750000  43.9590000   1.8020000  40.0550000
  44.9140000   1.5560000  39.5470000  43.4640000   2.5840000  39.3850000
  44.3640000   2.4920000  41.3420000  44.4000000   1.7100000  42.1330000
  45.2810000   2.9250000  41.1880000  43.3570000   3.5640000  41.7420000
  43.1260000   4.3200000  40.9380000  42.3270000   3.2530000  41.8710000
  43.7350000   4.1980000  43.0880000  44.8170000   4.3670000  43.1460000
  43.2650000   5.1720000  43.3230000  43.5020000   3.3230000  44.2700000
  42.4590000   3.0670000  44.3060000  44.0510000   2.3810000  44.1920000
  44.0150000   3.9300000  45.6010000  45.1170000   3.7960000  45.6790000
  43.7340000   5.0630000  45.6000000  43.4140000   3.1670000  46.8190000
  42.4770000   2.7080000  46.5810000  43.9950000   2.3290000  47.1820000
  43.3650000   3.9860000  48.0230000  44.2280000   4.7940000  48.3240000
  42.1970000   3.8250000  48.7620000  41.9060000   4.6390000  49.9090000
  41.1520000   4.2060000  50.5150000  42.7520000   4.8960000  50.4230000
  41.4820000   6.0420000  49.4490000  42.3990000   6.6700000  49.5080000
  40.4760000   6.7010000  50.3990000  39.7280000   7.2660000  49.8430000
  39.9810000   5.8830000  50.8490000  41.0770000   7.7700000  51.2230000
  41.8010000   7.4460000  52.5760000  40.6910000   7.6780000  53.7230000
  39.3870000   7.2200000  53.6590000  39.3260000   6.3700000  53.0240000
  39.0850000   6.9170000  54.6730000  38.3710000   8.3210000  53.2360000
  38.3920000   8.3340000  52.1360000  37.3760000   8.0070000  53.3470000
  38.5420000   9.7100000  53.7330000  39.7120000  10.3210000  53.0500000
  39.6340000  10.2130000  51.9620000  39.6760000  11.4100000  53.2570000
  40.6470000   9.7540000  53.3440000  37.3350000  10.5790000  53.3540000
  37.2830000  10.7590000  52.2640000  36.4100000  10.1220000  53.7370000
  37.5440000  11.5780000  53.8030000  38.6790000   9.8480000  55.2970000
  37.7090000   9.5170000  55.6620000  38.9340000  10.9540000  55.4370000
  39.4490000   9.1610000  55.6710000  42.1770000   6.0440000  52.6340000
  42.8460000   8.4960000  52.6940000  40.9790000   6.0870000  48.1190000
  41.5010000   6.8710000  47.1950000  42.3470000   7.7460000  47.4060000
  41.0440000   6.6410000  45.7660000  40.0420000   6.1860000  45.8220000
  41.6920000   5.9340000  45.2270000  40.9310000   7.9980000  45.0590000
  41.8620000   8.5090000  45.0300000  40.3780000   8.7010000  45.6590000
  40.2600000   7.9500000  43.6730000  40.4130000   8.9090000  43.1860000
  39.1540000   7.6580000  43.8970000  40.8910000   6.9670000  42.7250000
  40.9230000   5.9620000  43.0460000  41.9740000   7.2860000  42.6410000
  40.1070000   6.8810000  41.3510000  39.8620000   7.9210000  41.1900000
  39.1030000   6.3950000  41.4660000  40.7920000   6.0560000  40.2210000
  41.0930000   5.1250000  40.7360000  41.6820000   6.5980000  39.7700000
  39.8420000   5.6610000  39.0020000  39.0190000   5.1380000  39.5160000
  40.3640000   5.0320000  38.2600000  39.2060000   6.9000000  38.3960000
  39.3260000   7.8470000  38.9440000  38.8330000   6.9210000  37.1140000
  38.5480000   7.8630000  36.5220000  38.8300000   5.6780000  36.1980000
  38.5900000   4.7680000  36.8210000  39.7080000   5.5380000  35.5530000
  37.6330000   5.7810000  35.2590000  36.7540000   6.2890000  35.7450000
  37.2210000   4.7980000  35.0460000  37.7540000   6.6510000  33.9390000
  37.1460000   7.5360000  34.0730000  37.2590000   6.0840000  33.1480000
  39.1400000   7.1240000  33.4620000  39.7610000   6.4200000  32.9260000
  39.7300000   7.5460000  34.2720000  39.0210000   8.3230000  32.4550000
  39.8220000   8.1110000  31.7090000  39.2180000   9.2000000  33.1360000
  37.7290000   8.4930000  31.6510000  36.8430000   8.6010000  32.2930000
  37.6700000   7.6550000  31.0080000  37.7870000   9.6900000  30.7160000
  38.6420000   9.6420000  30.0820000  37.8630000  10.6410000  31.2490000
  36.5070000   9.6740000  29.9080000  35.6080000   9.7060000  30.5620000
  36.4310000   8.8090000  29.2880000  36.3960000  10.5310000  29.2440000
  93.9170000  83.3870000  36.9340000  93.0410000  83.7630000  37.5060000
  93.4870000  82.5000000  36.4510000  94.0610000  84.0930000  36.1450000
  95.1580000  83.0580000  37.7390000  95.8350000  82.4270000  37.1960000
  95.6270000  83.9890000  38.0410000  94.7160000  82.2890000  39.0120000
  94.2330000  82.9610000  39.7550000  94.0740000  81.4710000  38.6940000
  95.8700000  81.5840000  39.8240000  96.3430000  80.8940000  39.0930000
  96.5380000  82.3280000  40.2650000  95.4810000  80.7210000  41.0370000
  94.9430000  81.3810000  41.7770000  94.7160000  80.0240000  40.7180000
  96.6900000  79.9710000  41.6260000  97.2360000  79.4330000  40.8460000
  97.2760000  80.7110000  41.9350000  96.3590000  79.0600000  42.8010000
  95.7430000  78.1580000  42.5770000  97.2970000  78.6470000  43.1850000
  95.6440000  79.8530000  43.9680000  96.1170000  79.5220000  44.9060000
  95.9510000  80.9070000  44.0280000  94.0940000  79.7500000  43.9690000
  93.6920000  80.4330000  43.2100000  93.9190000  78.7070000  43.5650000
  93.5390000  80.2220000  45.3190000  94.0980000  79.7150000  46.1330000
  93.7330000  81.2480000  45.4320000  91.9980000  79.9680000  45.4890000
  91.3250000  80.3270000  44.6710000  91.8260000  78.9560000  45.3840000
  91.3590000  80.4230000  46.7580000  91.2440000  81.5330000  46.7780000
  90.3450000  79.9770000  46.7090000  91.7420000  79.8370000  48.1120000
  91.5180000  78.7930000  47.9400000  92.8350000  79.7850000  48.3700000
  90.9980000  80.2330000  49.4300000  89.9870000  79.8920000  49.4330000
  91.4470000  79.6550000  50.2840000  91.0420000  81.7170000  49.7560000
  90.9050000  82.2610000  48.8000000  90.1920000  81.9910000  50.3700000
  92.3120000  82.2400000  50.4390000  92.2940000  83.0970000  51.3640000
  93.4400000  81.7640000  49.8200000  94.6640000  82.3360000  50.2610000
  95.3680000  82.3770000  49.3350000  94.4150000  83.3000000  50.5700000
  95.2520000  81.5230000  51.4200000  94.6180000  81.6860000  52.2880000
  96.6980000  82.0520000  51.7160000  96.6990000  82.5870000  52.6220000
  97.3380000  81.0960000  51.6970000  97.1680000  82.8890000  50.5800000
  97.2190000  84.5390000  50.7480000  98.6960000  84.8810000  51.1320000
  99.0310000  85.9110000  52.1080000  98.5620000  85.7010000  53.0760000
 100.0800000  85.8600000  52.3260000  98.6750000  87.3520000  51.5670000
  97.6060000  87.2840000  51.2790000  98.7370000  88.1780000  52.3060000
  99.3470000  87.8320000  50.2840000  98.7700000  89.1840000  49.8620000
  99.0420000  89.8590000  50.7210000  99.1570000  89.5610000  48.9310000
  97.6800000  89.0030000  49.7250000 100.7950000  87.9070000  50.4920000
 100.9700000  88.5970000  51.3200000 101.2270000  86.9100000  50.5910000
 101.2110000  88.2820000  49.5470000  99.2070000  86.9780000  49.0300000
  99.3750000  85.9140000  49.2080000  99.9200000  87.3420000  48.3070000
  98.1550000  87.0300000  48.5920000  96.8540000  85.0400000  49.4020000
  96.3680000  84.8910000  51.9100000  95.3180000  80.1250000  51.1180000
  94.2910000  79.3540000  51.6200000  93.3590000  79.8020000  52.3120000
  94.2930000  77.8660000  51.1980000  95.0630000  77.3770000  51.7890000
  94.5070000  77.8170000  50.1740000  92.9720000  77.2330000  51.5320000
  92.2450000  77.5420000  50.7670000  92.5410000  77.5520000  52.4810000
  93.0330000  75.7080000  51.4300000  91.9770000  75.3030000  51.5540000
  93.5680000  75.2730000  52.3390000  93.6500000  75.1230000  50.0900000
  94.7670000  75.3510000  50.2860000  93.3400000  75.7920000  49.2460000
  93.3720000  73.6030000  49.8930000  92.3400000  73.3990000  49.8250000
  93.7910000  73.0670000  50.7510000  94.0300000  73.0130000  48.5590000
  94.9920000  73.3190000  48.5690000  93.5820000  73.4150000  47.7480000
  93.8220000  71.5010000  48.4790000  93.9200000  71.0900000  49.5130000
  94.6530000  71.1200000  47.9110000  92.4490000  71.0810000  48.0340000
  91.5920000  71.6310000  48.3550000  92.2330000  70.2620000  47.0330000
  91.2290000  70.1850000  46.6230000  93.1690000  69.3510000  46.3240000
  92.7130000  68.3290000  46.3340000  94.1090000  69.1460000  46.8070000
  93.3250000  69.7270000  44.8020000  93.6290000  70.7490000  44.7500000
  92.3640000  69.5370000  44.2420000  94.3290000  68.8780000  44.0470000
  94.1150000  67.8480000  44.3190000  95.3540000  69.0710000  44.3540000
  94.2400000  68.9710000  42.5420000  95.3440000  69.0850000  42.2600000
  93.7040000  69.8940000  42.2790000  93.6720000  67.7210000  41.9270000
  94.1360000  66.8800000  42.4300000  93.7570000  67.7980000  40.8180000
  92.1990000  67.7070000  42.2710000  91.7930000  68.6520000  42.0670000
  92.1190000  67.5830000  43.3390000  91.4040000  66.6040000  41.6260000
  91.9360000  65.6670000  41.6850000  91.1790000  66.9170000  40.5800000
  90.0580000  66.5220000  42.4180000  89.4380000  65.6150000  42.0970000
  89.3690000  67.3440000  42.4090000  90.3040000  66.3610000  43.4780000
  25.5590000 127.0830000  40.5120000  24.4750000 127.0610000  40.7280000
  25.8640000 126.0060000  40.2330000  25.6320000 127.6260000  39.5940000
  26.3550000 127.6520000  41.6760000  26.1510000 128.7340000  41.8320000
  25.9740000 127.1760000  42.5290000  27.9220000 127.4200000  41.5990000
  27.9640000 126.3900000  41.3890000  28.3810000 127.9760000  40.7760000
  28.5480000 127.5820000  43.0300000  28.1810000 126.9910000  43.8500000
  29.6340000 127.3280000  42.9580000  28.4670000 129.0990000  43.5100000
  28.8670000 129.7070000  42.7090000  27.4640000 129.4440000  43.6710000
  29.2610000 129.4460000  44.7500000  29.0230000 128.7710000  45.5550000
  30.3070000 129.3800000  44.6390000  28.7820000 130.8350000  45.2370000
  27.7390000 130.7710000  45.4350000  29.2840000 130.9400000  46.2220000
  29.1210000 132.0950000  44.3140000  28.5960000 131.9490000  43.3770000
  28.7490000 132.9650000  44.7660000  30.6060000 132.2470000  43.9800000
  31.1210000 132.2900000  44.9120000  30.9450000 131.4240000  43.3290000
  30.9060000 133.5310000  43.1140000  30.1000000 133.6700000  42.4480000
  30.8900000 134.4130000  43.7420000  32.2360000 133.6270000  42.3700000
  32.2240000 132.8710000  41.6030000  32.2620000 134.5940000  41.8180000
  33.5200000 133.4200000  43.3210000  33.5120000 132.3680000  43.5650000
  34.4860000 133.4800000  42.8460000  33.5250000 134.3780000  44.6030000
  33.4020000 135.3360000  44.1890000  32.5960000 134.3020000  45.1250000
  34.8530000 134.3220000  45.3600000  35.6500000 134.4710000  44.6810000
  34.8370000 135.0880000  46.1290000  35.1450000 132.9330000  45.9810000
  34.9590000 132.1870000  45.1720000  36.2230000 132.9180000  46.2530000
  34.3870000 132.4880000  47.2060000  34.8720000 132.6280000  48.2730000
  33.2090000 131.8890000  46.8780000  32.3830000 131.4280000  47.9560000
  31.6120000 130.8700000  47.4340000  32.8850000 130.6950000  48.5460000
  31.7830000 132.6250000  48.8300000  32.5910000 133.2810000  49.2320000
  31.1140000 132.0300000  50.1010000  30.0280000 132.2870000  50.0590000
  31.2700000 130.8940000  50.1980000  31.7280000 132.6200000  51.3020000
  30.9510000 133.7290000  52.1550000  30.3440000 132.6820000  53.2860000
  31.1720000 132.3200000  54.4450000  31.8950000 133.0230000  54.8040000
  30.5210000 132.1710000  55.3180000  31.8480000 131.0120000  54.0430000
  32.3570000 131.2660000  53.1340000  32.6050000 130.7890000  54.7130000
  31.1080000 129.7530000  53.8260000  30.2250000 129.3870000  54.9660000
  30.7340000 129.2700000  55.9090000  29.5950000 130.2570000  55.0910000
  29.6390000 128.5340000  54.6940000  30.2550000 129.8180000  52.5880000
  29.7320000 128.8470000  52.4560000  29.5080000 130.6190000  52.7280000
  30.8480000 130.1060000  51.7280000  32.0170000 128.6540000  53.6040000
  32.6040000 129.0020000  52.7360000  31.5330000 127.7640000  53.4080000
  32.7230000 128.6440000  54.4390000  31.9830000 134.6490000  52.6900000
  29.8410000 134.2590000  51.3310000  30.7870000 133.4320000  48.1110000
  31.1080000 134.5160000  47.4220000  32.1860000 135.0810000  47.4120000
  29.9270000 135.0830000  46.6690000  29.0790000 135.4140000  47.2340000
  29.6190000 134.2200000  46.0430000  30.2470000 136.2870000  45.7910000
  31.0770000 136.1350000  45.1430000  30.4220000 137.1030000  46.5400000
  28.9560000 136.6330000  44.9590000  28.1620000 137.0230000  45.5630000
  28.4670000 135.7410000  44.5010000  29.2160000 137.7610000  43.9040000
  29.7270000 138.5450000  44.4260000  28.1950000 138.2790000  43.7880000
  29.7960000 137.3910000  42.5680000  29.1130000 136.8850000  41.9240000
  30.7040000 136.7570000  42.7400000  30.1280000 138.6420000  41.6600000
  30.9920000 139.2980000  41.9470000  29.2570000 139.2570000  41.6760000
  30.3420000 138.0540000  40.2220000  30.2490000 138.8410000  39.5180000
  29.5090000 137.3930000  40.0930000  31.7250000 137.3880000  40.1680000
  32.4180000 137.9130000  40.7820000  32.0090000 136.2520000  39.5780000
  33.0960000 135.9060000  39.5570000  31.0410000 135.4700000  38.7210000
  31.6200000 135.1250000  37.8450000  30.1970000 136.1080000  38.4770000
  30.4650000 134.3180000  39.4830000  30.0490000 134.7250000  40.3470000
  31.2420000 133.5700000  39.7540000  29.4330000 133.5250000  38.6490000
  29.9210000 133.2640000  37.7090000  28.6650000 134.2300000  38.3310000
  28.7520000 132.4330000  39.4220000  28.2990000 132.7300000  40.3160000
  29.4840000 131.6870000  39.8080000  27.7050000 131.9150000  38.4150000
  28.1500000 131.5510000  37.5210000  27.1700000 132.7910000  38.1130000
  26.7610000 130.8100000  39.0170000  27.3160000 129.9560000  39.3970000
  26.2130000 130.4260000  38.1170000  25.8380000 131.3090000  40.1840000
  26.4680000 131.5880000  41.0050000  25.3310000 130.3840000  40.5250000
  24.9120000 132.4540000  39.7490000  24.1500000 132.1000000  39.0710000
  25.4240000 133.3260000  39.3320000  24.3110000 132.9540000  40.5810000
  99.6840000  82.5140000  39.2380000 100.6500000  82.0260000  39.3760000
  99.7120000  83.1200000  38.3380000  98.9370000  81.7530000  39.1700000
  99.4430000  83.4380000  40.4710000 100.2120000  84.1860000  40.3760000
  98.4620000  83.8970000  40.5450000  99.6290000  82.6850000  41.7890000
  99.2040000  81.6320000  41.6610000 100.7730000  82.6260000  42.0530000
  98.8770000  83.3160000  42.9620000  98.7630000  84.3490000  42.6890000
  97.8220000  82.9590000  42.8230000  99.3450000  82.9700000  44.3390000
  99.0030000  81.9720000  44.5970000 100.4290000  82.9520000  44.3460000
  98.7200000  83.7510000  45.4990000  98.8550000  84.7670000  45.2660000
  97.6580000  83.5110000  45.6470000  99.4940000  83.4760000  46.8030000
 100.5900000  83.4820000  46.6640000  99.3480000  84.3700000  47.4710000
  98.9830000  82.2520000  47.5070000  97.9360000  82.3540000  47.8500000
  98.9760000  81.4360000  46.8290000  99.7950000  82.1220000  48.8000000
 100.8890000  82.0760000  48.6780000  99.6970000  83.0720000  49.4150000
  99.4810000  80.8080000  49.5240000  98.3680000  80.7000000  49.4390000
 100.0000000  80.0340000  48.9510000  99.9530000  80.7410000  51.0260000
  99.6040000  81.5950000  51.6390000  99.5110000  79.9020000  51.5410000
 101.4880000  80.5720000  51.1110000 101.8540000  79.7420000  50.5120000
 101.8160000  81.4570000  50.5980000 101.9580000  80.6820000  52.5750000
 101.4860000  81.5080000  53.0750000 101.6790000  79.7770000  53.0710000
 103.4570000  80.8890000  52.6520000 103.5820000  81.8990000  52.2950000
 103.7990000  80.9540000  53.6740000 104.4440000  79.8970000  51.9290000
 104.0260000  79.4890000  51.0070000 105.3500000  80.4190000  51.6580000
 104.9120000  78.8120000  52.8860000 106.0700000  78.6470000  53.1300000
 103.8650000  78.0260000  53.3060000 104.2510000  76.7150000  53.7450000
 104.8800000  76.3260000  52.9740000 104.7190000  76.9370000  54.7230000
 103.0120000  75.8270000  53.8960000 102.3090000  76.3460000  54.5320000
 103.2080000  74.3610000  54.4820000 103.3780000  74.2280000  55.5520000
 102.3030000  73.8610000  54.3120000 104.2470000  73.6850000  53.6720000
 105.6740000  73.3540000  54.2380000 105.3380000  72.2200000  55.2410000
 104.9560000  70.9220000  54.8340000 104.4260000  70.3450000  55.6650000
 104.2330000  71.1340000  53.9250000 106.1860000  70.1230000  54.2450000
 105.9100000  69.1240000  53.9830000 106.5850000  70.6480000  53.3680000
 107.3610000  69.9510000  55.1640000 108.2420000  69.0590000  54.4570000
 107.8050000  68.0730000  54.5660000 108.4250000  69.2950000  53.3750000
 109.1740000  68.9340000  55.0260000 108.0100000  71.2430000  55.3700000
 108.9970000  70.9660000  55.7460000 108.1980000  71.8180000  54.4200000
 107.5270000  71.7910000  56.1330000 106.9410000  69.3460000  56.4350000
 106.2040000  68.6140000  56.1890000 106.5540000  70.1660000  57.0410000
 107.7710000  68.8860000  56.9770000 106.4870000  72.8310000  53.1090000
 106.1060000  74.5470000  54.9650000 102.3300000  75.6880000  52.5630000
 101.2690000  76.4770000  52.2440000 100.6080000  77.0680000  53.0370000
 101.0970000  76.4840000  50.7530000 101.1640000  75.4510000  50.2720000
 101.9010000  77.0830000  50.3340000  99.6870000  77.0670000  50.3470000
  99.5000000  78.0720000  50.7080000  99.0110000  76.4610000  50.8330000
  99.4140000  77.0410000  48.8860000  99.7870000  76.0440000  48.5990000
 100.0530000  77.8020000  48.3160000  97.9180000  77.2300000  48.7120000
  97.6680000  78.2290000  49.0300000  97.4220000  76.5420000  49.3980000
  97.3200000  76.8590000  47.3150000  97.6890000  75.8980000  47.0640000
  97.6860000  77.4760000  46.5700000  95.7670000  76.9670000  47.1950000
  95.4940000  77.9990000  47.4960000  95.1880000  76.4620000  48.0250000
  95.2160000  76.6480000  45.8250000  95.5000000  75.5900000  45.6870000
  95.6190000  77.2540000  45.0440000  93.6980000  76.8650000  45.7780000
  93.2770000  77.7060000  46.2780000  92.7480000  76.0100000  45.2620000
  91.7520000  76.4060000  45.2610000  93.0260000  74.7440000  44.4480000
  93.1150000  73.9050000  45.0720000  94.0500000  74.9060000  43.9570000
  92.0020000  74.5550000  43.4140000  91.9970000  75.4830000  42.8490000
  91.0530000  74.3180000  43.9200000  92.3850000  73.4580000  42.4140000
  92.6720000  72.6390000  42.9630000  93.2430000  73.8370000  41.8520000
  91.2270000  73.0760000  41.4280000  90.9260000  73.8550000  40.7630000
  90.2730000  72.7900000  42.0020000  91.6550000  71.8670000  40.5040000
  90.8550000  71.8060000  39.7640000  91.6810000  70.8800000  40.9360000
  92.9940000  72.0060000  39.7190000  93.1080000  71.1450000  39.0180000
  93.8190000  72.0520000  40.4420000  93.0020000  73.2530000  38.7440000
  92.6600000  74.2160000  39.1850000  92.3900000  73.0780000  37.8760000
  94.4860000  73.4150000  38.1840000  94.8270000  72.5010000  37.6800000
  95.1630000  73.6190000  39.0240000  94.5800000  74.2980000  37.4880000
 155.7130000 141.3050000  36.6930000 155.9050000 141.3720000  35.6660000
 156.4720000 140.6190000  37.0500000 155.9010000 142.2830000  37.1430000
 154.3080000 140.7540000  37.0820000 153.5510000 141.4300000  36.7530000
 154.1530000 139.7730000  36.6430000 154.1280000 140.8080000  38.6010000
 154.8240000 140.2150000  39.2200000 154.3120000 141.8480000  38.8240000
 152.7420000 140.6260000  39.1360000 152.2370000 141.4860000  38.7280000
 152.2750000 139.6890000  38.7470000 152.5720000 140.7210000  40.6600000
 153.1380000 139.8960000  41.1710000 152.7750000 141.6840000  41.0160000
 151.1710000 140.3740000  41.2130000 150.5360000 141.2140000  41.0980000
 150.8190000 139.4650000  40.6220000 151.2440000 139.9770000  42.6970000
 151.9090000 139.1360000  42.7450000 151.7730000 140.8180000  43.2180000
 149.8700000 139.6600000  43.3410000 149.9790000 139.7310000  44.4380000
 149.1540000 140.4110000  42.9370000 149.2370000 138.3010000  42.9420000
 149.1960000 138.2720000  41.8170000 149.9050000 137.4590000  43.0890000
 147.8690000 138.0170000  43.6190000 147.0780000 138.6970000  43.3630000
 147.4460000 137.1590000  43.0750000 147.8370000 137.9610000  45.1490000
 148.2670000 138.7850000  45.7330000 146.8030000 137.9910000  45.3730000
 148.3250000 136.6200000  45.6650000 149.2750000 136.4580000  45.2460000
 148.3250000 136.5850000  46.7420000 147.4340000 135.4210000  45.3050000
 146.4320000 135.5910000  45.5420000 147.4720000 135.2330000  44.2760000
 148.0290000 134.1070000  45.8750000 149.0180000 133.9040000  45.4320000
 148.2450000 134.2390000  46.9290000 147.2000000 132.8080000  45.6520000
 146.8810000 132.7640000  44.5870000 147.9220000 132.0180000  45.9060000
 145.9240000 132.8180000  46.5020000 145.7630000 133.6280000  47.3490000
 145.0710000 131.8400000  46.1970000 144.1250000 131.5520000  47.2280000
 143.9400000 130.4370000  47.0590000 144.4040000 131.7750000  48.3210000
 142.7480000 132.2440000  46.9820000 142.9680000 133.2820000  47.0420000
 141.6540000 131.8540000  47.9840000 140.7650000 132.3940000  47.6260000
 141.5960000 130.6930000  48.0150000 141.9600000 132.4040000  49.3020000
 142.6930000 131.5630000  50.4210000 141.5910000 131.0370000  51.4560000
 140.7720000 131.9590000  52.1370000 140.4360000 131.4800000  53.0200000
 141.2360000 132.9530000  52.2290000 139.5450000 131.9810000  51.1940000
 139.7650000 132.2380000  50.1690000 139.1320000 130.9580000  51.0590000
 138.4300000 132.7710000  51.6460000 137.3840000 132.8260000  50.5930000
 137.8390000 132.8410000  49.6230000 136.8170000 131.8670000  50.5210000
 136.7350000 133.6890000  50.7530000 137.7730000 132.2050000  52.8890000
 137.5880000 131.1910000  52.7430000 138.5130000 132.2940000  53.6730000
 136.8930000 132.7840000  53.0930000 138.8420000 134.1490000  51.8920000
 139.3510000 134.2010000  52.8270000 138.0220000 134.8070000  51.7900000
 139.6220000 134.4200000  51.1770000 143.3050000 130.3960000  49.6920000
 143.5650000 132.5500000  51.0760000 142.2380000 131.8570000  45.6650000
 142.4520000 132.8370000  44.7090000 142.7910000 134.0040000  44.9870000
 142.2910000 132.4460000  43.2690000 142.0050000 133.2960000  42.7120000
 141.4960000 131.6920000  43.1830000 143.6440000 132.0220000  42.6720000
 143.9230000 131.1830000  43.2370000 144.4070000 132.9320000  42.7500000
 143.5490000 131.5560000  41.2210000 143.1320000 132.2930000  40.5210000
 142.8350000 130.6630000  41.2510000 144.8520000 131.0970000  40.7060000
 145.2600000 130.2450000  41.2200000 145.6390000 131.8120000  40.8590000
 144.8030000 130.7120000  39.2130000 144.7180000 131.6210000  38.5970000
 143.8580000 130.0760000  38.9730000 146.0560000 129.9000000  38.8160000
 146.1410000 129.0790000  39.5350000 146.9690000 130.4260000  38.9560000
 146.1470000 129.4370000  37.3480000 145.0920000 129.0030000  37.1120000
 146.7860000 128.5630000  37.3120000 146.5650000 130.4750000  36.3010000
 145.7460000 131.1650000  35.8330000 147.8620000 130.7160000  36.1420000
 148.1350000 131.5780000  35.5140000 149.0630000 129.8830000  36.7090000
 149.4180000 129.2100000  35.9130000 148.7240000 129.1380000  37.4640000
 150.2190000 130.7340000  37.2090000 149.8190000 131.4750000  37.8610000
 150.7430000 131.3140000  36.4640000 151.3890000 129.9770000  37.9260000
 152.0870000 130.6760000  38.3580000 151.9920000 129.3270000  37.2320000
 150.9020000 129.3730000  39.2600000 150.2350000 128.4840000  39.0610000
 150.2780000 130.1470000  39.7480000 152.1850000 128.8630000  40.0210000
 152.8200000 129.6600000  40.3850000 152.6520000 128.2300000  39.2430000
 152.0720000 127.9260000  41.2440000 153.0450000 127.4830000  41.4570000
 151.3920000 127.0660000  40.9820000 151.7060000 128.6530000  42.5610000
 150.7430000 129.1810000  42.4630000 152.2840000 129.5060000  42.5910000
 151.8590000 127.8820000  43.9050000 152.9150000 127.7650000  44.1310000
 151.4610000 126.8980000  43.7900000 151.2800000 128.2360000  44.7570000
 146.4260000 144.4950000  38.1320000 146.6510000 143.4730000  37.9730000
 147.3960000 145.0320000  38.0010000 145.7010000 144.9550000  37.4470000
 145.9520000 144.6760000  39.5370000 144.9370000 144.3000000  39.4300000
 146.5140000 144.1660000  40.3010000 145.8160000 146.1980000  39.8950000
 146.6730000 146.7430000  39.4760000 144.9280000 146.4600000  39.2130000
 145.4880000 146.5830000  41.4000000 146.3750000 146.4340000  42.0680000
 145.3670000 147.6490000  41.5580000 144.3570000 145.7250000  42.0160000
 143.4670000 146.0120000  41.5000000 144.4900000 144.6950000  41.8900000
 144.1470000 146.0810000  43.5710000 144.9620000 145.6520000  44.1710000
 144.0210000 147.1480000  43.7100000 142.8220000 145.5620000  44.1490000
 142.0640000 145.9680000  43.5290000 142.8350000 144.4420000  44.0960000
 142.6300000 146.1230000  45.5340000 142.6120000 147.2150000  45.5190000
 141.5920000 145.9360000  45.7320000 143.5400000 145.7380000  46.6740000
 144.6130000 145.9330000  46.5210000 143.2630000 146.2530000  47.5910000
 143.4110000 144.2430000  47.0260000 143.4820000 143.6790000  46.1420000
 144.3730000 144.0650000  47.5730000 142.2260000 143.7640000  47.9150000
 141.3570000 144.0330000  47.2240000 142.2140000 142.7960000  48.2070000
 141.9410000 144.6170000  49.1700000 142.9340000 144.6510000  49.7330000
 141.7920000 145.6510000  48.9310000 140.6480000 144.1840000  49.9100000
 139.8060000 143.9650000  49.1640000 140.7970000 143.2150000  50.4570000
 140.0670000 145.2590000  50.9060000 139.9870000 146.1980000  50.3450000
 139.0810000 144.9230000  51.1640000 140.8040000 145.4390000  52.2310000
 141.8580000 145.1890000  52.0090000 140.7620000 146.5570000  52.4200000
 140.2480000 144.7570000  53.4470000 139.5890000 145.2660000  54.2960000
 140.6670000 143.4410000  53.4140000 140.1810000 142.5920000  54.5430000
 140.8190000 141.7040000  54.5110000 140.1440000 143.1230000  55.5250000
 138.7710000 142.0410000  54.2420000 138.0620000 142.7940000  54.5750000
 138.6860000 140.7240000  54.9730000 139.5170000 140.0990000  54.6210000
 138.8110000 140.8210000  56.0300000 137.4320000 140.0030000  54.7880000
 136.2270000 140.2490000  55.8140000 136.5390000 139.3260000  57.0820000
 135.9740000 137.9870000  57.1550000 136.2680000 137.5850000  58.1240000
 134.8710000 137.9550000  57.1890000 136.3830000 137.1360000  55.9140000
 135.7160000 136.2020000  55.8460000 136.3990000 137.6700000  54.9790000
 137.7530000 136.4910000  55.9420000 137.8090000 135.3220000  56.7380000
 138.8590000 134.9220000  56.6570000 137.4830000 135.4620000  57.7530000
 137.1300000 134.6380000  56.2240000 138.0220000 135.9490000  54.5850000
 137.3470000 135.0970000  54.3580000 137.9570000 136.8150000  53.8760000
 139.0890000 135.5260000  54.6540000 138.8030000 137.4320000  56.4390000
 139.2400000 137.9860000  55.5690000 139.6070000 136.8840000  56.7740000
 138.3630000 138.0250000  57.3020000 136.3460000 141.6630000  56.2890000
 134.8910000 139.8190000  55.3390000 138.5590000 141.6570000  52.8620000
 137.7890000 142.4820000  52.1200000 137.4020000 143.5610000  52.5580000
 137.6490000 141.9290000  50.7430000 138.6730000 141.7750000  50.3120000
 137.1020000 142.6640000  50.1300000 136.9920000 140.5010000  50.7860000
 137.3760000 139.9600000  51.5990000 137.2800000 139.8930000  49.9000000
 135.4870000 140.4910000  50.9170000 135.1000000 139.4760000  51.0770000
 135.1520000 140.8160000  49.9700000 134.8550000 141.4890000  51.9410000
 135.2790000 142.4880000  51.7760000 135.2200000 141.1200000  52.9200000
 133.3410000 141.6750000  51.8700000 132.9510000 141.7990000  52.8760000
 132.8890000 140.7450000  51.4250000 132.7890000 142.7840000  50.9430000
 133.4970000 143.6010000  51.0480000 131.7580000 143.0880000  51.1550000
 132.7870000 142.3220000  49.5050000 131.9720000 141.5760000  49.2980000
 133.7300000 141.8360000  49.1170000 132.4360000 143.4400000  48.5770000
 131.4280000 143.4790000  48.1650000 133.3060000 144.4000000  48.3190000
 132.9920000 145.1330000  47.6450000 134.7530000 144.4880000  48.6200000
 135.1690000 143.5130000  48.9180000 134.9320000 145.0680000  49.4840000
 135.5160000 144.9900000  47.4040000 134.9950000 145.7400000  46.7220000
 135.5470000 144.1000000  46.7600000 136.9160000 145.5660000  47.7940000
 137.6510000 144.8350000  48.2420000 136.8650000 146.3410000  48.5470000
 137.5130000 146.0390000  46.4560000 136.8310000 146.7180000  46.0530000
 137.5610000 145.2140000  45.7000000 138.9490000 146.5220000  46.7320000
 139.4230000 146.4640000  45.8170000 139.4870000 145.8410000  47.3440000
 139.0660000 147.9640000  47.2540000 138.5940000 148.0000000  48.2740000
 138.3830000 148.5350000  46.6840000 140.4920000 148.4460000  47.3150000
 140.8230000 148.4430000  46.2540000 141.1310000 147.7510000  47.9630000
 140.6910000 149.9000000  47.9190000 141.7000000 150.1450000  47.6960000
 140.6550000 149.8760000  49.0040000 140.0950000 150.7050000  47.4160000
  54.7630000  32.4890000  35.9410000  54.4320000  32.2820000  34.9060000
  55.8540000  32.3220000  35.9800000  54.6680000  33.5510000  36.2270000
  53.9860000  31.5120000  36.8910000  54.0340000  30.4840000  36.4080000
  54.3760000  31.4500000  37.8630000  52.4780000  31.7960000  37.0190000
  52.3380000  32.6930000  37.6330000  52.0480000  32.1270000  36.0680000
  51.6890000  30.5850000  37.4760000  50.6250000  30.6680000  37.2690000
  52.0630000  29.7250000  36.8960000  52.0260000  30.2620000  38.9730000
  53.0270000  29.8650000  39.1550000  51.8860000  31.2760000  39.4860000
  50.9530000  29.3950000  39.5550000  49.9760000  29.5810000  39.2420000
  51.1950000  28.3980000  39.2140000  51.0030000  29.4270000  41.0810000
  51.9260000  28.8110000  41.3170000  51.1790000  30.4800000  41.4250000
  49.8100000  28.7900000  41.6960000  48.9550000  29.5060000  41.5660000
  49.5360000  27.8710000  41.1330000  49.9500000  28.7270000  43.2700000
  50.1150000  29.7920000  43.5850000  48.9650000  28.5280000  43.6950000
  50.9880000  27.8780000  43.9380000  51.9320000  28.3290000  43.7560000
  50.8540000  27.8510000  45.0450000  50.9780000  26.3680000  43.5640000
  50.0400000  25.8980000  43.8000000  51.0190000  26.2330000  42.4970000
  52.1860000  25.6310000  44.1800000  53.1320000  26.2250000  43.8610000
  52.1060000  25.6270000  45.2920000  52.4990000  24.2290000  43.6580000
  52.8200000  24.3110000  42.5920000  53.3860000  23.9060000  44.1900000
  51.3280000  23.2090000  43.7020000  50.4310000  23.5390000  43.2390000
  51.7310000  22.3150000  43.1810000  51.0740000  22.7370000  45.1560000
  50.6910000  23.5370000  45.7750000  50.1840000  22.2090000  45.1240000
  52.1690000  21.9980000  45.7960000  52.5360000  20.8560000  45.5370000
  52.6810000  22.7340000  46.8200000  53.6470000  22.1060000  47.7790000
  53.8100000  22.7750000  48.6260000  53.1770000  21.2400000  48.2660000
  55.0530000  21.7620000  47.1270000  54.9130000  21.1740000  46.2380000
  55.9340000  21.0150000  48.1710000  55.3460000  20.1230000  48.4550000
  56.8880000  20.6150000  47.8960000  56.1280000  21.8210000  49.3780000
  57.0280000  23.1190000  49.5430000  56.0100000  24.3100000  49.3000000
  55.1160000  24.9000000  50.2620000  54.1910000  24.3390000  50.2520000
  55.6510000  24.7590000  51.2040000  54.9660000  26.3940000  49.9370000
  54.4830000  26.9520000  50.7260000  55.9360000  26.8500000  49.7820000
  54.2000000  26.8520000  48.7200000  54.1020000  28.3380000  48.7430000
  55.0130000  28.7340000  48.3010000  53.2620000  28.6500000  48.0510000
  53.9580000  28.7070000  49.7510000  54.8740000  26.5730000  47.4280000
  54.9100000  25.5470000  47.4470000  54.2890000  26.9640000  46.5410000
  55.9050000  27.0570000  47.3400000  52.8690000  26.2080000  48.7150000
  52.3160000  26.7950000  47.9830000  52.4520000  26.2930000  49.7030000
  52.9300000  25.1910000  48.3430000  57.4160000  23.0980000  50.9560000
  58.0950000  23.1080000  48.5380000  55.6380000  23.0120000  46.7370000
  56.7230000  23.0320000  45.8930000  57.2330000  21.9560000  45.4850000
  57.1640000  24.4040000  45.3740000  58.2020000  24.4410000  45.2400000
  56.8840000  25.0880000  46.1050000  56.4080000  24.8170000  44.0460000
  55.3480000  24.8630000  44.2140000  56.7060000  24.1000000  43.3440000
  56.7570000  26.2500000  43.6650000  57.8790000  26.2860000  43.7760000
  56.3030000  26.9840000  44.3300000  56.5380000  26.4800000  42.1790000
  57.0050000  25.6250000  41.6630000  57.0780000  27.4550000  42.0180000
  55.0350000  26.4820000  41.6820000  54.3840000  27.1990000  42.1310000
  54.6320000  25.5300000  41.9520000  55.0210000  26.7740000  40.1860000
  55.9990000  26.5600000  39.7260000  54.7700000  27.8270000  40.0500000
  54.1930000  25.8730000  39.2720000  54.4820000  26.0370000  38.2410000
  53.1460000  26.1390000  39.4840000  54.4940000  24.4120000  39.6160000
  55.0960000  24.2690000  40.5240000  54.2540000  23.3460000  38.9010000
  54.7300000  22.4450000  39.1340000  53.2870000  23.3350000  37.6910000
  53.1710000  24.3920000  37.3920000  52.2120000  23.0240000  37.9140000
  53.8710000  22.4760000  36.5650000  54.4070000  21.6290000  37.0560000
  54.5710000  23.0370000  35.9260000  52.6920000  21.9840000  35.6650000
  52.2010000  22.9070000  35.2690000  52.0980000  21.3220000  36.2140000
  53.1110000  21.1850000  34.4110000  53.9640000  20.6690000  34.7700000
  53.5720000  21.9080000  33.7970000  52.1580000  20.1550000  33.6850000
  51.2060000  20.4550000  33.3370000  51.9610000  19.3400000  34.3830000
  52.7790000  19.5600000  32.4180000  52.0710000  18.9160000  31.9650000
  53.6530000  18.9580000  32.6750000  53.2760000  20.6340000  31.4450000
  53.8210000  20.1550000  30.6210000  54.0610000  21.2930000  31.8540000
  52.0800000  21.3930000  30.9030000  52.4130000  21.9310000  30.0580000
  51.6710000  22.0810000  31.7310000  51.2850000  20.8410000  30.4560000
 121.6900000 147.7980000  39.0250000 122.6530000 148.3040000  38.6380000
 120.8270000 148.0490000  38.3850000 121.8970000 146.7150000  39.1120000
 121.3210000 148.4270000  40.4010000 120.9760000 149.4450000  40.3840000
 120.5440000 147.8320000  40.8560000 122.5730000 148.4460000  41.2640000
 123.1920000 147.5870000  40.9520000 123.1020000 149.3720000  41.0660000
 122.3560000 148.3600000  42.7710000 121.9180000 147.4060000  43.0280000
 123.2460000 148.5160000  43.2390000 121.3780000 149.4490000  43.3640000
 121.7600000 150.4330000  43.2340000 120.3880000 149.4420000  42.9290000
 121.1500000 149.2060000  44.8010000 120.5670000 148.2460000  44.9150000
 122.1040000 149.1690000  45.3070000 120.4120000 150.2890000  45.6130000
 120.9720000 151.1550000  45.4680000 119.4310000 150.3680000  45.1570000
 120.3060000 149.9170000  47.0810000 119.9490000 148.9290000  47.1470000
 121.2940000 149.8990000  47.4290000 119.4880000 150.9780000  47.8000000
 119.8550000 152.0070000  47.6680000 118.4370000 150.8970000  47.5070000
 119.6820000 150.7070000  49.3180000 119.2320000 149.8080000  49.5790000
 120.7610000 150.5220000  49.3940000 119.2740000 151.8670000  50.1800000
 119.6390000 152.8090000  49.8020000 118.1290000 151.9740000  50.2270000
 119.6670000 151.8090000  51.7270000 120.7470000 151.6200000  51.7040000
 119.3640000 152.8470000  52.0350000 118.9420000 150.7870000  52.6160000
 119.4920000 149.8050000  52.5920000 119.1250000 151.0630000  53.6270000
 117.4730000 150.5040000  52.5400000 117.0120000 151.4850000  52.4550000
 117.1740000 149.9100000  51.7190000 116.8190000 149.7820000  53.7070000
 117.2550000 150.1780000  54.6770000 115.7260000 149.9520000  53.5790000
 116.9880000 148.3010000  53.8170000 116.1030000 147.6630000  54.4040000
 118.0530000 147.7630000  53.2260000 118.1230000 146.3030000  53.2760000
 119.1250000 146.0840000  52.9670000 118.0020000 145.9820000  54.2770000
 117.1420000 145.6890000  52.2970000 116.2070000 145.6120000  52.7940000
 117.5300000 144.1790000  52.0060000 117.6830000 143.9840000  50.9330000
 118.3690000 143.8680000  52.5790000 116.3570000 143.3950000  52.4720000
 116.3600000 142.7730000  53.9890000 117.3190000 141.5510000  53.8320000
 117.0470000 140.5210000  52.8800000 116.0400000 140.7370000  52.3610000
 117.7880000 140.6220000  52.0530000 117.1600000 139.1090000  53.5050000
 116.8460000 138.3200000  52.7930000 118.2180000 138.8830000  53.8480000
 116.2570000 138.9240000  54.6770000 116.1920000 137.4500000  55.0640000
 115.9540000 136.9040000  54.1350000 117.1550000 137.1880000  55.4740000
 115.4650000 137.2930000  55.8180000 116.6110000 139.7610000  55.8940000
 116.4010000 139.2940000  56.8540000 117.6750000 139.7370000  55.8710000
 116.1340000 140.7590000  55.8610000 114.8450000 139.2710000  54.2900000
 114.6310000 139.0350000  53.2600000 114.6860000 140.3350000  54.4420000
 114.2570000 138.7280000  54.9250000 116.9830000 143.7470000  54.9090000
 115.0000000 142.3990000  54.2520000 117.1700000 146.3680000  51.0430000
 116.0280000 146.5900000  50.3550000 114.9170000 146.4260000  50.6900000
 116.3830000 147.2220000  49.0130000 116.0130000 146.6620000  48.1510000
 117.4740000 147.3560000  48.8690000 115.7240000 148.6320000  48.8640000
 116.2310000 149.2980000  49.5810000 114.7380000 148.5340000  49.1560000
 115.7830000 149.1310000  47.4350000 115.6150000 148.2760000  46.7650000
 116.8030000 149.3930000  47.1790000 114.9940000 150.4710000  47.2180000
 115.5450000 151.3130000  47.6590000 113.9980000 150.3940000  47.6100000
 114.8370000 150.6740000  45.6720000 114.2130000 151.5880000  45.5920000
 114.2590000 149.8050000  45.2900000 116.2120000 150.9810000  44.9720000
 116.8210000 150.0960000  45.0610000 116.7700000 151.8460000  45.4030000
 115.9690000 151.1800000  43.4300000 115.2800000 152.0770000  43.3430000
 115.4900000 150.3310000  43.0140000 117.2160000 151.5520000  42.6130000
 117.9650000 152.2330000  43.1060000 117.5230000 151.0050000  41.3890000
 118.3220000 151.5470000  40.8660000 116.7210000 149.9550000  40.6090000
 116.2320000 149.2630000  41.3570000 117.4740000 149.3400000  40.0530000
 115.7450000 150.5190000  39.5390000 116.3090000 151.0490000  38.8740000
 114.9730000 151.1860000  39.9130000 114.9800000 149.3210000  38.8720000
 114.3350000 148.8120000  39.5420000 115.7270000 148.6200000  38.5730000
 114.2820000 149.7190000  37.5410000 114.8680000 150.5210000  37.0550000
 113.3610000 150.1500000  37.8200000 114.0610000 148.6010000  36.5260000
 114.9510000 148.3790000  35.9920000 113.2270000 148.8140000  35.8370000
 113.7070000 147.1870000  37.1330000 112.9310000 147.3180000  37.8750000
 114.6230000 146.8170000  37.6550000 113.2030000 146.0570000  36.0930000
 112.1810000 146.3370000  35.7370000 113.1400000 145.2260000  36.7480000
 114.0930000 145.6560000  34.9330000 113.5380000 145.0400000  34.2720000
 115.0100000 145.1460000  35.3280000 114.4640000 146.4500000  34.3560000
  34.9270000  -2.3070000  43.4080000  35.6310000  -3.1190000  43.4590000
  34.0120000  -2.7500000  43.8600000  35.3480000  -1.4380000  43.9330000
  34.7560000  -1.7730000  41.9820000  35.6390000  -1.1570000  41.6960000
  34.7260000  -2.6390000  41.2980000  33.5390000  -0.9890000  41.7170000
  33.4690000  -0.8930000  40.6640000  32.6510000  -1.5070000  41.9420000
  33.6740000   0.4110000  42.2770000  33.7210000   0.5660000  43.3500000
  34.6310000   0.8410000  42.0200000  32.4660000   1.1730000  41.6030000
  32.5330000   1.0150000  40.5150000  31.4670000   0.6830000  41.7960000
  32.3880000   2.6640000  41.8450000  32.2240000   2.8140000  42.8830000
  33.3240000   3.2560000  41.6950000  31.2460000   3.3980000  41.0850000
  31.6760000   3.8090000  40.2320000  30.4580000   2.6160000  40.9790000
  30.4680000   4.5600000  41.8250000  29.7610000   4.1850000  42.5660000
  31.1680000   5.0470000  42.4720000  29.9940000   5.6840000  40.9590000
  30.7570000   5.9980000  40.2980000  29.1460000   5.3030000  40.4280000
  29.6250000   6.9030000  41.7890000  30.5320000   7.0370000  42.3500000
  29.5040000   7.7830000  41.1690000  28.2730000   6.7770000  42.5660000
  27.5220000   6.4480000  41.9640000  28.5390000   6.0690000  43.3470000
  27.8180000   8.0380000  43.3560000  28.5030000   8.2710000  44.2300000
  27.8580000   8.8420000  42.6400000  26.3460000   7.8730000  43.8060000
  25.7930000   7.1430000  43.2220000  26.4000000   7.4690000  44.8030000
  25.5220000   9.1720000  43.8780000  25.5260000   9.5120000  42.8680000
  24.4510000   9.1090000  44.0910000  26.0400000  10.2960000  44.7770000
  27.0750000  10.5260000  44.5500000  25.6070000  11.2310000  44.5000000
  25.7950000  10.0870000  46.2080000  25.0460000   9.2560000  46.6920000
  26.5200000  10.9210000  46.9530000  26.4480000  10.8180000  48.4120000
  26.8830000  11.6260000  48.8720000  25.4160000  10.8260000  48.7600000
  27.1450000   9.5630000  48.9960000  26.5210000   8.6630000  48.8490000
  27.6820000   9.8350000  50.3890000  26.8780000  10.1410000  50.9890000
  28.1640000   8.9010000  50.7840000  28.7510000  10.8430000  50.3680000
  29.7650000  11.1160000  51.5510000  29.4580000  12.4590000  52.1510000
  29.6390000  13.7230000  51.4000000  30.0450000  14.4590000  52.1420000
  30.4450000  13.6720000  50.5850000  28.2670000  14.1730000  50.8180000
  28.3210000  15.1040000  50.2920000  28.1020000  13.3930000  50.0860000
  27.0640000  14.3450000  51.6800000  26.6020000  13.0990000  52.2570000
  27.3960000  12.5070000  52.6950000  25.8680000  13.2730000  52.9970000
  26.1860000  12.4910000  51.4900000  27.4160000  15.3080000  52.7740000
  28.1460000  14.8900000  53.4390000  27.7490000  16.2290000  52.3180000
  26.4660000  15.4910000  53.2910000  26.0350000  14.9520000  50.8830000
  25.7470000  14.2970000  50.0810000  26.5240000  15.8490000  50.5390000
  25.2290000  15.1560000  51.4890000  29.4660000  10.1440000  52.5440000
  31.1260000  11.1850000  50.9960000  28.3620000   9.3010000  48.1320000
  29.2480000   8.2710000  48.4310000  29.0110000   7.3000000  49.2010000
  30.5200000   8.4580000  47.6460000  30.9400000   9.3310000  48.0760000
  30.2310000   8.5440000  46.6430000  31.4470000   7.2060000  47.7020000
  31.3860000   6.7110000  48.6440000  32.5240000   7.4340000  47.3640000
  30.8490000   6.0410000  46.7410000  30.3680000   6.5020000  45.8710000
  29.9510000   5.5970000  47.2100000  31.9430000   5.0540000  46.3090000
  32.5470000   4.7390000  47.1710000  32.7370000   5.6330000  45.7040000
  31.3860000   3.8680000  45.4560000  32.1920000   3.2500000  44.9960000
  30.9330000   4.2880000  44.5750000  30.4730000   2.9920000  46.2160000
  29.9220000   3.3270000  46.9660000  31.1410000   2.1460000  46.5120000
  29.3510000   2.6150000  45.2720000  28.9290000   1.6630000  45.6860000
  29.6620000   2.5840000  44.1990000  28.2730000   3.7250000  45.3610000
  28.3150000   4.4230000  46.2710000  27.2660000   3.9050000  44.5480000
  26.7720000   4.8510000  44.6060000  26.8020000   3.1300000  43.3980000
  26.7850000   2.0640000  43.7350000  27.3830000   3.3400000  42.4700000
  25.2280000   3.3760000  43.2490000  25.0710000   4.4380000  42.9320000
  24.7340000   3.2070000  44.2060000  24.6350000   2.4140000  42.1620000
  23.5550000   2.3310000  42.2830000  24.9950000   1.4450000  42.2920000
  24.8900000   2.8670000  40.7120000  25.9420000   3.0390000  40.4910000
  24.2770000   3.8070000  40.5860000  24.3780000   1.7580000  39.7930000
  23.4710000   1.3050000  40.1570000  25.1530000   1.0560000  39.5820000
  23.9710000   2.3270000  38.3920000  23.9670000   1.5580000  37.5700000
  24.5590000   3.0800000  37.9540000  22.6050000   2.9170000  38.4420000
  22.7110000   3.8560000  38.9720000  21.9240000   2.2620000  38.9990000
  22.0230000   3.2470000  37.0760000  22.7380000   3.8520000  36.4400000
  21.1150000   3.7740000  37.2150000  21.8860000   2.3650000  36.4450000
 107.6790000  94.3070000  31.0340000 107.7440000  94.8990000  30.1440000
 106.9610000  93.4800000  30.8870000 108.6470000  93.9570000  31.0930000
 107.4620000  95.1710000  32.3580000 107.7960000  96.1320000  32.1610000
 106.3950000  95.2190000  32.5970000 108.1530000  94.5640000  33.5720000
 107.8220000  93.5060000  33.7020000 109.2410000  94.6520000  33.3410000
 107.7070000  95.3450000  34.8110000 107.6770000  96.4300000  34.5840000
 106.6690000  95.1760000  34.9890000 108.5190000  95.0320000  36.1170000
 108.0400000  95.7010000  36.8170000 108.1810000  94.0680000  36.4640000
 110.0560000  95.2880000  35.9070000 110.2960000  94.5420000  35.1240000
 110.2410000  96.3160000  35.5920000 111.1280000  94.9440000  37.0110000
 111.1580000  93.8500000  37.1030000 112.1540000  95.1460000  36.7010000
 110.9530000  95.5980000  38.4270000 110.2720000  94.9210000  38.9390000
 111.9250000  95.4340000  38.9590000 110.5580000  97.0600000  38.4290000
 111.0600000  97.6530000  37.6680000 109.5450000  97.1030000  37.9640000
 110.4260000  97.7310000  39.7660000 111.3670000  97.8560000  40.3800000
 110.0820000  98.7310000  39.7090000 109.4640000  96.7580000  40.4650000
 108.5870000  96.4910000  39.8290000 110.0660000  95.8970000  40.6920000
 108.9000000  97.4120000  41.7500000 108.3750000  98.2880000  41.4250000
 108.1860000  96.7570000  42.2780000 109.9720000  97.9080000  42.7830000
 110.6660000  97.1030000  42.8920000 110.5790000  98.7720000  42.4320000
 109.4370000  98.1550000  44.1810000 108.8990000  97.2270000  44.3890000
 110.2530000  98.2450000  45.0020000 108.4660000  99.3250000  44.2110000
 109.1420000 100.1560000  44.0030000 107.8740000  99.1430000  43.2970000
 107.5830000  99.3980000  45.3750000 107.1590000  98.4320000  45.9920000
 107.3180000 100.6810000  45.7540000 106.3700000 100.8820000  46.8600000
 105.7730000 101.7560000  46.5930000 105.6240000 100.0440000  46.7640000
 107.0870000 101.0250000  48.2520000 106.3770000 101.0940000  49.0570000
 107.8940000 102.3260000  48.1470000 108.3860000 102.5120000  49.0630000
 108.6310000 102.2230000  47.2640000 106.9830000 103.4350000  47.8760000
 105.8620000 103.9210000  48.9900000 104.6460000 103.0160000  48.7480000
 103.7830000 102.6050000  49.9420000 104.1520000 103.1570000  50.8730000
 102.7460000 102.8440000  49.7070000 103.9080000 101.0870000  50.0680000
 103.5620000 100.5890000  49.1520000 104.9180000 100.7780000  50.2140000
 103.2330000 100.4950000  51.2390000 101.7320000 100.6740000  51.0230000
 101.5450000 101.7740000  50.9620000 101.4080000 100.1900000  50.1290000
 101.3020000 100.2090000  51.8870000 103.3660000  99.0220000  51.2770000
 102.9730000  98.7680000  50.3240000 104.4170000  98.7880000  51.4840000
 102.6110000  98.7490000  52.0410000 103.5350000 101.1200000  52.5440000
 102.9350000 100.6490000  53.3040000 103.1100000 102.1320000  52.4930000
 104.6430000 101.0490000  52.6950000 106.3830000 103.4820000  50.3420000
 105.5250000 105.3360000  48.8580000 107.9410000  99.8760000  48.4530000
 107.3600000  98.7970000  48.9910000 106.1870000  98.6520000  49.2140000
 108.4340000  97.8170000  49.2150000 108.9540000  98.1900000  50.0530000
 109.1260000  97.8490000  48.4010000 108.0310000  96.3290000  49.6170000
 107.3820000  96.3500000  50.4770000 108.9600000  95.8390000  49.9590000
 107.4920000  95.5380000  48.4160000 108.2330000  95.6430000  47.6200000
 106.5960000  96.0230000  48.0250000 107.2050000  94.0690000  48.8580000
 106.3490000  94.1450000  49.4880000 108.0160000  93.6370000  49.4390000
 107.0060000  93.1220000  47.5850000 107.7620000  93.3020000  46.8910000
 106.0420000  93.3780000  47.1820000 107.0240000  91.6130000  47.9060000
 106.1430000  91.4430000  48.5980000 107.9510000  91.2530000  48.4190000
 106.8140000  90.7880000  46.6170000 107.7630000  90.9310000  46.0810000
 105.9950000  91.2390000  45.9640000 106.6460000  89.2800000  46.9610000
 107.0030000  88.8570000  47.8800000 106.0590000  88.3830000  46.1320000
 105.9310000  87.3630000  46.4960000 105.2590000  88.7620000  44.8910000
 104.8740000  89.7010000  45.0300000 104.4460000  88.0220000  44.8240000
 106.0220000  88.7090000  43.5240000 106.7180000  87.8580000  43.3880000
 106.6010000  89.6490000  43.4690000 105.0260000  88.6390000  42.3680000
 104.2590000  89.4100000  42.2930000 104.6180000  87.6210000  42.3990000
 105.8310000  88.7440000  41.0280000 105.0960000  88.5650000  40.2680000
 106.6320000  88.1100000  41.0070000 106.5120000  90.1360000  40.8760000
 107.1860000  90.3050000  41.6870000 105.7260000  90.8410000  40.8620000
 107.2890000  90.4920000  39.5340000 107.8320000  91.4030000  39.6600000
 106.5690000  90.5890000  38.7350000 108.3180000  89.3780000  39.2110000
 107.8700000  88.3360000  39.1540000 109.0010000  89.2130000  40.0120000
 109.0390000  89.7850000  37.9430000 109.9040000  89.1170000  37.8850000
 109.5500000  90.7390000  38.0440000 108.5040000  89.8480000  37.0200000
 142.7760000  74.8400000  33.7360000 142.7850000  75.2870000  32.7470000
 142.3460000  73.7920000  33.7910000 143.8020000  74.8580000  34.0740000
 141.8730000  75.7120000  34.6780000 141.8530000  75.1340000  35.5830000
 142.3730000  76.6270000  34.8360000 140.4450000  75.9260000  34.3500000
 140.3620000  76.2610000  33.2680000 139.9830000  74.9380000  34.3160000
 139.6740000  76.8590000  35.3360000 140.0810000  77.8650000  35.2520000
 138.6090000  76.9710000  34.9970000 139.7740000  76.5030000  36.8420000
 140.2830000  75.5270000  36.9410000 140.3880000  77.1570000  37.3310000
 138.3900000  76.3700000  37.4680000 137.9980000  77.3170000  37.4880000
 137.8110000  75.6100000  36.9510000 138.5970000  75.8370000  38.8810000
 139.1460000  74.9490000  38.7240000 139.2970000  76.4870000  39.4450000
 137.2950000  75.5220000  39.6390000 136.7140000  76.3990000  39.6850000
 136.7680000  74.7980000  38.9170000 137.4230000  74.7860000  40.9460000
 136.4580000  74.4270000  41.2510000 138.0690000  73.9170000  40.7460000
 138.0580000  75.6430000  42.0580000 138.9320000  76.0590000  41.5170000
 137.3970000  76.4650000  42.3590000 138.5190000  74.8410000  43.2920000
 137.7430000  74.1010000  43.6690000 139.4330000  74.2190000  43.0610000
 138.9180000  75.8200000  44.4640000 139.4160000  76.6940000  44.0120000
 138.1200000  76.1510000  45.1620000 140.0270000  75.0810000  45.2230000
 139.7220000  73.9950000  45.3670000 140.9560000  75.2120000  44.6530000
 140.1070000  75.7380000  46.6150000 141.0390000  75.4780000  47.1020000
 140.1640000  76.8850000  46.4190000 138.8690000  75.6260000  47.4880000
 138.1210000  76.3490000  47.1860000 138.3930000  74.6720000  47.5460000
 139.1440000  75.9920000  48.9600000 139.9270000  75.4250000  49.6730000
 138.4250000  77.0430000  49.2610000 138.6700000  77.8370000  50.4850000
 137.9360000  77.6670000  51.2770000 139.6790000  77.5350000  50.8220000
 138.8240000  79.3640000  50.1470000 139.8420000  79.4710000  49.6800000
 138.6940000  80.2480000  51.4270000 137.6330000  80.1470000  51.7310000
 139.3920000  79.8040000  52.1940000 139.1570000  81.6330000  51.2380000
 138.9650000  82.6900000  52.4150000 137.3770000  82.6330000  52.6760000
 136.4620000  83.7430000  52.5410000 136.6100000  84.3820000  53.4210000
 136.7260000  84.3130000  51.6660000 135.0540000  83.1700000  52.9120000
 134.9760000  82.7730000  53.9180000 134.2740000  83.9560000  52.8730000
 134.4580000  82.0820000  52.0930000 132.9860000  82.0020000  52.3460000
 132.7590000  81.7800000  53.3920000 132.5830000  83.0110000  52.0650000
 132.5960000  81.2660000  51.7150000 134.6110000  82.4220000  50.6040000
 134.0720000  83.3260000  50.3430000 135.6420000  82.6380000  50.4170000
 134.2360000  81.6080000  50.0420000 135.0100000  80.7370000  52.4280000
 134.8100000  80.6550000  53.4280000 136.0500000  80.6380000  52.1790000
 134.4160000  79.9870000  51.9660000 139.6210000  82.0920000  53.6310000
 139.3530000  83.9930000  51.9420000 137.8740000  79.8220000  49.1850000
 136.6360000  79.3610000  49.1330000 136.0060000  78.7690000  50.0170000
 136.0630000  79.7500000  47.7890000 136.5970000  80.6240000  47.2820000
 135.0600000  80.2060000  47.9000000 136.1610000  78.5830000  46.7760000
 135.9230000  77.6760000  47.2810000 137.0920000  78.4780000  46.3040000
 135.1490000  78.8380000  45.6440000 134.8560000  79.9020000  45.4980000
 134.1880000  78.4000000  46.0050000 135.4650000  78.2150000  44.2720000
 135.2490000  77.1640000  44.3830000 136.5370000  78.2460000  44.1730000
 134.7620000  78.8910000  43.0210000 133.6830000  78.7870000  43.0930000
 134.9760000  78.2630000  42.0880000 135.0010000  80.3780000  42.7110000
 134.6260000  80.9090000  43.5490000 134.3090000  80.5900000  41.9130000
 136.4560000  80.8840000  42.4730000 136.3250000  81.9110000  42.0440000
 136.8940000  80.1830000  41.8010000 137.1230000  80.9340000  43.8360000
 136.4300000  81.4450000  44.5530000 138.2540000  80.3610000  44.2010000
 138.6410000  80.4600000  45.2340000 139.1340000  79.4760000  43.3830000
 138.6220000  78.7790000  42.7820000 139.8150000  78.8810000  44.0130000
 140.0160000  80.2130000  42.3710000 140.6210000  81.0120000  42.7000000
 139.4180000  80.8550000  41.7340000 140.8050000  79.1140000  41.5970000
 140.0730000  78.3480000  41.2400000 141.5110000  78.5610000  42.2750000
 141.5550000  79.6980000  40.3950000 142.1930000  80.4960000  40.7610000
 140.7380000  79.9740000  39.6910000 142.5310000  78.5500000  39.8100000
 141.9980000  77.9380000  39.0640000 142.6870000  77.8080000  40.6270000
 143.7040000  79.0350000  38.9760000 144.4480000  78.2980000  38.7710000
 144.2560000  79.7950000  39.6090000 143.3650000  79.7520000  37.6030000
 144.2280000  80.2660000  37.1770000 142.6290000  80.5280000  37.7510000
 142.7910000  78.7070000  36.7320000 141.7070000  78.5320000  36.9180000
 143.3750000  77.7650000  36.7800000 142.8490000  79.0860000  35.6920000
  21.1140000  59.9720000  36.4710000  21.7340000  60.5980000  35.8590000
  20.0950000  60.4480000  36.5280000  21.0920000  59.0420000  35.7790000
  21.6980000  59.5930000  37.7950000  21.1680000  58.6020000  38.0700000
  22.7350000  59.3120000  37.7770000  21.5470000  60.5900000  38.9520000
  22.0890000  61.4130000  38.6760000  20.4980000  60.9360000  39.1020000
  22.2330000  60.1290000  40.2940000  21.8720000  59.1340000  40.5190000
  23.2600000  60.1460000  40.2130000  21.9440000  61.0930000  41.4580000
  22.1230000  62.1920000  41.3970000  20.8210000  61.1110000  41.5900000
  22.7180000  60.6410000  42.6890000  22.3770000  59.6330000  42.9780000
  23.7220000  60.6320000  42.3340000  22.5320000  61.4330000  43.9590000
  22.7770000  62.4450000  43.6030000  21.4560000  61.5040000  44.2980000
  23.4520000  61.0580000  45.1350000  24.4450000  61.3030000  44.8320000
  23.1680000  61.6380000  46.0060000  23.5230000  59.5720000  45.5080000
  22.6880000  59.2780000  46.1770000  23.6080000  58.9000000  44.6910000
  24.7370000  59.3780000  46.3840000  25.6230000  59.5660000  45.7690000
  24.6070000  60.1610000  47.1450000  24.8160000  58.1740000  47.3070000
  24.8570000  57.3030000  46.6850000  25.7250000  58.2730000  47.8750000
  23.6670000  57.9900000  48.2750000  23.5230000  58.9130000  48.8450000
  22.7710000  57.8950000  47.7350000  23.8620000  56.7350000  49.1590000
  24.0200000  55.8710000  48.5330000  24.8250000  56.7960000  49.6950000
  22.7870000  56.4130000  50.1610000  21.8800000  56.2310000  49.5790000
  23.1030000  55.5220000  50.6790000  22.5760000  57.5050000  51.1470000
  22.3190000  58.4420000  50.6100000  21.6480000  57.2570000  51.6830000
  23.7000000  57.8540000  52.1300000  24.5430000  57.0980000  52.5580000
  23.5540000  59.0870000  52.5220000  24.4490000  59.7420000  53.5200000
  23.8850000  60.6040000  53.8960000  24.6970000  59.0680000  54.3200000
  25.7210000  60.1600000  52.7090000  25.9800000  59.3050000  52.0870000
  26.8680000  60.4510000  53.7640000  26.9760000  59.6510000  54.4650000
  27.7770000  60.4890000  53.1900000  26.6820000  61.7400000  54.4190000
  25.7300000  62.0420000  55.7040000  24.2790000  62.5170000  55.3050000
  24.0630000  63.7000000  54.5130000  25.0020000  64.2560000  54.4330000
  23.6910000  63.3640000  53.4830000  23.0450000  64.6060000  55.2680000
  22.6090000  65.3860000  54.6190000  22.2360000  63.9460000  55.5540000
  23.4970000  65.3100000  56.5240000  22.5060000  66.2630000  56.9120000
  22.3010000  66.8690000  56.0200000  21.5840000  65.6950000  57.0160000
  22.7830000  66.8890000  57.8020000  23.6330000  64.3340000  57.6510000
  24.0060000  64.9090000  58.4800000  22.6460000  63.8560000  57.8100000
  24.4420000  63.6350000  57.3300000  24.8210000  65.9330000  56.2930000
  24.8110000  66.9620000  55.7240000  25.4950000  65.2580000  55.7160000
  25.2450000  66.0930000  57.2920000  25.4510000  60.7530000  56.2870000
  26.2880000  63.1300000  56.5560000  25.4010000  61.2220000  51.8150000
  26.2930000  61.2840000  50.7660000  27.2680000  60.5700000  50.6030000
  25.9450000  62.2770000  49.7830000  26.0910000  63.2290000  50.2380000
  24.8290000  62.1850000  49.6260000  26.8170000  62.2030000  48.4820000
  26.7410000  61.1950000  48.0390000  27.9240000  62.4030000  48.6220000
  26.4060000  63.3070000  47.5330000  26.6730000  64.3150000  47.8890000
  25.3680000  63.2180000  47.3100000  27.0160000  63.3080000  46.1890000
  26.6280000  62.4750000  45.5920000  28.0920000  63.1680000  46.2790000
  26.7310000  64.5640000  45.2760000  26.7870000  65.4590000  45.9140000
  25.7030000  64.5510000  44.9150000  27.6090000  64.6970000  44.0860000
  28.6560000  64.7630000  44.2970000  27.5400000  65.7060000  43.6890000
  27.3460000  63.6690000  42.9720000  27.8000000  64.0890000  42.0850000
  26.2680000  63.4810000  42.8430000  28.0300000  62.3230000  43.2870000
  28.7540000  62.3130000  44.0750000  27.6420000  61.2150000  42.6370000
  28.0700000  60.2390000  42.9920000  26.7090000  61.1320000  41.4550000
  26.1580000  62.0810000  41.3830000  26.0120000  60.3590000  41.5200000
  27.5850000  60.9290000  40.2050000  28.3000000  60.1050000  40.3920000
  28.1910000  61.8430000  40.1010000  26.7570000  60.4050000  38.9290000
  25.7960000  59.8310000  39.2390000  27.3230000  59.7370000  38.3170000
  26.3310000  61.6110000  38.0280000  26.1380000  61.2710000  37.0640000
  27.1070000  62.3530000  38.1850000  25.0600000  62.3610000  38.5270000
  25.1310000  62.6200000  39.6020000  24.2260000  61.6510000  38.4920000
  24.4610000  63.6090000  37.8530000  23.4640000  63.7250000  38.2710000
  24.3930000  63.3700000  36.7390000  25.4120000  64.8300000  38.1680000
  26.4600000  64.7210000  37.6750000  25.6280000  64.8850000  39.2970000
  24.8210000  66.0910000  37.5930000  24.8140000  66.0120000  36.4890000
  25.3910000  66.9610000  37.7810000  23.8580000  66.3040000  37.9490000
 106.8570000  29.5240000  35.5850000 106.9900000  30.4490000  36.1180000
 106.3200000  29.7650000  34.6960000 107.7960000  29.1610000  35.1970000
 105.9940000  28.5640000  36.4710000 106.0220000  27.5290000  35.9480000
 106.4920000  28.4470000  37.4610000 104.4920000  28.9650000  36.6580000
 103.9420000  28.5040000  35.8420000 104.0700000  28.3760000  37.5370000
 104.2490000  30.4100000  37.0700000 104.8780000  31.1290000  36.5330000
 103.2350000  30.7460000  36.9060000 104.4070000  30.5230000  38.6110000
 103.9840000  29.7180000  39.1420000 105.4720000  30.3860000  38.7780000
 103.8490000  31.8060000  39.1310000 104.4180000  31.9730000  40.0090000
 104.1070000  32.6110000  38.3440000 102.3450000  31.8070000  39.4390000
 101.8580000  31.4900000  38.5780000 102.1730000  31.0840000  40.2350000
 101.8790000  33.2360000  39.8030000 101.9990000  33.8870000  38.9720000
 100.7420000  33.2020000  39.8470000 102.4170000  33.9360000  41.0710000
 103.4850000  34.1180000  40.9340000 101.8540000  34.8600000  41.1470000
 102.3510000  33.0610000  42.3710000 102.9080000  32.1590000  42.1100000
 102.7930000  33.6690000  43.1950000 100.9660000  32.4500000  42.7390000
 100.6330000  31.6940000  42.0400000 101.0800000  32.0400000  43.7440000
  99.8510000  33.4520000  42.7830000  99.7750000  34.0520000  41.8780000
  98.8860000  32.9550000  42.7700000  99.8640000  34.2690000  44.0810000
  99.7800000  33.6150000  44.9430000 100.7260000  34.8820000  44.2700000
  98.8010000  35.3350000  44.1890000  98.6620000  35.7810000  43.2260000
  97.8830000  34.8150000  44.4300000  98.9490000  36.4170000  45.2410000
  99.9480000  36.9300000  45.2170000  98.2820000  37.2190000  44.9130000
  98.7170000  35.9740000  46.5800000  99.1010000  34.8790000  46.9150000
  98.2430000  36.8950000  47.3690000  98.0150000  36.6410000  48.8140000
  97.7950000  35.5690000  49.0370000  98.8730000  36.9290000  49.4000000
  96.7070000  37.3580000  49.1510000  96.6740000  38.2100000  48.4200000
  96.6430000  38.1310000  50.5510000  97.4310000  38.7720000  50.6200000
  95.6720000  38.5800000  50.6060000  96.6980000  37.1780000  51.6690000
  98.0150000  36.9400000  52.5180000  98.2930000  35.4240000  52.2120000
  97.4910000  34.4970000  52.8480000  97.5590000  34.7230000  53.9190000
  96.3900000  34.6460000  52.5500000  97.8350000  33.0970000  52.2940000
  97.9150000  33.0560000  51.2000000  98.7960000  32.8980000  52.7700000
  96.9160000  32.0340000  52.8240000  97.0800000  31.9210000  54.3190000
  98.1040000  31.6640000  54.4970000  96.7040000  32.8270000  54.8070000
  96.3730000  31.1440000  54.6210000  95.4280000  32.2800000  52.5640000
  95.1570000  32.1810000  51.5210000  94.9510000  31.5040000  53.1250000
  95.2670000  33.2760000  52.9530000  97.3250000  30.7100000  52.1990000
  98.3560000  30.7100000  52.3190000  97.0210000  30.6050000  51.1950000
  96.9270000  29.9780000  52.8220000  99.0790000  37.8320000  51.9580000
  97.7800000  37.0440000  54.0040000  95.5190000  36.4850000  49.0060000
  94.4390000  37.0760000  48.5520000  94.2340000  38.2410000  48.2790000
  93.3680000  36.0050000  48.3700000  92.5670000  36.1880000  49.0840000
  93.7980000  35.0800000  48.6420000  92.8870000  35.9120000  46.8400000
  92.1550000  36.6500000  46.5490000  92.4950000  34.9160000  46.6840000
  94.1200000  35.9520000  45.8040000  94.4370000  36.9940000  45.6390000
  95.0170000  35.4190000  46.1350000  93.7020000  35.2240000  44.4790000
  92.8180000  35.6860000  44.1260000  93.5750000  34.1160000  44.6880000
  94.8130000  35.3380000  43.4500000  95.6950000  35.4760000  43.9590000
  94.5680000  36.3040000  42.8340000  94.8690000  34.2800000  42.3970000
  93.9570000  34.1810000  41.8580000  95.1120000  33.2880000  42.8040000
  95.9870000  34.5520000  41.3820000  96.0560000  33.6670000  40.8000000
  96.9110000  34.5050000  41.8680000  95.6450000  35.7700000  40.6030000
  94.5640000  36.0190000  40.6160000  96.5380000  36.4010000  39.8330000
  96.2430000  37.2780000  39.2420000  98.0530000  36.2460000  39.7880000
  98.2690000  36.0130000  40.8090000  98.3930000  37.2890000  39.5310000
  98.4490000  35.1470000  38.8040000  98.1610000  34.1310000  39.1840000
  99.5470000  35.2380000  38.8010000  97.9080000  35.2400000  37.2830000
  98.5300000  35.8630000  36.6720000  96.9470000  35.7460000  37.2560000
  97.6470000  33.9900000  36.5450000  97.7040000  34.2540000  35.4670000
  96.6480000  33.6380000  36.8460000  98.6580000  32.8290000  36.6670000
  98.6170000  32.5940000  37.7410000  99.7020000  33.0770000  36.5110000
  98.2790000  31.5110000  35.9040000  97.9780000  31.8350000  34.9440000
  97.4030000  31.1780000  36.4750000  99.4070000  30.4740000  35.8650000
  99.4940000  30.1180000  36.9020000 100.3940000  30.8810000  35.4840000
  99.1120000  29.2170000  35.0670000  99.2480000  29.4010000  34.0580000
  98.1610000  28.8720000  35.2750000  99.8480000  28.4720000  35.3450000
  47.5060000  60.1280000  44.8200000  46.5830000  60.2010000  45.4470000
  47.3990000  59.2070000  44.3100000  47.3590000  60.8330000  44.0040000
  48.9220000  60.3430000  45.3290000  49.1380000  59.5080000  45.9470000
  49.5970000  60.4330000  44.4350000  49.0990000  61.6200000  46.0740000
  50.0850000  61.8540000  46.2060000  48.8020000  62.5340000  45.4640000
  48.4440000  61.6000000  47.5160000  48.4070000  62.6560000  47.8960000
  47.3970000  61.1800000  47.4870000  49.2440000  60.7500000  48.4590000
  49.5450000  59.8090000  48.0370000  50.1830000  61.2660000  48.6120000
  48.6550000  60.5250000  49.8140000  48.5030000  61.5520000  50.1630000
  47.6700000  60.1160000  49.7220000  49.5860000  59.7780000  50.8220000
  49.8990000  58.7170000  50.3950000  50.5850000  60.2770000  50.9880000
  48.8130000  59.5190000  52.0840000  47.9990000  58.9640000  51.6610000
  49.3160000  58.7410000  52.7310000  48.4740000  60.6960000  52.9530000
  49.4010000  61.0360000  53.4250000  48.2910000  61.5440000  52.3240000
  47.4340000  60.5240000  54.1110000  47.8870000  59.7190000  54.7910000
  47.4600000  61.4650000  54.6490000  46.0210000  60.0930000  53.5630000
  46.0500000  59.2500000  52.9410000  45.3100000  59.8220000  54.3790000
  45.2430000  61.1790000  52.8380000  45.2380000  61.9910000  53.4890000
  45.7120000  61.4910000  51.8830000  43.7630000  60.8740000  52.3240000
  43.8090000  60.2690000  51.4230000  43.1820000  60.2830000  53.0370000
  43.0840000  62.2110000  51.9160000  43.9370000  62.7090000  51.3660000
  42.2640000  62.0690000  51.2200000  42.5530000  63.1110000  53.0620000
  43.3100000  63.2490000  53.8270000  42.4140000  64.1010000  52.5200000
  41.3210000  62.6200000  53.7540000  40.2170000  63.0560000  53.4320000
  41.5970000  61.7540000  54.8020000  40.3410000  61.3830000  55.6610000
  40.5940000  60.8390000  56.6010000  39.8800000  62.3040000  56.0100000
  39.3120000  60.5960000  54.8470000  38.7340000  61.2760000  54.1780000
  38.1320000  59.9090000  55.6270000  37.6230000  59.0780000  55.0890000
  38.5800000  59.5380000  56.6080000  37.2040000  60.8930000  55.9220000
  37.0920000  61.6620000  57.3240000  35.9850000  60.8610000  58.0780000
  36.1390000  59.4790000  58.3400000  37.1860000  59.1580000  58.4450000
  35.6940000  59.2660000  59.2710000  35.4270000  58.6600000  57.2340000
  35.6610000  59.0050000  56.2680000  35.7320000  57.6160000  57.3180000
  33.8890000  58.6800000  57.1800000  33.3570000  57.7850000  58.2380000
  32.2690000  57.6540000  58.0360000  33.8550000  56.8060000  58.2160000
  33.5330000  58.1960000  59.2140000  33.3110000  60.0570000  57.2380000
  32.1930000  60.0740000  56.9410000  33.4390000  60.5040000  58.2300000
  33.8310000  60.6560000  56.5400000  33.5210000  58.2070000  55.8840000
  33.8590000  57.2430000  55.7780000  33.9620000  58.8520000  55.0800000
  32.4060000  58.0890000  55.8790000  38.3580000  61.5330000  58.0220000
  36.5630000  63.0180000  57.0770000  39.9930000  59.5630000  54.0980000
  39.4960000  59.2660000  52.8600000  38.6070000  59.8850000  52.3600000
  40.2670000  58.1730000  52.2200000  39.7400000  57.1740000  52.3730000
  41.2230000  58.1350000  52.7280000  40.5850000  58.3800000  50.7360000
  41.0360000  59.3890000  50.6950000  39.6840000  58.4080000  50.1530000
  41.5490000  57.3750000  50.2010000  41.1050000  56.3550000  50.4070000
  42.3960000  57.3520000  50.8640000  41.8400000  57.5300000  48.6800000
  40.9230000  57.2760000  48.2520000  42.4950000  56.7500000  48.3240000
  42.4700000  58.9150000  48.3160000  43.4680000  59.0000000  48.8560000
  41.7260000  59.7010000  48.6620000  42.7490000  59.0950000  46.8040000
  41.8610000  59.3480000  46.2550000  43.1190000  58.1870000  46.2760000
  43.5990000  60.3430000  46.5620000  44.0710000  60.1670000  45.5500000
  44.3500000  60.2990000  47.2950000  42.9580000  61.7080000  46.6710000
  42.5210000  61.9400000  47.6730000  42.9360000  62.6110000  45.6860000
  42.4990000  63.5970000  45.8800000  43.5660000  62.5120000  44.2970000
  44.6310000  62.1540000  44.3830000  43.6420000  63.4870000  43.8840000
  42.7080000  61.7100000  43.3080000  41.5770000  62.0690000  43.3320000
  42.6400000  60.6630000  43.6870000  43.2630000  61.7690000  41.8450000
  43.4320000  62.8520000  41.6730000  42.3960000  61.3850000  41.2420000
  44.5020000  60.8890000  41.5400000  44.1650000  59.8920000  41.3960000
  45.1870000  61.0010000  42.3710000  45.1720000  61.3160000  40.2690000
  45.3380000  62.4370000  40.1800000  44.4070000  61.0650000  39.5060000
  46.5900000  60.6900000  40.1880000  47.1960000  60.9390000  41.0280000
  47.1660000  61.0420000  39.3590000  46.5030000  59.1940000  39.9270000
  46.0420000  59.0310000  38.8830000  45.8710000  58.7210000  40.6770000
  47.8300000  58.4900000  40.1390000  47.6710000  57.4140000  39.9510000
  48.2650000  58.4940000  41.1820000  48.5800000  58.7610000  39.4190000
  40.2530000  27.1870000  41.1800000  40.1710000  28.2300000  40.9540000
  40.2050000  27.0020000  42.2530000  39.5100000  26.6090000  40.6740000
  41.6480000  26.5890000  40.6110000  41.4280000  25.5450000  40.5210000
  41.7720000  26.8930000  39.5830000  42.7370000  26.7300000  41.6700000
  42.6480000  27.8090000  41.9800000  42.5700000  26.0100000  42.5160000
  44.1250000  26.4250000  41.1100000  44.0990000  25.6410000  40.3060000
  44.4570000  27.3820000  40.6390000  45.2050000  25.9360000  42.1180000
  45.0490000  24.8940000  42.3090000  46.1960000  26.0780000  41.6960000
  45.2610000  26.7970000  43.3780000  44.9630000  27.7750000  43.1240000
  44.5250000  26.4800000  44.0650000  46.6700000  26.9110000  44.0900000
  47.4270000  27.3500000  43.4770000  46.5180000  27.6120000  44.9390000
  47.3140000  25.5720000  44.4780000  47.3610000  24.9170000  43.5750000
  48.2630000  25.8020000  44.9220000  46.5210000  24.7820000  45.5120000
  46.5420000  25.4530000  46.4180000  45.4670000  24.6000000  45.2190000
  47.1700000  23.4060000  45.8740000  48.2610000  23.5310000  45.9950000
  46.7350000  22.9830000  46.8400000  46.8540000  22.3370000  44.8140000
  47.2550000  22.6590000  43.8810000  47.4610000  21.4730000  45.1170000
  45.3750000  21.9200000  44.6070000  45.1680000  21.2580000  45.4840000
  44.8210000  22.8240000  44.7830000  44.9470000  21.2130000  43.3430000
  44.8730000  22.0090000  42.6070000  45.6770000  20.4090000  43.0420000
  43.6640000  20.4090000  43.4620000  42.9370000  20.9540000  43.9870000
  43.2790000  20.2090000  42.4460000  43.7850000  19.0030000  44.1930000
  42.9010000  18.3790000  44.0860000  44.6400000  18.3780000  43.8110000
  44.0590000  19.1910000  45.7390000  43.2730000  19.8360000  46.4440000
  45.2350000  18.6860000  46.1820000  45.5250000  18.8480000  47.6080000
  45.7310000  19.8940000  47.7520000  44.6450000  18.5770000  48.1500000
  46.6430000  17.9530000  48.0600000  46.5080000  16.9050000  47.5910000
  46.6570000  17.9080000  49.6210000  47.6190000  17.4300000  49.9300000
  46.3150000  18.8140000  50.1230000  45.5800000  16.9400000  49.9250000
  45.8890000  15.4080000  50.4610000  46.5780000  14.8470000  49.1950000
  47.0590000  13.4510000  49.2230000  46.8500000  12.8750000  50.2030000
  46.5170000  12.8390000  48.5420000  48.5820000  13.2970000  48.9810000
  48.7320000  12.1990000  48.8130000  48.8720000  13.8870000  48.0300000
  49.5580000  13.7440000  50.0600000  50.8910000  13.0750000  49.7980000
  51.7140000  13.3210000  50.5670000  50.7620000  12.0170000  49.8430000
  51.3010000  13.3900000  48.8330000  49.8340000  15.1980000  50.0930000
  49.9470000  15.4450000  49.0150000  48.9180000  15.6780000  50.6070000
  50.7620000  15.3250000  50.6170000  49.1200000  13.3020000  51.4130000
  49.8930000  13.3030000  52.0410000  48.7890000  12.2580000  51.4580000
  48.3600000  13.9490000  51.7840000  46.8860000  15.4380000  51.5030000
  44.5420000  14.8220000  50.6370000  47.8440000  18.5600000  47.4610000
  48.8280000  17.7260000  46.9890000  49.0670000  16.6250000  47.4510000
  49.5660000  18.2950000  45.8600000  50.5010000  18.7660000  46.3200000
  48.9170000  19.0930000  45.5050000  50.0250000  17.3410000  44.6810000
  49.0140000  16.9620000  44.4280000  50.6530000  16.6340000  45.1560000
  50.8770000  17.9360000  43.5750000  51.4850000  17.0970000  43.1060000
  51.4680000  18.7360000  44.0020000  50.0620000  18.5050000  42.4870000
  49.1110000  17.9370000  42.2050000  50.5610000  18.6650000  41.5240000
  49.6650000  19.9390000  42.8540000  50.5920000  20.4970000  42.7490000
  49.2450000  20.0710000  43.8650000  48.5360000  20.4560000  42.0030000
  48.2650000  21.4700000  42.1440000  47.6260000  19.9100000  42.3350000
  48.8050000  20.2650000  40.5220000  48.0230000  20.7720000  39.8990000
  48.7960000  19.2250000  40.2080000  50.0770000  20.9340000  40.1320000
  50.9480000  20.3910000  40.2150000  50.1630000  22.2820000  39.9260000
  51.1640000  22.7380000  39.8580000  48.9310000  23.2470000  39.9710000
  48.9770000  23.7470000  40.9740000  47.9450000  22.7990000  39.9560000
  49.0630000  24.2890000  38.9700000  49.0190000  23.7600000  38.0270000
  50.0150000  24.8350000  39.0060000  47.9090000  25.2050000  39.0990000
  47.8480000  25.7040000  40.1430000  46.9510000  24.6500000  39.0820000
  47.7940000  26.3150000  38.1300000  47.7110000  25.7350000  37.2060000
  48.7230000  26.8660000  38.2270000  46.4980000  27.1020000  38.4360000
  46.5710000  27.4210000  39.4660000  45.7640000  26.3130000  38.3390000
  46.1290000  28.2940000  37.5160000  45.1710000  28.5940000  37.8820000
  45.8490000  28.0180000  36.5140000  47.2050000  29.3730000  37.5790000
  48.2240000  28.9560000  37.8120000  46.9570000  29.9020000  38.4830000
  47.3060000  30.0750000  36.2580000  46.2140000  30.1920000  35.8220000
  47.8650000  29.4990000  35.5180000  47.7400000  31.1060000  36.4350000
 129.8560000 100.9140000  40.3110000 130.7720000 100.6670000  40.8890000
 129.7380000 101.9580000  40.1070000 130.0350000 100.3720000  39.4350000
 128.5920000 100.1650000  40.8690000 128.5920000 100.2320000  41.9580000
 127.6960000 100.6220000  40.5170000 128.5430000  98.6470000  40.5430000
 128.1750000  98.5090000  39.4450000 129.5390000  98.2560000  40.5480000
 127.5940000  97.8670000  41.3800000 126.6670000  98.4550000  41.4780000
 127.3860000  96.9020000  40.8980000 128.1470000  97.5110000  42.7950000
 128.9240000  96.7990000  42.7520000 128.5740000  98.4090000  43.1760000
 127.1250000  96.8600000  43.6640000 126.5940000  96.0770000  43.1440000
 127.6400000  96.4770000  44.5670000 126.0660000  97.8770000  44.0740000
 126.4820000  98.6970000  44.6340000 125.5020000  98.1950000  43.2220000
 125.0400000  97.2690000  45.0550000 124.1630000  97.9030000  44.9540000
 124.7220000  96.3050000  44.6010000 125.4750000  97.2130000  46.5540000
 126.3770000  96.6280000  46.8050000 125.6840000  98.2220000  47.0080000
 124.3320000  96.5920000  47.3710000 123.5380000  97.3000000  47.4580000
 123.9000000  95.7900000  46.7570000 124.8050000  96.0830000  48.7290000
 125.6160000  95.2530000  48.5350000 125.2950000  96.8770000  49.3090000
 123.6240000  95.3830000  49.4780000 122.9340000  96.0880000  49.9120000
 123.0520000  94.7860000  48.7810000 124.0260000  94.4230000  50.6310000
 124.8540000  94.9750000  51.1530000 123.1320000  94.4050000  51.2940000
 124.4300000  92.9710000  50.2070000 123.6140000  92.5280000  49.6630000
 125.2830000  92.9580000  49.6170000 124.6940000  92.0260000  51.4310000
 123.9900000  92.1950000  52.2050000 124.6000000  90.9330000  51.2790000
 126.0570000  92.2830000  52.0790000 127.0990000  92.0180000  51.4810000
 125.9850000  92.7420000  53.3430000 127.2130000  93.3190000  53.8770000
 127.1330000  93.3360000  54.9510000 128.1200000  92.8020000  53.4690000
 127.2310000  94.7930000  53.5320000 128.1890000  95.1670000  54.0550000
 126.0610000  95.5630000  54.2160000 125.1030000  95.0830000  53.9420000
 126.1040000  95.5080000  55.3160000 126.0320000  96.9470000  53.8040000
 126.7520000  98.0330000  54.6760000 125.6180000  98.3170000  55.6910000
 124.3350000  98.8770000  55.3170000 124.0560000  99.6080000  56.1390000
 124.5850000  99.4010000  54.4160000 123.3760000  97.7410000  54.9450000
 123.8180000  97.1340000  54.0880000 123.3790000  97.0680000  55.8370000
 121.9590000  98.0770000  54.5800000 121.2520000  96.8010000  54.1640000
 121.5310000  96.0870000  54.9150000 120.1780000  96.8900000  54.2390000
 121.6050000  96.5250000  53.1700000 121.2520000  98.6570000  55.7490000
 121.4150000  97.8610000  56.4920000 121.7260000  99.6010000  56.1090000
 120.2470000  98.8050000  55.5260000 121.8740000  99.0480000  53.5120000
 122.2810000  98.5740000  52.6710000 122.3520000  99.9860000  53.6450000
 120.8220000  99.1870000  53.2780000 127.8950000  97.4660000  55.3810000
 126.9900000  99.1850000  53.8640000 127.2800000  94.9700000  52.0520000
 128.4190000  94.8790000  51.3220000 129.4990000  94.7730000  51.8240000
 128.1500000  95.0140000  49.8610000 127.7860000  95.9970000  49.7120000
 127.3750000  94.3900000  49.4490000 129.3810000  94.7130000  49.0150000
 129.6380000  93.6720000  49.1500000 130.2680000  95.1620000  49.4790000
 129.1400000  95.0150000  47.5120000 129.0220000  96.1030000  47.3190000
 128.1460000  94.5970000  47.2370000 130.2120000  94.4130000  46.5730000
 130.6320000  93.5870000  46.9930000 130.9860000  95.1620000  46.5070000
 129.7610000  94.2240000  45.1120000 130.6430000  94.1700000  44.4200000
 129.2030000  95.1150000  44.7560000 128.8510000  92.9810000  44.8670000
 127.9780000  93.1310000  45.4910000 129.3960000  92.1620000  45.3140000
 128.3960000  92.4790000  43.4620000 127.9310000  93.3760000  43.0510000
 127.6730000  91.6810000  43.5710000 129.5570000  91.9060000  42.6220000
 129.7410000  90.8890000  42.9210000 130.3040000  92.5420000  41.7380000
 131.1100000  92.0740000  41.1800000 130.0080000  93.9670000  41.1760000
 130.9270000  94.5580000  41.2760000 129.2430000  94.4260000  41.7740000
 129.5650000  93.9370000  39.6980000 128.7500000  93.2780000  39.5980000
 130.3560000  93.4680000  39.1810000 129.4490000  95.3740000  39.0570000
 130.1380000  95.9500000  39.5510000 128.4900000  95.8280000  39.2400000
 129.5320000  95.2820000  37.5540000 128.6600000  94.7610000  37.1500000
 130.4770000  94.7610000  37.2860000 129.6540000  96.7150000  36.9900000
 130.4960000  97.2540000  37.3960000 128.8560000  97.3680000  37.4240000
 129.5800000  96.7600000  35.3840000 129.0660000  95.9270000  34.9050000
 130.5920000  96.7290000  34.9400000 129.0080000  98.0990000  34.8890000
 129.5850000  99.0210000  35.2350000 128.0390000  98.3250000  35.2890000
 128.8790000  98.0280000  33.3920000 128.5360000  98.9690000  33.0160000
 128.1160000  97.3110000  33.2220000 129.8600000  97.8420000  32.8910000
 125.3300000 106.2430000  41.1250000 125.4430000 105.9800000  42.1440000
 126.2050000 106.0160000  40.6000000 124.5050000 105.7590000  40.5980000
 125.1210000 107.8100000  41.2330000 125.6470000 108.2360000  42.1220000
 125.4610000 108.3680000  40.3460000 123.5980000 108.1440000  41.4390000
 123.4800000 109.2170000  41.2840000 123.1160000 107.7200000  40.5960000
 123.0500000 107.5970000  42.7630000 121.9090000 107.7500000  42.7170000
 123.1690000 106.5450000  42.8390000 123.5520000 108.3170000  44.0460000
 124.7030000 108.4380000  44.0870000 123.2010000 109.3250000  44.0810000
 123.1540000 107.4930000  45.3260000 122.1040000 107.4320000  45.3490000
 123.5320000 106.3940000  45.2950000 123.6240000 108.0140000  46.6250000
 124.7420000 108.0130000  46.6610000 123.3680000 109.0300000  46.7850000
 123.1590000 107.2680000  47.9090000 123.6700000 106.2100000  47.8140000
 123.5470000 107.7830000  48.8110000 121.6130000 107.2150000  47.9050000
 121.1780000 108.1330000  47.7190000 121.3040000 106.5710000  47.0780000
 121.0320000 106.6820000  49.2610000 121.2040000 107.3970000  50.0800000
 119.9600000 106.7870000  49.1930000 121.6330000 105.2980000  49.6700000
 122.7080000 105.4600000  49.6870000 121.4340000 105.0070000  50.7200000
 121.2740000 104.0400000  48.7800000 120.2590000 103.7090000  48.9210000
 121.3340000 104.3300000  47.7250000 122.1330000 102.7600000  49.0750000
 123.2080000 102.8080000  48.8260000 122.0570000 102.6530000  50.1290000
 121.6470000 101.5410000  48.3320000 120.6410000 101.2700000  48.6940000
 121.4640000 101.8530000  47.3220000 122.5640000 100.3080000  48.4220000
 122.0380000  99.4160000  48.1680000 123.4980000 100.3860000  47.7720000
 123.1100000  99.9950000  49.7910000 122.4630000 100.0990000  50.8320000
 124.3290000  99.5960000  49.7970000 125.2200000  99.6170000  51.0070000
 124.6450000  99.2900000  51.8260000 126.0240000  98.8010000  50.7970000
 125.9130000 101.0220000  51.2340000 126.8870000 100.8090000  51.6930000
 124.9540000 102.0400000  51.8780000 125.5890000 103.0380000  51.9500000
 124.0660000 102.1740000  51.2020000 124.4690000 101.6240000  53.1790000
 123.6350000 102.5400000  54.1960000 124.8080000 103.3340000  55.0160000
 125.3980000 102.8400000  56.1790000 125.8230000 103.7140000  56.5760000
 124.6810000 102.4510000  56.9040000 126.4650000 101.7630000  55.9950000
 126.6320000 101.3730000  57.0450000 126.0670000 100.8880000  55.4650000
 127.8180000 102.1680000  55.4340000 128.3660000 103.4310000  56.0960000
 128.4800000 103.3810000  57.1090000 129.3610000 103.6550000  55.6870000
 127.5820000 104.2160000  55.9940000 128.7660000 101.0540000  55.6700000
 129.6870000 101.4660000  55.1070000 128.8410000 100.8080000  56.7410000
 128.4600000 100.1740000  55.1080000 127.6910000 102.2040000  53.9090000
 127.4970000 101.2020000  53.6320000 128.6150000 102.6300000  53.4420000
 126.8520000 102.8900000  53.6800000 122.8330000 103.5280000  53.4430000
 122.8760000 101.6450000  55.1240000 126.2280000 101.5500000  49.9150000
 127.2100000 101.0900000  49.1440000 127.8800000 100.0560000  49.3530000
 127.2670000 101.8520000  47.8560000 128.2930000 102.0800000  47.6760000
 126.6560000 102.7280000  47.9460000 126.7300000 101.0450000  46.6310000
 125.7300000 100.6500000  46.8990000 127.4310000 100.2350000  46.4560000
 126.4980000 101.8670000  45.3010000 125.9200000 102.7620000  45.5210000
 125.8730000 101.1740000  44.7660000 127.7320000 102.2230000  44.4380000
 128.4430000 101.4000000  44.2870000 128.2650000 103.0110000  44.9840000
 127.4270000 102.8970000  43.0880000 126.7730000 103.7510000  43.3230000
 126.8330000 102.1580000  42.5080000 128.7310000 103.3430000  42.4260000
 128.4930000 103.3380000  41.3340000 129.5470000 102.6500000  42.5870000
 129.2540000 104.7530000  42.6610000 129.5540000 104.8650000  43.7400000
 128.3920000 105.4310000  42.4750000 130.3420000 104.9800000  41.6960000
 131.1550000 104.3030000  41.8520000 130.3930000 105.9140000  40.7740000
 131.3320000 106.0420000  40.2190000 129.2350000 106.8450000  40.4510000
 129.3860000 107.7020000  41.0690000 128.3760000 106.3560000  40.8290000
 129.0690000 107.1560000  39.0100000 128.9570000 106.1960000  38.4890000
 129.9590000 107.7240000  38.5990000 127.9190000 108.0300000  38.5860000
 126.9750000 107.5140000  38.6180000 127.9930000 108.1980000  37.5300000
 127.7910000 109.3870000  39.3740000 127.5310000 109.1490000  40.4520000
 126.9970000 109.9110000  38.8620000 129.0780000 110.3460000  39.4430000
 129.4340000 110.5040000  38.4180000 129.7760000 109.6510000  39.9590000
 129.0140000 111.6790000  40.1730000 128.9160000 111.3230000  41.2050000
 128.0510000 112.1070000  39.9480000 130.2630000 112.5600000  39.9380000
 130.1390000 112.9640000  38.8870000 131.2540000 112.0470000  40.0200000
 130.3700000 113.8200000  40.8640000 131.2350000 114.3670000  40.4330000
 130.4810000 113.6930000  41.9590000 129.4830000 114.4190000  40.6560000
  33.2360000  23.6890000  36.8950000  33.3890000  24.7040000  36.5360000
  33.4260000  23.0150000  35.9340000  34.0120000  23.4130000  37.6080000
  31.7850000  23.4290000  37.5330000  31.0900000  23.4100000  36.7610000
  31.6850000  22.4490000  37.9850000  31.4630000  24.4980000  38.5820000
  31.8510000  25.4920000  38.2860000  30.4090000  24.6000000  38.6540000
  32.0380000  24.0960000  39.9410000  31.3450000  23.3060000  40.2960000
  32.9330000  23.5010000  39.7730000  32.1590000  25.1700000  41.0290000
  32.6600000  24.6920000  41.7770000  32.8440000  25.8960000  40.5860000
  30.8930000  25.7780000  41.6410000  30.3000000  26.3890000  40.9010000
  30.2730000  25.0360000  42.1150000  31.3670000  26.7300000  42.7640000
  31.9010000  26.1000000  43.5040000  32.1230000  27.4580000  42.3950000
  30.2250000  27.5940000  43.4270000  29.8110000  28.3120000  42.7450000
  29.4290000  26.8040000  43.6600000  30.7520000  28.2240000  44.6940000
  31.5460000  27.6860000  45.2770000  31.2660000  29.1200000  44.3870000
  29.5750000  28.6600000  45.7080000  28.7310000  29.2220000  45.2810000
  29.1190000  27.7420000  46.0290000  30.1270000  29.3260000  46.9040000
  30.8910000  30.0000000  46.4940000  29.2630000  29.8840000  47.3100000
  30.7530000  28.3380000  47.9300000  29.8940000  27.7790000  48.2960000
  31.4320000  27.5930000  47.6210000  31.3380000  29.0700000  49.1040000
  32.2000000  29.5420000  48.7310000  30.6800000  29.8510000  49.4240000
  31.7350000  28.0670000  50.1770000  32.4380000  27.3350000  49.7300000
  32.2700000  28.5460000  50.9810000  30.6970000  27.1990000  50.9410000
  30.1020000  26.6340000  50.1890000  31.1700000  26.3920000  51.5140000
  29.8510000  28.1220000  51.7980000  30.2630000  28.5250000  52.8470000
  28.5700000  28.2620000  51.3700000  27.5740000  29.0400000  52.1500000
  26.6680000  28.8130000  51.7310000  27.5870000  28.6550000  53.1710000
  27.8400000  30.5420000  52.0250000  28.8150000  30.7660000  52.4520000
  26.7520000  31.3430000  52.7970000  25.7840000  31.0640000  52.3240000
  26.7680000  31.0230000  53.8570000  26.8720000  32.7900000  52.7510000
  25.7450000  33.6490000  51.9370000  25.8860000  33.3250000  50.3480000
  24.7760000  33.0510000  49.4790000  25.2460000  32.8090000  48.5410000
  24.1900000  32.2830000  49.8860000  23.9470000  34.2590000  49.4260000
  23.4970000  34.4080000  50.3980000  24.6530000  35.1430000  49.1120000
  22.7970000  34.1480000  48.3990000  22.1240000  35.4850000  48.3160000
  21.2540000  35.3570000  47.6700000  21.8310000  35.9540000  49.2540000
  22.7690000  36.1410000  47.7480000  23.2180000  33.8520000  47.0030000
  22.2550000  33.8800000  46.3000000  23.8560000  34.6840000  46.6670000
  23.6780000  32.9650000  46.8630000  21.7380000  33.1430000  48.8330000
  21.5770000  33.2400000  49.8970000  22.1620000  32.1070000  48.5960000
  20.7890000  33.1750000  48.1940000  24.4440000  33.0750000  52.3050000
  26.0250000  35.0810000  52.1240000  27.8760000  30.7560000  50.5700000
  28.5150000  31.8290000  50.1400000  29.2310000  32.5030000  50.8210000
  28.2700000  32.0450000  48.6530000  27.4830000  32.7830000  48.4880000
  27.8310000  31.1740000  48.2270000  29.5240000  32.5190000  47.8790000
  30.3660000  31.7660000  47.9580000  29.8850000  33.4970000  48.2970000
  29.3300000  32.7040000  46.4120000  28.5420000  33.4530000  46.2220000
  29.0410000  31.7690000  45.9500000  30.5680000  33.2230000  45.6650000
  31.3580000  32.4610000  45.7870000  30.9520000  34.1330000  46.0150000
  30.4140000  33.3320000  44.0870000  29.6860000  34.1150000  43.9270000
  30.0390000  32.3980000  43.7560000  31.7720000  33.6900000  43.4540000
  32.1950000  34.4640000  44.0080000  31.5880000  34.0230000  42.4070000
  32.6260000  32.4590000  43.3600000  32.2080000  31.7190000  42.7400000
  32.7520000  32.0460000  44.3860000  33.9850000  32.8150000  42.7940000
  34.3500000  33.8000000  43.0780000  34.7080000  32.0150000  42.0220000
  35.6990000  32.3370000  41.7760000  34.2210000  30.5820000  41.5250000
  33.6580000  30.1370000  42.3370000  35.0950000  29.9880000  41.2690000
  33.3880000  30.7480000  40.2480000  33.9120000  31.3190000  39.4990000
  32.4530000  31.2460000  40.5460000  33.1130000  29.3280000  39.7290000
  32.5550000  28.8310000  40.4770000  33.9940000  28.7470000  39.6520000
  32.3440000  29.3410000  38.3990000  31.3610000  29.7480000  38.5980000
  32.1770000  28.2730000  38.1820000  33.2140000  29.9000000  37.1820000
  33.4280000  30.9720000  37.3870000  32.6350000  29.8630000  36.3530000
  34.5980000  29.1980000  36.9910000  35.1030000  29.1960000  37.9510000
  35.2820000  29.7670000  36.3930000  34.5160000  27.7180000  36.5000000
  33.7830000  27.1940000  37.0800000  35.4270000  27.2370000  36.5820000
  34.1460000  27.5970000  34.9220000  34.5640000  28.3940000  34.2960000
  33.0580000  27.8100000  34.7620000  34.2470000  26.6350000  34.4920000
  44.7110000   4.6070000  32.6260000  44.9230000   5.6790000  32.7570000
  43.8940000   4.3960000  31.9740000  45.6480000   4.2320000  32.0950000
  44.4620000   3.9740000  34.0530000  44.1680000   2.9350000  33.9290000
  45.4730000   3.9100000  34.4870000  43.4730000   4.6430000  34.9590000
  43.4310000   5.7420000  34.8460000  42.4520000   4.3910000  34.6500000
  43.6200000   4.4380000  36.4600000  43.0140000   5.2320000  36.9040000
  43.3230000   3.4390000  36.7320000  45.1150000   4.5550000  36.9710000
  45.2400000   4.1920000  38.0020000  45.7100000   3.7890000  36.5030000
  45.7090000   5.9950000  36.6750000  45.9010000   6.3100000  35.6340000
  45.0400000   6.7260000  37.2120000  47.0560000   6.1260000  37.3160000
  47.6360000   5.2880000  36.9080000  47.4650000   7.0340000  36.9070000
  47.0520000   6.1450000  38.8420000  46.3320000   6.9560000  39.2210000
  46.7210000   5.1460000  39.1790000  48.5010000   6.4070000  39.3610000
  49.0830000   7.1300000  38.7130000  48.3570000   6.8090000  40.3400000
  49.3810000   5.1580000  39.4200000  49.3370000   4.7000000  38.4860000
  50.3960000   5.4900000  39.5460000  49.0900000   4.0700000  40.4790000
  48.3060000   3.3630000  40.2570000  50.0810000   3.4340000  40.6570000
  48.8420000   4.6900000  41.9260000  49.7290000   5.1060000  42.4460000
  48.1510000   5.4650000  41.8760000  48.2960000   3.6630000  42.9050000
  47.3960000   3.0800000  42.5410000  49.1170000   2.9710000  43.0600000
  47.8040000   4.2770000  44.2620000  46.7100000   4.5780000  44.1430000
  47.6140000   3.3990000  44.8740000  48.7000000   5.3710000  44.8760000
  48.9130000   6.1630000  44.1980000  48.1000000   5.8890000  45.6070000
  49.8860000   4.7330000  45.5960000  50.4550000   3.7310000  45.2840000
  50.2540000   5.4350000  46.6940000  51.1090000   4.8000000  47.6300000
  51.8360000   4.1360000  47.1550000  51.7560000   5.5830000  48.1380000
  50.2790000   3.9690000  48.6660000  49.4360000   4.6310000  48.9080000
  51.1260000   3.8210000  49.9080000  51.9750000   3.1540000  49.6310000
  51.5680000   4.7240000  50.2020000  50.4180000   3.1860000  50.9700000
  49.4510000   4.0990000  51.8530000  49.9460000   3.8250000  53.3640000
  49.7970000   2.5260000  53.8970000  49.4940000   2.6860000  54.9260000
  49.0560000   1.9450000  53.3660000  51.1140000   1.7470000  53.8750000
  51.0880000   0.8990000  54.6450000  51.1440000   1.3490000  52.8960000
  52.4870000   2.4120000  54.1080000  53.4350000   1.3940000  54.6200000
  53.0170000   1.1300000  55.5600000  53.3530000   0.4530000  53.9590000
  54.4360000   1.7580000  54.7030000  52.9300000   3.0230000  52.8690000
  52.2960000   3.9070000  52.6460000  53.9220000   3.4450000  52.9820000
  52.8090000   2.3360000  52.0460000  52.5310000   3.5010000  55.1710000
  52.2230000   2.9920000  56.1040000  51.8460000   4.3710000  54.9570000
  53.5840000   3.8830000  55.0950000  49.7330000   5.5150000  51.6090000
  48.1210000   3.5620000  51.7530000  49.7630000   2.7300000  48.2760000
  48.5400000   2.7110000  47.7540000  47.8250000   3.6630000  47.5850000
  48.3040000   1.3020000  47.3550000  48.7930000   0.6120000  47.9730000
  48.6650000   1.0840000  46.3620000  46.7490000   1.0460000  47.4470000
  46.2610000   1.7510000  46.8360000  46.3810000   1.1700000  48.4930000
  46.2920000  -0.3820000  46.9110000  47.0430000  -1.1430000  47.2380000
  46.4340000  -0.2750000  45.7860000  44.8090000  -0.6680000  47.2510000
  44.1090000  -0.0230000  46.7980000  44.6450000  -0.4860000  48.3220000
  44.4460000  -2.1520000  47.0120000  43.5220000  -2.3360000  47.5840000
  45.2940000  -2.6730000  47.4740000  44.3010000  -2.5940000  45.5390000
  44.2720000  -3.6520000  45.5550000  45.2240000  -2.3910000  45.0020000
  43.1550000  -2.0640000  44.6970000  43.1570000  -2.5770000  43.6910000
  43.4060000  -0.9980000  44.6580000  41.7560000  -2.2490000  45.3130000
  41.6310000  -2.1260000  46.3570000  40.6600000  -2.5230000  44.6180000
  39.7170000  -2.6450000  45.2250000  40.3770000  -2.7430000  43.1720000
  41.2080000  -2.7140000  42.4970000  39.7980000  -1.8740000  42.8320000
  39.5580000  -4.1430000  42.9580000  38.6500000  -4.0930000  43.5800000
  40.1030000  -4.9480000  43.4160000  39.3290000  -4.5520000  41.5090000
  40.2410000  -4.9380000  41.0550000  38.8390000  -3.7700000  40.8640000
  38.4710000  -5.8260000  41.4260000  38.5130000  -6.1030000  40.3360000
  37.4580000  -5.4680000  41.4680000  38.8630000  -7.1020000  42.2290000
  38.3200000  -6.8850000  43.1750000  39.9400000  -7.1510000  42.3230000
  38.2470000  -8.4660000  41.6750000  38.3360000  -9.1710000  42.4640000
  38.7450000  -8.7760000  40.7740000  36.7220000  -8.4340000  41.3540000
  36.5140000  -7.8500000  40.4210000  36.1890000  -7.8640000  42.1240000
  36.0480000  -9.8710000  41.1610000  36.3080000 -10.3550000  40.2560000
  34.9730000  -9.7270000  41.1230000  36.2990000 -10.5710000  41.9480000
 152.5590000 106.4270000  33.6240000 152.2960000 106.7670000  32.6100000
 152.4490000 105.3550000  33.5970000 153.6090000 106.6720000  33.8390000
 151.6700000 106.9270000  34.7490000 151.6990000 108.0210000  34.7170000
 150.6720000 106.6100000  34.6540000 152.2680000 106.4810000  36.0980000
 153.3280000 106.7300000  36.0360000 151.9360000 107.2050000  36.9140000
 152.0350000 105.0060000  36.4620000 152.5340000 104.4590000  35.6490000
 152.6270000 104.8610000  37.3120000 150.5900000 104.5450000  36.6340000
 150.1140000 104.3940000  35.7200000 150.6290000 103.5610000  37.0770000
 149.6240000 105.3840000  37.5110000 149.6000000 106.4200000  37.0850000
 148.5930000 105.0510000  37.3850000 149.8840000 105.3660000  39.1300000
 150.8550000 105.7550000  39.2490000 149.1890000 106.0240000  39.7620000
 149.9060000 103.9410000  39.7160000 148.8640000 103.5060000  39.7860000
 150.5780000 103.3290000  39.1060000 150.4600000 104.0440000  41.1780000
 151.4210000 104.5910000  41.1820000 149.7060000 104.5580000  41.8970000
 150.5760000 102.5460000  41.5720000 149.5090000 102.1000000  41.6180000
 151.2020000 101.9860000  40.9030000 151.0130000 102.3640000  42.9730000
 151.7530000 103.1370000  43.3070000 150.1450000 102.5920000  43.5830000
 151.5930000 100.9650000  43.3960000 150.7630000 100.3270000  43.6190000
 152.1250000 100.5320000  42.5670000 152.5480000 100.9840000  44.6620000
 153.3880000 101.6720000  44.3830000 152.0500000 101.4960000  45.4940000
 153.1440000  99.6310000  45.0230000 153.7560000  99.3040000  44.1640000
 153.8960000  99.7030000  45.8480000 152.1080000  98.4720000  45.2460000
 151.4810000  98.2620000  44.3890000 152.7040000  97.5340000  45.3980000
 151.2520000  98.6540000  46.5150000 151.4470000  98.1050000  47.5620000
 150.2150000  99.5040000  46.2940000 149.1400000  99.5430000  47.2510000
 148.2930000 100.0760000  46.7790000 148.9130000  98.4840000  47.4480000
 149.4720000 100.3470000  48.5650000 150.4910000  99.9840000  48.9210000
 148.3970000 100.1770000  49.7150000 148.6320000  99.2810000  50.2280000
 148.4830000 100.9780000  50.4090000 147.0190000 100.1320000  49.1410000
 146.0050000  99.0020000  49.6460000 146.5680000  97.8190000  48.7930000
 146.2710000  97.5160000  47.3900000 145.2030000  97.6420000  47.2630000
 146.6540000  98.3310000  46.7350000 146.8790000  96.1780000  47.0370000
 146.6980000  95.8810000  46.0340000 147.9360000  96.2010000  47.0610000
 146.3400000  95.0060000  47.8030000 147.0910000  93.7180000  47.4300000
 146.7510000  92.8450000  47.9260000 146.8650000  93.4660000  46.3710000
 148.1680000  93.7880000  47.6260000 146.2690000  95.1280000  49.2510000
 146.1780000  94.1380000  49.6600000 147.2130000  95.5720000  49.4940000
 145.4210000  95.7150000  49.4160000 144.9490000  94.8060000  47.3190000
 144.9020000  95.0150000  46.2550000 144.2750000  95.4960000  47.8160000
 144.6640000  93.8020000  47.6530000 146.1030000  98.6630000  51.0860000
 144.7030000  99.3220000  49.0060000 149.5430000 101.7440000  48.2590000
 150.4290000 102.5200000  48.8380000 151.2400000 102.1090000  49.6030000
 150.2590000 103.9840000  48.3770000 150.2810000 103.7970000  47.3190000
 151.0580000 104.6420000  48.6870000 148.7890000 104.5090000  48.6190000
 148.6790000 104.5150000  49.7420000 148.0700000 103.8240000  48.2710000
 148.3300000 105.8370000  48.0290000 147.2620000 106.0030000  48.3000000
 148.4680000 105.7160000  46.9740000 149.1900000 106.9990000  48.4910000
 150.2180000 106.6620000  48.5720000 148.9370000 107.2720000  49.5240000
 149.0820000 108.2520000  47.5950000 148.1000000 108.6880000  47.7200000
 149.2690000 107.8110000  46.6260000 150.0970000 109.3700000  47.8950000
 151.1460000 108.9850000  47.8860000 149.8760000 109.6590000  48.8810000
 150.0470000 110.5770000  46.8660000 149.1570000 111.2150000  46.8460000
 150.0210000 110.1850000  45.8320000 151.0980000 111.6040000  47.2280000
 150.8520000 112.3200000  48.0440000 152.2480000 111.7890000  46.6270000
 152.8580000 112.6100000  46.9000000 152.7670000 110.9710000  45.4630000
 152.0330000 110.2930000  45.0960000 153.5700000 110.3100000  45.8070000
 153.2870000 111.8920000  44.3510000 154.0220000 111.3320000  43.6870000
 153.8620000 112.7090000  44.7510000 152.1520000 112.4130000  43.4690000
 151.3360000 111.6930000  43.4150000 152.5420000 112.5420000  42.4910000
 151.3850000 113.7540000  43.7940000 152.0070000 114.7090000  43.7220000
 151.1990000 113.6440000  44.8610000 150.0240000 113.9490000  43.0730000
 149.5610000 114.9170000  43.2910000 149.3490000 113.1140000  43.4620000
 150.1140000 113.7940000  41.5430000 150.4810000 112.8890000  41.0630000
 150.7630000 114.5580000  41.1720000 148.8230000 114.1020000  40.8680000
 148.2230000 114.8880000  41.2850000 148.2300000 113.1850000  41.0040000
 148.8640000 114.1760000  39.3260000 149.1600000 113.2040000  38.9090000
 149.6500000 114.8030000  39.1240000 147.8930000 114.4390000  38.9050000
  10.6910000  41.6610000  37.3450000  11.0070000  41.0910000  38.1990000
   9.7290000  41.2820000  36.9600000  10.5080000  42.6350000  37.7230000
  11.7500000  41.6470000  36.2410000  11.5600000  42.4720000  35.4460000
  12.7180000  41.9460000  36.7940000  12.0350000  40.2360000  35.6860000
  12.5680000  39.5630000  36.4290000  11.0570000  39.9720000  35.3760000
  12.8900000  40.2700000  34.3960000  13.0100000  39.2570000  33.9250000
  12.2960000  40.8750000  33.7170000  14.3150000  40.8160000  34.4860000
  14.7670000  40.9570000  33.4730000  14.2520000  41.8610000  34.8000000
  15.2740000  40.1530000  35.5140000  15.0590000  40.5250000  36.5260000
  15.3100000  39.0770000  35.5860000  16.7380000  40.6460000  35.2030000
  16.8630000  40.3570000  34.0910000  16.7630000  41.6370000  35.4160000
  17.9490000  39.9810000  35.9480000  18.2180000  38.9710000  35.5690000
  18.8170000  40.6770000  35.8970000  17.6040000  40.0820000  37.4920000
  17.3940000  41.1630000  37.6310000  16.6980000  39.5630000  37.7020000
  18.8250000  39.6300000  38.4020000  18.9890000  38.5630000  38.3670000
  19.6680000  40.1510000  37.9790000  18.7510000  39.8740000  39.8990000
  18.0000000  39.3210000  40.4190000  19.6260000  39.5120000  40.2440000
  18.7880000  41.3380000  40.3570000  19.5940000  41.8720000  39.8900000
  17.8660000  41.8560000  40.0130000  18.7850000  41.6050000  41.8790000
  19.5400000  40.8610000  42.3650000  19.2020000  42.5870000  42.0550000
  17.3970000  41.4600000  42.4710000  16.6130000  41.8730000  41.7380000
  17.0780000  40.4320000  42.5290000  17.1750000  42.1940000  43.7500000
  17.5290000  43.2220000  43.7790000  16.1100000  42.1450000  43.9750000
  17.8940000  41.6680000  44.9730000  17.7630000  42.1140000  46.0920000
  18.5180000  40.4690000  44.7450000  19.3450000  39.9710000  45.8070000
  20.1580000  40.7280000  45.9520000  18.7620000  39.7740000  46.6900000
  20.0250000  38.7040000  45.4470000  19.5070000  37.9070000  45.9830000
  21.5300000  38.6770000  45.7660000  22.0030000  37.9630000  45.0630000
  21.9730000  39.6920000  45.6890000  21.5820000  38.0880000  47.0750000
  21.6700000  38.9750000  48.4670000  23.0170000  39.8360000  48.2690000
  24.3620000  39.3670000  48.6940000  24.4540000  38.3150000  48.6760000
  25.2120000  39.8000000  48.1370000  24.2710000  39.8270000  50.2030000
  24.7260000  40.8770000  50.2080000  23.1890000  39.8640000  50.5040000
  24.9880000  39.0400000  51.2550000  26.4670000  38.9900000  50.9520000
  26.6110000  38.2790000  50.0950000  26.8350000  40.0440000  50.9060000
  26.9220000  38.5630000  51.8330000  24.7350000  39.5710000  52.5960000
  25.0160000  40.6070000  52.6990000  23.6670000  39.5820000  52.7400000
  25.2520000  38.9950000  53.3770000  24.4660000  37.6140000  51.2310000
  24.9460000  37.1110000  50.4370000  23.3540000  37.7050000  51.2200000
  24.8730000  37.2620000  52.2030000  20.5260000  39.8820000  48.5300000
  21.8940000  38.1020000  49.5740000  19.8800000  38.3340000  44.1080000
  19.6950000  36.9990000  43.7900000  19.6240000  36.0620000  44.5930000
  19.8130000  36.8460000  42.3060000  20.2160000  37.7390000  41.8060000
  18.8290000  36.6930000  41.9120000  20.7480000  35.7480000  41.9810000
  20.4430000  34.8000000  42.2900000  21.7630000  35.7910000  42.5400000
  21.0110000  35.6560000  40.4640000  21.9060000  35.0440000  40.2900000
  21.2070000  36.6280000  39.9720000  19.8710000  35.0710000  39.5810000
  19.0010000  35.4010000  40.1530000  20.0390000  34.0230000  39.5350000
  20.0470000  35.6380000  38.2150000  21.0280000  35.3710000  37.7810000
  20.0640000  36.7120000  38.3030000  19.0060000  35.0730000  37.3070000
  18.0870000  35.4510000  37.6150000  19.0050000  34.0070000  37.4460000
  19.2420000  35.5600000  35.8430000  20.3420000  35.6160000  35.5990000
  18.8980000  36.5790000  35.8460000  18.4610000  34.7870000  34.8320000
  18.9620000  33.8990000  34.6040000  17.2520000  35.0630000  34.3230000
  16.8810000  34.3320000  33.5540000  16.5300000  36.3360000  34.5690000
  16.7620000  37.0020000  35.4430000  15.5500000  35.9680000  34.7720000
  16.6790000  37.2730000  33.3760000  17.5780000  36.9100000  32.8340000
  16.9490000  38.2410000  33.7850000  15.4460000  37.4320000  32.5310000
  14.5540000  37.6770000  33.1470000  15.2020000  36.4950000  32.0910000
  15.5770000  38.3030000  31.3280000  16.1590000  37.7730000  30.5750000
  16.0530000  39.2430000  31.7510000  14.2010000  38.6090000  30.7040000
  13.4850000  38.8920000  31.4320000  13.9190000  37.7420000  30.1470000
  14.3180000  39.8330000  29.7200000  14.9540000  39.5810000  28.9230000
  14.7680000  40.7260000  30.1920000  13.0300000  40.2980000  29.0420000
  12.5590000  39.4200000  28.5000000  13.3970000  41.0390000  28.2970000
  11.9200000  40.9760000  29.8600000  11.5040000  40.3390000  30.6870000
  11.0440000  41.1550000  29.2640000  12.3360000  41.9550000  30.2110000
 104.4790000  23.8260000  30.9050000 104.8190000  24.8040000  30.6470000
 103.8210000  23.8260000  31.7790000 104.0160000  23.4330000  30.0050000
 105.6790000  22.9240000  31.0370000 105.3690000  21.9070000  31.1880000
 106.2220000  22.9530000  30.1180000 106.6000000  23.3170000  32.1800000
 107.1830000  24.2910000  31.9980000 106.0850000  23.5230000  33.1160000
 107.6930000  22.2160000  32.3820000 108.2110000  22.0240000  31.4750000
 108.3990000  22.6130000  33.1330000 107.1820000  20.8060000  32.8440000
 106.4730000  20.4890000  32.0860000 108.0460000  20.0880000  32.7660000
 106.5440000  20.8840000  34.3050000 107.3080000  21.3050000  34.9010000
 105.8000000  21.6940000  34.3470000 106.0830000  19.5000000  34.9540000
 105.4520000  18.9950000  34.2470000 106.9220000  18.8120000  35.1610000
 105.1710000  19.5150000  36.1630000 104.2250000  19.9550000  35.8780000
 105.0280000  18.4660000  36.5830000 105.7650000  20.3950000  37.3350000
 105.9370000  21.4560000  37.0450000 104.9720000  20.4030000  38.0730000
 107.0110000  19.8700000  38.0950000 106.7700000  18.9760000  38.5260000
 107.7200000  19.5640000  37.3340000 107.5990000  20.8710000  39.1080000
 107.7650000  21.8500000  38.7550000 106.9330000  21.0840000  39.9850000
 108.9350000  20.4590000  39.7340000 108.7970000  19.4500000  40.0210000
 109.6040000  20.4660000  38.9590000 109.5050000  21.2300000  40.9140000
 110.1220000  22.1510000  40.6290000 108.7300000  21.7710000  41.5390000
 110.4470000  20.3690000  41.7750000 111.1470000  19.8540000  41.2490000
 111.0000000  21.1090000  42.3570000 109.6620000  19.3970000  42.6600000
 108.9720000  20.0700000  43.2020000 109.1530000  18.5950000  42.1190000
 110.4800000  18.8780000  43.8230000 111.6100000  18.5290000  43.7430000
 109.7500000  18.7970000  44.9920000 110.3290000  18.4330000  46.3060000
 109.5170000  18.0630000  46.9000000 111.0150000  17.5410000  46.3080000
 111.0220000  19.6690000  46.9190000 111.8320000  19.9750000  46.3170000
 111.5690000  19.2960000  48.3830000 110.8010000  19.2240000  49.1160000
 112.0600000  18.2890000  48.2790000 112.6230000  20.1860000  48.7870000
 112.3680000  21.5460000  49.5320000 111.6770000  22.4940000  48.4380000
 112.3750000  23.7730000  48.1190000 113.3820000  23.5800000  48.0060000
 111.9350000  24.2760000  47.1990000 112.2130000  24.7170000  49.3200000
 112.5030000  24.1200000  50.1380000 112.7700000  25.6710000  49.2350000
 110.8160000  25.1690000  49.6530000 110.8890000  25.8260000  50.9350000
 111.8420000  26.3440000  50.9950000 110.1060000  26.5650000  50.9840000
 110.9680000  25.0220000  51.6830000 110.4690000  26.1710000  48.5680000
 111.3240000  26.8120000  48.4560000 110.2530000  25.5930000  47.6420000
 109.5330000  26.7130000  48.9520000 109.7700000  24.1100000  49.8270000
 108.7870000  24.5350000  50.0240000 110.1570000  23.3980000  50.5410000
 109.6790000  23.5130000  48.8850000 111.2710000  21.3310000  50.5200000
 113.6460000  22.1380000  49.9100000 110.1300000  20.7070000  47.0480000
 109.9680000  21.6410000  46.0420000 110.5360000  21.6460000  44.9820000
 108.9640000  22.7330000  46.4710000 109.4650000  23.6520000  46.2760000
 108.8180000  22.7050000  47.4970000 107.6710000  22.6940000  45.6890000
 106.9200000  23.1170000  46.3490000 107.3560000  21.6480000  45.4830000
 107.7580000  23.4110000  44.3020000 108.3410000  22.8020000  43.6120000
 108.3100000  24.4220000  44.3860000 106.3770000  23.6730000  43.7430000
 105.9780000  24.5360000  44.3030000 105.6400000  22.9170000  43.8990000
 106.4050000  24.0590000  42.2520000 106.6750000  23.2690000  41.5750000
 107.2500000  24.7060000  42.1280000 105.1280000  24.8610000  41.8840000
 105.1280000  25.7660000  42.4550000 104.3040000  24.2560000  42.1850000
 105.0080000  25.2900000  40.3430000 105.9300000  25.8270000  39.9460000
 104.1650000  25.9260000  40.1720000 104.8090000  23.9800000  39.5640000
 105.5000000  23.1950000  39.8630000 103.8360000  23.6740000  38.6610000
 103.7110000  22.6680000  38.2530000 102.8030000  24.6640000  38.2110000
 102.4940000  25.3330000  39.0180000 101.8640000  24.0490000  38.0010000
 103.2410000  25.3330000  36.9310000 104.3110000  25.3310000  36.9330000
 102.8040000  26.3020000  36.7810000 102.9440000  24.3880000  35.7470000
 101.8740000  23.9790000  35.7220000 103.6220000  23.6060000  35.8330000
 103.2340000  24.9580000  34.3510000 103.0910000  24.1660000  33.5680000
 104.3300000  25.1690000  34.2830000 102.3290000  26.1500000  34.0820000
 102.1080000  26.7120000  35.0020000 101.3690000  25.8070000  33.8290000
 103.0330000  27.0330000  33.0230000 103.0360000  26.4060000  32.1200000
 104.1030000  27.3040000  33.2970000 102.2150000  28.2600000  32.6010000
 101.1740000  27.9520000  32.4750000 102.3840000  28.5520000  31.5460000
 102.3180000  29.5140000  33.5090000 102.2300000  29.1880000  34.5900000
 101.5960000  30.2810000  33.2530000 103.3880000  30.0020000  33.5230000
 136.3220000 151.9290000  42.5670000 136.6300000 152.9740000  42.8020000
 135.2110000 151.8570000  42.7960000 136.5480000 151.7930000  41.5290000
 137.1140000 150.8090000  43.3280000 136.7800000 149.7800000  43.0110000
 138.2110000 150.8840000  43.2360000 136.8290000 150.8050000  44.8550000
 135.8330000 150.7750000  45.0570000 137.1890000 149.8430000  45.1100000
 137.4650000 151.9140000  45.7560000 138.5820000 151.8960000  45.7560000
 137.1130000 152.8570000  45.4010000 136.9900000 151.7620000  47.1820000
 135.9240000 151.8100000  47.2310000 137.2670000 150.7190000  47.4350000
 137.6340000 152.7080000  48.2240000 138.6950000 152.6270000  48.1320000
 137.4110000 153.6750000  48.0360000 137.2010000 152.3270000  49.6390000
 137.6510000 151.3220000  49.7410000 137.5190000 153.0120000  50.4240000
 135.6720000 152.1650000  49.7770000 135.3660000 151.2360000  49.2890000
 135.5030000 151.9450000  50.8680000 134.8330000 153.5160000  49.4730000
 135.3910000 154.4000000  49.9430000 134.9300000 153.6460000  48.4430000
 133.3460000 153.4650000  49.8390000 133.2840000 153.4870000  50.9120000
 132.8700000 154.3930000  49.4120000 132.6140000 152.2010000  49.1940000
 132.8620000 152.3050000  48.2150000 133.0760000 151.4020000  49.7060000
 131.0990000 152.2360000  49.3740000 130.7590000 153.2930000  49.1330000
 130.5970000 151.7340000  48.5490000 130.6950000 151.7590000  50.7410000
 131.0760000 150.7590000  50.9240000 131.3150000 152.3720000  51.4360000
 129.1920000 151.8990000  51.0800000 128.8500000 152.8130000  50.5320000
 128.5900000 151.1600000  50.5220000 128.8540000 152.0920000  52.5570000
 129.5460000 152.7550000  52.9840000 127.9240000 152.5850000  52.6690000
 128.7390000 150.8110000  53.3650000 127.8710000 150.6080000  54.1400000
 129.5410000 149.8060000  53.0110000 129.5070000 148.5650000  53.6660000
 130.3680000 148.4790000  54.2860000 128.6080000 148.3740000  54.2330000
 129.3760000 147.4700000  52.5990000 128.4170000 147.5260000  52.0580000
 129.3860000 146.0470000  53.2510000 128.3310000 145.7830000  53.4660000
 129.8420000 145.2560000  52.6150000 130.1500000 146.0690000  54.4820000
 131.5200000 145.2930000  54.7290000 132.6400000 146.2990000  54.2550000
 133.4720000 147.1090000  55.1290000 133.7670000 148.0780000  54.5950000
 133.0000000 147.4630000  56.0000000 134.6960000 146.2970000  55.6740000
 135.2450000 146.9490000  56.3180000 134.2590000 145.5250000  56.3110000
 135.5490000 145.5460000  54.6320000 134.9560000 144.2370000  54.3060000
 133.9030000 144.2540000  53.9250000 135.6380000 143.7190000  53.6640000
 134.9360000 143.7230000  55.2200000 135.7580000 146.2770000  53.2900000
 136.2820000 145.7050000  52.5620000 134.7980000 146.4390000  52.9060000
 136.3170000 147.1960000  53.3790000 136.8760000 145.3370000  55.2320000
 137.4860000 144.8270000  54.4420000 136.7640000 144.7450000  56.0940000
 137.3250000 146.2810000  55.5500000 131.8640000 145.1480000  56.1150000
 131.5710000 144.0940000  53.9240000 130.4850000 147.3820000  51.6380000
 130.2640000 148.0000000  50.4500000 129.1590000 148.4610000  50.1220000
 131.5160000 147.9280000  49.5070000 131.7330000 146.8770000  49.4510000
 132.3600000 148.5020000  49.8500000 131.1800000 148.3200000  48.0370000
 130.6980000 149.3310000  47.9090000 130.3870000 147.5960000  47.7400000
 132.3710000 148.1930000  47.0900000 132.5810000 147.1020000  47.1650000
 133.2300000 148.7460000  47.4230000 132.0870000 148.7080000  45.6920000
 131.9500000 149.7610000  45.7750000 131.1950000 148.2760000  45.2230000
 133.3790000 148.5670000  44.8970000 134.1210000 148.7680000  45.5940000
 133.4150000 149.4150000  44.2170000 133.5830000 147.1190000  44.4120000
 132.8590000 146.8240000  43.7190000 133.6680000 146.4030000  45.1710000
 134.9160000 147.1620000  43.7020000 135.7340000 147.4640000  44.3070000
 134.8750000 147.9420000  42.9450000 135.1930000 145.8760000  43.0340000
 134.3330000 145.2190000  42.8910000 136.3710000 145.3150000  42.7790000
 136.4310000 144.3360000  42.3720000 137.7340000 145.9940000  42.9840000
 138.4320000 145.1760000  43.1720000 137.6850000 146.6600000  43.8590000
 138.0750000 146.6550000  41.6520000 137.3990000 147.5540000  41.5510000
 137.6240000 146.1110000  40.7710000 139.5630000 147.0150000  41.5430000
 140.2680000 146.1280000  41.5740000 139.6660000 147.6670000  42.4450000
 139.8960000 147.8840000  40.3400000 139.6820000 148.8950000  40.7570000
 139.1330000 147.6890000  39.4500000 141.3660000 147.7390000  39.8400000
 141.9870000 147.3290000  40.6200000 141.7640000 148.7270000  39.5360000
 141.5030000 146.7730000  38.6690000 142.3670000 147.0320000  38.1040000
 140.6940000 147.1090000  38.0040000 141.4120000 145.2250000  38.8130000
 140.4370000 144.8680000  39.1380000 142.0820000 144.9150000  39.5900000
 141.9530000 144.4320000  37.5750000 141.3120000 144.6090000  36.7130000
 141.8350000 143.3350000  37.8020000 142.9720000 144.6200000  37.3030000
  15.0960000 128.5730000  45.4730000  14.0260000 128.1510000  45.4240000
  15.5070000 127.9560000  46.2920000  15.6430000 128.4060000  44.5630000
  15.0690000 130.1350000  45.7980000  14.7300000 130.7380000  44.9210000
  14.4150000 130.3010000  46.6060000  16.4530000 130.7130000  46.2040000
  16.2910000 131.7190000  46.6620000  16.8900000 130.0990000  46.9710000
  17.3910000 130.8070000  44.9240000  17.6660000 129.7610000  44.6550000
  16.8380000 131.1260000  44.0800000  18.6270000 131.6780000  45.2020000
  19.0230000 131.7920000  44.1610000  18.2940000 132.5870000  45.6950000
  19.8020000 131.1300000  46.0540000  20.1770000 130.2710000  45.6210000
  20.4870000 131.9410000  45.9550000  19.5930000 131.1620000  47.6350000
  19.4000000 132.0760000  48.0350000  18.8040000 130.5150000  47.9280000
  20.7990000 130.6770000  48.3530000  21.6350000 130.7860000  47.6760000
  21.0220000 131.3090000  49.2230000  20.9800000 129.2090000  48.8470000
  20.1320000 129.0060000  49.4720000  20.9460000 128.5310000  47.9370000
  22.3110000 128.9460000  49.6100000  22.3000000 129.4760000  50.5390000
  22.3310000 127.8360000  49.7850000  23.5970000 129.2450000  48.8160000
  23.6420000 130.3100000  48.6410000  24.4800000 129.0980000  49.4600000
  23.7440000 128.3620000  47.5490000  23.8900000 127.3030000  47.7590000
  22.7980000 128.3730000  46.9730000  24.9730000 128.8010000  46.7180000
  24.7810000 129.7360000  46.1930000  25.7990000 129.1570000  47.3120000
  25.5260000 127.7730000  45.6340000  24.8410000 127.7570000  44.7930000
  26.3530000 128.2740000  45.1300000  25.9250000 126.3700000  45.8750000
  24.9970000 125.8270000  45.8710000  26.5090000 125.9560000  45.0080000
  26.7800000 126.1300000  47.0780000  27.9170000 125.6740000  46.9860000
  26.1000000 126.2810000  48.1800000  26.7170000 125.9390000  49.4940000
  25.9600000 125.8860000  50.2740000  27.1970000 124.9140000  49.4910000
  27.8150000 126.9510000  49.8720000  28.5170000 126.9520000  49.0610000
  28.5920000 126.5300000  51.0820000  29.2970000 125.7190000  50.7310000
  29.2100000 127.3450000  51.5070000  27.7060000 126.0230000  52.1380000
  27.1730000 126.9530000  53.3610000  25.6050000 127.1710000  53.1520000
  25.0980000 128.2340000  52.4120000  25.7750000 129.1330000  52.4600000
  24.9800000 127.8710000  51.3660000  23.7520000 128.6180000  53.0490000
  23.5070000 129.5550000  52.5910000  22.9300000 127.9360000  52.8700000
  23.7790000 128.9560000  54.4810000  22.6510000 129.8610000  54.7980000
  22.5980000 130.5510000  53.9830000  21.7810000 129.2040000  54.9680000
  22.9100000 130.5550000  55.5960000  23.7990000 127.7590000  55.3180000
  23.6470000 127.9870000  56.3900000  22.9550000 127.1560000  55.0030000
  24.7230000 127.1390000  55.1300000  25.0360000 129.6590000  54.8260000
  25.1020000 130.5400000  54.2030000  25.9110000 129.0370000  54.6460000
  24.9700000 129.9470000  55.9080000  27.2620000 126.0440000  54.5310000
  27.9050000 128.2620000  53.4140000  27.2340000 128.2970000  50.0760000
  28.0050000 129.3800000  49.8600000  29.1540000 129.3130000  49.6140000
  27.2220000 130.6540000  49.9950000  27.6180000 131.4260000  50.5940000
  26.3460000 130.5520000  50.5840000  27.0520000 131.3780000  48.6690000
  26.5510000 130.7840000  47.9380000  28.0660000 131.5650000  48.1820000
  26.4220000 132.7430000  48.9070000  27.1020000 133.2860000  49.6160000
  25.4790000 132.5870000  49.3970000  26.3040000 133.5510000  47.5580000
  27.3140000 133.6780000  47.1870000  26.0150000 134.5380000  47.7770000
  25.3770000 132.8880000  46.5760000  24.4010000 132.7160000  47.1270000
  25.7910000 131.9160000  46.3030000  25.2430000 133.7970000  45.3760000
  26.2920000 133.9650000  45.0250000  24.7370000 134.7420000  45.5320000
  24.4980000 133.2470000  44.1310000  24.6660000 133.9350000  43.3470000
  23.4330000 133.2770000  44.2070000  24.9550000 131.8430000  43.7280000
  26.0350000 131.7500000  43.4610000  24.1850000 130.7660000  43.6520000
  24.5630000 129.8070000  43.2720000  22.7210000 130.7530000  44.0000000
  22.5480000 131.4820000  44.8010000  22.4330000 129.7940000  44.3860000
  21.8300000 130.9910000  42.7890000  20.7580000 130.8810000  43.0290000
  21.9530000 130.1300000  42.1480000  21.9520000 132.3210000  42.0820000
  22.8960000 132.4130000  41.5940000  21.8120000 133.1020000  42.8150000
  20.8650000 132.6030000  41.0510000  19.9230000 132.2240000  41.4050000
  21.0430000 132.1580000  40.0810000  20.5790000 134.1220000  40.7980000
  20.7600000 134.6480000  41.7610000  19.5840000 134.3370000  40.3400000
  21.6630000 134.6580000  39.8500000  21.6030000 134.1440000  38.8750000
  22.6480000 134.3910000  40.2290000  21.6520000 136.1510000  39.7160000
  22.5010000 136.5030000  39.2330000  21.6530000 136.6690000  40.6370000
  20.4600000 136.6980000  38.9780000  20.5820000 137.7940000  38.6760000
  19.5920000 136.3790000  39.5330000  20.4720000 136.1900000  38.0060000
  26.9310000  83.9100000  39.2880000  26.3150000  83.1250000  39.7390000
  27.7320000  84.0530000  40.0220000  27.4810000  83.5290000  38.3500000
  26.1010000  85.2170000  38.9940000  26.8990000  85.9200000  38.7470000
  25.5160000  85.0160000  38.0850000  25.2810000  85.7910000  40.1230000
  24.5450000  85.0320000  40.3970000  25.8790000  85.8210000  41.0900000
  24.8510000  87.3100000  39.8440000  25.7700000  87.8440000  39.6710000
  24.3450000  87.3350000  38.9480000  23.9190000  87.9330000  40.9720000
  23.3790000  87.0860000  41.4420000  24.4820000  88.2660000  41.8480000
  22.9750000  89.0340000  40.5540000  22.3390000  88.6230000  39.7580000
  22.3260000  89.3170000  41.4650000  23.5950000  90.3900000  40.0450000
  24.4700000  90.2210000  39.4890000  22.8430000  90.8200000  39.4120000
  23.8940000  91.4130000  41.1090000  22.9210000  91.6970000  41.4430000
  24.4800000  91.0610000  41.9410000  24.6380000  92.6750000  40.6400000
  25.6070000  92.3480000  40.2570000  24.0780000  93.0910000  39.7810000
  24.8950000  93.6450000  41.7790000  25.2780000  93.0700000  42.6790000
  25.7090000  94.2730000  41.4810000  23.7820000  94.5970000  42.2790000
  23.2490000  94.9880000  41.4630000  23.0730000  94.0270000  42.8730000
  24.1620000  95.7130000  43.2570000  24.3020000  96.6810000  42.7360000
  23.2910000  95.9520000  43.8490000  25.4410000  95.3670000  44.1160000
  25.4740000  94.4370000  44.5400000  26.3260000  95.5330000  43.5170000
  25.4570000  96.5650000  45.1310000  25.2980000  97.4840000  44.6040000
  24.6270000  96.4510000  45.8250000  26.7840000  96.8590000  45.9220000
  27.0180000  96.1250000  46.7400000  27.6360000  96.7470000  45.2240000
  26.7060000  98.1950000  46.5480000  26.5740000  99.2090000  45.8990000
  26.8240000  98.1100000  47.9040000  26.4440000  99.3870000  48.6430000
  27.0390000  99.4560000  49.6100000  26.7910000 100.2950000  48.0990000
  24.9390000  99.4800000  48.8450000  24.7170000 100.5340000  49.1340000
  24.6310000  98.3380000  49.9350000  23.5730000  98.1520000  50.2610000
  24.9130000  97.3860000  49.5560000  25.4390000  98.5080000  51.1000000
  25.0990000  99.6190000  52.2060000  24.4220000  98.7400000  53.3230000
  25.0900000  98.0550000  54.4060000  25.7160000  98.7830000  55.0490000
  24.2110000  97.6240000  54.9820000  25.9230000  96.8990000  53.8320000
  25.3800000  95.9940000  53.6090000  26.4260000  97.2340000  52.9720000
  27.0080000  96.4270000  54.7180000  27.3720000  95.1100000  54.1200000
  28.3500000  94.8170000  54.5640000  26.5810000  94.3520000  54.4450000
  27.4380000  95.2790000  53.0360000  28.2220000  97.3290000  54.8020000
  28.8810000  97.0220000  55.5890000  28.7580000  97.1050000  53.8830000
  27.8840000  98.3810000  54.9370000  26.4070000  96.1570000  55.9990000
  27.0350000  95.5440000  56.5740000  25.4270000  95.7530000  55.8540000
  26.2910000  97.1340000  56.5590000  26.3100000 100.1900000  52.6330000
  24.0900000 100.5600000  51.7210000  24.1600000  98.9880000  47.6800000
  22.8570000  99.3080000  47.6870000  22.2420000 100.1740000  48.3640000
  22.1040000  98.5660000  46.6280000  21.1310000  98.4080000  46.9240000
  22.5480000  97.5880000  46.5180000  21.9470000  99.1840000  45.2220000
  22.8970000  99.5390000  44.8380000  21.3100000 100.1010000  45.3900000
  21.3140000  98.1430000  44.2420000  20.2970000  97.8900000  44.5920000
  21.8010000  97.2240000  44.4020000  21.4030000  98.5980000  42.7970000
  22.4610000  98.4940000  42.4150000  20.9780000  99.6110000  42.5190000
  20.8610000  97.4450000  41.9370000  19.8360000  97.3420000  42.2550000
  21.2910000  96.4400000  42.1960000  20.8940000  97.5740000  40.4370000
  21.9160000  97.2870000  40.1490000  20.5510000  98.5170000  40.0450000
  19.9750000  96.5380000  39.7230000  18.9510000  96.6190000  39.9590000
  20.3120000  95.5630000  40.0140000  20.0330000  96.7410000  38.2180000
  19.8710000  97.7400000  37.8540000  20.4680000  95.8040000  37.3630000
  20.5090000  96.1320000  36.3090000  20.7620000  94.3890000  37.5140000
  20.1830000  93.8640000  36.6730000  20.2890000  93.9260000  38.3790000
  22.3130000  93.9950000  37.4450000  22.3480000  92.8550000  37.4390000
  22.8400000  94.4730000  38.3380000  23.1080000  94.4790000  36.1730000
  23.3420000  95.5460000  36.2820000  22.5510000  94.3690000  35.3040000
  24.3770000  93.6800000  35.8790000  24.7410000  93.9820000  34.8680000
  24.0290000  92.6010000  35.7500000  25.5550000  93.6300000  36.9540000
  26.4850000  93.1870000  36.5130000  25.3760000  93.1090000  37.9340000
  25.9310000  95.0950000  37.4810000  26.7750000  94.8810000  38.0760000
  25.0860000  95.4460000  38.0610000  26.2900000  96.1560000  36.3850000
  26.5190000  97.1280000  36.8320000  25.3850000  96.3830000  35.7880000
  27.4310000  95.8480000  35.5260000  27.6330000  96.8000000  34.9700000
  27.2240000  95.0590000  34.8110000  28.3010000  95.4860000  36.0860000
  52.4370000 105.4330000  40.5890000  52.3920000 106.4900000  40.5120000
  51.5870000 104.9660000  40.1830000  53.3220000 105.1330000  40.0050000
  52.4930000 105.2950000  42.0670000  53.3040000 105.8720000  42.4760000
  51.5810000 105.7550000  42.3880000  52.4430000 103.8970000  42.6210000
  51.7130000 103.3840000  42.0140000  53.4260000 103.5360000  42.3440000
  52.2370000 103.8000000  44.0870000  52.9630000 104.4990000  44.4740000
  51.2840000 104.2770000  44.3660000  52.2750000 102.5260000  44.9300000
  53.3110000 102.1060000  44.7650000  52.2860000 102.6660000  45.9750000
  51.2990000 101.3960000  44.6350000  50.3830000 101.5870000  45.1620000
  50.9830000 101.3180000  43.5780000  51.8400000 100.0270000  45.2230000
  51.2590000  99.1740000  44.8390000  52.8180000  99.7680000  44.7540000
  52.0120000  99.8550000  46.7040000  51.3270000 100.5100000  47.2190000
  51.7630000  98.8470000  46.9670000  53.3930000 100.1510000  47.3090000
  54.1680000 100.1290000  46.5500000  53.3860000 101.1170000  47.7610000
  53.9080000  99.1330000  48.3570000  53.6940000  98.1470000  47.9690000
  54.9800000  99.1710000  48.4370000  53.1480000  99.3930000  49.6810000
  52.0700000  99.3580000  49.4260000  53.3460000  98.5470000  50.3730000
  53.5320000 100.7480000  50.4150000  53.8230000 100.3490000  51.3660000
  54.4540000 101.1500000  49.8980000  52.4610000 101.8100000  50.5530000
  52.1640000 102.1620000  49.5910000  51.6040000 101.3680000  51.0310000
  52.8420000 103.0520000  51.3960000  52.9010000 102.7390000  52.4460000
  53.8020000 103.4630000  51.2060000  51.7020000 104.0890000  51.3190000
  51.7880000 104.6820000  50.4010000  50.6660000 103.7090000  51.2460000
  51.7180000 105.0970000  52.4760000  51.5230000 104.8020000  53.6570000
  51.7420000 106.3070000  51.9790000  51.5040000 107.3360000  52.9350000
  52.1110000 107.1520000  53.8340000  51.9800000 108.1990000  52.5170000
  50.0740000 107.9290000  53.0500000  49.9700000 108.7690000  52.4290000
  49.8070000 108.3620000  54.5160000  50.2020000 107.6720000  55.2630000
  50.4040000 109.2300000  54.7120000  48.3980000 108.6690000  54.7720000
  47.9320000 109.1740000  56.1990000  47.7870000 107.7140000  56.9000000
  47.4110000 107.5970000  58.3250000  47.4870000 106.5910000  58.5900000
  48.1210000 108.1170000  58.8610000  46.0000000 108.1850000  58.5920000
  45.7800000 108.3850000  59.6510000  46.0160000 109.2580000  58.1700000
  44.7430000 107.4990000  58.0590000  44.5380000 106.0850000  58.5320000
  43.7370000 105.5080000  57.9350000  45.4580000 105.6270000  58.3900000
  44.3070000 106.1910000  59.5780000  43.6240000 108.3230000  58.4860000
  43.7490000 109.2960000  58.0110000  42.7400000 107.8760000  58.0910000
  43.5830000 108.3430000  59.5640000  44.8140000 107.4970000  56.5940000
  45.8180000 107.3520000  56.1620000  44.7880000 108.5620000  56.2940000
  43.9240000 107.0230000  56.0230000  48.9930000 109.9550000  56.8750000
  46.6240000 109.8170000  56.1060000  49.1010000 106.8890000  52.7230000
  48.6900000 106.9100000  51.4490000  49.4220000 107.3130000  50.5460000
  47.2670000 106.5930000  51.4290000  46.7660000 106.8010000  52.3990000
  47.1670000 105.5320000  51.3340000  46.5010000 107.2250000  50.2890000
  47.0830000 107.1020000  49.4330000  46.4180000 108.2710000  50.4930000
  45.1010000 106.5620000  50.0220000  44.4890000 106.5150000  50.9240000
  45.1900000 105.5840000  49.6780000  44.2400000 107.3910000  49.0240000
  43.9070000 108.2740000  49.5580000  43.3380000 106.7930000  48.8470000
  45.0490000 107.7630000  47.7340000  45.7350000 106.9790000  47.3420000
  45.7740000 108.4860000  48.0470000  44.2670000 108.4400000  46.7150000
  43.9410000 109.4030000  46.9640000  43.3680000 107.8680000  46.3840000
  45.0890000 108.5890000  45.4480000  45.5140000 107.6830000  45.2500000
  45.8990000 109.2680000  45.5160000  44.1140000 109.0250000  44.3740000
  43.6380000 110.0240000  44.5060000  43.9840000 108.4800000  43.1950000
  43.3600000 108.9120000  42.4540000  44.5090000 107.1780000  42.7220000
  43.7940000 106.5680000  42.1940000  45.0100000 106.4870000  43.4440000
  45.6080000 107.6320000  41.7450000  46.3840000 108.0540000  42.3870000
  45.2270000 108.4950000  41.1640000  46.3140000 106.5870000  40.8640000
  45.5840000 106.1290000  40.1440000  46.6790000 105.8000000  41.5130000
  47.6290000 107.1810000  40.2580000  48.2300000 107.5910000  41.1030000
  47.2930000 108.0450000  39.6850000  48.5310000 106.1740000  39.4650000
  48.9890000 105.3430000  40.0920000  49.4190000 106.6570000  39.1290000
  47.8790000 105.3610000  38.3110000  47.3630000 106.0480000  37.5990000
  47.2000000 104.6490000  38.7000000  48.9810000 104.6500000  37.5160000
  49.4350000 103.8960000  38.1570000  49.7490000 105.3390000  37.1750000
  48.4970000 104.0520000  36.1880000  47.7660000 103.2800000  36.2900000
  49.3150000 103.5320000  35.6120000  48.0880000 104.8860000  35.5870000
 146.4880000  84.0690000  36.0230000 146.7910000  83.4960000  35.0980000
 147.3240000  84.6210000  36.5040000 145.7480000  84.7000000  35.7680000
 145.8010000  83.1470000  37.0170000 144.9830000  82.6080000  36.4580000
 146.4740000  82.4530000  37.4890000 145.1770000  83.9510000  38.2260000
 145.9310000  84.6890000  38.5260000 144.3120000  84.4990000  37.8340000
 144.7470000  83.0070000  39.4100000 144.0080000  82.2930000  39.0570000
 145.6500000  82.4430000  39.7850000 144.0740000  83.8310000  40.5750000
 144.7290000  84.6410000  40.8140000 143.1140000  84.3900000  40.2610000
 143.7420000  83.0560000  41.8590000 143.1230000  83.6770000  42.4430000
 143.0360000  82.2730000  41.5690000 144.8240000  82.5630000  42.8280000
 145.5640000  81.9350000  42.2730000 145.2930000  83.4660000  43.2810000
 144.2160000  81.6640000  43.8980000 144.0990000  80.7200000  43.4610000
 145.0660000  81.6410000  44.6370000 142.9530000  82.1270000  44.7070000
 143.1680000  83.1110000  45.1060000 142.0900000  82.1040000  43.9470000
 142.7000000  81.0540000  45.8340000 142.7220000  80.1150000  45.3810000
 143.5150000  81.1380000  46.5840000 141.4190000  81.2210000  46.5910000
 140.6080000  81.2100000  45.8580000 141.3120000  80.3360000  47.1510000
 141.3410000  82.4180000  47.5440000 141.5670000  81.9930000  48.5580000
 141.9370000  83.2140000  47.2230000 139.9330000  82.9060000  47.7540000
 139.5640000  83.2330000  46.8340000 139.2800000  82.1900000  48.0640000
 139.9190000  84.1920000  48.6590000 140.2600000  84.0970000  49.6940000
 140.6050000  84.8540000  48.1660000 138.4620000  84.7710000  48.5700000
 138.0140000  84.7180000  47.5660000 137.7110000  84.2470000  49.1900000
 138.5980000  86.2460000  48.8330000 138.8540000  87.1270000  48.0780000
 138.3560000  86.4810000  50.1440000 138.3130000  87.9260000  50.5200000
 138.1550000  87.8840000  51.6050000 139.2630000  88.3480000  50.3070000
 137.2390000  88.7870000  49.8370000 137.5430000  88.9120000  48.7410000
 136.9960000  90.1420000  50.4640000 137.9220000  90.7640000  50.5440000
 136.2420000  90.7160000  49.9030000 136.5080000  90.0260000  51.8150000
 137.4400000  90.2560000  53.0950000 137.2970000  89.0230000  54.1110000
 136.2310000  89.1230000  55.1170000 136.2080000  88.2870000  55.7820000
 136.3110000  90.0310000  55.7140000 134.8640000  89.1510000  54.4840000
 134.0410000  89.5940000  55.1760000 135.0370000  89.8680000  53.6970000
 134.2760000  87.9330000  53.8890000 135.2410000  86.9580000  53.3050000
 135.7890000  86.5110000  54.1640000 134.5890000  86.1470000  52.8680000
 135.8950000  87.4110000  52.5670000 133.3650000  87.2950000  54.9460000
 133.6300000  87.4320000  55.9980000 132.3990000  87.7760000  54.6860000
 133.2910000  86.1910000  54.7350000 133.4410000  88.3460000  52.7370000
 132.9820000  87.4410000  52.3200000 133.9950000  88.8410000  51.9810000
 132.6000000  88.9870000  53.0910000 138.8050000  90.2290000  52.5430000
 136.9710000  91.3760000  53.8480000 136.0540000  88.0870000  49.9100000
 135.1810000  88.2180000  48.9070000 135.2950000  89.0600000  48.0250000
 134.0700000  87.1360000  48.9660000 133.1670000  87.6600000  48.5170000
 133.7930000  86.8060000  49.9870000 134.5640000  85.8950000  48.1390000
 133.7780000  85.1060000  48.2260000 135.5060000  85.5510000  48.5250000
 134.6370000  86.2860000  46.6550000 135.2190000  87.1890000  46.5010000
 133.6140000  86.5200000  46.3220000 135.2930000  85.1150000  45.8520000
 134.7160000  84.1690000  45.8320000 136.1830000  84.8750000  46.4340000
 135.7530000  85.3720000  44.4070000 136.4200000  86.2550000  44.5110000
 134.8480000  85.6400000  43.8840000 136.6550000  84.3450000  43.6570000
 136.7820000  84.5450000  42.6350000 136.2340000  83.3650000  43.6730000
 138.0470000  84.2150000  44.1860000 138.5460000  83.3580000  43.7160000
 138.0550000  83.9470000  45.2070000 138.8390000  85.4170000  43.8990000
 138.7580000  86.1770000  44.6140000 139.7400000  85.5150000  42.9240000
 140.3180000  86.4140000  42.8620000 139.8250000  84.5860000  41.7730000
 139.1250000  83.7520000  41.8350000 140.8290000  84.2050000  41.6550000
 139.3320000  85.3920000  40.5670000 140.0580000  86.0730000  40.3080000
 138.3790000  85.9810000  40.8200000 139.1650000  84.5670000  39.2930000
 138.5840000  85.1340000  38.5470000 138.6060000  83.6570000  39.5480000
 140.4960000  84.2590000  38.6990000 141.0600000  83.5860000  39.3680000
 141.0740000  85.1510000  38.4950000 140.1810000  83.6060000  37.3460000
 139.8600000  84.3700000  36.5800000 139.3750000  82.9180000  37.3960000
 141.4230000  83.0550000  36.7140000 141.9640000  82.4300000  37.4160000
 142.2010000  83.7300000  36.2360000 141.1380000  82.0370000  35.5510000
 140.6620000  81.1340000  35.8740000 142.0650000  81.7970000  35.0530000
 140.2810000  82.6130000  34.3240000 140.5030000  81.9540000  33.4210000
 140.6890000  83.6070000  34.1580000 139.2070000  82.6730000  34.6710000
 154.4650000  77.9450000  46.5300000 154.3230000  78.8110000  47.2190000
 154.9660000  77.2630000  47.1180000 153.5180000  77.5250000  46.1990000
 155.2830000  78.3220000  45.2610000 156.2920000  78.5230000  45.5820000
 155.3500000  77.4000000  44.7030000 154.6460000  79.4770000  44.4130000
 155.3320000  79.6170000  43.5870000 153.7670000  79.1030000  43.8900000
 154.4190000  80.7410000  45.2690000 153.6720000  80.4520000  46.0460000
 155.2890000  80.9740000  45.8390000 154.0790000  81.9940000  44.4290000
 154.2740000  82.8510000  45.0610000 154.7690000  82.0370000  43.5430000
 152.6510000  81.8780000  43.9240000 152.5290000  81.1090000  43.1950000
 151.9610000  81.7000000  44.7890000 152.2660000  83.2190000  43.2530000
 153.1160000  83.5980000  42.6590000 151.4120000  83.0700000  42.6080000
 151.7700000  84.3190000  44.2220000 152.3780000  84.3320000  45.1090000
 151.8520000  85.2250000  43.5830000 150.2590000  84.0530000  44.6740000
 149.6240000  83.8620000  43.8580000 150.0490000  83.1290000  45.3060000
 149.5890000  85.3280000  45.2780000 149.4960000  86.1830000  44.5540000
 148.5630000  84.9720000  45.4620000 150.1890000  85.8310000  46.6520000
 151.1740000  86.3360000  46.4560000 149.5860000  86.6580000  47.0020000
 150.2320000  84.7140000  47.7730000 150.0520000  85.3330000  48.6900000
 149.3300000  84.0580000  47.5750000 151.5080000  83.8770000  47.8580000
 151.8310000  83.3570000  46.9890000 152.3240000  84.5910000  48.0620000
 151.6310000  82.7500000  48.8790000 150.8310000  82.0220000  48.7030000
 152.6510000  82.3550000  48.8750000 151.2790000  83.2150000  50.3300000
 150.2730000  83.5230000  50.4910000 151.4090000  82.2820000  50.9320000
 152.2570000  84.2200000  50.7750000 153.3320000  83.9870000  51.2970000
 151.8030000  85.4560000  50.5010000 152.5600000  86.5160000  51.1680000
 152.6590000  86.1620000  52.1590000 153.5650000  86.4530000  50.7490000
 151.9160000  87.9460000  51.0250000 152.2540000  88.6950000  51.7050000
 150.3450000  87.9480000  51.2970000 149.9430000  88.8760000  50.8020000
 149.8820000  87.0940000  50.8180000 149.8660000  88.0060000  52.6640000
 150.4870000  86.9390000  53.7560000 149.3580000  86.8920000  54.9190000
 148.9500000  88.0460000  55.5930000 149.4990000  88.1580000  56.5670000
 148.9990000  88.9070000  54.8670000 147.4480000  87.9060000  55.8930000
 147.1190000  88.8310000  56.2910000 146.9210000  87.7320000  54.9410000
 146.8870000  86.8690000  56.8660000 145.5390000  86.8600000  56.4660000
 145.0850000  87.8450000  56.7100000 145.5590000  86.7630000  55.3350000
 145.0670000  86.0220000  56.9930000 147.6370000  85.5600000  56.5500000
 147.9160000  85.5130000  55.5000000 148.5670000  85.4660000  57.1270000
 147.0010000  84.6500000  56.7990000 147.0110000  87.1600000  58.2920000
 147.9560000  87.5810000  58.3930000 146.8420000  86.2040000  58.7880000
 146.2910000  87.9760000  58.5170000 150.4150000  85.5950000  53.1550000
 151.8070000  87.4390000  54.1720000 151.9790000  88.4880000  49.6780000
 153.0010000  89.3440000  49.4240000 153.8510000  89.5450000  50.2160000
 152.9780000  89.8850000  48.0390000 153.6240000  90.7070000  47.9520000
 151.9710000  90.3440000  47.7790000 153.4250000  88.8850000  46.9330000
 152.4920000  88.3470000  46.6620000 154.1890000  88.1570000  47.3520000
 153.9850000  89.6050000  45.6570000 154.8120000  90.2340000  45.9310000
 153.1200000  90.2050000  45.3340000 154.2800000  88.4340000  44.6560000
 153.3150000  87.9920000  44.2880000 154.8320000  87.6710000  45.2140000
 155.0610000  88.9640000  43.4270000 155.9370000  89.5590000  43.7970000
 154.4260000  89.6380000  42.8340000 155.6000000  87.8430000  42.4720000
 156.1920000  87.1300000  43.0630000 156.1660000  88.2390000  41.6350000
 154.4120000  87.0300000  41.8560000 153.5860000  87.6520000  41.5390000
 153.9970000  86.3410000  42.6030000 154.7580000  86.1670000  40.6920000
 155.7180000  85.6860000  40.7030000 153.9850000  86.0100000  39.5920000
 154.3330000  85.3430000  38.8050000 152.6110000  86.4240000  39.3480000
 152.2010000  87.0690000  40.1720000 152.0340000  85.4990000  39.1890000
 152.5470000  87.1280000  38.0610000 152.9210000  86.4910000  37.3060000
 153.2440000  87.9980000  38.0710000 151.0980000  87.5190000  37.6980000
 150.7060000  88.1170000  38.4720000 150.5380000  86.5360000  37.6470000
 150.9970000  88.2380000  36.3610000 151.4540000  87.6120000  35.5790000
 151.6780000  89.1910000  36.4220000 149.5890000  88.6840000  35.9850000
 149.0820000  89.1920000  36.7770000 148.9580000  87.8050000  35.7470000
 149.5900000  89.5830000  34.7890000 150.3050000  90.4120000  35.0220000
 148.5760000  89.9760000  34.5870000 149.8570000  88.7460000  33.5050000
 150.7570000  88.1410000  33.5900000 150.0180000  89.4250000  32.6280000
 148.7430000  87.7240000  33.1900000 148.8310000  86.8740000  33.8810000
 148.9910000  87.3310000  32.2190000 147.7860000  88.1310000  33.2480000
  48.2920000  47.3850000  39.2030000  48.8060000  48.3510000  39.3160000
  48.7880000  46.8060000  38.3990000  48.2880000  46.8180000  40.1290000
  46.8240000  47.5870000  38.7110000  46.8610000  48.1050000  37.7130000
  46.4280000  46.5780000  38.4940000  45.8910000  48.4860000  39.4840000
  45.6580000  48.0560000  40.4060000  46.3610000  49.4250000  39.6610000
  44.5550000  48.7300000  38.7200000  44.8380000  48.8350000  37.6630000
  43.8190000  47.9370000  38.8680000  43.8900000  50.0000000  39.3640000
  44.5440000  50.8850000  39.2470000  43.0420000  50.2760000  38.7510000
  43.4820000  49.7840000  40.8370000  42.7480000  49.0200000  40.9610000
  44.3590000  49.6810000  41.4890000  42.8930000  51.0460000  41.4080000
  43.6460000  51.8070000  41.2220000  41.9890000  51.3600000  40.8320000
  42.5950000  50.9110000  42.9110000  43.3720000  50.3000000  43.2660000
  42.5440000  51.8080000  43.5470000  41.2830000  50.1430000  43.1660000
  40.4650000  50.8700000  43.0370000  40.9460000  49.3860000  42.3890000
  41.0040000  49.5240000  44.6190000  41.1990000  50.2070000  45.3980000
  39.9500000  49.2660000  44.6800000  41.8720000  48.3060000  44.9310000
  41.8470000  47.5760000  44.0940000  42.9090000  48.6970000  44.9550000
  41.4410000  47.5530000  46.2270000  40.3360000  47.4240000  46.1920000
  41.8060000  46.4860000  46.2380000  41.8680000  48.2000000  47.5790000
  42.9400000  48.4130000  47.5820000  41.3710000  49.2010000  47.6560000
  41.5780000  47.2880000  48.7640000  42.2720000  46.4360000  48.6610000
  41.9270000  47.8220000  49.6590000  40.2200000  46.6820000  49.0100000
  39.8560000  46.1800000  48.1490000  40.3250000  45.7980000  49.6890000
  39.1600000  47.6260000  49.6980000  38.8050000  48.6110000  49.1430000
  38.7330000  47.1440000  50.9050000  37.5030000  47.8070000  51.4230000
  37.3760000  47.6400000  52.4830000  37.5390000  48.9490000  51.3450000
  36.3050000  47.3240000  50.5690000  36.3850000  47.8000000  49.6020000
  34.9420000  47.8330000  51.2370000  35.0420000  48.8200000  51.7710000
  34.2430000  47.9530000  50.3660000  34.2500000  46.7600000  51.9640000
  34.8160000  46.3000000  53.4160000  36.1250000  45.4630000  52.9440000
  36.0930000  44.0410000  52.9740000  35.8060000  43.6010000  53.9890000
  35.4270000  43.7050000  52.2100000  37.4320000  43.5450000  52.6240000
  37.3780000  42.4790000  52.3870000  37.8320000  44.0730000  51.8670000
  38.5700000  43.6280000  53.6300000  39.8200000  42.9330000  53.0410000
  39.5860000  41.8940000  52.7090000  40.0250000  43.6110000  52.2350000
  40.6760000  42.9920000  53.6770000  38.9350000  45.1270000  53.7710000
  39.9500000  45.1480000  54.0590000  38.7720000  45.5730000  52.7750000
  38.2420000  45.5730000  54.5220000  38.3090000  43.1190000  54.9820000
  37.5520000  43.7030000  55.4350000  39.2440000  43.3650000  55.5330000
  38.0050000  42.0610000  54.8520000  35.3420000  47.4790000  54.1260000
  33.8660000  45.3110000  54.0450000  36.1870000  45.8890000  50.3660000
  36.5840000  45.3930000  49.2060000  37.2070000  45.9920000  48.3430000
  36.3220000  43.9470000  49.1410000  36.7460000  43.4340000  50.0040000
  36.7850000  43.4430000  48.2120000  34.8170000  43.6770000  49.2760000
  34.3070000  44.4210000  49.9390000  34.7010000  42.7190000  49.7550000
  33.8930000  43.5170000  48.0070000  32.9770000  43.0750000  48.4290000
  34.3140000  42.8430000  47.2210000  33.8000000  44.9310000  47.3320000
  34.7320000  45.1330000  46.7540000  33.7730000  45.7510000  48.1160000
  32.6100000  45.0170000  46.3430000  31.6350000  44.6460000  46.7210000
  32.8840000  44.3890000  45.5230000  32.2160000  46.4010000  45.7370000
  31.7730000  46.9520000  46.6240000  31.3710000  46.2600000  45.0270000
  33.2530000  47.2170000  44.9750000  32.8560000  48.1270000  44.5970000
  33.6570000  46.5790000  44.1780000  34.4300000  47.6500000  45.8360000
  34.2300000  47.9520000  46.8620000  35.7280000  47.5190000  45.6070000
  36.4370000  47.9350000  46.3560000  36.4780000  47.0340000  44.3460000
  37.2930000  47.7310000  44.0970000  35.8040000  46.8610000  43.5050000
  37.1100000  45.6640000  44.6780000  36.3680000  44.9080000  44.9930000
  37.8120000  45.8150000  45.5320000  37.8430000  45.1540000  43.4120000
  37.1330000  45.1770000  42.5140000  37.9470000  44.0440000  43.4570000
  39.2060000  45.8940000  42.9340000  39.9150000  46.0120000  43.7920000
  38.9260000  46.9110000  42.5650000  40.0340000  45.1990000  41.8540000
  40.5190000  44.3500000  42.2660000  40.7740000  45.9540000  41.5130000
  39.4140000  44.8350000  40.4700000  39.4300000  45.7900000  39.8830000
  38.4210000  44.5690000  40.4720000  40.2780000  43.7940000  39.7190000
  40.2910000  42.8640000  40.2930000  41.2660000  44.2030000  39.4920000
  39.6590000  43.4910000  38.3550000  39.4600000  44.2880000  37.6960000
  38.7660000  42.8820000  38.6170000  40.3580000  42.8350000  37.8210000
 132.8010000 128.5180000  40.4650000 132.8970000 128.0330000  39.5090000
 133.3390000 127.9710000  41.2340000 133.1270000 129.5190000  40.3890000
 131.3650000 128.2910000  40.9810000 131.2460000 128.7980000  41.9250000
 130.6920000 128.7420000  40.2200000 130.9260000 126.8000000  41.1790000
 131.6490000 126.4080000  41.8420000 129.9770000 126.6290000  41.7470000
 130.9910000 125.9660000  39.8760000 130.3670000 126.4480000  39.1070000
 132.0260000 125.7600000  39.5550000 130.2940000 124.6080000  40.3030000
 129.2980000 124.7970000  40.4770000 130.0700000 124.0520000  39.4080000
 130.9300000 123.6060000  41.2530000 131.4210000 124.1550000  42.0260000
 130.2020000 122.9440000  41.8130000 131.9570000 122.7000000  40.6150000
 131.4580000 121.9590000  40.0960000 132.5520000 123.2280000  39.8920000
 132.8220000 122.0180000  41.7120000 132.1480000 121.4540000  42.3630000
 133.4590000 121.1870000  41.2550000 133.8390000 122.8310000  42.5670000
 133.3250000 123.4450000  43.3420000 134.3910000 122.0480000  43.1310000
 134.8090000 123.7950000  41.7820000 135.1420000 123.2470000  40.9490000
 134.2710000 124.6720000  41.4100000 135.9860000 124.2150000  42.6790000
 135.6810000 124.5240000  43.6710000 136.5850000 123.3400000  42.8470000
 136.9280000 125.2570000  42.1280000 137.2260000 124.8370000  41.0990000
 136.2370000 126.0690000  42.1540000 138.1820000 125.5670000  43.0580000
 137.9200000 125.6390000  44.1530000 138.8010000 124.7150000  43.0050000
 139.1080000 126.7190000  42.5930000 139.4920000 126.3200000  41.6700000
 138.5050000 127.5510000  42.3230000 140.3100000 127.0520000  43.4350000
 140.8740000 126.1320000  43.6660000 140.9480000 127.7370000  42.8830000
 139.8970000 127.6660000  44.7300000 139.5970000 126.9980000  45.7220000
 139.8020000 128.9860000  44.6400000 139.2320000 129.8530000  45.6300000
 139.9130000 130.0650000  46.4530000 138.9690000 130.8080000  45.0380000
 137.8360000 129.3320000  46.1830000 138.0100000 128.4010000  46.7510000
 137.1910000 130.3590000  47.1100000 137.7310000 131.2070000  47.3190000
 136.2530000 130.6610000  46.5840000 136.7830000 129.6540000  48.3750000
 137.9210000 129.2940000  49.4610000 138.0490000 127.7230000  49.4960000
 136.9660000 126.9430000  50.0380000 137.3770000 126.0770000  50.5190000
 136.3350000 127.4530000  50.8360000 136.1750000 126.4970000  48.8500000
 135.1680000 126.4100000  49.1990000 136.3090000 127.2550000  48.0680000
 136.6110000 125.2370000  48.1550000 136.3500000 124.0260000  48.9650000
 136.1100000 123.1290000  48.4450000 137.2940000 123.7880000  49.4750000
 135.6420000 124.3810000  49.7190000 135.5330000 125.1260000  47.1180000
 134.5680000 124.9630000  47.5750000 135.5450000 126.0970000  46.5710000
 135.7740000 124.2900000  46.4530000 137.9230000 125.1590000  47.5480000
 138.0760000 125.9880000  46.8300000 138.0520000 124.1620000  47.0460000
 138.6280000 125.2320000  48.3210000 139.2210000 129.7070000  48.9300000
 137.4600000 129.7820000  50.7840000 136.9030000 128.8590000  45.1300000
 136.4070000 129.6290000  44.2330000 136.7530000 130.7540000  44.0700000
 135.3350000 128.9600000  43.3580000 135.7590000 128.1780000  42.8470000
 134.8840000 129.6210000  42.6010000 134.1310000 128.4180000  44.1590000
 133.1610000 128.6100000  43.7100000 134.1910000 128.9380000  45.1510000
 134.1240000 126.9540000  44.4960000 135.0760000 126.7840000  44.9180000
 134.0990000 126.4350000  43.5990000 133.1120000 126.4150000  45.5150000
 133.3560000 126.8420000  46.4850000 133.1520000 125.3100000  45.5610000
 131.6370000 126.8000000  45.1140000 131.0490000 125.9020000  45.2130000
 131.6030000 127.1340000  44.0740000 131.1630000 127.9900000  45.9160000
 131.8690000 128.7510000  45.8740000 131.2780000 127.6910000  46.9460000
 129.7000000 128.4860000  45.5360000 128.8920000 127.9530000  46.0190000
 129.6470000 128.5060000  44.4820000 129.5230000 129.8320000  46.1110000
 129.1940000 129.8090000  47.1070000 129.5320000 131.0090000  45.3920000
 129.0780000 131.8280000  45.8770000 129.8330000 131.1990000  43.8940000
 130.5460000 130.5110000  43.4190000 130.3500000 132.1600000  43.8030000
 128.6040000 131.2450000  42.9660000 127.9830000 132.1050000  43.4350000
 128.0970000 130.3030000  43.0880000 128.8620000 131.5910000  41.3860000
 129.3660000 130.7530000  40.9750000 129.6160000 132.4100000  41.3000000
 127.5090000 131.8650000  40.6520000 127.0340000 132.7730000  40.9550000
 126.8180000 131.0900000  40.9970000 127.6570000 131.8290000  39.0970000
 128.1750000 130.8850000  38.8620000 128.2940000 132.6740000  38.9720000
 126.3650000 131.8070000  38.2710000 125.9750000 130.7970000  38.1160000
 126.7400000 132.0750000  37.2660000 125.1530000 132.6010000  38.6400000
 125.4850000 133.6270000  38.8280000 124.8050000 132.2370000  39.6050000
 123.9110000 132.7480000  37.6660000 124.1810000 133.3180000  36.8180000
 123.1210000 133.3370000  38.1400000 123.5110000 131.7860000  37.3550000
 131.7200000 114.2720000  45.4370000 132.2090000 113.3020000  45.2120000
 132.4810000 115.0240000  45.6160000 131.1850000 114.6060000  44.5480000
 130.8130000 114.2340000  46.6150000 131.4570000 113.8750000  47.4070000
 130.5820000 115.2560000  46.8200000 129.5480000 113.3960000  46.3850000
 129.0200000 113.9640000  45.5890000 129.9010000 112.4210000  45.9690000
 128.6580000 113.2670000  47.5940000 129.2790000 113.0740000  48.4670000
 128.1180000 114.1180000  47.7610000 127.6820000 112.1260000  47.3260000
 127.1050000 112.3800000  46.4070000 128.1730000 111.1970000  47.1110000
 126.6710000 111.8820000  48.4840000 127.1690000 111.3760000  49.2620000
 126.4200000 112.8890000  48.9020000 125.3750000 111.0960000  48.1620000
 125.5570000 110.1270000  47.6570000 124.8560000 110.9730000  49.1020000
 124.2990000 111.7080000  47.3500000 124.4250000 111.5270000  46.2660000
 123.3490000 111.1540000  47.6180000 124.1150000 113.2160000  47.6620000
 124.1530000 113.2700000  48.7490000 124.9480000 113.7740000  47.1860000
 122.8450000 113.6550000  46.9870000 122.9670000 113.8270000  45.9040000
 122.0090000 112.9310000  46.9580000 122.2810000 114.9510000  47.6190000
 121.3870000 115.2130000  47.0200000 121.9210000 114.7870000  48.5730000
 123.2110000 116.1490000  47.6660000 124.1450000 115.9410000  48.2810000
 123.7480000 116.3390000  46.7230000 122.4170000 117.4350000  48.1120000
 121.7710000 117.8580000  47.3980000 121.7590000 117.0600000  48.9010000
 123.2750000 118.5730000  48.6910000 124.0260000 118.7280000  47.9370000
 122.5910000 119.4250000  48.6940000 123.9690000 118.2950000  50.0450000
 124.3270000 117.2810000  50.0590000 124.8070000 119.0020000  50.2680000
 122.9450000 118.4510000  51.0890000 122.7910000 119.5060000  51.6760000
 122.2580000 117.3460000  51.3340000 121.3830000 117.2940000  52.4400000
 121.2000000 116.2100000  52.6650000 121.8630000 117.6620000  53.3140000
 120.0500000 118.0520000  52.1380000 120.3060000 119.0640000  51.7310000
 119.2740000 118.1380000  53.4850000 119.7410000 118.5760000  54.3590000
 118.4570000 118.8060000  53.2830000 118.8520000 116.8270000  53.8430000
 117.3200000 116.4400000  53.7210000 117.2800000 115.5380000  54.9810000
 117.9450000 114.1920000  54.9190000 118.9230000 114.1900000  54.4370000
 118.2770000 113.9880000  55.8900000 116.9210000 113.1440000  54.3910000
 115.9870000 113.1380000  55.0240000 116.6140000 113.4360000  53.3970000
 117.4500000 111.7600000  54.0970000 118.8030000 111.7650000  53.4240000
 118.8460000 112.5550000  52.6950000 119.5680000 112.0410000  54.0450000
 118.9420000 110.8640000  52.9190000 117.6420000 110.9070000  55.3250000
 116.6820000 110.8990000  55.9070000 117.8980000 109.8770000  54.9540000
 118.4430000 111.3910000  55.9200000 116.4310000 111.0390000  53.2630000
 116.6880000 110.0420000  53.0290000 116.1570000 111.6460000  52.3640000
 115.5620000 110.9890000  53.8880000 116.4830000 117.6230000  53.9020000
 117.0500000 115.4860000  52.6500000 119.3230000 117.3170000  51.0800000
 118.2350000 117.9650000  50.5680000 117.8710000 119.1370000  50.8000000
 117.4940000 116.9900000  49.6850000 116.5800000 116.5880000  50.1390000
 118.0480000 116.0460000  49.5210000 117.1830000 117.5720000  48.2780000
 116.7640000 118.5280000  48.3740000 116.4280000 116.9180000  47.8140000
 118.5580000 117.7000000  47.4860000 118.8340000 116.6680000  47.2160000
 119.3100000 118.1980000  48.0360000 118.3210000 118.3840000  46.1420000
 117.9680000 119.4300000  46.2890000 117.5860000 117.8140000  45.5300000
 119.5380000 118.5710000  45.2220000 120.3280000 119.1660000  45.7130000
 119.1320000 119.2030000  44.4220000 120.0020000 117.2560000  44.5850000
 119.1860000 116.8760000  43.9610000 120.0760000 116.5950000  45.4360000
 121.3710000 117.6030000  43.8890000 122.0290000 117.8310000  44.6810000
 121.1860000 118.3130000  43.1000000 121.8940000 116.3750000  43.2500000
 121.4770000 115.3920000  43.6010000 122.7140000 116.3590000  42.1400000
 122.9470000 115.3670000  41.6950000 123.3070000 117.5680000  41.4360000
 124.3550000 117.3360000  41.0560000 123.3450000 118.4900000  42.0840000
 122.5150000 117.9690000  40.1370000 122.9950000 118.8250000  39.6550000
 121.4850000 118.2830000  40.3150000 122.4750000 116.8460000  39.0110000
 122.0750000 117.2550000  38.0710000 121.7870000 116.0090000  39.3320000
 123.7080000 116.0680000  38.5790000 123.3850000 115.4780000  37.6930000
 124.0180000 115.4470000  39.4880000 124.7820000 117.0120000  38.2620000
 124.9210000 117.6900000  39.1600000 124.3740000 117.6650000  37.4800000
 126.0030000 116.3120000  37.9430000 126.6680000 117.0460000  37.5720000
 125.8030000 115.6520000  37.0550000 126.7470000 115.5480000  39.1130000
 127.4830000 114.8300000  38.7610000 125.9710000 114.9790000  39.7330000
 127.4490000 116.5600000  40.1030000 126.8490000 117.3410000  40.4330000
 128.2330000 117.0940000  39.6070000 127.7630000 116.0390000  40.9960000
  74.9270000 147.8610000  41.5850000  74.7390000 148.6200000  42.2900000
  74.3300000 146.9880000  41.7870000  74.7420000 148.2280000  40.5900000
  76.4250000 147.4650000  41.7270000  76.6000000 146.7310000  40.9320000
  77.2100000 148.2870000  41.4700000  76.7690000 147.0800000  43.1290000
  76.3400000 147.7790000  43.8770000  76.3010000 146.1440000  43.3810000
  78.3570000 147.0890000  43.3230000  78.7590000 146.3910000  42.5820000
  78.6000000 148.1020000  42.9750000  78.8420000 146.8960000  44.8060000
  79.9580000 146.9040000  44.8470000  78.4490000 147.6280000  45.5300000
  78.3050000 145.5330000  45.2260000  77.2330000 145.5460000  45.4280000
  78.4260000 144.7630000  44.4450000  78.9530000 145.0840000  46.5840000
  80.0700000 145.2080000  46.4850000  78.7030000 145.7360000  47.3820000
  78.7430000 143.5840000  46.9930000  79.1640000 142.9170000  46.2460000
  79.1680000 143.3820000  47.9960000  77.2570000 143.3300000  47.2650000
  76.9520000 144.1340000  47.9780000  76.6740000 143.3970000  46.3180000
  77.0350000 141.9180000  47.8830000  77.7000000 141.8450000  48.7750000
  76.0860000 141.8800000  48.3520000  77.1960000 140.7340000  46.9130000
  78.1560000 140.7620000  46.3400000  77.2550000 139.8140000  47.4980000
  76.0410000 140.7680000  45.9360000  75.9380000 141.7640000  45.4450000
  76.3360000 140.0060000  45.2000000  74.6540000 140.5450000  46.5590000
  74.4270000 141.4620000  47.0710000  73.8930000 140.4540000  45.7140000
  74.3660000 139.3540000  47.5080000  74.5570000 138.4490000  46.9340000
  75.0120000 139.4300000  48.3320000  72.9880000 139.1890000  48.1070000
  72.3910000 138.7980000  47.2960000  72.8750000 138.3550000  48.7830000
  72.3810000 140.4160000  48.7860000  72.0080000 141.4180000  48.1960000
  72.4820000 140.2770000  50.1160000  72.5270000 141.4190000  50.9300000
  71.6070000 142.0470000  50.8340000  72.6820000 141.1320000  51.9750000
  73.7640000 142.2620000  50.6960000  73.6790000 142.4390000  49.6860000
  75.0390000 141.4240000  50.9860000  74.9610000 140.6490000  50.2520000
  75.9020000 142.0440000  50.7420000  75.0660000 140.8820000  52.2930000
  75.6460000 141.6830000  53.5640000  74.2860000 142.3190000  54.1340000
  73.3270000 141.4340000  54.7410000  72.4240000 141.3280000  54.1570000
  73.6620000 140.4490000  54.8340000  72.9860000 142.0160000  56.1590000
  72.4260000 141.2770000  56.6530000  74.0030000 142.1480000  56.6580000
  72.1300000 143.2600000  56.1820000  72.8620000 144.3770000  55.6980000
  72.0250000 145.0510000  55.6320000  73.6000000 144.7430000  56.3240000
  73.3040000 144.1190000  54.7790000  70.8350000 143.1680000  55.2410000
  70.0800000 142.4310000  55.6190000  70.4820000 144.2150000  55.2040000
  71.1540000 142.8980000  54.2430000  71.6760000 143.5590000  57.5340000
  71.1380000 144.5130000  57.6620000  72.5460000 143.6020000  58.2040000
  70.9470000 142.8070000  57.8230000  76.1470000 140.6630000  54.4670000
  76.5910000 142.7100000  53.1020000  73.6460000 143.5460000  51.4740000
  74.4810000 144.5230000  50.9830000  75.2520000 144.3270000  50.0900000
  74.3080000 145.8130000  51.6960000  73.3290000 145.8070000  52.0650000
  74.4620000 146.6490000  51.0340000  75.3540000 145.8670000  52.8580000
  76.4010000 145.9090000  52.5060000  75.3000000 145.0070000  53.5220000
  74.9750000 147.0030000  53.8380000  74.0210000 146.7210000  54.3260000
  74.8510000 147.8800000  53.2090000  76.0420000 147.3690000  54.9460000
  76.3880000 146.4720000  55.5300000  75.7320000 148.1360000  55.7020000
  77.3550000 148.0210000  54.4810000  77.8140000 147.4610000  53.7010000
  78.0460000 147.9570000  55.2930000  77.2030000 149.4850000  54.0810000
  76.7680000 149.9350000  54.9370000  76.6810000 149.5920000  53.1320000
  78.6330000 150.0760000  53.7340000  78.9540000 149.5730000  52.8410000
  79.2530000 149.8600000  54.6370000  78.5290000 151.5580000  53.4690000
  77.8140000 152.1260000  54.0920000  79.2510000 152.2570000  52.6200000
  79.0840000 153.3340000  52.4730000  80.2500000 151.5920000  51.7220000
  80.4960000 152.3760000  50.9500000  79.9000000 150.6090000  51.2690000
  81.6730000 151.3560000  52.4440000  81.5610000 150.5880000  53.2710000
  81.9540000 152.2400000  53.0400000  82.8270000 150.8660000  51.6570000
  82.5800000 149.8940000  51.2700000  83.6400000 150.8920000  52.3950000
  83.2600000 151.7010000  50.4650000  83.4330000 152.7420000  50.7540000
  82.4930000 151.6690000  49.6800000  84.4860000 151.0400000  49.8920000
  85.1730000 150.9140000  50.7250000  84.9670000 151.7850000  49.2210000
  84.2700000 149.7450000  49.1110000  83.7140000 150.0770000  48.2320000
  83.6050000 148.9990000  49.6560000  85.5050000 149.1080000  48.5360000
  86.0970000 149.7370000  47.9070000  85.1850000 148.2640000  47.8690000
  86.3630000 148.5470000  49.6850000  87.3130000 148.2280000  49.2440000
  85.9130000 147.6360000  50.2130000  86.5220000 149.3280000  50.4480000
  80.6770000  27.6450000  37.2880000  79.7100000  27.4610000  36.9600000
  81.4190000  27.2720000  36.5710000  80.7030000  28.7350000  37.2640000
  80.9100000  27.0310000  38.7380000  81.9520000  27.1330000  39.0440000
  80.3520000  27.7020000  39.4080000  80.5770000  25.5440000  38.8460000
  79.5750000  25.4310000  38.6760000  81.2280000  24.9610000  38.2740000
  80.7150000  25.0380000  40.3730000  81.7260000  25.0730000  40.5150000
  80.2490000  25.7050000  41.1700000  80.1750000  23.5880000  40.4740000
  79.0920000  23.6280000  40.4250000  80.5240000  23.0480000  39.6170000
  80.5680000  23.0000000  41.7640000  81.6510000  23.0090000  41.8760000
  80.1570000  23.5770000  42.5690000  79.9480000  21.6410000  42.0320000
  78.8840000  21.8220000  42.2130000  80.0440000  20.9670000  41.1350000
  80.5880000  20.9170000  43.2400000  80.6250000  21.5690000  44.0970000
  80.0310000  20.0670000  43.4910000  82.0880000  20.5750000  42.8850000
  82.1930000  20.1390000  41.9700000  82.6340000  21.4560000  42.7460000
  82.7980000  19.7200000  43.9810000  82.8030000  20.2400000  44.8880000
  82.1890000  18.8580000  44.0680000  84.2590000  19.4000000  43.5970000
  84.3020000  18.8530000  42.6600000  84.7260000  20.4220000  43.4430000
  85.1370000  18.6970000  44.6570000  86.0990000  19.0170000  44.4740000
  84.9280000  19.2200000  45.6310000  85.0150000  17.1360000  44.8100000
  85.0330000  16.6840000  43.8370000  85.8610000  16.8090000  45.3940000
  83.6700000  16.7110000  45.4800000  82.8240000  17.0290000  44.8310000
  83.7690000  15.6100000  45.4980000  83.3450000  17.1760000  46.9340000
  83.6060000  18.2540000  47.0160000  82.2980000  17.0000000  47.1490000
  84.1400000  16.4510000  47.9760000  83.8650000  15.3020000  48.3480000
  85.2450000  17.1390000  48.3360000  86.4550000  16.4750000  48.9490000
  86.1900000  15.7080000  49.7670000  86.8660000  16.0020000  48.1030000
  87.4490000  17.4280000  49.6490000  88.3630000  16.8810000  49.9930000
  86.6640000  18.0540000  50.8360000  85.8120000  18.6250000  50.4240000
  86.3010000  17.2920000  51.4750000  87.5000000  18.9050000  51.6360000
  86.8760000  19.8800000  52.6760000  85.8350000  19.0020000  53.5480000
  84.4480000  18.7970000  53.1580000  83.7440000  19.5080000  53.6320000
  84.2660000  18.9700000  52.0790000  84.1410000  17.3180000  53.3780000
  83.1310000  17.0410000  53.1410000  84.8140000  16.7740000  52.6680000
  84.2000000  16.8040000  54.8470000  83.3910000  15.5130000  54.9940000
  82.5510000  15.7500000  54.3750000  83.9980000  14.6850000  54.5820000
  83.1190000  15.3320000  56.0020000  85.5600000  16.5300000  55.2810000
  86.0520000  16.0650000  54.4790000  86.1240000  17.4700000  55.4530000
  85.5780000  15.8430000  56.1690000  83.5460000  17.8380000  55.6860000
  83.4010000  17.3310000  56.6390000  82.6400000  18.1750000  55.1250000
  84.3040000  18.6030000  55.7440000  87.9510000  20.2420000  53.6210000
  86.1000000  20.9230000  52.0440000  87.7540000  18.4630000  48.7560000
  89.0210000  18.8670000  48.5640000  89.9770000  18.2570000  48.9750000
  89.1460000  20.0820000  47.7410000  90.0990000  20.5130000  47.8850000
  88.4820000  20.8480000  47.9940000  89.0140000  19.7210000  46.2760000
  88.0400000  19.1880000  46.1680000  89.8770000  19.0740000  45.9470000
  89.1380000  21.0090000  45.4850000  90.1720000  21.4140000  45.6580000
  88.2910000  21.6450000  45.8700000  88.9110000  20.6980000  43.9890000
  87.9420000  20.1790000  43.8340000  89.7240000  20.0790000  43.7400000
  89.1220000  22.0570000  43.2930000  90.2060000  22.1910000  43.5050000
  88.6680000  22.8400000  43.8350000  88.8990000  22.1520000  41.7670000
  87.8340000  22.0940000  41.4750000  89.4350000  21.2850000  41.3560000
  89.4550000  23.5050000  41.2340000  90.5470000  23.5980000  41.6300000
  88.8000000  24.2800000  41.7530000  89.3960000  23.6470000  39.7190000
  89.5260000  22.7120000  39.2110000  89.1300000  24.8210000  39.1500000
  89.1440000  24.8140000  38.0600000  88.9270000  26.1660000  39.7770000
  89.6280000  26.8350000  39.2920000  89.2390000  26.1260000  40.7840000
  87.5130000  26.7380000  39.6670000  87.5000000  27.7420000  40.0590000
  86.7830000  26.2270000  40.2840000  87.0630000  26.8350000  38.2450000
  87.2530000  25.9430000  37.7410000  87.7540000  27.4900000  37.7230000
  85.5930000  27.2580000  37.9550000  84.9280000  26.6170000  38.4790000
  85.3930000  27.2200000  36.8790000  85.3180000  28.7780000  38.3980000
  86.0530000  29.4760000  37.9780000  85.5190000  28.9770000  39.4570000
  83.8730000  29.2550000  37.9600000  83.1590000  28.6370000  38.5040000
  83.7030000  29.0810000  36.8770000  83.5110000  30.7340000  38.3390000
  84.1900000  31.3590000  37.8100000  83.6670000  30.8350000  39.4720000
  82.1440000  31.2670000  38.1050000  81.3170000  30.7160000  38.6280000
  81.8480000  31.1170000  37.0270000  82.1150000  32.3090000  38.1510000
 114.7670000 136.0970000  38.2380000 115.7970000 135.8300000  38.1700000
 114.5730000 136.9440000  37.5440000 114.1510000 135.2320000  37.8700000
 114.2550000 136.3830000  39.6890000 115.0170000 136.8890000  40.2600000
 113.3990000 137.0580000  39.4920000 113.8120000 135.1510000  40.4350000
 113.0180000 134.6750000  39.8390000 114.5310000 134.4460000  40.4840000
 113.4960000 135.4610000  41.9210000 114.2690000 136.0490000  42.4050000
 112.6520000 136.1140000  42.0180000 113.2040000 134.1220000  42.6580000
 113.9660000 133.2980000  42.4320000 113.1530000 134.2860000  43.7470000
 111.7940000 133.5950000  42.2490000 111.6900000 133.3580000  41.1430000
 111.7740000 132.5590000  42.6580000 110.5200000 134.3600000  42.6520000
 110.3410000 135.2180000  42.0210000 109.6380000 133.7900000  42.4130000
 110.3990000 134.5720000  44.1980000 111.2180000 135.2560000  44.5200000
 109.3730000 134.9800000  44.3370000 110.4680000 133.1960000  44.9060000
 109.6930000 132.5940000  44.4580000 111.4290000 132.6730000  44.7730000
 110.2650000 133.2890000  46.4050000 109.2970000 133.7230000  46.7320000
 110.3380000 132.2640000  46.7340000 111.3240000 134.0820000  47.1960000
 111.3420000 135.1380000  46.9460000 110.8350000 133.9780000  48.1830000
 112.7510000 133.5210000  47.1240000 112.7560000 132.5420000  47.5690000
 113.1680000 133.4780000  46.1250000 113.7810000 134.4370000  47.8500000
 113.6750000 135.4620000  47.5360000 113.6690000 134.3440000  48.9330000
 115.1970000 133.9420000  47.4560000 115.2170000 134.1270000  46.3460000
 115.8200000 134.6410000  47.9840000 115.6090000 132.5120000  47.8280000
 115.0280000 131.6850000  47.3410000 116.6390000 132.3130000  47.4460000
 115.7540000 132.3070000  49.3220000 116.7710000 132.3040000  49.9580000
 114.5120000 132.1390000  49.8990000 114.4810000 132.0470000  51.3840000
 113.4070000 131.8440000  51.6660000 115.1610000 131.2420000  51.7660000
 114.8320000 133.5280000  51.9500000 115.6170000 133.9530000  51.2980000
 115.2580000 133.4960000  53.3520000 116.3640000 133.5790000  53.3600000
 114.8680000 134.3600000  53.9950000 114.7930000 132.3210000  54.0260000
 115.0740000 132.1480000  55.5990000 113.6470000 132.4680000  56.3370000
 113.1440000 133.7510000  56.6430000 112.7360000 133.7210000  57.6390000
 113.9680000 134.4030000  56.7710000 112.1480000 134.1750000  55.5320000
 111.6540000 135.1790000  55.8170000 112.7820000 134.2360000  54.6490000
 110.9790000 133.2440000  55.3130000 110.0230000 133.7100000  54.3280000
 109.1940000 133.0670000  54.6090000 109.7760000 134.7190000  54.5030000
 110.5000000 133.5210000  53.3410000 111.3230000 131.8670000  54.7930000
 111.8590000 131.3330000  55.6360000 110.3770000 131.3740000  54.6340000
 112.0010000 131.8900000  53.9690000 110.2400000 133.1270000  56.5750000
 109.9540000 134.2070000  56.8600000 110.9100000 132.7050000  57.2570000
 109.3750000 132.4260000  56.3920000 115.3460000 130.6720000  55.7570000
 116.0580000 133.1120000  56.0380000 113.7070000 134.3420000  51.7970000
 113.7780000 135.6640000  51.8850000 114.7870000 136.2410000  52.2320000
 112.5580000 136.4770000  51.5120000 112.1580000 136.9920000  52.4060000
 111.8860000 135.6660000  51.2630000 112.8130000 137.3320000  50.2430000
 113.3120000 136.7210000  49.5670000 113.3360000 138.2390000  50.4840000
 111.4380000 137.6540000  49.5550000 110.8730000 138.1580000  50.2400000
 110.9430000 136.7080000  49.3250000 111.4690000 138.4900000  48.2320000
 111.7830000 139.5080000  48.4330000 110.4150000 138.4980000  47.9770000
 112.3220000 137.9620000  47.0420000 111.9080000 137.0720000  46.5740000
 113.2730000 137.6590000  47.4520000 112.5310000 139.1630000  46.0510000
 113.4090000 139.7920000  46.4940000 111.6190000 139.6950000  45.9040000
 112.8770000 138.7430000  44.6870000 112.8790000 139.6460000  44.1310000
 111.9920000 138.2480000  44.2680000 114.0790000 137.8480000  44.6110000
 113.8940000 136.7900000  44.6580000 115.3270000 138.2710000  44.3090000
 116.1600000 137.5020000  44.1820000 115.7750000 139.7550000  44.1930000
 116.3050000 139.9690000  45.0750000 114.8870000 140.4310000  44.0930000
 116.5920000 140.1210000  42.9350000 117.5190000 139.6450000  43.0580000
 116.8660000 141.1680000  43.0270000 116.0120000 139.7890000  41.5430000
 115.9000000 138.7320000  41.4740000 116.6830000 140.0600000  40.7850000
 114.5520000 140.4030000  41.2280000 113.7380000 139.9900000  41.8720000
 114.2400000 140.1300000  40.2120000 114.5310000 141.9390000  41.3170000
 115.3690000 142.3280000  40.7280000 114.8680000 142.2360000  42.3120000
 113.1900000 142.5590000  40.7520000 112.3330000 142.4840000  41.4780000
 112.9870000 141.9110000  39.9180000 113.2530000 144.0500000  40.2920000
 112.4400000 144.2770000  39.6360000 114.1720000 144.1620000  39.6980000
 113.3100000 145.1120000  41.4820000 114.2680000 145.0450000  42.0330000
 112.4300000 144.9190000  42.1000000 113.2540000 146.1450000  41.1890000
 149.0190000  26.3870000  38.6550000 148.3420000  26.9020000  39.3830000
 148.4300000  25.9680000  37.8240000 149.6380000  27.2120000  38.2050000
 149.9590000  25.3680000  39.3320000 150.4830000  25.8090000  40.1720000
 149.3640000  24.6840000  39.9550000 150.7990000  24.5460000  38.3450000
 150.2580000  24.0100000  37.5710000 151.4470000  25.2630000  37.8770000
 151.6990000  23.4970000  39.0740000 152.5210000  23.1810000  38.4300000
 152.2690000  24.0120000  39.8780000 150.9480000  22.2800000  39.7220000
 150.6780000  22.5740000  40.7310000 150.0260000  22.1040000  39.1150000
 151.9330000  21.0360000  39.8040000 152.7620000  20.9690000  39.0940000
 152.3490000  21.1760000  40.8480000 151.1970000  19.7290000  39.7440000
 150.6930000  19.6280000  38.8180000 151.8410000  18.8630000  39.8780000
 150.1090000  19.5690000  40.8360000 149.1560000  20.0830000  40.5120000
 149.9340000  18.4890000  40.7900000 150.5470000  19.9440000  42.2420000
 151.5400000  19.5810000  42.6780000 150.8470000  20.9750000  42.3360000
 149.4640000  19.7320000  43.3330000 149.0290000  18.7160000  43.0470000
 149.8710000  19.7110000  44.3680000 148.2740000  20.7260000  43.2010000
 147.8390000  20.7420000  42.2450000 147.5190000  20.4080000  43.9410000
 148.7380000  22.1970000  43.3710000 149.6520000  22.2180000  44.0340000
 148.9890000  22.6710000  42.4100000 147.6250000  23.1500000  44.0440000
 147.1880000  22.7050000  44.9380000 148.1460000  24.0440000  44.3360000
 146.5450000  23.5440000  43.0310000 147.0490000  24.0700000  42.2510000
 146.0680000  22.6040000  42.6120000 145.3150000  24.3090000  43.5240000
 145.5460000  25.1360000  44.1820000 144.8220000  24.7550000  42.6740000
 144.3430000  23.5020000  44.3870000 144.0630000  22.3370000  44.2070000
 143.8000000  24.2320000  45.3870000 142.8850000  23.5600000  46.2930000
 142.3980000  24.3740000  46.9740000 142.1460000  23.0510000  45.7070000
 143.6130000  22.6160000  47.2000000 143.9290000  21.7580000  46.6280000
 142.6970000  22.2940000  48.3620000 141.9580000  21.7230000  47.8970000
 143.2630000  21.6930000  49.1400000 142.2050000  23.4220000  49.1170000
 142.8870000  23.8050000  50.5170000 144.2520000  24.5800000  50.1360000
 144.3700000  25.9770000  49.8040000 145.4070000  26.1750000  49.4340000
 143.7090000  26.1920000  48.9530000 144.2000000  26.8560000  51.0990000
 144.4040000  27.8920000  50.8040000 143.1540000  26.9120000  51.3930000
 144.9500000  26.6380000  52.3710000 144.3600000  27.5610000  53.3880000
 144.8160000  27.3350000  54.3320000 144.5600000  28.6090000  53.1040000
 143.3090000  27.4330000  53.3300000 144.9820000  25.2310000  52.7950000
 143.9220000  25.0890000  52.9550000 145.3680000  24.5590000  51.9850000
 145.6240000  25.2210000  53.6010000 146.3540000  27.0950000  52.0650000
 146.8460000  26.3400000  51.4130000 146.9220000  27.2040000  52.9740000
 146.4730000  28.0870000  51.6070000 141.9810000  24.6800000  51.2690000
 143.2590000  22.5320000  51.1320000 144.8910000  23.2550000  47.6260000
 145.8890000  22.5480000  48.1450000 145.7920000  21.3560000  48.4150000
 147.1460000  23.4210000  48.1960000 146.9040000  24.1150000  48.9930000
 147.2590000  23.9300000  47.1660000 148.3830000  22.6120000  48.5170000
 148.2600000  21.7820000  49.2700000 149.1370000  23.3120000  48.8410000
 148.8210000  21.9250000  47.2300000 149.1480000  22.7910000  46.6390000
 147.9420000  21.4950000  46.7460000 149.9180000  20.8790000  47.3860000
 149.9870000  20.4720000  46.3810000 149.7180000  20.1060000  48.0810000
 151.1960000  21.4890000  47.8800000 151.0620000  21.8600000  48.9220000
 151.4080000  22.3820000  47.2630000 152.5030000  20.6610000  47.8900000
 152.4520000  19.8320000  48.5920000 153.2140000  21.3990000  48.3190000
 152.8850000  20.2290000  46.4380000 153.0470000  21.2140000  45.9720000
 152.1130000  19.5430000  45.8900000 154.1890000  19.4770000  46.4460000
 154.4020000  19.0440000  47.3940000 155.0080000  19.2700000  45.4510000
 155.8960000  18.7640000  45.6190000 154.8340000  19.9250000  44.0290000
 153.7630000  20.0580000  43.8650000 155.0770000  19.2060000  43.2790000
 155.6950000  21.1570000  43.7790000 156.7420000  20.8680000  43.7110000
 155.6770000  21.8580000  44.6260000 155.1610000  22.0950000  42.6270000
 154.1370000  22.3080000  42.8830000 155.0950000  21.4660000  41.7220000
 155.8410000  23.4070000  42.4050000 156.9000000  23.3670000  42.2120000
 155.7120000  23.9420000  43.3510000 155.1200000  24.2260000  41.3080000
 155.1780000  25.3330000  41.5850000 154.0770000  23.9900000  41.1500000
 155.7530000  24.0380000  39.9470000 155.6530000  22.9920000  39.5190000
 156.8390000  24.1290000  40.0150000 155.1930000  25.0550000  38.8790000
 154.0850000  24.7610000  38.7050000 155.6910000  24.9160000  37.9440000
 155.4850000  26.4750000  39.2660000 155.3040000  27.2220000  38.5000000
 156.5380000  26.6430000  39.6730000 154.7690000  26.6360000  40.0980000
  46.0380000  83.9390000  42.6640000  45.3720000  83.1660000  42.4750000
  46.4610000  84.1290000  41.6600000  45.4270000  84.7450000  42.9640000
  47.0370000  83.2720000  43.6270000  46.6760000  83.0960000  44.5870000
  47.2150000  82.2240000  43.2920000  48.4260000  83.8910000  43.8120000
  49.0110000  83.2450000  44.4370000  48.9810000  83.9400000  42.8060000
  48.2650000  85.3490000  44.3730000  47.5260000  85.9100000  43.8220000
  47.9020000  85.2110000  45.3650000  49.6320000  86.0990000  44.6040000
  50.2310000  85.6180000  45.3750000  50.2470000  85.9150000  43.7400000
  49.4700000  87.6110000  44.8970000  49.0130000  88.1900000  44.0330000
  48.7370000  87.7980000  45.7080000  50.7350000  88.2290000  45.4510000
  51.4960000  88.0300000  44.6880000  50.7040000  89.3570000  45.5650000
  51.0860000  87.7990000  46.8650000  51.2260000  86.6920000  46.8510000
  52.0620000  88.2090000  47.1580000  50.0670000  88.2400000  47.9740000
  50.2350000  89.3170000  48.1260000  49.0690000  88.1420000  47.6700000
  50.1450000  87.6080000  49.3400000  51.0980000  87.9310000  49.7770000
  49.3600000  87.9570000  50.0330000  50.0200000  85.9910000  49.3010000
  50.8010000  85.5460000  48.7470000  50.2040000  85.6600000  50.3750000
  48.6590000  85.4100000  48.8920000  48.0070000  85.9840000  49.5040000
  48.5080000  85.6830000  47.8370000  48.5520000  83.8630000  49.1630000
  48.5810000  83.7050000  50.2300000  47.6060000  83.4400000  48.7990000
  49.6680000  83.0380000  48.4150000  49.5870000  83.3090000  47.3610000
  50.6010000  83.3450000  48.6870000  49.4820000  81.5470000  48.4580000
  48.5030000  81.3450000  47.9910000  50.2920000  81.0380000  47.8550000
  49.6400000  81.0870000  49.8600000  50.7330000  80.9420000  50.4010000
  48.4910000  80.9110000  50.5310000  48.5830000  80.2800000  51.8520000
  47.7700000  79.5040000  51.9230000  49.4810000  79.7230000  51.8820000
  48.4790000  81.2910000  53.0480000  48.7560000  80.8020000  53.9610000
  47.0880000  81.8570000  53.2670000  47.0330000  82.3820000  54.2330000
  46.7790000  82.4130000  52.3990000  46.1270000  80.7170000  53.3470000
  46.0060000  79.7580000  54.6140000  46.9900000  78.5490000  54.2620000
  46.4950000  77.3450000  53.7060000  47.2610000  76.5410000  53.6850000
  45.7470000  77.0110000  54.4750000  45.9190000  77.6750000  52.2160000
  45.8290000  78.7290000  52.1260000  46.6170000  77.4870000  51.4770000
  44.7210000  77.0430000  51.7330000  43.5960000  77.3210000  52.6190000
  43.6850000  76.8090000  53.5670000  43.6200000  78.3810000  52.9350000
  42.5960000  77.2000000  52.0770000  44.3390000  77.6420000  50.4500000
  45.1080000  77.3300000  49.7250000  43.3450000  77.3580000  50.2580000
  44.3440000  78.7320000  50.5610000  44.9430000  75.6140000  51.5480000
  45.8300000  75.4260000  50.9450000  44.0270000  75.2950000  51.0470000
  45.0670000  75.1050000  52.4830000  46.5030000  80.4710000  55.7550000
  44.6180000  79.2350000  54.5930000  49.4220000  82.4070000  52.7910000
  50.6930000  82.2480000  53.0520000  51.1320000  81.3060000  53.5920000
  51.4980000  83.5210000  52.6920000  52.2390000  83.7340000  53.4860000
  50.9050000  84.4200000  52.6620000  52.3230000  83.2510000  51.4540000
  51.5790000  83.3270000  50.6270000  52.6810000  82.2090000  51.4160000
  53.5690000  84.1500000  51.3170000  54.1080000  84.1950000  52.2340000
  53.2930000  85.1680000  51.1610000  54.3560000  83.9400000  50.0210000
  54.7290000  82.8740000  50.0340000  55.2240000  84.5640000  49.9760000
  53.4970000  84.1430000  48.7350000  53.1430000  85.2280000  48.7110000
  52.7030000  83.4470000  48.7140000  54.3620000  83.8870000  47.4660000
  54.6950000  82.7880000  47.3970000  55.1820000  84.5500000  47.4680000
  53.5570000  84.0330000  46.1660000  54.1580000  83.8400000  45.2840000
  53.1580000  85.0640000  46.1100000  52.3380000  83.1160000  46.0640000
  51.8830000  82.9780000  47.0680000  51.9780000  82.4440000  44.9480000
  51.2630000  81.6730000  45.0710000  52.6670000  82.5120000  43.5520000
  53.4240000  81.6970000  43.5380000  53.0430000  83.4950000  43.2400000
  51.7910000  82.2170000  42.4060000  50.8790000  82.8650000  42.4780000
  51.4580000  81.1440000  42.6270000  52.4740000  82.3180000  40.9970000
  53.4160000  81.8550000  41.1410000  52.6300000  83.4030000  40.7250000
  51.6720000  81.6640000  39.9440000  52.0870000  81.8960000  38.9570000
  50.6540000  82.0960000  39.9460000  51.4510000  80.1730000  40.0230000
  50.8990000  79.8520000  40.8970000  52.5050000  79.7940000  40.0740000
  50.7890000  79.5880000  38.7770000  51.3980000  79.8080000  37.9500000
  49.7870000  80.1160000  38.5650000  50.5670000  78.0560000  38.9380000
  50.0560000  77.7610000  39.9360000  51.4220000  77.4300000  38.8130000
  49.4890000  77.7030000  37.9080000  49.2270000  76.6020000  37.9040000
  49.8010000  77.6890000  36.8410000  48.6070000  78.2530000  37.9690000
 118.0430000 116.3900000  36.8810000 117.5690000 116.2050000  35.8320000
 119.0380000 116.9140000  36.6080000 117.4420000 117.0980000  37.4950000
 118.3680000 115.0670000  37.5550000 117.6000000 114.3180000  37.4020000
 119.3200000 114.7050000  37.1500000 118.6390000 115.2430000  39.0510000
 119.3040000 116.1430000  39.2170000 117.6330000 115.4940000  39.4640000
 119.1910000 113.9710000  39.7470000 118.4020000 113.2350000  39.8320000
 120.0170000 113.5870000  39.0710000 119.7280000 114.3100000  41.1540000
 120.5200000 115.0010000  41.0050000 118.8200000 114.8180000  41.5680000
 120.0240000 113.0740000  42.0720000 120.7330000 112.4140000  41.5360000
 120.5250000 113.4130000  42.9750000 118.7800000 112.3210000  42.4550000
 118.2830000 113.0320000  43.1240000 118.3200000 112.1170000  41.4890000
 119.0660000 110.9840000  43.1540000 119.8030000 110.4360000  42.4940000
 119.4510000 111.2060000  44.1460000 117.8260000 110.1210000  43.3440000
 117.1400000 110.1140000  42.4760000 118.0820000 109.0650000  43.4420000
 117.0150000 110.4200000  44.6740000 117.6230000 110.3450000  45.5760000
 116.7580000 111.4770000  44.5190000 115.7460000 109.5720000  44.8000000
 115.0250000 109.6630000  43.9710000 116.0880000 108.5460000  44.8530000
 115.0420000 109.9110000  46.1840000 115.8450000 110.2180000  46.8910000
 114.4030000 110.7760000  45.9410000 114.1850000 108.7740000  46.7580000
 113.6480000 108.4110000  45.8720000 114.8040000 108.0020000  47.1640000
 113.1860000 109.0730000  47.8490000 112.5220000 109.6510000  47.2200000
 112.7210000 108.0840000  48.1110000 113.5120000 109.7740000  49.1470000
 114.0400000 110.7270000  48.9730000 112.5410000 110.0940000  49.5950000
 114.3300000 108.9820000  50.1590000 113.8190000 108.1250000  50.8700000
 115.6580000 109.2860000  50.2040000 116.4550000 108.3930000  50.9990000
 117.3930000 108.8090000  51.1100000 115.9560000 108.3060000  51.9260000
 116.7130000 106.9780000  50.4000000 115.7470000 106.6140000  50.1450000
 117.6340000 106.0960000  51.3450000 116.9840000 105.6130000  52.0730000
 118.1330000 105.3200000  50.7440000 118.7200000 106.9030000  51.9550000
 118.6800000 107.4520000  53.4820000 119.5150000 106.3010000  54.2270000
 118.9750000 104.9060000  54.3670000 119.1930000 104.5420000  55.4160000
 117.8980000 104.8660000  54.2920000 119.7380000 104.0370000  53.3770000
 119.5670000 104.4400000  52.4340000 120.8240000 103.9900000  53.6710000
 119.4270000 102.5590000  53.3010000 119.8140000 101.7930000  54.4980000
 120.8680000 101.8900000  54.7410000 119.1870000 102.1220000  55.3340000
 119.6840000 100.7570000  54.1890000 117.9430000 102.3680000  53.0430000
 117.5430000 103.1230000  52.2740000 117.7890000 101.3250000  52.6210000
 117.3510000 102.4460000  53.9240000 120.1600000 102.0670000  52.1280000
 119.7510000 101.0880000  51.8550000 121.2580000 101.9680000  52.3160000
 120.0240000 102.7750000  51.3370000 119.3980000 108.6990000  53.5700000
 117.2330000 107.4420000  53.8820000 117.4180000 107.2560000  49.1750000
 117.3140000 106.4900000  48.0760000 116.5820000 105.5380000  48.0800000
 118.0070000 107.0550000  46.8650000 118.9980000 107.4740000  47.0840000
 117.4970000 107.9240000  46.4700000 118.2340000 105.9260000  45.7310000
 117.2240000 105.6980000  45.3810000 118.6110000 105.0240000  46.1660000
 119.2610000 106.2570000  44.5640000 120.1570000 106.5810000  45.1320000
 119.0100000 107.1320000  43.9740000 119.6510000 104.9900000  43.7630000
 120.0080000 105.4050000  42.8060000 118.7940000 104.3810000  43.5330000
 120.7210000 104.1900000  44.5050000 120.3740000 103.8700000  45.5140000
 121.4750000 104.9990000  44.6380000 121.1750000 103.0130000  43.5790000
 121.7770000 103.4480000  42.7270000 120.3360000 102.5940000  43.0270000
 121.8820000 101.8470000  44.3910000 121.3480000 101.6850000  45.3400000
 122.9070000 102.1350000  44.7430000 121.8880000 100.4790000  43.7340000
 121.1050000  99.8090000  44.1360000 122.6080000 100.2090000  42.6750000
 122.4350000  99.3170000  42.0630000 123.8320000 100.9250000  42.1900000
 124.7660000 100.3530000  42.2450000 123.9680000 101.8240000  42.8280000
 123.6960000 101.3070000  40.7570000 122.8600000 101.9680000  40.6920000
 123.4640000 100.4040000  40.2240000 124.8690000 102.0550000  40.1900000
 125.7340000 101.4230000  40.3100000 125.1170000 102.9750000  40.8040000
 124.6730000 102.3090000  38.7020000 123.7520000 102.7230000  38.5630000
 124.7030000 101.3540000  38.2680000 125.8580000 103.1090000  38.2000000
 126.6890000 102.5220000  38.3950000 125.9390000 104.0180000  38.7790000
 125.9470000 103.4980000  36.7470000 126.8310000 104.1420000  36.6510000
 125.1450000 104.1100000  36.4730000 126.0290000 102.2710000  35.7410000
 125.1550000 101.6110000  36.0550000 127.0160000 101.8180000  35.6820000
 125.6780000 102.9040000  34.4410000 125.7390000 102.1690000  33.6200000
 126.4300000 103.7310000  34.3110000 124.6970000 103.3090000  34.4980000
   5.6470000 112.3920000  40.5390000   5.3810000 113.4220000  40.6070000
   5.2260000 112.0310000  39.5830000   6.7180000 112.4370000  40.6230000
   4.9650000 111.7130000  41.7580000   5.6340000 111.9830000  42.5540000
   3.9370000 112.1340000  41.7740000   4.9070000 110.1910000  41.6970000
   3.9890000 109.7970000  41.1810000   5.7870000 109.8500000  41.1210000
   4.7390000 109.6170000  43.0830000   5.4470000 109.8330000  43.8510000
   3.7830000 110.0620000  43.3970000   4.7060000 108.1100000  42.9580000
   3.9340000 107.7470000  42.2670000   5.5830000 107.7520000  42.4770000
   4.4710000 107.3620000  44.2270000   5.3270000 107.5640000  44.8730000
   3.5940000 107.8070000  44.6830000   4.2870000 105.8500000  44.1740000
   3.5460000 105.5530000  43.4430000   5.1270000 105.2750000  43.7920000
   3.9650000 105.3060000  45.6360000   4.8340000 105.5630000  46.2980000
   3.0170000 105.7890000  46.0580000   3.7720000 103.8090000  45.6730000
   3.0780000 103.4640000  44.8350000   4.7230000 103.2980000  45.3410000
   3.1620000 103.2350000  46.9700000   2.0550000 103.3270000  46.9040000
   3.3160000 102.1460000  47.0620000   3.8030000 103.7210000  48.2790000
   3.6470000 104.7980000  48.4100000   3.2330000 103.2760000  49.1100000
   5.3340000 103.2750000  48.3050000   5.5020000 102.2680000  47.9770000
   5.8490000 103.9150000  47.6020000   5.9250000 103.5550000  49.6990000
   5.6790000 104.6040000  50.0110000   5.5160000 102.8400000  50.3650000
   7.4660000 103.3920000  49.6470000   7.8230000 104.1820000  48.9340000
   7.8060000 103.6320000  50.6580000   7.9320000 101.9440000  49.2650000
   7.5660000 101.6500000  48.2350000   9.0770000 102.0340000  49.2760000
   7.5290000 100.9750000  50.3460000   7.9710000 100.9310000  51.4910000
   6.4600000 100.2580000  50.0060000   5.5850000  99.6600000  51.0500000
   6.2520000  99.2190000  51.7420000   4.9400000 100.3460000  51.5880000
   4.6430000  98.6640000  50.3740000   4.0760000  99.1960000  49.5640000
   3.5350000  98.0990000  51.3200000   2.9170000  98.9680000  51.6020000
   2.8660000  97.4240000  50.7800000   4.0190000  97.4970000  52.5940000
   4.6490000  96.0470000  52.6850000   6.2230000  96.2660000  52.7960000
   7.1610000  95.2940000  52.3780000   6.7090000  94.4100000  51.9480000
   7.7160000  95.6310000  51.5850000   8.0900000  94.8200000  53.4750000
   8.8650000  94.2130000  53.0680000   8.6210000  95.6080000  53.9930000
   7.5540000  94.1220000  54.6540000   7.1800000  95.1020000  55.7720000
   6.9730000  94.5550000  56.7040000   8.1120000  95.7020000  56.0270000
   6.2330000  95.6300000  55.5240000   6.4050000  93.3150000  54.4190000
   6.6390000  92.3910000  53.8850000   6.0400000  92.9280000  55.3420000
   5.7320000  93.9280000  53.9030000   8.5960000  93.1600000  55.2000000
   8.1330000  92.8160000  56.1710000   9.6030000  93.5640000  55.4110000
   8.6370000  92.3670000  54.4820000   4.2410000  95.4180000  53.9680000
   4.4040000  95.3320000  51.4350000   5.4350000  97.4550000  49.9640000
   4.9510000  96.6660000  48.9530000   3.9350000  97.0000000  48.3980000
   5.7990000  95.4300000  48.6470000   5.2690000  94.5170000  49.0330000
   6.7580000  95.6540000  49.1460000   5.9000000  95.1420000  47.1080000
   4.9780000  95.2270000  46.5640000   6.2540000  94.1630000  46.9590000
   6.9600000  96.0710000  46.3990000   7.0640000  95.7230000  45.3890000
   7.9450000  95.9600000  46.8710000   6.5180000  97.5870000  46.3540000
   6.8200000  97.9780000  47.2800000   5.4450000  97.6650000  46.3400000
   7.1350000  98.4260000  45.2560000   7.0710000  97.9360000  44.2070000
   8.2250000  98.5500000  45.4810000   6.5260000  99.8430000  45.1950000
   7.0490000 100.3870000  44.4000000   6.7920000 100.3930000  46.1200000
   4.9020000 100.0040000  45.0600000   4.6400000 101.0480000  44.9640000
   4.3050000  99.7040000  45.9670000   4.3950000  99.1800000  43.9850000
   4.1720000  98.1970000  44.4170000   4.3440000  99.4380000  42.6800000
   4.0870000  98.5840000  42.0390000   4.6780000 100.8570000  42.1140000
   5.4790000 100.6850000  41.4020000   5.1760000 101.5020000  42.8750000
   3.4490000 101.5450000  41.5110000   2.6670000 101.5490000  42.2790000
   3.0150000 100.8730000  40.7870000   3.6950000 103.0140000  40.9630000
   4.3770000 102.8890000  40.1430000   4.1040000 103.7130000  41.7170000
   2.4130000 103.6200000  40.4570000   1.7250000 103.8270000  41.2860000
   1.9690000 102.9590000  39.7440000   2.6360000 105.0790000  39.8680000
   3.2200000 105.6470000  40.5810000   1.6760000 105.5680000  39.6490000
   3.4580000 105.0100000  38.5580000   3.0420000 104.2420000  37.8910000
   4.4370000 104.6180000  38.9260000   3.6590000 106.3290000  37.7540000
   2.7090000 106.8010000  37.5090000   4.1830000 106.0570000  36.8190000
   4.5500000 107.3190000  38.5360000   5.5150000 106.8250000  38.8210000
   3.9670000 107.5290000  39.4030000   4.7940000 108.2000000  37.9630000
  75.3440000  66.5040000  42.7190000  74.9310000  67.1970000  43.4870000
  76.0880000  66.9380000  42.1030000  75.7400000  65.7930000  43.3550000
  74.3130000  65.8170000  41.8540000  73.5110000  65.6440000  42.5390000
  73.9860000  66.4860000  41.0070000  74.7510000  64.4240000  41.3010000
  75.4080000  64.6340000  40.3920000  75.4120000  63.8410000  41.9300000
  73.5520000  63.6250000  40.9840000  72.9650000  63.2240000  41.8140000
  72.7960000  64.2050000  40.3870000  74.0570000  62.3600000  40.2540000
  74.6360000  62.6810000  39.3470000  74.8280000  61.8160000  40.8370000
  72.9330000  61.3420000  39.9270000  72.3860000  60.9870000  40.7750000
  72.1820000  61.7230000  39.2350000  73.6200000  60.1660000  39.1850000
  72.7410000  59.7080000  38.5900000  74.4080000  60.5640000  38.4290000
  74.1350000  58.9580000  40.0460000  74.8590000  59.5110000  40.7440000
  73.3660000  58.6210000  40.7500000  74.9170000  57.7660000  39.4560000
  75.6920000  58.2250000  38.8470000  75.4210000  57.2020000  40.2590000
  74.1880000  56.8920000  38.4300000  73.7800000  57.6170000  37.6700000
  74.8380000  56.1600000  37.8900000  73.0020000  56.1790000  39.0620000
  72.3770000  56.8340000  39.5980000  72.4260000  55.7120000  38.1950000
  73.6350000  55.2300000  40.0110000  74.3570000  54.5760000  39.5740000
  74.1410000  55.6940000  40.8100000  72.5330000  54.2690000  40.7020000
  72.0000000  53.5530000  40.0730000  72.9320000  53.5900000  41.4940000
  71.5050000  55.1930000  41.4750000  72.0080000  56.1210000  41.7220000
  70.7370000  55.5840000  40.7810000  70.8200000  54.6040000  42.7460000
  71.0340000  53.5370000  42.6330000  71.2300000  54.9630000  43.6420000
  69.2940000  54.5230000  42.9060000  68.5600000  54.7740000  41.9730000
  68.8780000  54.2990000  44.1760000  67.5130000  54.6020000  44.4920000
  67.2340000  55.6440000  44.1360000  66.8590000  53.8140000  44.0890000
  67.2630000  54.4840000  45.9840000  66.1760000  54.6510000  46.0610000
  67.9840000  55.5290000  46.7720000  69.1030000  55.3580000  46.8390000
  67.8580000  56.5480000  46.2370000  67.4230000  55.6640000  48.1160000
  66.0390000  56.4330000  48.3750000  64.9850000  55.2720000  48.1460000
  64.9770000  54.0690000  48.9740000  65.4470000  53.2630000  48.4100000
  65.6340000  54.2810000  49.8690000  63.4910000  53.7510000  49.4150000
  63.4200000  52.9170000  50.0640000  63.0660000  54.5840000  50.0400000
  62.5120000  53.3760000  48.3450000  61.1850000  53.1880000  49.0550000
  60.9030000  54.0510000  49.6060000  60.4780000  53.0050000  48.2260000
  61.2790000  52.2730000  49.6390000  62.5000000  54.4970000  47.4050000
  63.4580000  54.5360000  46.8720000  61.7060000  54.3260000  46.7350000
  62.2080000  55.4540000  47.9710000  62.7950000  52.0730000  47.6430000
  61.8000000  51.8540000  47.0860000  63.0620000  51.2150000  48.3960000
  63.6600000  52.2020000  46.9610000  66.0900000  56.8850000  49.7270000
  65.8850000  57.4070000  47.2240000  67.7620000  53.1570000  46.3640000
  66.8510000  52.1450000  46.3800000  65.6760000  52.1080000  46.0110000
  67.5610000  50.9020000  46.8960000  66.7980000  50.4350000  47.4870000
  68.4170000  51.2350000  47.4860000  67.9340000  49.8530000  45.8840000
  67.1050000  49.6510000  45.1840000  68.2240000  48.8700000  46.3910000
  69.0330000  50.3920000  44.9810000  69.9180000  50.3910000  45.6140000
  68.8380000  51.4170000  44.6920000  69.3440000  49.4770000  43.7380000
  69.0930000  48.4630000  44.0890000  70.4620000  49.5740000  43.4850000
  68.4270000  49.7540000  42.4750000  67.3780000  49.7950000  42.8820000
  68.5710000  48.9550000  41.7590000  68.6860000  51.1170000  41.8950000
  69.5830000  51.1390000  41.3230000  69.0090000  51.8410000  42.5860000
  67.5770000  51.7840000  41.1240000  68.1000000  52.6310000  40.6990000
  66.6380000  51.9790000  41.7320000  67.1160000  50.8790000  39.9880000
  66.5430000  50.0760000  40.3940000  67.3880000  50.8830000  38.7260000
  66.9570000  50.0920000  38.0480000  68.0680000  52.0080000  37.9410000
  68.4630000  52.8200000  38.6120000  67.2560000  52.4140000  37.3140000
  69.2130000  51.4880000  37.0780000  69.5820000  52.4080000  36.5640000
  68.7790000  50.7680000  36.2840000  70.3560000  50.8680000  37.8160000
  69.9730000  50.2300000  38.5710000  70.8750000  51.7340000  38.2780000
  71.3310000  50.1980000  36.8570000  71.5230000  50.8840000  36.0830000
  70.8340000  49.3250000  36.4200000  72.6490000  49.6870000  37.4960000
  73.2550000  49.1750000  36.7510000  72.5210000  48.9630000  38.2590000
  73.5740000  50.8360000  37.9860000  73.1320000  51.5390000  38.7180000
  73.9070000  51.3860000  37.1230000  74.7900000  50.2660000  38.8300000
  75.0780000  49.2150000  38.5300000  74.3330000  50.2000000  39.7350000
  76.0810000  51.1470000  38.7540000  76.8880000  50.8420000  39.3970000
  75.8990000  52.1920000  38.8800000  76.3480000  51.0350000  37.7180000
 133.2850000  68.8770000  28.1510000 133.6460000  69.5280000  27.3270000
 132.9470000  67.9630000  27.6850000 134.1090000  68.5960000  28.8530000
 132.2610000  69.6050000  29.0150000 131.4030000  70.0080000  28.4340000
 131.7200000  68.8110000  29.4460000 132.7270000  70.5260000  30.1960000
 133.7970000  70.6180000  30.3020000 132.3710000  71.5460000  30.0600000
 132.2410000  69.9960000  31.5880000 131.1280000  69.9800000  31.6390000
 132.5830000  68.9730000  31.7550000 132.8280000  70.7790000  32.8300000
 133.9380000  70.7490000  32.8670000 132.6110000  71.8660000  32.7730000
 132.2880000  70.0140000  34.1040000 131.8150000  69.0190000  34.0060000
 133.1600000  69.7210000  34.7390000 131.4540000  70.9670000  34.9980000
 130.6460000  71.4400000  34.4280000 130.8410000  70.3020000  35.6640000
 132.1490000  71.9590000  35.9400000 132.5890000  72.7560000  35.3400000
 131.3960000  72.4090000  36.6100000 133.2800000  71.3240000  36.7780000
 133.0000000  70.2500000  36.9950000 134.1770000  71.2850000  36.0530000
 133.5110000  72.0400000  38.0640000 133.8030000  72.9720000  37.8640000
 132.6810000  71.9410000  38.7650000 134.6890000  71.3390000  38.7450000
 134.4430000  70.3090000  38.9780000 135.5210000  71.2330000  38.0970000
 135.0340000  72.1340000  39.9890000 135.2930000  73.1960000  39.7620000
 134.1600000  72.2410000  40.6410000 136.3020000  71.4360000  40.6110000
 137.0710000  71.4430000  39.8520000 136.6020000  72.0000000  41.4580000
 136.1990000  69.9390000  41.0530000 135.8660000  69.4680000  40.1340000
 137.2270000  69.6660000  41.2540000 135.1940000  69.6740000  42.2430000
 134.2250000  70.1850000  41.9580000 135.1720000  68.6310000  42.4540000
 135.5320000  70.3750000  43.5080000 136.6270000  70.6000000  43.8950000
 134.4280000  70.5900000  44.2440000 134.5150000  71.1770000  45.6000000
 133.6250000  70.9380000  46.0930000 135.3140000  70.7000000  46.2110000
 134.7350000  72.6620000  45.4100000 135.5380000  72.8750000  44.6970000
 135.0320000  73.4050000  46.7170000 136.0990000  73.4140000  46.8690000
 134.8350000  74.4140000  46.4550000 134.2340000  72.7730000  47.7050000
 133.2800000  73.7040000  48.6300000 134.4060000  74.2880000  49.6530000
 134.6500000  75.7210000  49.7020000 135.4830000  75.7660000  50.3270000
 134.8930000  76.0960000  48.7120000 133.5180000  76.4300000  50.4720000
 133.6370000  77.5320000  50.3310000 132.4510000  76.1580000  50.0080000
 133.3590000  76.1840000  51.9670000 132.7810000  74.7870000  52.2340000
 133.6180000  74.0820000  52.0070000 132.3150000  74.7830000  53.1850000
 131.9320000  74.7120000  51.5360000 134.6450000  76.3370000  52.7330000
 134.3500000  76.3170000  53.7660000 135.2790000  75.4380000  52.4310000
 135.1650000  77.1870000  52.3240000 132.3680000  77.1460000  52.3980000
 132.6140000  78.0790000  51.8800000 132.4100000  77.0950000  53.4790000
 131.3390000  76.7170000  52.1060000 132.7200000  74.8270000  47.8730000
 132.4480000  72.7850000  49.4430000 133.4970000  73.1980000  44.8810000
 133.7150000  74.1800000  43.9450000 134.8090000  74.5250000  43.5380000
 132.4240000  74.9110000  43.5400000 132.5100000  75.9500000  43.8570000
 131.5440000  74.5770000  44.1810000 132.1880000  74.9310000  41.9760000
 131.1650000  75.2150000  41.8960000 132.3100000  73.9010000  41.5670000
 132.9220000  76.0070000  41.1500000 133.9480000  76.0640000  41.4800000
 132.4350000  76.9350000  41.3720000 132.8360000  75.7020000  39.6410000
 133.5770000  74.9090000  39.4410000 133.2010000  76.6300000  39.1820000
 131.4750000  75.3260000  39.0310000 131.0330000  74.3840000  39.5370000
 131.6710000  75.1420000  37.9530000 130.4260000  76.4710000  39.0570000
 130.9250000  77.2380000  38.4980000 130.2220000  76.7340000  40.1340000
 129.0600000  76.1890000  38.4320000 128.4990000  75.4570000  39.0130000
 129.1850000  75.8030000  37.3700000 128.2060000  77.4430000  38.3590000
 128.3470000  78.0120000  37.4140000 127.3780000  77.8560000  39.3290000
 126.9660000  78.8250000  39.1970000 127.1100000  77.1470000  40.5800000
 126.9200000  77.8950000  41.3970000 128.0170000  76.7380000  41.0470000
 125.9320000  76.1930000  40.4770000 126.0630000  75.4790000  39.6910000
 124.9840000  76.7070000  40.1440000 125.6200000  75.4650000  41.7950000
 124.6770000  74.9410000  41.6610000 125.2670000  76.1750000  42.5520000
 126.5900000  74.4220000  42.2930000 126.9970000  73.8710000  41.4630000
 126.1070000  73.6780000  42.9540000 127.7880000  74.9090000  43.1030000
 128.5260000  75.3090000  42.4450000 128.2560000  74.0890000  43.6990000
 127.4300000  76.0240000  44.1190000 126.9610000  76.8330000  43.6310000
 128.3830000  76.4010000  44.4620000 126.5900000  75.5260000  45.2760000
 127.0050000  74.6470000  45.7960000 125.6170000  75.1540000  44.8530000
 126.4740000  76.6140000  46.2740000 125.9510000  76.4150000  47.1860000
 125.8800000  77.5130000  45.8790000 127.4750000  76.9500000  46.6450000
  87.5220000  56.6630000  40.4130000  87.5190000  57.6070000  39.8360000
  86.9240000  56.9310000  41.2640000  87.1330000  55.8210000  39.8730000
  88.9420000  56.3430000  40.8870000  89.5670000  56.1260000  40.0370000
  89.3440000  57.2410000  41.4010000  88.9220000  55.2200000  41.9850000
  88.4070000  55.6200000  42.8610000  88.2360000  54.3860000  41.7900000
  90.3480000  54.8520000  42.5060000  90.8280000  55.7320000  42.9020000
  90.1550000  54.0870000  43.2190000  91.2060000  54.2170000  41.3760000
  90.7290000  53.4180000  40.9100000  91.3530000  54.9840000  40.6280000
  92.6030000  53.7750000  41.7470000  92.4980000  52.9820000  42.5090000
  93.0340000  53.4060000  40.7900000  93.5480000  54.8370000  42.4080000
  93.6500000  55.6880000  41.7100000  93.0460000  55.2150000  43.2890000
  94.9520000  54.2590000  42.6160000  95.3840000  53.7080000  41.7380000
  95.6040000  55.1090000  42.7050000  94.9710000  53.3650000  43.9830000
  94.4250000  53.8370000  44.7890000  94.5360000  52.3470000  43.8390000
  96.3920000  53.1550000  44.5390000  97.0430000  52.5040000  43.9780000
  96.7390000  54.1650000  44.5890000  96.3200000  52.7110000  46.0110000
  95.6320000  51.8340000  46.2050000  97.3160000  52.3690000  46.2590000
  95.8170000  53.7240000  47.0660000  96.5260000  54.5370000  47.1160000
  94.8630000  54.1600000  46.7660000  95.7010000  53.0680000  48.4420000
  95.0190000  52.2280000  48.3130000  96.6690000  52.8100000  48.8270000
  95.0700000  54.0320000  49.5000000  94.1150000  54.3760000  49.0990000
  94.7640000  53.5770000  50.4120000  96.1410000  55.1310000  49.9370000
  96.7490000  55.4590000  49.1090000  95.5920000  55.9780000  50.2690000
  97.0490000  54.5150000  50.9470000  96.6410000  54.1110000  52.0170000
  98.3550000  54.6390000  50.6510000  99.4050000  54.1910000  51.5340000
 100.3250000  54.5430000  51.0980000  99.3130000  54.5510000  52.6030000
  99.3690000  52.6130000  51.5700000  98.3860000  52.2700000  51.8500000
 100.4450000  51.9630000  52.4680000 100.5230000  52.4890000  53.5140000
 100.3290000  50.8380000  52.5140000 101.7130000  52.1420000  51.8860000
 102.9480000  51.3580000  52.4970000 103.5210000  52.3570000  53.6370000
 104.8120000  52.0880000  54.1360000 104.9640000  52.4540000  55.1290000
 104.9320000  51.0520000  54.1460000 105.9090000  52.7310000  53.2720000
 106.8980000  52.5590000  53.6360000 105.8850000  52.2440000  52.2770000
 105.7360000  54.2060000  52.8860000 105.5060000  54.9800000  54.0470000
 104.6960000  54.5030000  54.5740000 106.4820000  54.8950000  54.6190000
 105.2200000  56.0190000  53.8330000 106.8600000  54.8270000  52.1350000
 106.9230000  54.5490000  51.1220000 106.5890000  55.8950000  52.2210000
 107.8440000  54.7910000  52.6640000 104.6590000  54.4170000  51.8460000
 105.1870000  54.0150000  50.9240000 104.4430000  55.4290000  51.7010000
 103.7280000  53.8750000  52.0920000 102.4660000  50.1900000  53.1810000
 104.0200000  51.2350000  51.4860000  99.5300000  52.0400000  50.2100000
  98.9440000  50.9110000  49.8920000  98.6210000  50.0700000  50.7570000
  99.0090000  50.6940000  48.3840000 100.0410000  50.8320000  48.0540000
  98.6000000  51.5720000  47.8980000  98.4180000  49.4110000  47.8770000
  98.8920000  48.6080000  48.3540000  98.5450000  49.2530000  46.8380000
  96.9400000  49.3520000  48.3680000  96.5890000  50.2330000  48.8250000
  96.9060000  48.4290000  48.9800000  96.0130000  49.1430000  47.1550000
  96.3860000  49.7080000  46.3740000  95.0160000  49.4320000  47.3670000
  95.9000000  47.6650000  46.6540000  95.5040000  47.0750000  47.4840000
  96.9440000  47.3500000  46.5320000  95.0670000  47.4390000  45.3620000
  94.8520000  46.3710000  45.2640000  95.5820000  47.9070000  44.5170000
  93.7490000  48.2700000  45.3720000  93.9700000  49.2750000  45.4590000
  93.2140000  48.0400000  46.3490000  92.8650000  47.8920000  44.2460000
  92.7700000  46.8030000  44.0480000  92.3130000  48.7150000  43.3230000
  91.6180000  48.3070000  42.5800000  92.2280000  50.2360000  43.4520000
  92.9810000  50.7710000  42.8150000  92.4760000  50.5150000  44.4260000
  90.7480000  50.7210000  43.1150000  90.4710000  51.6860000  43.6250000
  90.0400000  49.9880000  43.6140000  90.3820000  50.8150000  41.6550000
  90.3630000  49.8730000  41.1030000  91.1090000  51.5350000  41.1780000
  88.9780000  51.3810000  41.5160000  88.9480000  52.2590000  42.1810000
  88.3690000  50.6680000  41.9950000  88.5780000  51.7220000  40.0410000
  89.0610000  50.9460000  39.4840000  89.0860000  52.7230000  39.6140000
  87.1170000  51.8960000  39.9870000  86.8570000  52.7630000  40.6660000
  86.6110000  51.0290000  40.3060000  86.7930000  52.2210000  38.5490000
  87.0850000  51.5070000  37.7850000  87.2750000  53.1220000  38.1870000
  85.2990000  52.4070000  38.3390000  84.7930000  51.5600000  38.6970000
  85.1340000  52.3890000  37.2750000  84.9090000  53.3390000  38.7640000
 107.4380000  -2.6500000  35.2670000 106.9400000  -3.2020000  36.0900000
 108.5080000  -2.5340000  35.5120000 107.3120000  -3.1800000  34.2950000
 107.0960000  -1.1760000  35.3010000 107.8400000  -0.6230000  34.7200000
 106.1130000  -1.0050000  34.8750000 107.1500000  -0.6490000  36.7690000
 106.2970000  -1.1040000  37.2680000 108.1120000  -0.9220000  37.3090000
 106.9150000   0.8210000  36.8900000 107.7850000   1.2530000  36.3820000
 106.0150000   1.2050000  36.4030000 106.8550000   1.2920000  38.3110000
 106.0520000   0.7980000  38.9760000 107.8200000   0.9890000  38.7560000
 106.6730000   2.8390000  38.2560000 107.6260000   3.3570000  38.0210000
 105.8690000   3.0690000  37.5390000 106.1850000   3.4560000  39.5450000
 105.2820000   2.9670000  39.8570000 106.9210000   3.1900000  40.3410000
 106.0140000   5.0020000  39.4150000 106.9080000   5.5250000  39.2470000
 105.3620000   5.1200000  38.5330000 105.2400000   5.6940000  40.5950000
 104.6490000   6.4830000  40.1750000 104.6180000   4.9860000  41.0040000
 106.0740000   6.4210000  41.6920000 106.7350000   7.1490000  41.2660000
 105.3500000   7.0940000  42.1640000 106.8140000   5.5530000  42.7430000
 107.6430000   5.0490000  42.2020000 107.2460000   6.2760000  43.4910000
 106.0170000   4.4810000  43.4650000 105.3510000   4.9300000  44.2570000
 105.3410000   3.9620000  42.7480000 106.9700000   3.4170000  44.0530000
 107.1780000   2.8060000  43.2000000 107.9290000   3.8870000  44.3080000
 106.3880000   2.5300000  45.2330000 105.4180000   2.0940000  45.0840000
 107.1070000   1.6500000  45.3620000 106.2490000   3.3950000  46.5290000
 105.6260000   4.1780000  46.3290000 105.7410000   2.7900000  47.2490000
 107.5770000   3.8200000  47.1010000 108.4510000   3.0360000  47.3460000
 107.6380000   5.0960000  47.4540000 108.6400000   5.5080000  48.5060000
 108.4320000   6.5410000  48.8240000 108.7160000   4.7160000  49.3120000
 110.0020000   5.6140000  47.7980000 110.1220000   4.7640000  47.0770000
 111.0650000   5.6050000  48.9670000 110.9980000   4.6120000  49.4420000
 112.0310000   5.7240000  48.5580000 110.7260000   6.6260000  49.9670000
 111.6400000   7.9510000  50.1280000 111.3520000   8.8820000  48.9110000
 110.1580000   9.6670000  48.9120000 109.8090000   9.7630000  47.8420000
 109.3550000   9.2410000  49.4780000 110.5260000  11.1040000  49.4300000
 109.6240000  11.7790000  49.4390000 110.8400000  10.9240000  50.4820000
 111.6430000  11.9010000  48.8970000 111.3470000  13.3060000  49.2240000
 110.2780000  13.5830000  49.0970000 111.5570000  13.4610000  50.2600000
 112.0340000  13.8800000  48.5750000 112.9490000  11.5950000  49.4920000
 113.1800000  10.5570000  49.3200000 113.7160000  12.1790000  48.9420000
 113.0330000  11.7550000  50.6660000 111.6720000  11.7160000  47.3520000
 110.8320000  12.2010000  46.7520000 111.7420000  10.6550000  47.1530000
 112.6130000  12.1640000  47.1060000 111.1980000   8.6420000  51.3760000
 113.0920000   7.5610000  49.9420000 109.9710000   6.8840000  47.0770000
 110.8140000   6.8960000  45.9990000 111.5450000   6.0040000  45.6790000
 110.5960000   8.1290000  45.1450000 111.0580000   8.9860000  45.6790000
 109.5280000   8.4530000  45.2270000 111.1250000   8.0560000  43.6830000
 112.2080000   7.9470000  43.7580000 110.9180000   9.0590000  43.2540000
 110.5760000   6.9510000  42.7580000 109.5300000   6.9710000  42.9780000
 111.0460000   6.0030000  43.0220000 110.7440000   7.1230000  41.2250000
 111.8250000   7.1890000  40.9230000 110.2520000   8.0910000  40.9440000
 110.1650000   5.9510000  40.4200000 109.0820000   6.0260000  40.4660000
 110.5750000   5.0560000  40.9270000 110.5040000   6.0010000  38.9430000
 109.8000000   5.4250000  38.4380000 111.4660000   5.4680000  38.7640000
 110.6880000   7.3940000  38.2960000 111.6260000   7.7620000  38.7790000
 109.8710000   8.0050000  38.5600000 110.8260000   7.3470000  36.8130000
 109.8530000   7.3370000  36.2520000 111.9760000   7.6290000  36.2350000
 111.9560000   7.7360000  35.1430000 113.3690000   7.6670000  36.8470000
 113.4100000   7.2430000  37.8260000 113.6840000   8.7130000  36.9220000
 114.4780000   7.0240000  35.9390000 115.4620000   7.4340000  36.1470000
 114.1680000   7.2500000  34.9380000 114.5050000   5.5230000  36.0610000
 114.9490000   5.2300000  37.0370000 115.3470000   5.2560000  35.3560000
 113.2660000   4.6340000  35.6950000 112.5130000   4.8760000  36.3500000
 113.5150000   3.5690000  35.7960000 112.7540000   4.8810000  34.2360000
 113.5900000   4.6230000  33.6370000 112.4800000   5.8950000  33.9430000
 111.5860000   3.9240000  33.9840000 110.8110000   4.2090000  34.7280000
 111.9150000   2.9070000  34.3240000 110.9070000   3.8900000  32.5810000
 111.6290000   3.4530000  31.8450000 110.5340000   4.8560000  32.2960000
 109.6560000   2.9730000  32.5940000 109.4010000   2.8410000  31.5090000
 108.7740000   3.2930000  33.0930000 109.9680000   2.0100000  32.9620000
 130.3430000 145.8790000  36.2180000 129.5070000 145.2590000  36.0510000
 131.3230000 145.4630000  35.8610000 130.1800000 146.8260000  35.6850000
 130.3630000 146.2920000  37.6720000 131.2260000 146.9880000  37.7670000
 129.4470000 146.6790000  38.0210000 130.6510000 145.0700000  38.5370000
 130.0620000 144.2280000  38.1480000 131.6930000 144.7910000  38.5230000
 130.2760000 145.1930000  39.9910000 130.7080000 146.1260000  40.3640000
 129.2220000 145.3530000  40.0700000 130.7050000 143.9350000  40.8200000
 129.9620000 143.8790000  41.6610000 130.4610000 143.1000000  40.2410000
 132.1530000 143.9960000  41.2740000 132.8320000 143.7980000  40.4720000
 132.4930000 144.9790000  41.6950000 132.4830000 142.9010000  42.2500000
 132.4500000 142.0220000  41.5940000 133.5390000 142.9840000  42.4900000
 131.5080000 142.6980000  43.3930000 130.5330000 142.4080000  42.9610000
 131.7650000 141.8530000  44.0440000 131.3690000 143.9670000  44.2670000
 132.3780000 144.0580000  44.6730000 131.2660000 144.8370000  43.5580000
 130.2130000 143.7330000  45.3330000 129.2780000 143.6190000  44.7620000
 130.4580000 142.8300000  45.9150000 130.1660000 144.9530000  46.3370000
 131.0870000 145.2840000  46.7390000 129.9680000 145.8630000  45.7890000
 129.1120000 144.8820000  47.4540000 129.4390000 143.9360000  47.9650000
 129.4020000 145.6550000  48.1530000 127.6570000 144.7990000  47.2020000
 127.4050000 145.1330000  46.1870000 127.3350000 143.7580000  47.3080000
 126.7850000 145.5920000  48.1920000 126.9840000 146.6460000  48.0430000
 125.7750000 145.4070000  47.8770000 126.9500000 145.2840000  49.7020000
 127.9460000 145.3980000  49.9240000 126.4470000 146.0890000  50.2720000
 126.4350000 143.9080000  50.0830000 126.0370000 142.9910000  49.4170000
 126.5510000 143.8160000  51.4130000 126.2220000 142.5810000  52.1170000
 126.1160000 142.8700000  53.2170000 125.2680000 142.2500000  51.7000000
 127.3640000 141.5220000  52.0550000 126.9040000 140.5990000  52.4290000
 128.6090000 141.9270000  52.8760000 129.4800000 141.1590000  52.8140000
 128.9450000 142.9030000  52.6560000 128.1300000 141.8960000  54.2220000
 128.4720000 140.6690000  55.1910000 129.9200000 141.0350000  55.8830000
 130.0810000 142.4440000  56.3510000 130.3170000 142.9800000  55.4250000
 129.1570000 142.8300000  56.8270000 131.2630000 142.5850000  57.3270000
 131.5630000 143.6790000  57.4870000 131.0300000 142.1660000  58.3000000
 132.5700000 141.9510000  56.9560000 132.7220000 140.5730000  57.5550000
 131.7400000 140.0760000  57.5970000 133.3330000 139.9100000  56.9680000
 133.2110000 140.7190000  58.5110000 132.7560000 142.0320000  55.5370000
 133.6970000 141.6310000  55.3410000 132.0550000 141.3110000  55.0520000
 132.7570000 143.0180000  55.2500000 133.7420000 142.8120000  57.5890000
 133.7080000 143.7300000  57.0930000 134.7120000 142.2050000  57.3570000
 133.5590000 142.9390000  58.6840000 127.4000000 140.7340000  56.2320000
 128.6020000 139.4370000  54.3510000 127.9790000 141.3150000  50.6870000
 128.3120000 140.0740000  50.2200000 128.0980000 139.0400000  50.7920000
 128.9190000 140.3180000  48.8580000 129.7090000 139.6180000  48.6350000
 129.2520000 141.4120000  48.7740000 127.7850000 140.0530000  47.8600000
 126.8920000 140.6320000  48.2460000 127.5230000 138.9710000  47.8070000
 128.3300000 140.5930000  46.4690000 129.2520000 140.0250000  46.2510000
 128.5870000 141.6920000  46.5230000 127.2540000 140.4030000  45.2930000
 126.6160000 141.2690000  45.4310000 126.6860000 139.5070000  45.3010000
 127.9630000 140.4600000  43.9690000 128.4130000 139.5160000  43.9230000
 128.6830000 141.3460000  43.9420000 126.9130000 140.5520000  42.8800000
 126.4110000 141.5370000  42.9820000 126.1790000 139.6830000  42.9450000
 127.7370000 140.4300000  41.5590000 128.3540000 139.5310000  41.4850000
 128.5680000 141.2030000  41.4760000 126.7620000 140.5600000  40.4280000
 125.7530000 140.2320000  40.6990000 127.0410000 141.0940000  39.2220000
 126.3000000 141.1340000  38.4380000 128.4920000 141.2550000  38.7440000
 129.0250000 141.7990000  39.6050000 128.4820000 141.9420000  37.8580000
 129.0810000 139.8480000  38.3350000 128.5740000 139.4600000  37.4500000
 129.0130000 139.0520000  39.1450000 130.5660000 140.0750000  37.9310000
 130.7280000 140.9710000  37.2490000 130.9450000 139.2630000  37.3730000
 131.4040000 140.2880000  39.1480000 130.8820000 140.9320000  39.8360000
 132.2770000 140.7880000  38.8990000 131.7570000 139.0270000  39.9290000
 132.5210000 138.4610000  39.3560000 130.9190000 138.3550000  40.0540000
 132.4360000 139.3300000  41.3500000 132.3660000 138.4170000  41.8950000
 131.8440000 140.1250000  41.8630000 133.9650000 139.5680000  41.3140000
 134.3210000 140.1970000  42.1680000 134.0920000 140.2080000  40.3750000
 134.7910000 138.3000000  41.1640000 134.5340000 137.5860000  42.0050000
 135.8320000 138.4560000  41.2920000 134.7840000 137.7560000  40.2460000
 109.6620000  27.3500000  39.7540000 110.2690000  27.0930000  40.6370000
 110.2450000  27.2890000  38.8580000 108.7800000  26.6780000  39.6450000
 109.2720000  28.8210000  39.9630000 110.1180000  29.4210000  40.1250000
 108.8030000  29.1950000  39.0420000 108.2390000  29.0990000  41.1290000
 108.7620000  28.6560000  41.9220000 108.1260000  30.1500000  41.2600000
 106.9580000  28.5140000  40.8400000 106.5370000  29.1290000  40.0470000
 107.1030000  27.5180000  40.4200000 105.8190000  28.5110000  41.9000000
 105.0860000  27.6980000  41.7180000 106.3890000  28.2070000  42.8000000
 105.1000000  29.8770000  42.1480000 104.2760000  30.1090000  41.4730000
 104.5550000  29.7440000  43.0600000 105.9200000  31.1770000  42.3230000
 106.5210000  31.2010000  41.3820000 105.2970000  32.0550000  42.5160000
 106.8710000  30.9680000  43.5820000 107.5190000  30.1030000  43.5710000
 107.4700000  31.8110000  43.6330000 106.1450000  30.8140000  44.9440000
 105.4810000  31.5970000  45.0960000 105.5590000  29.9740000  44.9350000
 107.0430000  30.6960000  46.1700000 107.6680000  31.5720000  46.2310000
 106.4320000  30.7080000  47.0880000 107.8780000  29.4080000  46.2230000
 108.5090000  29.3950000  45.4030000 108.4660000  29.4420000  47.1950000
 107.1330000  28.0090000  46.2100000 106.5880000  27.8300000  45.2700000
 107.8350000  27.2680000  46.0920000 106.1630000  27.6220000  47.3730000
 106.7030000  27.6720000  48.2960000 105.5160000  28.5170000  47.5100000
 105.3750000  26.3740000  47.1760000 104.5630000  26.5500000  46.4790000
 106.1050000  25.5640000  46.8760000 104.7020000  25.9160000  48.4710000
 104.0440000  26.7610000  48.7350000 104.0190000  25.0840000  48.2940000
 105.6250000  25.5760000  49.6080000 106.7150000  24.9810000  49.5970000
 105.1530000  26.1180000  50.7190000 105.9770000  26.2250000  51.9130000
 105.3810000  26.7530000  52.6170000 106.2540000  25.2090000  52.2870000
 107.2530000  27.0160000  51.6500000 107.8750000  26.3510000  50.9850000
 108.0780000  27.2350000  52.9810000 108.2430000  26.2950000  53.4590000
 109.0890000  27.5670000  52.8040000 107.4210000  28.0400000  53.8920000
 107.8830000  29.6130000  54.2520000 106.6550000  30.5500000  53.6690000
 105.8010000  31.3150000  54.4860000 105.7880000  30.9320000  55.4830000
 106.1830000  32.3520000  54.5340000 104.3120000  31.4170000  53.8980000
 103.7090000  31.9420000  54.6660000 104.3490000  31.9090000  53.0330000
 103.4030000  30.2100000  53.5660000 102.1720000  30.6430000  52.8150000
 102.2580000  30.5150000  51.7590000 101.3310000  30.1230000  53.2390000
 102.0280000  31.6560000  52.9840000 104.1210000  29.2650000  52.6830000
 103.3450000  28.5730000  52.2900000 104.5390000  29.7410000  51.8070000
 104.9630000  28.8580000  53.2970000 102.8870000  29.6020000  54.8680000
 102.4360000  30.4400000  55.4120000 103.7280000  29.1790000  55.3610000
 102.2780000  28.7480000  54.5300000 108.0280000  29.7010000  55.6920000
 109.0680000  29.8960000  53.3380000 106.8170000  28.2830000  51.0880000
 107.8000000  29.0060000  50.4440000 108.7880000  28.5040000  50.0170000
 107.4250000  30.4490000  50.2780000 106.7920000  30.7820000  51.0950000
 106.7610000  30.5670000  49.4250000 108.6740000  31.2940000  50.0320000
 109.0920000  30.9280000  49.0600000 109.3100000  31.0940000  50.8530000
 108.4250000  32.8420000  50.1580000 108.1740000  33.1800000  51.1710000
 107.5590000  33.2120000  49.6410000 109.6080000  33.7910000  49.6610000
 110.4530000  33.6750000  50.3850000 109.2700000  34.8110000  49.5260000
 110.2400000  33.3630000  48.2760000 109.4800000  33.1160000  47.5980000
 111.0020000  32.6390000  48.4110000 110.8870000  34.6010000  47.6010000
 111.5930000  35.0200000  48.2410000 110.0950000  35.3320000  47.3850000
 111.4480000  34.4610000  46.1910000 110.6990000  34.0620000  45.5520000
 112.3310000  33.7590000  46.3100000 112.0590000  35.7570000  45.6690000
 112.8650000  36.1510000  46.3280000 111.7160000  36.2920000  44.4980000
 112.2150000  37.1760000  44.2450000 110.4750000  35.7920000  43.6420000
 110.0970000  36.5110000  42.9750000 109.5740000  35.6110000  44.3450000
 110.6750000  34.4550000  42.9100000 111.0820000  33.7020000  43.6370000
 111.4090000  34.5610000  42.1130000 109.3170000  33.9970000  42.3570000
 108.4730000  34.2670000  42.9700000 109.3180000  32.8330000  42.1320000
 109.0460000  34.5970000  41.0190000 109.8070000  34.3040000  40.2700000
 108.9120000  35.6920000  40.9790000 107.7400000  34.0350000  40.4000000
 106.8060000  34.2820000  41.0150000 107.8420000  32.9540000  40.4810000
 107.3820000  34.4700000  38.9860000 107.5910000  35.5200000  38.9620000
 106.2730000  34.2570000  38.8240000 108.1880000  33.8760000  37.8680000
 109.2770000  33.9510000  37.9870000 107.9010000  34.4420000  36.9630000
 108.0090000  32.3260000  37.6560000 106.9920000  32.0700000  37.3750000
 108.1930000  31.7070000  38.5680000 108.6040000  31.9560000  36.8150000
 111.2150000  14.6980000  33.4080000 111.3310000  14.1490000  34.3170000
 111.6490000  14.2410000  32.5700000 110.1000000  14.6260000  33.2940000
 111.7640000  16.0990000  33.4880000 112.9040000  16.2090000  33.3390000
 111.2830000  16.6700000  32.6440000 111.2920000  16.5990000  34.8470000
 110.2400000  16.2410000  34.9930000 111.9740000  16.1540000  35.5720000
 111.4680000  18.1140000  35.0070000 112.5180000  18.3770000  34.9080000
 110.8420000  18.5710000  34.1890000 110.9090000  18.8550000  36.2520000
 111.0730000  19.9220000  36.1420000 109.8350000  18.6700000  36.3700000
 111.5300000  18.2760000  37.5820000 112.5020000  17.9460000  37.3480000
 111.5390000  19.0630000  38.3750000 110.8140000  17.0890000  38.2930000
 109.8360000  17.4650000  38.5520000 110.6860000  16.2500000  37.5740000
 111.4250000  16.5570000  39.6220000 111.5740000  17.4050000  40.3700000
 110.7000000  15.8410000  40.0010000 112.7020000  15.7930000  39.2900000
 112.5600000  15.1930000  38.4440000 113.5670000  16.4180000  39.0440000
 113.2290000  14.8220000  40.3030000 112.4130000  14.1680000  40.5130000
 114.1300000  14.3230000  39.9330000 113.5970000  15.5580000  41.6570000
 114.3790000  16.3070000  41.4800000 112.7550000  16.0310000  42.0470000
 114.0920000  14.4920000  42.6780000 113.3630000  13.6980000  42.5280000
 114.9940000  14.0980000  42.3540000 114.1210000  15.0290000  44.1650000
 114.8200000  14.3910000  44.6990000 114.6650000  15.9660000  44.0830000
 112.8290000  15.1840000  44.9660000 112.1610000  15.8330000  44.3800000
 112.2690000  14.3020000  45.0090000 112.9840000  15.7730000  46.3810000
 113.0600000  16.9200000  46.3330000 112.0660000  15.5440000  46.9010000
 114.0080000  15.0600000  47.2150000 113.9810000  13.8820000  47.5060000
 115.0990000  15.8380000  47.5400000 116.2590000  15.2680000  48.1540000
 116.0000000  15.0390000  49.1680000 116.4940000  14.2930000  47.7390000
 117.4330000  16.2400000  48.1550000 117.9630000  16.2790000  47.1750000
 118.4880000  15.7750000  49.2070000 118.8510000  14.7690000  48.7480000
 119.3930000  16.4480000  49.3180000 117.9180000  15.5030000  50.5330000
 117.9060000  16.6780000  51.6510000 116.3880000  16.7750000  52.2850000
 115.3050000  17.2150000  51.4790000 115.3820000  18.2610000  51.1520000
 115.2130000  16.6560000  50.5310000 114.1210000  17.0130000  52.3780000
 114.1320000  16.0020000  52.8280000 114.1160000  17.7110000  53.2480000
 112.7420000  17.0700000  51.7750000 112.3610000  18.5410000  51.4660000
 113.1690000  18.9000000  50.7400000 111.5510000  18.5740000  50.8480000
 112.3140000  19.1610000  52.3680000 112.6540000  16.2420000  50.4900000
 112.6550000  15.1590000  50.7010000 111.7120000  16.5420000  49.9860000
 113.3940000  16.4490000  49.8280000 111.7310000  16.4930000  52.7250000
 111.8410000  15.4170000  53.0250000 110.7410000  16.7420000  52.2890000
 111.8850000  17.0090000  53.6570000 118.7410000  16.2280000  52.7700000
 118.1760000  17.9680000  50.9320000 116.9320000  17.5580000  48.4480000
 117.7250000  18.5960000  48.1450000 118.8790000  18.5310000  47.8090000
 116.9990000  19.9100000  48.2940000 117.6980000  20.7100000  48.4510000
 116.3640000  19.8090000  49.2130000 116.1810000  20.2630000  47.0330000
 116.8400000  20.5850000  46.2990000 115.5550000  21.1370000  47.2970000
 115.0470000  19.2100000  46.6440000 114.3470000  19.0510000  47.4940000
 115.4660000  18.2880000  46.4160000 114.4040000  19.6910000  45.3660000
 113.8040000  20.5710000  45.5820000 113.7730000  18.8400000  45.1550000
 115.3730000  19.9070000  44.1730000 116.1380000  19.1380000  44.1060000
 115.8250000  20.9020000  44.2500000 114.5610000  20.0100000  42.7770000
 113.7310000  20.6930000  43.0250000 114.2340000  18.9480000  42.5730000
 115.3890000  20.4560000  41.5710000 115.4210000  21.5160000  41.4800000
 114.7340000  20.1610000  40.7300000 116.7020000  19.7130000  41.3370000
 117.2440000  19.4660000  42.2460000 117.1510000  19.2740000  40.1780000
 117.9960000  18.5540000  40.1500000 116.5060000  19.5250000  38.8060000
 117.2510000  19.9220000  38.1230000 115.7140000  20.3010000  38.8180000
 116.0050000  18.1190000  38.2000000 115.1420000  17.8300000  38.7960000
 116.7270000  17.3590000  38.1110000 115.4670000  18.2880000  36.7420000
 116.1340000  18.8700000  36.1280000 114.6710000  19.0100000  36.7600000
 114.9000000  16.9680000  36.1820000 114.3720000  17.2470000  35.2720000
 114.2300000  16.4410000  36.9130000 115.9500000  15.8350000  35.8630000
 116.4100000  15.5510000  36.7910000 116.7940000  16.1970000  35.2850000
 115.2650000  14.6050000  35.2750000 114.7300000  14.7800000  34.3370000
 114.5750000  14.3220000  36.0230000 116.2550000  13.4580000  35.0400000
 116.7400000  13.1990000  35.9340000 117.0110000  13.7960000  34.4020000
 115.4640000  12.2850000  34.3960000 114.8570000  12.6510000  33.6270000
 114.8910000  11.7610000  35.1230000 116.1070000  11.5250000  33.8770000
  84.1740000  41.3110000  47.2480000  83.4600000  40.5800000  47.7120000
  83.7690000  42.3510000  47.0850000  85.0360000  41.2440000  47.8780000
  84.4960000  40.6070000  45.9580000  85.2760000  41.2290000  45.4500000
  84.9280000  39.6570000  46.2490000  83.2800000  40.3440000  45.0730000
  82.6050000  39.6290000  45.6140000  82.7730000  41.1600000  44.6860000
  83.6730000  39.5660000  43.8020000  82.7820000  39.2740000  43.3330000
  84.2120000  40.2440000  43.1120000  84.3740000  38.2490000  44.1120000
  85.1930000  38.4610000  44.7850000  83.8000000  37.4880000  44.6640000
  84.9950000  37.5480000  42.8460000  84.1760000  37.5290000  42.1030000
  85.7410000  38.2910000  42.4570000  85.6150000  36.1690000  43.0030000
  86.4340000  36.0030000  42.2510000  85.9090000  36.0210000  44.0410000
  84.5530000  35.0690000  42.8580000  83.8140000  35.1430000  43.6810000
  84.1070000  35.0500000  41.8830000  85.1170000  33.6310000  42.8890000
  85.9920000  33.6880000  42.1780000  85.5070000  33.3570000  43.9190000
  84.0400000  32.6740000  42.2900000  83.1880000  32.8950000  42.9180000
  83.7870000  32.9790000  41.2840000  84.3910000  31.1520000  42.3670000
  85.1930000  30.8990000  41.7090000  84.7400000  30.9580000  43.3840000
  83.1530000  30.3670000  42.0700000  82.3990000  30.6200000  42.8700000
  82.6950000  30.6120000  41.0650000  83.4580000  28.8760000  42.1920000
  83.9960000  28.6570000  41.2520000  84.1230000  28.5940000  42.9700000
  82.2470000  28.0050000  42.2050000  81.6120000  28.5150000  41.4910000
  82.4140000  26.9510000  41.8040000  81.5620000  27.9230000  43.6000000
  81.5490000  28.8930000  44.0770000  80.5210000  27.6530000  43.5400000
  82.1300000  27.0600000  44.6120000  82.5570000  25.9930000  44.3280000
  82.1130000  27.5480000  45.8580000  83.0060000  26.9280000  46.8320000
  82.5470000  27.0340000  47.8160000  83.1480000  25.8900000  46.5910000
  84.3420000  27.7260000  46.7330000  84.6370000  27.7020000  45.7510000
  85.4990000  27.1320000  47.5680000  85.7730000  26.0780000  47.3460000
  86.3360000  27.7680000  47.4160000  85.2140000  27.1170000  48.9760000
  85.2400000  28.5000000  49.8390000  83.7310000  28.9460000  50.1110000
  82.9860000  28.1360000  50.9600000  82.7820000  27.2250000  50.4680000
  83.4560000  27.9230000  51.9770000  81.6650000  28.7790000  51.3710000
  81.1400000  28.0280000  51.8100000  81.9080000  29.6500000  51.9870000
  80.6490000  29.3030000  50.3350000  79.2640000  29.4400000  50.9890000
  79.1410000  28.9190000  51.9730000  78.9930000  30.4870000  51.1210000
  78.5540000  28.9090000  50.3330000  81.0390000  30.6780000  49.9440000
  80.2490000  31.0560000  49.2840000  81.1210000  31.4320000  50.7220000
  81.9540000  30.6370000  49.3840000  80.5080000  28.4490000  49.1320000
  79.7560000  28.7770000  48.4680000  80.2330000  27.4340000  49.5490000
  81.5190000  28.4660000  48.6170000  85.7730000  28.0430000  51.1360000
  85.9740000  29.5920000  49.1380000  84.0170000  29.0940000  47.1130000
  84.6480000  30.0430000  46.3790000  85.4770000  29.8310000  45.5080000
  84.0180000  31.4200000  46.5080000  83.3090000  31.4300000  47.4070000
  83.5100000  31.7600000  45.6110000  85.1670000  32.4020000  46.7700000
  85.8530000  32.3660000  45.9770000  85.6790000  32.0510000  47.6440000
  84.8540000  33.9660000  47.0530000  83.9040000  34.0290000  47.6240000
  84.5610000  34.3980000  46.1060000  85.9130000  34.8340000  47.6930000
  86.9030000  34.7260000  47.2930000  86.0520000  34.4320000  48.7410000
  85.5640000  36.3300000  47.6970000  84.7270000  36.4490000  48.4040000
  85.2120000  36.6400000  46.7140000  86.6010000  37.2970000  48.2580000
  86.9400000  36.8300000  49.2150000  86.1150000  38.2440000  48.3610000
  87.8600000  37.5040000  47.4200000  87.6020000  38.0690000  46.5320000
  88.3200000  36.4730000  47.2330000  88.9520000  38.1310000  48.2950000
  88.9720000  37.8550000  49.3500000  89.7970000  39.0970000  47.9330000
  90.4140000  39.5740000  48.6810000  90.0300000  39.5620000  46.5380000
  89.8130000  38.8480000  45.7430000  91.1440000  39.6850000  46.4750000
  89.3690000  40.9510000  46.2390000  89.7170000  41.6930000  46.9450000
  88.3560000  40.7710000  46.4750000  89.4530000  41.3150000  44.7790000
  89.1450000  40.4650000  44.2020000  90.5670000  41.4610000  44.6250000
  88.6220000  42.5180000  44.4800000  88.9930000  43.2420000  45.1990000
  87.5660000  42.4540000  44.7730000  88.8300000  42.9960000  43.0340000
  89.8050000  43.4610000  42.9010000  88.1230000  43.8620000  42.9740000
  88.5080000  42.0010000  41.9150000  89.2540000  41.2120000  41.9510000
  88.5690000  42.4410000  40.9550000  87.0590000  41.5500000  42.0750000
  86.3210000  42.3150000  42.1920000  86.9100000  41.0050000  43.0080000
  86.7360000  40.6890000  40.8450000  85.7810000  40.1990000  41.0550000
  87.3900000  39.8310000  40.8530000  86.6350000  41.1970000  39.9270000
   0.7690000 106.7990000  45.0610000   0.0200000 107.1590000  45.7660000
   1.7000000 107.3190000  45.3710000   0.8530000 105.8300000  45.3790000
   0.4240000 106.8120000  43.5920000   1.2080000 106.4840000  42.8920000
  -0.3300000 106.0040000  43.4960000  -0.1380000 108.2020000  43.1260000
  -0.8690000 108.5200000  43.8070000   0.6270000 108.9810000  43.0430000
  -0.6920000 107.9850000  41.7300000  -1.1660000 107.0240000  41.6790000
  -1.4390000 108.7440000  41.6490000   0.2760000 108.1130000  40.5640000
   1.2070000 107.6640000  40.6280000  -0.2940000 107.7110000  39.7050000
   0.5230000 109.6240000  40.3390000  -0.4630000 110.1290000  40.3090000
   1.0460000 109.9960000  41.2540000   1.2340000 109.9890000  38.9680000
   2.1230000 109.3280000  38.9300000   0.5590000 109.7980000  38.1730000
   1.7550000 111.3940000  38.8070000   2.4820000 111.6130000  39.5530000
   2.2130000 111.4290000  37.8520000   0.6470000 112.4180000  39.0000000
  -0.2720000 112.0290000  38.5560000   0.4200000 112.4690000  40.0760000
   0.9620000 113.8240000  38.5050000   1.1590000 113.6760000  37.4610000
   0.1370000 114.5810000  38.6220000   2.2090000 114.4600000  39.1310000
   3.0550000 113.7740000  39.0560000   2.5340000 115.2990000  38.6180000
   1.8430000 114.9470000  40.5430000   1.0140000 115.6610000  40.3280000
   1.3070000 114.2810000  41.2470000   3.0380000 115.4340000  41.2970000
   3.7740000 114.7170000  41.4700000   3.4840000 116.1730000  40.6570000
   2.7140000 116.2390000  42.6330000   2.1480000 115.6330000  43.3000000
   3.6900000 116.4180000  43.0910000   2.0110000 117.5240000  42.4450000
   2.6260000 118.2640000  41.9170000   1.1110000 117.3970000  41.8020000
   1.4210000 118.0420000  43.7210000   0.2210000 117.9500000  43.8800000
   2.3440000 118.4920000  44.5820000   1.9090000 119.0090000  45.8640000
   2.3810000 120.0160000  45.9570000   0.8150000 119.1790000  45.9350000
   2.2440000 117.9360000  46.9850000   1.3310000 117.2600000  47.0650000
   2.3750000 118.5960000  48.3840000   1.5650000 118.2290000  49.0910000
   3.2410000 118.2410000  48.8570000   2.3350000 119.9870000  48.3320000
   0.9520000 120.7380000  48.6620000   0.9090000 120.6400000  50.3070000
   1.2550000 121.7600000  51.2220000   1.3140000 121.2350000  52.2050000
   2.2340000 122.2160000  50.9250000   0.0330000 122.7860000  51.1220000
   0.2640000 123.4950000  51.9640000   0.0330000 123.3380000  50.1320000
  -1.4150000 122.3400000  51.3230000  -1.5750000 121.3740000  52.3710000
  -1.1310000 121.6900000  53.3050000  -2.6420000 121.3720000  52.3900000
  -1.3180000 120.3420000  52.0260000  -2.2410000 123.4750000  51.6870000
  -2.2600000 124.1780000  50.7870000  -3.2570000 123.0590000  51.8930000
  -1.8770000 123.9050000  52.6000000  -1.9690000 121.7420000  50.1100000
  -1.4490000 122.2740000  49.2730000  -3.0120000 122.0170000  49.9760000
  -1.6890000 120.6760000  50.0290000   1.0060000 122.1220000  48.1930000
  -0.1700000 119.9460000  48.1570000   3.5300000 117.2720000  46.6700000
   3.4920000 116.1220000  46.0090000   2.4250000 115.5810000  45.8780000
   4.8890000 115.6320000  45.5680000   5.5160000 115.9720000  46.3340000
   5.2060000 116.1500000  44.6480000   4.8930000 114.0760000  45.3830000
   4.0400000 113.7780000  44.6950000   4.5870000 113.5570000  46.2750000
   6.2610000 113.5720000  44.9700000   6.5900000 114.2860000  44.1720000
   6.2260000 112.6010000  44.5450000   7.2710000 113.3320000  46.0880000
   7.2170000 112.2330000  46.3480000   6.9130000 113.9620000  46.9580000
   8.7490000 113.7000000  45.9640000   9.3290000 113.3500000  46.8800000
   8.7160000 114.8000000  45.8470000   9.5160000 113.0910000  44.7050000
   9.0260000 113.3890000  43.7820000   9.4930000 112.0010000  44.8020000
  11.0080000 113.3280000  44.7030000  11.4370000 112.8910000  45.6490000
  11.1430000 114.4630000  44.6860000  11.6970000 112.4880000  43.6150000
  12.1800000 111.5910000  43.9850000  11.5730000 112.6630000  42.3530000
  12.0750000 111.9010000  41.6230000  10.8390000 113.7640000  41.6300000
  10.6960000 114.6130000  42.2310000   9.8630000 113.3990000  41.3040000
  11.6840000 114.3360000  40.4640000  11.7910000 113.5480000  39.6800000
  12.6620000 114.6760000  40.6730000  11.0040000 115.5640000  39.8020000
  10.9050000 116.2730000  40.5970000   9.9590000 115.3150000  39.6570000
  11.6300000 116.3510000  38.6740000  11.9390000 115.6270000  37.9520000
  12.5110000 116.8590000  39.1040000  10.6840000 117.3670000  37.9290000
   9.8580000 116.7580000  37.4010000  11.2420000 117.7810000  37.0520000
   9.9540000 118.5810000  38.6610000   9.3540000 118.1760000  39.3960000
   9.3040000 119.0980000  37.9540000  10.8920000 119.5920000  39.3800000
  11.7350000 119.9060000  38.8240000  11.3140000 119.1310000  40.3460000
  10.1660000 120.8680000  39.7960000   9.1970000 120.9050000  39.2470000
  10.8160000 121.7250000  39.6440000   9.9660000 120.6910000  40.8200000
 107.6510000  74.2810000  42.3350000 108.6200000  74.2580000  42.7940000
 107.6800000  74.7560000  41.3240000 107.6040000  73.2350000  42.0810000
 106.3770000  74.7340000  43.1380000 106.5830000  75.7580000  43.2930000
 105.5210000  74.6380000  42.4450000 106.1160000  74.0120000  44.4900000
 105.9460000  72.9130000  44.4380000 107.0280000  74.0050000  45.0770000
 104.9210000  74.5030000  45.2140000 104.9190000  75.5380000  45.3810000
 104.0090000  74.3720000  44.6420000 104.6960000  73.8570000  46.6400000
 104.7280000  72.7740000  46.3710000 105.5720000  74.0000000  47.2610000
 103.4190000  74.3440000  47.4940000 102.5090000  74.1120000  46.9340000
 103.3310000  73.7710000  48.4300000 103.4310000  75.8300000  47.7570000
 103.2820000  76.2550000  46.7980000 102.5390000  75.8740000  48.4050000
 104.6520000  76.3900000  48.4150000 105.4520000  76.2400000  47.6310000
 104.4050000  77.4380000  48.4480000 105.0760000  75.8470000  49.8150000
 104.1930000  75.9020000  50.4890000 105.2730000  74.7710000  49.8060000
 106.3400000  76.5260000  50.3840000 106.0580000  77.5950000  50.7380000
 106.7760000  75.9480000  51.1980000 107.4320000  76.7880000  49.3880000
 107.0530000  77.5130000  48.6140000 108.1130000  77.3320000  50.0170000
 108.1550000  75.5470000  48.7830000 108.4130000  74.9180000  49.6270000
 107.5150000  74.9470000  48.1170000 109.4260000  75.8100000  47.9110000
 109.2280000  76.6720000  47.2660000 110.1630000  76.1360000  48.5820000
 109.8600000  74.6820000  47.0650000 109.0970000  74.3020000  46.3960000
 110.7400000  74.9690000  46.4980000 110.2460000  73.3690000  47.9250000
 109.4970000  73.1700000  48.7270000 110.4440000  72.5380000  47.2960000
 111.5080000  73.5890000  48.7150000 112.5570000  73.1750000  48.2480000
 111.3520000  74.2920000  49.9080000 112.4940000  74.4810000  50.7410000
 112.2210000  74.3190000  51.7880000 113.2370000  73.6840000  50.5680000
 112.9810000  75.9030000  50.4770000 113.2740000  76.1840000  49.4240000
 114.3090000  76.3210000  51.3070000 115.2330000  76.0640000  50.8270000
 114.2290000  77.4320000  51.4520000 114.2580000  75.6670000  52.5820000
 114.2990000  76.5340000  53.8960000 112.8250000  76.9960000  54.0110000
 111.8030000  76.0360000  54.3190000 111.9850000  75.1600000  53.8070000
 111.8130000  75.9230000  55.4120000 110.4430000  76.5780000  53.7920000
 110.2120000  77.5540000  54.2890000 110.5180000  76.8500000  52.7410000
 109.1220000  75.7510000  53.9620000 107.9230000  76.5590000  53.5530000
 108.1690000  76.9870000  52.6010000 107.0900000  75.8800000  53.3290000
 107.7160000  77.4180000  54.2240000 109.1340000  74.6280000  53.0250000
 109.9850000  73.9910000  53.2560000 108.2150000  74.0600000  53.2210000
 109.2960000  75.0150000  52.0700000 109.0900000  75.2640000  55.3190000
 109.9380000  74.6310000  55.4000000 108.0570000  74.7220000  55.5710000
 109.2170000  76.1310000  56.0100000 114.5750000  75.6140000  55.0070000
 115.1930000  77.6910000  53.6760000 111.8890000  76.7820000  50.8620000
 111.7120000  77.9140000  50.1710000 112.4490000  78.2590000  49.2310000
 110.4120000  78.5850000  50.4460000 109.7450000  77.8490000  50.9120000
 109.8730000  78.9560000  49.5760000 110.6570000  79.7350000  51.4010000
 111.3790000  80.4300000  51.1480000 111.0300000  79.2490000  52.3110000
 109.3920000  80.5500000  51.8350000 109.7060000  81.0880000  52.7110000
 108.5400000  79.8830000  52.0120000 109.0390000  81.4260000  50.5840000
 108.0220000  81.7740000  50.6310000 109.1400000  80.8820000  49.6480000
 110.0190000  82.6000000  50.4460000 109.9650000  83.0660000  49.4760000
 111.0990000  82.2840000  50.3570000 109.8210000  83.6640000  51.6140000
 110.1050000  83.3090000  52.5640000 108.7750000  83.8520000  51.7020000
 110.6040000  84.9180000  51.2850000 110.2490000  85.2340000  50.3680000
 111.7160000  84.6730000  51.1660000 110.5290000  86.0540000  52.3450000
 110.7610000  85.6650000  53.2810000 110.1750000  87.3160000  52.1390000
 110.1870000  87.9250000  53.0530000 110.1970000  88.0300000  50.8380000
 110.2850000  87.3020000  49.9530000 110.9920000  88.7730000  50.8400000
 108.9510000  88.9280000  50.5420000 109.1260000  89.3820000  49.5390000
 108.8940000  89.8890000  51.0860000 107.6420000  88.2280000  50.8150000
 106.9260000  88.9180000  50.4760000 107.5490000  87.9700000  51.8450000
 107.3620000  86.8950000  50.0820000 108.1680000  86.2260000  50.3940000
 107.4500000  87.0120000  49.0160000 105.9790000  86.2330000  50.4980000
 105.2150000  86.9780000  50.1440000 105.9960000  86.2070000  51.5430000
 105.6120000  84.8410000  49.9840000 106.5030000  84.2710000  50.0490000
 105.4030000  84.8880000  48.8960000 104.5140000  83.9940000  50.7350000
 104.7740000  83.7220000  51.7570000 104.1440000  83.1360000  50.1700000
 103.2450000  84.8730000  50.8480000 103.4600000  85.8360000  51.2790000
 102.4020000  84.4390000  51.3670000 102.9510000  84.9570000  49.8740000
  10.7400000  28.9330000  33.9040000  11.3040000  28.6620000  33.0390000
   9.7760000  29.2820000  33.5740000  10.7510000  28.0140000  34.4740000
  11.5280000  30.0000000  34.7130000  12.6340000  29.8620000  34.6380000
  11.3240000  30.9800000  34.3670000  11.1000000  29.9350000  36.2390000
   9.9460000  29.8310000  36.2430000  11.4570000  28.9970000  36.6830000
  11.4820000  31.2170000  37.0670000  12.5900000  31.2070000  37.1200000
  11.2330000  32.2220000  36.6450000  10.8610000  31.2230000  38.4720000
  10.8790000  32.2230000  38.9680000   9.8340000  30.7780000  38.3310000
  11.6540000  30.2400000  39.4110000  12.0260000  29.4310000  38.7830000
  12.4900000  30.6820000  39.9120000  10.8010000  29.5600000  40.4890000
   9.9850000  28.9100000  40.0880000  11.4100000  28.8900000  41.0270000
  10.1640000  30.5890000  41.5190000  11.0160000  31.1670000  41.9920000
   9.6240000  31.2850000  40.9220000   9.2790000  29.9880000  42.6020000
   8.3830000  30.6210000  42.7730000   8.8260000  29.0690000  42.2200000
   9.8610000  29.7550000  44.0030000  10.3250000  30.7080000  44.3140000
   9.0580000  29.4760000  44.7170000  10.8440000  28.6320000  44.0910000
  11.5890000  28.8960000  43.3360000  11.2950000  28.5450000  45.1140000
  10.3360000  27.2790000  43.7640000   9.4440000  27.0840000  44.3940000
   9.9470000  27.3570000  42.7170000  11.4410000  26.1810000  43.6960000
  12.3980000  26.6170000  43.3550000  11.7100000  25.8950000  44.7270000
  11.1560000  24.9560000  42.9870000  10.6010000  25.1850000  42.0250000
  12.0850000  24.4690000  42.8150000  10.1290000  24.0530000  43.7630000
   9.1270000  24.5790000  43.9290000   9.9770000  23.1820000  43.1310000
  10.6200000  23.7850000  45.2230000  10.1040000  24.3320000  46.1760000
  11.6440000  22.9190000  45.3420000  12.2960000  22.8040000  46.6070000
  11.5270000  22.9140000  47.3570000  12.7060000  21.7930000  46.6610000
  13.5100000  23.6950000  46.8320000  13.9600000  23.3110000  47.7220000
  13.1790000  25.1120000  47.1390000  13.5540000  25.7790000  46.3250000
  12.1000000  25.3600000  47.1740000  13.8640000  25.5280000  48.3180000
  13.1710000  25.3310000  49.7730000  12.5430000  26.7660000  50.0790000
  13.4210000  27.8320000  50.7050000  12.7090000  28.5160000  51.1720000
  14.0270000  27.4100000  51.4950000  14.1370000  28.6430000  49.5810000
  14.7700000  29.3680000  50.1210000  14.7600000  27.9470000  49.0120000
  13.3920000  29.5240000  48.6440000  12.6220000  30.4830000  49.4080000
  11.9020000  30.9690000  48.7360000  12.0500000  30.0020000  50.2110000
  13.4040000  31.1000000  49.8800000  14.4240000  30.2260000  47.7600000
  14.9270000  29.4200000  47.1290000  13.9670000  31.0490000  47.2630000
  15.1020000  30.7820000  48.4240000  12.4420000  28.7380000  47.8070000
  11.7470000  28.1970000  48.4310000  12.8930000  28.1130000  47.0090000
  11.8660000  29.5570000  47.4610000  12.0540000  24.3760000  49.4790000
  14.2240000  24.9280000  50.7380000  14.3990000  23.7390000  45.6670000
  15.3330000  22.7900000  45.5360000  15.7490000  22.0890000  46.4200000
  15.8510000  22.5900000  44.1360000  15.1060000  22.6420000  43.4180000
  16.3900000  21.6710000  44.0420000  16.9020000  23.6460000  43.6690000
  17.6100000  23.7650000  44.4730000  16.4460000  24.6350000  43.6070000
  17.5240000  23.3470000  42.2660000  18.3000000  22.5760000  42.3970000
  18.0510000  24.1810000  41.9270000  16.5420000  22.9560000  41.1040000
  16.0550000  22.0760000  41.3910000  17.0550000  22.6420000  40.1630000
  15.5570000  24.0590000  40.6750000  16.0330000  24.7110000  39.9380000
  15.3780000  24.6130000  41.5420000  14.2610000  23.2720000  40.2280000
  13.8750000  22.6810000  41.0290000  14.4420000  22.5520000  39.4670000
  13.0390000  23.9960000  39.6980000  13.2710000  24.6070000  38.7860000
  12.6080000  24.7060000  40.4460000  11.8850000  23.0540000  39.4480000
  11.6860000  22.2760000  40.2250000  11.0390000  23.1840000  38.3810000
  10.2280000  22.4300000  38.2140000  11.0910000  24.1540000  37.2470000
  12.1180000  24.3430000  37.0510000  10.5370000  25.0490000  37.5180000
  10.6710000  23.6660000  35.8670000   9.7500000  23.1670000  36.0030000
  11.3870000  22.9230000  35.5290000  10.4020000  24.8710000  34.9010000
  11.0690000  25.6450000  34.9950000   9.4520000  25.3610000  35.1090000
  10.2740000  24.2740000  33.4870000   9.8360000  25.0420000  32.8740000
   9.5850000  23.4110000  33.3640000  11.5830000  23.8250000  32.8060000
  11.2220000  23.4800000  31.8210000  11.9670000  22.8790000  33.2860000
  12.7100000  24.8190000  32.9610000  12.8570000  24.9390000  33.9670000
  12.3870000  25.7740000  32.4890000  13.9980000  24.3220000  32.2210000
  13.6540000  23.9400000  31.2370000  14.5650000  23.5090000  32.7650000
  14.9030000  25.4960000  31.9490000  15.7850000  25.1660000  31.4950000
  15.1940000  26.0790000  32.8860000  14.4150000  26.1440000  31.3070000
  87.2860000  11.8700000  38.2670000  87.6580000  12.6670000  38.8850000
  86.6200000  12.4050000  37.5750000  88.1390000  11.3420000  37.8410000
  86.3110000  10.9830000  39.0580000  85.8260000  11.5230000  39.8950000
  85.5070000  10.5880000  38.4090000  87.0280000   9.7950000  39.7030000
  87.5770000   9.2700000  38.8850000  87.8290000  10.1740000  40.3510000
  86.1590000   8.7740000  40.3870000  85.6000000   9.1990000  41.1620000
  85.4230000   8.4280000  39.6500000  87.0170000   7.5920000  41.0440000
  87.7400000   8.0630000  41.7430000  86.3460000   6.9980000  41.7140000
  87.8170000   6.8030000  39.9580000  87.1690000   6.7030000  39.0270000
  88.7130000   7.4390000  39.7180000  88.2590000   5.3050000  40.2360000
  87.4020000   4.8240000  40.6140000  88.5530000   5.0180000  39.2400000
  89.4090000   5.1400000  41.2450000  89.0740000   5.4790000  42.2050000
  89.6410000   4.0910000  41.4330000  90.7620000   5.9110000  40.9230000
  91.0170000   5.5660000  39.8920000  90.6860000   7.0090000  40.9300000
  91.8590000   5.5440000  41.9640000  92.1590000   4.5770000  41.7510000
  92.7300000   6.1870000  41.9040000  91.5090000   5.6930000  43.4480000
  90.7940000   4.9750000  43.7980000  92.4340000   5.6600000  44.0530000
  90.8910000   7.0670000  43.6480000  91.6430000   7.8060000  43.3680000
  89.9780000   7.1720000  43.0280000  90.3840000   7.3600000  45.0950000
  89.4300000   6.9660000  45.2050000  90.9520000   6.8970000  45.9030000
  90.3620000   8.8730000  45.3290000  91.3260000   9.2970000  44.9840000
  89.4860000   9.1940000  44.8200000  90.1270000   9.0490000  46.8440000
  89.1490000   8.6850000  47.2290000  90.9330000   8.5130000  47.3570000
  90.2890000  10.4470000  47.3220000  90.2330000  11.4080000  46.5690000
  90.3350000  10.5900000  48.6300000  90.2060000  11.9050000  49.3070000
  90.5120000  11.8290000  50.3290000  90.8270000  12.5740000  48.7260000
  88.7310000  12.3300000  49.4600000  88.5450000  12.8130000  48.5410000
  88.5080000  13.4890000  50.5720000  89.0920000  13.2210000  51.4560000
  88.9460000  14.3940000  50.1820000  87.1000000  13.5930000  50.9770000
  86.7080000  14.2760000  52.3870000  86.9600000  13.1560000  53.5030000
  86.3360000  11.8730000  53.4500000  85.9280000  11.6110000  54.4690000
  85.4200000  11.9400000  52.8740000  87.2770000  10.7830000  52.9370000
  86.8390000   9.8370000  52.7550000  87.5710000  11.0660000  51.9170000
  88.5100000  10.4680000  53.7490000  89.4580000   9.7780000  52.7980000
  89.1030000   8.7560000  52.5490000  89.4800000  10.3220000  51.8660000
  90.4000000   9.7650000  53.3310000  89.2480000  11.7060000  54.0970000
  89.5080000  12.1350000  53.1010000  88.7060000  12.3570000  54.6260000
  90.2500000  11.5030000  54.6600000  88.2350000   9.5490000  54.8840000
  88.9890000   9.6440000  55.6630000  88.1660000   8.5220000  54.4380000
  87.2700000   9.7520000  55.2930000  87.6130000  15.3990000  52.6350000
  85.2590000  14.5650000  52.3430000  87.9410000  11.1030000  49.6530000
  86.7160000  11.1040000  49.0150000  86.1200000  12.0850000  48.6120000
  86.2850000   9.6390000  48.8670000  86.4390000   9.2040000  49.8260000
  87.0970000   9.1930000  48.2560000  84.8300000   9.4690000  48.2810000
  84.1680000   9.9560000  49.0300000  84.5270000   8.4080000  48.2650000
  84.4560000  10.1070000  46.8960000  84.5080000  11.1200000  47.1290000
  83.4660000   9.8120000  46.7060000  85.3450000   9.5590000  45.8160000
  85.1780000   8.5360000  45.6850000  86.3490000   9.6290000  46.2600000
  85.2750000  10.4190000  44.4980000  84.2700000  10.8090000  44.4010000
  85.3750000   9.7400000  43.6500000  86.2790000  11.5380000  44.3230000
  87.2120000  11.1720000  44.5980000  85.9480000  12.3090000  45.0360000
  86.4210000  12.1380000  42.9000000  86.7110000  11.3990000  42.2840000
  87.1770000  12.8760000  42.7520000  85.1060000  12.7430000  42.5080000
  84.1610000  12.2670000  42.8360000  85.0070000  13.9650000  42.0730000
  84.0440000  14.4450000  41.9120000  86.1520000  14.8150000  41.5470000
  86.9460000  14.1530000  41.0400000  86.6690000  15.2970000  42.4030000
  85.6930000  15.8740000  40.5780000  84.9330000  16.6170000  41.0080000
  85.1920000  15.4490000  39.7930000  86.9340000  16.5050000  39.8370000
  87.4330000  15.6790000  39.2570000  87.6450000  16.8040000  40.5660000
  86.6110000  17.7090000  38.9180000  86.0240000  18.4530000  39.4560000
  85.9660000  17.2540000  38.1030000  87.8260000  18.5680000  38.3780000
  88.3970000  18.0450000  37.6320000  88.5670000  18.8590000  39.1930000
  87.4620000  19.9110000  37.7810000  86.8910000  20.5750000  38.5410000
  86.8130000  19.8740000  36.9160000  88.6290000  20.7900000  37.3380000
  89.3540000  20.1900000  36.8080000  89.1970000  21.1540000  38.1890000
  88.2340000  21.9220000  36.4270000  87.8960000  21.5830000  35.4930000
  89.0960000  22.5460000  36.1570000  87.4930000  22.6060000  36.8460000
  70.8300000 107.6600000  32.9050000  71.5150000 108.4730000  32.8990000
  69.8110000 107.8440000  32.5670000  71.2800000 106.8470000  32.3070000
  70.8960000 107.0520000  34.3300000  70.3620000 106.1030000  34.2760000
  72.0030000 106.8100000  34.5790000  70.3640000 107.9690000  35.4950000
  69.2870000 108.1870000  35.3640000  70.4280000 107.3440000  36.4350000
  71.1420000 109.2560000  35.7780000  72.1540000 108.8440000  35.9870000
  71.2060000 109.8730000  34.8850000  70.6070000 110.0230000  37.0550000
  69.5430000 110.1950000  36.9140000  70.8300000 109.4130000  37.9140000
  71.4030000 111.4120000  37.1240000  72.4860000 111.2060000  37.0710000
  71.1100000 112.0240000  36.2620000  71.2460000 112.3580000  38.2660000
  71.6290000 111.8650000  39.1260000  71.9120000 113.1300000  37.9840000
  69.8500000 112.9960000  38.5790000  69.5280000 113.7030000  37.7390000
  69.1570000 112.2160000  38.6760000  69.8370000 113.9040000  39.7990000
  70.6370000 114.6230000  39.7890000  68.9760000 114.5500000  39.6110000
  69.8260000 113.2580000  41.1890000  70.7720000 112.7470000  41.4840000
  69.7750000 113.8990000  41.9880000  68.6490000 112.2790000  41.4240000
  67.7840000 112.8460000  41.7770000  68.3970000 111.7400000  40.5350000
  68.9680000 111.2360000  42.5480000  69.3940000 111.6830000  43.4070000
  68.1080000 110.8330000  42.9350000  69.8580000 110.0810000  42.1420000
  69.5990000 109.6290000  41.1300000  70.8390000 110.5020000  41.9500000
  69.9170000 108.9370000  43.1040000  68.9560000 108.4030000  43.3650000
  70.6600000 108.2180000  42.6600000  70.5030000 109.4440000  44.4820000
  71.3920000 110.1100000  44.4320000  69.7270000 109.9180000  45.0260000
  71.0770000 108.4110000  45.3190000  70.8110000 107.2190000  45.0610000
  71.8560000 108.8240000  46.3310000  72.1570000 107.7790000  47.3020000
  72.4120000 108.2980000  48.2340000  71.3680000 107.1380000  47.5670000
  73.3440000 106.8800000  46.7780000  73.2270000 106.5230000  45.7810000
  73.3980000 105.4940000  47.4990000  72.3440000 105.1270000  47.4960000
  74.0980000 104.7810000  47.0040000  73.6210000 105.6290000  48.9180000
  74.8890000 105.0230000  49.6850000  76.1370000 105.9150000  49.0910000
  77.3750000 106.3290000  49.7900000  77.7980000 105.4530000  50.1910000
  78.0030000 106.7810000  48.9830000  77.0490000 107.3100000  50.9360000
  76.4520000 106.8730000  51.7000000  77.9860000 107.6270000  51.4880000
  76.4440000 108.6530000  50.5260000  76.4750000 109.5560000  51.7000000
  75.8760000 110.4570000  51.5090000  76.0930000 108.9880000  52.5100000
  77.5860000 109.8040000  51.8800000  77.2080000 109.3700000  49.4820000
  77.4670000 108.6020000  48.7600000  76.7330000 110.2600000  49.1820000
  78.0920000 109.6050000  50.0650000  74.9880000 108.4380000  50.2420000
  74.9030000 107.8930000  49.3290000  74.6070000 109.4190000  50.2600000
  74.5510000 107.8660000  51.0170000  74.6340000 105.4100000  51.0830000
  75.2500000 103.6180000  49.3400000  74.5460000 107.6750000  46.8730000
  75.5020000 107.4120000  46.0000000  75.4650000 106.5080000  45.2030000
  76.6700000 108.3820000  46.1310000  77.3980000 107.8920000  46.7200000
  76.3320000 109.2830000  46.7240000  77.3060000 108.7190000  44.7550000
  77.3140000 107.8020000  44.0550000  78.3170000 108.9110000  45.0010000
  76.6690000 109.9020000  44.0090000  77.2750000 110.2880000  43.1870000
  76.6270000 110.7620000  44.7080000  75.1580000 109.7710000  43.5580000
  74.7190000 110.7540000  43.4150000  74.6690000 109.3380000  44.4070000
  74.8670000 108.8770000  42.3200000  75.2570000 107.8850000  42.4010000
  75.3640000 109.3210000  41.4880000  73.3390000 108.5740000  42.0210000
  72.8430000 109.5360000  42.0870000  72.8030000 107.9320000  42.7470000
  73.0710000 107.9600000  40.6390000  73.3600000 108.6360000  39.8900000
  72.0430000 107.6810000  40.5250000  73.9230000 106.7300000  40.3950000
  73.8680000 105.9630000  41.2370000  74.3810000 106.4050000  39.2210000
  74.8210000 105.4370000  39.0000000  74.3790000 107.2790000  37.9620000
  74.5110000 108.2810000  38.2710000  73.4580000 107.2310000  37.4430000
  75.5840000 106.9410000  36.9950000  75.5890000 105.9100000  36.9570000
  76.5180000 107.2620000  37.4070000  75.4460000 107.6500000  35.6090000
  74.4560000 107.5800000  35.2330000  76.0990000 107.2070000  34.8530000
  75.8230000 109.1540000  35.6090000  76.6930000 109.4710000  36.1750000
  74.9780000 109.6620000  36.0700000  75.9170000 109.7780000  34.2610000
  76.6240000 109.2430000  33.5660000  76.3160000 110.7510000  34.3650000
  74.6380000 110.0340000  33.5000000  74.5450000 111.0730000  33.2500000
  73.7920000 109.7550000  34.1340000  74.5350000 109.3670000  32.1030000
  75.2380000 109.7020000  31.3070000  73.6000000 109.6660000  31.7290000
  74.5050000 107.8730000  32.1820000  74.3760000 107.4030000  31.2300000
  73.7620000 107.4870000  32.8870000  75.4670000 107.4990000  32.6230000
 106.5330000 124.8740000  40.1150000 106.7600000 125.7020000  40.8590000
 106.7750000 125.3130000  39.1500000 107.1940000 124.0940000  40.3680000
 105.0810000 124.3080000  40.0690000 104.3870000 125.1200000  39.9080000
 105.0050000 123.6810000  39.1900000 104.5320000 123.5810000  41.2950000
 103.5170000 123.4290000  41.0520000 105.0140000 122.6250000  41.4100000
 104.6650000 124.3480000  42.6490000 105.7370000 124.5740000  42.8780000
 104.0950000 125.2690000  42.4850000 104.1220000 123.6290000  43.9160000
 103.0490000 123.2470000  43.8210000 104.7390000 122.8390000  44.2200000
 104.1520000 124.5840000  45.0820000 105.1530000 124.9440000  45.1790000
 103.5740000 125.4460000  44.8570000 103.5960000 124.0110000  46.4120000
 102.6350000 123.6100000  46.1660000 104.2380000 123.2210000  46.7930000
 103.5150000 125.0750000  47.4460000 103.5100000 124.5470000  48.4270000
 104.4590000 125.4970000  47.5370000 102.3930000 126.1280000  47.2200000
 102.8720000 126.9230000  46.7740000 101.6820000 125.7980000  46.4450000
 101.7480000 126.5590000  48.5290000 100.7900000 127.1510000  48.4260000
 101.4240000 125.5900000  49.0020000 102.5160000 127.2610000  49.6420000
 101.8270000 127.3410000  50.4980000 103.3600000 126.6410000  49.9850000
 103.1680000 128.6200000  49.2250000 103.7380000 128.8490000  50.1160000
 103.9080000 128.5650000  48.4120000 102.1540000 129.7030000  48.9190000
 101.5500000 129.3480000  48.1020000 101.6170000 129.7580000  49.8860000
 102.6690000 131.0930000  48.6170000 103.6200000 131.3680000  49.0530000
 102.8100000 131.1720000  47.5240000 101.6010000 132.1890000  48.8760000
 100.8850000 132.2400000  48.0570000 101.0090000 131.9710000  49.7490000
 102.3140000 133.5160000  48.9900000 102.2840000 134.3610000  48.1550000
 102.9720000 133.6460000  50.1470000 103.8830000 134.7100000  50.4070000
 104.6230000 134.3940000  51.1770000 104.2850000 134.9700000  49.4180000
 103.2470000 135.8770000  51.0970000 104.1110000 136.5340000  50.9730000
 102.9440000 135.5460000  52.5870000 102.5890000 134.5320000  52.6910000
 103.9520000 135.5180000  53.1010000 102.0750000 136.5210000  53.1680000
 102.2400000 136.9240000  54.6980000 101.2660000 138.0800000  54.8860000
 101.1990000 138.7630000  56.1560000 101.3470000 138.1050000  57.0070000
 101.9700000 139.5510000  56.1490000  99.8240000 139.5040000  56.1970000
  99.8620000 140.1180000  57.1160000  99.7280000 140.2170000  55.3260000
  98.5140000 138.7890000  56.0880000  98.2410000 138.2310000  54.7960000
  98.2950000 139.1520000  54.1320000  98.8930000 137.4010000  54.6460000
  97.2370000 137.8460000  54.9080000  98.5720000 137.7060000  57.0490000
  99.3460000 137.0240000  56.6580000  98.8920000 138.1400000  57.9830000
  97.6050000 137.2510000  57.0700000  97.3960000 139.7120000  56.2980000
  97.6280000 140.3250000  57.1420000  96.4290000 139.1950000  56.4600000
  97.3470000 140.3700000  55.4820000 101.7330000 135.8700000  55.5610000
 103.5950000 137.3140000  54.9070000 102.0590000 136.3400000  50.4170000
 102.1050000 137.5450000  49.7850000 103.0550000 138.3020000  49.7400000
 100.8140000 137.9380000  49.1450000 100.2730000 138.4750000  49.8730000
 100.2440000 137.0390000  48.8880000 100.9510000 138.9010000  47.9260000
 101.5390000 139.6730000  48.3750000 100.0730000 139.4170000  47.5460000
 101.7750000 138.2800000  46.7670000 101.2110000 137.5200000  46.1550000
 102.5970000 137.6570000  47.1000000 102.4170000 139.3290000  45.8380000
 101.9810000 140.3010000  46.0950000 102.1670000 139.1270000  44.7230000
 103.9570000 139.3950000  45.9620000 104.1030000 139.2390000  47.0480000
 104.3290000 140.3990000  45.7430000 104.7540000 138.3610000  45.1530000
 104.4400000 138.1450000  44.0590000 104.4620000 137.4070000  45.6090000
 106.2660000 138.5520000  44.9920000 106.6300000 137.5350000  44.8580000
 106.6710000 138.9720000  45.8960000 106.6130000 139.4070000  43.8060000
 106.3390000 140.4620000  43.9650000 107.0690000 138.9670000  42.6500000
 107.3430000 139.6140000  41.8600000 107.1650000 137.5240000  42.2550000
 106.7180000 136.8030000  42.8850000 108.2110000 137.3860000  42.3780000
 106.8410000 137.3050000  40.7750000 107.3560000 138.0340000  40.1300000
 105.7870000 137.4170000  40.6800000 107.2690000 135.9200000  40.2510000
 107.7420000 135.3230000  41.0100000 107.8150000 136.2360000  39.3460000
 106.1870000 135.1390000  39.5140000 105.6980000 135.7540000  38.7530000
 105.4600000 134.6920000  40.1850000 106.6530000 133.8950000  38.7430000
 107.1080000 133.1390000  39.3420000 107.3330000 134.2960000  37.9960000
 105.4450000 133.3160000  37.9220000 105.1000000 134.1950000  37.3500000
 104.6610000 133.0360000  38.6210000 105.9330000 132.1050000  37.0910000
 105.9490000 131.3830000  37.8750000 106.9520000 132.2480000  36.8030000
 104.9600000 131.6450000  36.0160000 104.0540000 131.1220000  36.4540000
 105.4000000 130.8940000  35.3990000 104.6960000 132.4450000  35.3510000
  29.5670000 144.2500000  39.5140000  29.6710000 143.6070000  38.6390000
  29.1880000 143.6520000  40.3010000  30.5640000 144.5350000  39.7480000
  28.5190000 145.3810000  39.4440000  27.5450000 144.9180000  39.4350000
  28.5970000 146.0310000  40.3700000  28.8050000 146.2100000  38.2410000
  29.8350000 146.5120000  38.4450000  28.8220000 145.5770000  37.3580000
  27.7280000 147.3630000  37.9160000  27.5860000 147.5070000  36.8240000
  26.7750000 147.0130000  38.3090000  28.3790000 148.6500000  38.4330000
  28.8270000 148.5980000  39.4950000  29.1750000 148.8350000  37.7260000
  27.2960000 149.7490000  38.3300000  26.8290000 149.8440000  37.3200000
  26.5690000 149.4930000  39.0390000  27.8290000 151.2110000  38.6630000
  28.6320000 151.4680000  37.9980000  26.9740000 151.8430000  38.5490000
  28.3010000 151.4980000  40.0760000  29.2030000 150.9190000  40.2080000
  28.4780000 152.5260000  40.1260000  27.3430000 151.2940000  41.1890000
  26.5840000 152.0870000  41.1320000  26.8550000 150.2790000  41.2230000
  27.8420000 151.7060000  42.5850000  28.1140000 152.7900000  42.5460000
  27.0750000 151.5780000  43.3480000  29.0540000 151.0160000  43.1460000
  29.9900000 151.2090000  42.5730000  29.1490000 151.3640000  44.2270000
  28.9610000 149.4770000  43.3060000  28.0220000 149.2390000  43.8470000
  28.7060000 149.1200000  42.3220000  30.1270000 148.7270000  44.0070000
  31.0980000 148.9660000  43.4760000  30.0640000 149.0260000  45.0280000
  29.8120000 147.1840000  44.0480000  29.7650000 146.8060000  43.0370000
  30.6320000 146.7080000  44.5580000  28.4310000 146.7130000  44.5890000
  27.6600000 147.3320000  44.2280000  28.3040000 145.6700000  44.2060000
  28.4040000 146.7620000  46.0800000  28.8610000 145.9050000  46.7640000
  27.9170000 147.9800000  46.5950000  27.9100000 148.0880000  48.0950000
  26.9130000 147.7130000  48.4550000  28.7300000 147.6720000  48.6080000
  27.9830000 149.5840000  48.3870000  28.8940000 149.8440000  47.8100000
  28.1040000 149.7700000  49.9200000  29.0560000 149.4190000  50.1880000
  27.9690000 150.7850000  50.3200000  27.0700000 148.9530000  50.5820000
  27.4730000 147.6710000  51.4580000  27.4640000 146.4840000  50.3810000
  28.4650000 145.3730000  50.4350000  28.7150000 144.9780000  49.4810000
  29.4350000 145.8190000  50.6120000  28.2330000 144.2920000  51.4300000
  29.0270000 143.5520000  51.5160000  28.0400000 144.7280000  52.4690000
  27.0590000 143.4110000  51.2100000  26.8260000 142.5110000  52.3420000
  26.8180000 143.1940000  53.2000000  25.8900000 142.0760000  52.2080000
  27.5820000 141.7790000  52.4140000  25.8230000 144.2340000  50.9630000
  25.8080000 144.7340000  49.9850000  25.0380000 143.4940000  51.0290000
  25.6660000 145.0070000  51.7330000  27.3520000 142.4830000  50.0210000
  27.5690000 143.1700000  49.2650000  26.3700000 142.0580000  49.7380000
  28.1440000 141.7160000  50.0910000  28.8790000 147.8270000  51.8920000
  26.3240000 147.3540000  52.3410000  26.8030000 150.2860000  47.7910000
  27.0980000 151.5010000  47.1850000  28.1530000 152.0200000  47.3890000
  25.9730000 152.1340000  46.3500000  25.4880000 151.4420000  45.7640000
  26.4680000 152.8370000  45.6880000  24.8470000 152.8960000  47.2070000
  24.4440000 152.1580000  47.8850000  24.0010000 153.1030000  46.5220000
  25.2520000 154.1490000  47.8870000  24.3600000 154.6000000  48.2860000
  25.5450000 154.8660000  47.0860000  26.3120000 154.0690000  48.9760000
  27.2170000 154.0210000  48.3440000  26.2470000 153.1230000  49.4450000
  26.5610000 155.2980000  49.9050000  25.6350000 155.4690000  50.4440000
  26.8930000 156.1040000  49.2690000  27.5710000 154.9440000  50.9930000
  27.3800000 153.9920000  51.4990000  27.4780000 155.7320000  51.7730000
  29.0010000 155.1310000  50.4710000  29.0970000 156.1800000  50.0590000
  29.0850000 154.5280000  49.6160000  29.9930000 154.6860000  51.6070000
  29.9700000 155.3080000  52.4880000  30.8630000 153.6830000  51.4920000
  31.4540000 153.5450000  52.4160000  31.1210000 152.6790000  50.2930000
  30.3690000 152.8020000  49.4990000  31.1060000 151.6350000  50.6250000
  32.5250000 152.8860000  49.7880000  33.1640000 152.9640000  50.7230000
  32.5110000 153.7940000  49.2000000  33.0200000 151.6870000  48.8100000
  32.3470000 151.7010000  47.9890000  32.9840000 150.6670000  49.2730000
  34.4200000 152.0250000  48.3680000  35.0610000 152.1370000  49.2020000
  34.4220000 152.9820000  47.8630000  34.8960000 150.8920000  47.3900000
  34.3660000 150.8820000  46.4450000  34.5310000 149.9530000  47.8510000
  36.4080000 150.7870000  47.1160000  36.7190000 151.7140000  46.5890000
  36.5200000 149.9200000  46.4010000  37.4570000 150.4970000  48.1980000
  37.4560000 151.4720000  48.8040000  38.4200000 150.4210000  47.6930000
  37.3520000 149.2240000  49.1200000  38.2110000 149.1720000  49.8700000
  37.3610000 148.2520000  48.5800000  36.3770000 149.3270000  49.7100000
  52.2770000  48.2490000  32.3060000  51.3100000  48.2670000  32.7230000
  52.4010000  47.1980000  32.1060000  52.2920000  48.8460000  31.4080000
  53.3860000  48.7570000  33.2720000  54.3530000  48.5220000  32.8010000
  53.3300000  49.7980000  33.3880000  53.4190000  48.0460000  34.6940000
  52.4040000  48.2650000  35.0250000  53.4380000  47.0080000  34.4990000
  54.5180000  48.5270000  35.6980000  55.5380000  48.5590000  35.2740000
  54.2940000  49.5150000  36.0390000  54.3510000  47.6000000  36.9540000
  54.5700000  48.1270000  37.8630000  53.2660000  47.4440000  37.1250000
  55.0570000  46.2570000  36.7510000  54.7920000  45.8790000  35.7760000
  56.0900000  46.4290000  36.6370000  54.8470000  45.2790000  37.9110000
  53.7470000  45.2800000  38.1650000  55.1440000  44.3050000  37.5420000
  55.7600000  45.4180000  39.1280000  55.5070000  46.3800000  39.5280000
  55.6730000  44.6110000  39.8500000  57.2880000  45.5030000  38.7380000
  57.5500000  44.6520000  38.2080000  57.3690000  46.3920000  38.1590000
  58.2310000  45.5620000  39.9590000  58.2130000  44.5950000  40.6150000
  59.3030000  45.8240000  39.7440000  57.9690000  46.8250000  40.8880000
  56.8850000  46.9980000  41.1730000  58.5190000  46.6990000  41.8420000
  58.4970000  48.0920000  40.2620000  59.3760000  48.2360000  40.7650000
  58.6990000  48.0060000  39.1650000  57.6340000  49.3560000  40.3630000
  58.1430000  50.2310000  39.9700000  56.6900000  49.3290000  39.7370000
  57.2070000  49.8330000  41.7690000  56.6700000  50.7700000  41.6980000
  56.6300000  49.0850000  42.3050000  58.4440000  50.0390000  42.6310000
  58.8860000  49.0090000  42.7190000  59.0770000  50.7440000  42.1450000
  58.1720000  50.6430000  44.0020000  57.7250000  51.7440000  44.1020000
  58.5060000  49.7990000  44.9860000  58.3630000  50.2110000  46.4210000
  59.1920000  49.7370000  46.9260000  58.4560000  51.3200000  46.4200000
  56.9910000  49.6710000  46.8930000  56.1700000  50.1750000  46.2940000
  56.6870000  49.7150000  48.3790000  56.0900000  48.8320000  48.7060000
  57.6610000  49.6630000  48.9930000  56.0030000  50.9700000  48.7350000
  56.8410000  52.2180000  49.2470000  56.5760000  52.1730000  50.7700000
  55.5410000  53.0610000  51.3150000  55.1330000  53.8950000  50.5950000
  54.7680000  52.4140000  51.5960000  56.2070000  53.7390000  52.4750000
  55.4660000  54.4170000  52.9630000  56.5570000  53.0200000  53.3010000
  57.4120000  54.7230000  52.1860000  58.7100000  54.0290000  51.8880000
  59.5850000  54.7730000  52.0280000  58.8090000  53.1420000  52.5620000
  58.6950000  53.5790000  50.8650000  57.0620000  55.7100000  51.1530000
  56.0510000  56.1560000  51.4550000  57.6510000  56.5920000  51.1560000
  56.9350000  55.2620000  50.1760000  57.6320000  55.5280000  53.4050000
  56.6690000  56.0400000  53.5650000  58.4180000  56.2960000  53.3840000
  57.8260000  54.8160000  54.1790000  58.3130000  51.9600000  48.9730000
  56.2420000  53.4950000  48.7870000  56.9540000  48.1920000  46.6120000
  56.2660000  47.8090000  45.5070000  55.7440000  48.5690000  44.7030000
  56.4280000  46.3620000  45.3330000  55.9400000  45.8700000  46.1540000
  57.4500000  46.0120000  45.1460000  55.6650000  45.8350000  44.1250000
  56.1300000  46.2390000  43.2330000  54.6110000  46.0840000  44.1500000
  55.6970000  44.3340000  43.9780000  55.5540000  43.7960000  44.9190000
  56.6660000  43.9930000  43.6220000  54.7670000  43.8200000  42.7850000
  54.8930000  44.5160000  41.9410000  53.6780000  44.0030000  43.1660000
  54.9390000  42.3100000  42.4870000  54.9240000  41.9740000  43.4760000
  55.9490000  42.1270000  42.1050000  53.9000000  41.5780000  41.6620000
  52.9730000  41.8010000  42.1140000  53.9460000  40.4650000  41.7550000
  54.0160000  42.0680000  40.2060000  54.9510000  41.8300000  39.7930000
  53.7630000  43.1410000  40.2810000  52.9040000  41.5240000  39.4260000
  51.9240000  41.7100000  39.9910000  52.8900000  40.9500000  38.2160000
  52.0030000  40.5150000  37.8320000  54.0920000  40.7920000  37.3540000
  55.0410000  40.6440000  37.9710000  54.2480000  41.6810000  36.7220000
  53.8140000  39.5010000  36.5530000  54.7560000  39.3570000  36.0100000
  52.9870000  39.7410000  35.9050000  53.5020000  38.2140000  37.3390000
  52.5430000  38.3710000  37.7950000  54.2960000  38.1530000  38.1210000
  53.5070000  36.8530000  36.5140000  53.3530000  36.0350000  37.1800000
  54.4420000  36.6770000  36.0520000  52.4310000  36.8710000  35.4710000
  52.4820000  37.8650000  35.0020000  51.4250000  36.7790000  35.9370000
  52.5400000  35.6150000  34.5570000  52.5540000  34.6480000  35.0490000
  53.4560000  35.7260000  33.9850000  51.4840000  35.6280000  33.4070000
  51.4930000  34.6960000  32.8190000  51.7370000  36.5020000  32.8180000
  50.0290000  35.8010000  33.9650000  49.3870000  35.7290000  33.1240000
  49.8830000  36.7690000  34.3390000  49.7000000  35.0510000  34.6540000
  26.3700000 111.8890000  32.9000000  26.8050000 111.1740000  33.6660000
  26.1120000 111.2120000  32.0610000  25.4830000 112.4640000  33.2240000
  27.4640000 112.8470000  32.3560000  28.2410000 112.1950000  31.8860000
  27.0730000 113.5720000  31.5600000  27.9620000 113.8180000  33.4080000
  27.1300000 114.4360000  33.7660000  28.3020000 113.3330000  34.2490000
  29.0210000 114.8130000  32.8950000  29.8760000 114.3120000  32.5900000
  28.5600000 115.4620000  32.1070000  29.4210000 115.6850000  34.0160000
  29.6480000 116.6710000  33.4900000  28.6190000 115.8770000  34.7250000
  30.6620000 115.2920000  34.8140000  30.6530000 114.3250000  35.1020000
  31.5440000 115.5510000  34.1790000  30.8300000 115.9970000  36.1390000
  29.9920000 115.7940000  36.7910000  31.7670000 115.6240000  36.5810000
  31.1030000 117.4630000  36.0110000  31.7440000 117.6780000  35.1610000
  30.1790000 118.1380000  35.7540000  31.6110000 118.0220000  37.3280000
  32.6110000 117.5390000  37.5840000  31.8300000 119.0550000  37.3380000
  30.6080000 117.8100000  38.4730000  29.6810000 118.2380000  38.1550000
  30.5320000 116.7280000  38.6470000  31.1380000 118.5970000  39.6840000
  32.2010000 118.3430000  39.8990000  30.9640000 119.6810000  39.5830000
  30.3730000 118.2720000  41.0210000  29.3620000 118.1380000  40.8450000
  30.7190000 117.2960000  41.2880000  30.5330000 119.2890000  42.2110000
  31.5090000 119.7710000  42.0520000  29.8610000 120.0640000  42.1000000
  30.5120000 118.5730000  43.5800000  29.7170000 117.8510000  43.6100000
  31.5040000 118.0720000  43.6940000  30.2790000 119.6360000  44.6390000
  31.0360000 120.4350000  44.6590000  29.3200000 120.1500000  44.5550000
  30.2810000 118.9790000  46.0180000  31.0360000 118.1020000  46.4300000
  29.2470000 119.4910000  46.7370000  29.1690000 119.0930000  48.1290000
  28.2050000 119.3820000  48.5440000  29.2940000 117.9930000  48.2130000
  30.3090000 119.8280000  48.9070000  31.2780000 119.5750000  48.4560000
  30.2580000 119.3980000  50.3170000  30.6550000 118.3950000  50.3890000
  30.6800000 120.1990000  50.9210000  28.8680000 119.2690000  50.8120000
  28.7330000 118.6440000  52.2160000  28.9980000 117.1280000  51.8250000
  27.9840000 116.3570000  51.2040000  27.2270000 116.3440000  51.9620000
  27.5800000 116.9390000  50.3310000  28.6000000 114.9860000  50.8670000
  27.7490000 114.3570000  50.4830000  29.2940000 115.2390000  50.0790000
  29.3460000 114.1690000  51.8810000  29.5340000 112.8050000  51.2840000
  29.6930000 112.1170000  52.1690000  28.5220000 112.4500000  50.8940000
  30.3140000 112.6250000  50.5650000  30.6320000 114.9640000  52.1270000
  31.3390000 114.3490000  52.7530000  31.0370000 115.2020000  51.1440000
  30.4280000 115.9260000  52.5630000  28.5910000 114.0850000  53.2030000
  27.5310000 113.7330000  52.9110000  28.6140000 115.1220000  53.7430000
  29.1480000 113.3470000  53.7750000  29.7970000 119.0740000  53.1440000
  27.3640000 118.8890000  52.6810000  30.2490000 121.2850000  48.7790000
  31.2340000 121.9750000  48.2290000  32.3130000 121.5010000  47.9650000
  30.8380000 123.3790000  47.9480000  31.3930000 124.1400000  48.4920000
  29.7880000 123.5790000  48.2680000  30.9480000 123.7600000  46.4610000
  31.9700000 123.4350000  46.1990000  30.9580000 124.8890000  46.3760000
  29.8860000 123.1410000  45.5780000  28.9770000 123.7390000  45.8410000
  29.6730000 122.1160000  45.8360000  30.2530000 123.3040000  44.1010000
  31.1430000 122.7660000  43.7850000  30.5550000 124.3210000  44.1630000
  29.0750000 123.1940000  43.1220000  28.1920000 123.7640000  43.3530000
  28.7560000 122.1270000  43.1810000  29.5210000 123.5500000  41.6400000
  30.2660000 122.7810000  41.3970000  29.9920000 124.6090000  41.5460000
  28.4320000 123.3610000  40.5470000  28.6950000 123.9780000  39.6850000
  27.5740000 123.9430000  40.9270000  27.9290000 121.9630000  40.4040000
  27.8790000 121.3860000  41.3400000  27.4690000 121.5030000  39.2670000
  27.0500000 120.4560000  39.1840000  27.3810000 122.3560000  38.0770000
  27.4380000 121.7300000  37.2230000  28.1470000 123.0690000  37.8960000
  25.9960000 123.0480000  38.0200000  25.8910000 123.6520000  38.9800000
  25.2410000 122.2540000  38.0330000  25.8200000 123.9480000  36.8230000
  25.8440000 123.3810000  35.9380000  26.7290000 124.5630000  36.7340000
  24.5730000 124.8290000  36.8320000  24.8640000 125.7020000  37.5120000
  23.7920000 124.3080000  37.3290000  24.2630000 125.3380000  35.3570000
  24.5090000 124.6030000  34.5840000  24.9360000 126.1570000  35.0880000
  22.8250000 125.8610000  35.1760000  22.7120000 126.7140000  35.8450000
  22.1150000 125.1140000  35.4820000  22.6520000 126.4260000  33.7970000
  22.8330000 125.5890000  33.0970000  23.4720000 127.1030000  33.5570000
  21.3410000 127.0630000  33.5530000  21.2130000 127.3730000  32.5450000
  21.2640000 127.9220000  34.2300000  20.4360000 126.4670000  33.7940000
  99.8470000  93.8500000  32.3390000 100.2430000  94.2570000  31.3910000
  98.8450000  93.4960000  32.0940000 100.3750000  92.9530000  32.6380000
  99.8920000  94.8010000  33.5010000  99.4020000  94.3370000  34.3440000
 100.9950000  94.8810000  33.7970000  99.2400000  96.1750000  33.1670000
  99.5570000  96.6470000  32.2400000  98.2010000  95.9520000  33.1080000
  99.4390000  97.1980000  34.3650000 100.3720000  97.0950000  34.7350000
  99.4110000  98.1280000  33.8640000  98.3470000  96.9280000  35.4660000
  97.4010000  96.9420000  34.9220000  98.5290000  95.8640000  35.8070000
  98.2980000  98.0550000  36.5920000  99.3320000  98.2110000  36.8520000
  97.8410000  98.8910000  36.1390000  97.7240000  97.6010000  37.8810000
  96.6490000  97.5930000  37.8010000  98.0790000  96.5970000  38.1240000
  98.1570000  98.4270000  39.0130000  99.2570000  98.4350000  39.2280000
  97.8950000  99.4750000  38.8910000  97.5040000  97.8740000  40.2370000
  96.3550000  97.9610000  40.1910000  97.7380000  96.8590000  40.2500000
  97.9450000  98.6730000  41.5020000  99.0040000  98.5630000  41.6760000
  97.7500000  99.7420000  41.2740000  97.2020000  98.3950000  42.8460000
  96.1990000  98.5790000  42.6610000  97.3220000  97.3360000  43.0740000
  97.8720000  99.2160000  44.0430000  98.8590000  98.7760000  44.2010000
  97.8220000 100.3060000  43.8930000  97.1260000  98.9480000  45.3850000
  97.1850000  97.8520000  45.7210000  97.6050000  99.5500000  46.1760000
  95.6480000  99.3010000  45.3320000  95.6370000 100.1020000  44.5830000
  95.0950000  98.4050000  44.9830000  94.9230000  99.9470000  46.5180000
  95.4890000 100.8080000  46.7420000  93.8950000 100.2360000  46.1460000
  94.8570000  99.0380000  47.7320000  94.4020000  97.9260000  47.7120000
  95.6260000  99.5090000  48.7660000  95.9510000  98.5730000  49.8400000
  95.2130000  98.8120000  50.6100000  95.7370000  97.4920000  49.5970000
  97.3980000  98.7650000  50.3910000  97.6970000  98.0050000  51.0470000
  97.6130000 100.1260000  51.1900000  97.6270000 100.8920000  50.4090000
  96.8150000 100.2740000  51.8760000  98.8890000 100.0160000  51.8500000
  99.0750000  99.1220000  53.2280000  98.8710000 100.2300000  54.2900000
  99.6050000 101.3930000  54.3620000  99.8010000 101.5930000  55.4830000
 100.6350000 101.1260000  53.9630000  98.9310000 102.5130000  53.5890000
  99.6520000 103.3380000  53.5390000  98.7390000 102.0490000  52.5790000
  97.6140000 103.0710000  54.0620000  96.8470000 103.5350000  52.8550000
  96.6300000 102.6360000  52.2540000  95.8470000 103.8870000  53.2530000
  97.3500000 104.3210000  52.2550000  96.8460000 102.1360000  54.9690000
  95.9600000 102.7000000  55.0810000  96.6570000 101.1860000  54.4830000
  97.4230000 102.0130000  55.9280000  97.7580000 104.2930000  54.8670000
  98.5180000 104.0470000  55.5860000  96.7670000 104.4890000  55.2760000
  98.1010000 105.0690000  54.2090000  97.9330000  98.1900000  53.4830000
 100.4820000  98.6250000  53.1540000  98.3520000  98.7120000  49.3380000
  98.8870000  97.4840000  49.0160000  98.7510000  96.5130000  49.7750000
  99.8480000  97.4720000  47.8800000  99.5530000  98.2450000  47.1150000
  99.7440000  96.5430000  47.2930000 101.2490000  97.6960000  48.4180000
 101.4920000  96.7890000  49.0420000 101.2810000  98.5680000  49.0990000
 102.2430000  97.8750000  47.3140000 102.9930000  98.6350000  47.6000000
 101.7400000  98.2650000  46.3670000 102.9210000  96.6130000  46.8950000
 102.1950000  95.8180000  46.5510000 103.4310000  96.1370000  47.8110000
 103.9540000  96.7740000  45.7380000 104.8180000  97.4240000  46.0130000
 103.4400000  97.3460000  44.9200000 104.4810000  95.4060000  45.2820000
 103.7790000  94.9730000  44.5760000 104.7130000  94.6850000  46.1020000
 105.7590000  95.5090000  44.4800000 106.1090000  94.4550000  44.0680000
 106.5780000  95.8110000  45.1030000 105.4670000  96.4540000  43.3390000
 105.0480000  97.4740000  43.6620000 105.6330000  96.2360000  42.0690000
 105.3840000  96.9550000  41.2870000 106.0110000  94.8550000  41.5350000
 105.4290000  94.0950000  42.1270000 107.0840000  94.5410000  41.6780000
 105.5660000  94.8550000  40.0900000 106.1110000  95.6430000  39.5620000
 104.4820000  95.0480000  39.9100000 105.8290000  93.5890000  39.2230000
 105.1540000  92.7980000  39.5490000 106.7980000  93.1160000  39.5100000
 105.6380000  93.8020000  37.6840000 106.4500000  93.2470000  37.2660000
 105.8990000  94.8800000  37.4250000 104.3070000  93.4000000  37.0610000
 104.1780000  92.3510000  37.2200000 104.4170000  93.5850000  35.9640000
 103.0560000  94.0490000  37.5780000 102.8570000  93.6510000  38.6240000
 102.2560000  93.5710000  37.0480000 102.8820000  95.6510000  37.2710000
 102.9920000  95.7830000  36.2220000 103.5300000  96.2220000  37.8090000
 101.5300000  96.1530000  37.6530000 101.6040000  97.2050000  37.5280000
 101.3820000  95.9980000  38.7090000 100.6310000  95.8150000  37.0540000
 123.4390000  53.8730000  42.0020000 123.9130000  53.2590000  42.7190000
 122.8720000  53.3000000  41.3010000 122.7980000  54.5610000  42.6030000
 124.3540000  54.6830000  41.1380000 124.9460000  53.9720000  40.5280000
 123.6050000  55.1820000  40.4210000 125.1790000  55.8550000  41.8590000
 126.0080000  56.1200000  41.0990000 124.5480000  56.6740000  42.0660000
 125.8190000  55.4820000  43.1820000 125.0760000  55.3400000  43.9370000
 126.2840000  54.5190000  43.0330000 126.9050000  56.5390000  43.6670000
 127.2850000  56.0730000  44.5980000 127.6480000  56.5690000  42.8920000
 126.4090000  57.9510000  43.9610000 126.3080000  58.3860000  42.9290000
 125.3970000  57.9830000  44.3250000 127.3670000  58.8650000  44.6710000
 128.1870000  59.1320000  44.0710000 126.8020000  59.7940000  44.7990000
 127.8290000  58.2880000  46.0010000 128.2170000  57.3130000  45.8010000
 128.6450000  58.8250000  46.4300000 126.6920000  58.3870000  47.0730000
 126.4370000  59.4690000  47.0990000 125.6950000  57.9880000  46.8330000
 126.9940000  57.8490000  48.4750000 127.7330000  58.4950000  48.9580000
 126.0400000  57.9680000  49.0940000 127.4650000  56.3440000  48.4840000
 128.3530000  56.2200000  48.0120000 127.7360000  56.1350000  49.5730000
 126.5230000  55.3270000  47.8930000 126.2540000  55.6590000  46.8140000
 127.1500000  54.4300000  47.7190000 125.1780000  55.0050000  48.5500000
 125.3360000  54.5540000  49.5260000 124.6640000  55.9720000  48.6180000
 124.2260000  54.1650000  47.6940000 123.7670000  54.8200000  47.0180000
 124.7110000  53.4380000  47.0400000 122.9870000  53.4120000  48.3550000
 122.3450000  54.1040000  49.0100000 122.2920000  53.1020000  47.5400000
 123.4820000  52.2170000  49.1230000 124.2740000  51.3680000  48.7380000
 122.6470000  52.1180000  50.2310000 122.8090000  50.9660000  50.9740000
 121.9770000  50.3470000  50.7270000 123.7910000  50.4840000  50.7970000
 122.7330000  51.3190000  52.4850000 122.6210000  50.3620000  53.0820000
 121.4490000  52.1980000  52.7280000 121.4010000  53.1880000  52.2880000
 120.5710000  51.6280000  52.3570000 121.4170000  52.4640000  54.1700000
 120.2340000  53.2520000  54.8570000 120.6530000  54.7630000  54.9090000
 121.7930000  55.1640000  55.6180000 121.5520000  56.1880000  55.9290000
 121.9490000  54.5870000  56.5400000 122.9630000  55.0210000  54.7100000
 123.7880000  54.8170000  55.3670000 122.8250000  54.0750000  54.1160000
 123.1820000  56.1350000  53.6820000 124.3870000  55.8040000  52.8330000
 124.4170000  56.5590000  52.0080000 125.2280000  55.9260000  53.5020000
 124.2190000  54.8190000  52.3910000 122.0480000  56.2910000  52.6960000
 121.0870000  56.3350000  53.2460000 122.0500000  57.2790000  52.2900000
 121.9600000  55.5950000  51.8110000 123.1970000  57.4510000  54.3730000
 123.7210000  58.2460000  53.8420000 123.5530000  57.3710000  55.3780000
 122.1770000  57.7470000  54.4120000 119.0620000  53.2550000  53.9960000
 120.0740000  52.8740000  56.2860000 123.9680000  51.9610000  52.9970000
 125.0870000  51.2410000  53.1180000 125.1650000  50.0430000  52.9980000
 126.2990000  52.1040000  53.3020000 127.2040000  51.4940000  53.4840000
 126.1260000  52.7030000  54.2280000 126.5110000  52.9940000  52.0330000
 127.4290000  53.6020000  52.1490000 125.6390000  53.6080000  51.8830000
 126.8020000  52.2750000  50.7110000 126.8010000  53.0360000  49.9680000
 125.9910000  51.7090000  50.3410000 128.0820000  51.4270000  50.6460000
 127.8170000  50.4520000  51.0840000 128.8360000  51.9720000  51.2990000
 128.5970000  51.0690000  49.2270000 129.4290000  50.4080000  49.2640000
 129.0400000  51.9300000  48.8130000 127.6040000  50.4850000  48.1860000
 126.7540000  51.1660000  48.0040000 127.1540000  49.5220000  48.6030000
 128.3020000  50.2480000  46.8220000 129.2830000  49.8110000  47.0490000
 128.5650000  51.1690000  46.3520000 127.5110000  49.5320000  45.8210000
 127.1570000  48.5830000  46.2210000 127.2780000  49.8260000  44.5550000
 126.6530000  49.1290000  44.0060000 127.3850000  51.2730000  43.9810000
 127.3090000  51.9710000  44.8870000 126.5390000  51.4590000  43.3470000
 128.7130000  51.5250000  43.1510000 129.5130000  51.1210000  43.6670000
 128.7870000  52.5460000  42.9360000 128.8470000  50.7610000  41.8650000
 128.7340000  49.7480000  42.0340000 129.8280000  50.8440000  41.4750000
 127.8020000  51.1580000  40.7700000 127.6810000  52.2470000  40.6360000
 126.8680000  50.7300000  41.1890000 128.0210000  50.6150000  39.3970000
 127.7120000  49.5870000  39.3570000 129.1210000  50.5020000  39.1420000
 127.3940000  51.3770000  38.2850000 127.7310000  52.4000000  38.2620000
 126.3300000  51.4500000  38.5740000 127.6010000  50.6830000  36.9180000
 127.1880000  49.6460000  36.9460000 128.5900000  50.5890000  36.6400000
 126.7970000  51.4470000  35.8320000 127.4930000  51.5170000  34.9690000
 126.4360000  52.4370000  36.0900000 125.8650000  50.9950000  35.4080000
  12.4030000 140.9860000  39.0900000  12.5220000 141.6660000  39.9530000
  12.8300000 141.5800000  38.2660000  13.0260000 140.0990000  39.3270000
  10.9310000 140.7000000  38.8490000  10.4310000 141.4390000  38.2610000
  10.7610000 139.8110000  38.1870000  10.2840000 140.2290000  40.1970000
  10.9880000 139.4580000  40.5210000  10.3430000 141.0300000  40.9480000
   8.8450000 139.8530000  40.0230000   8.3070000 140.6110000  39.4570000
   8.7400000 138.9420000  39.3710000   8.0840000 139.5950000  41.3460000
   8.7780000 138.9660000  41.8910000   7.9370000 140.5140000  41.9190000
   6.7730000 138.8150000  41.1220000   6.9900000 137.7720000  40.8690000
   6.3720000 138.6660000  42.1590000   5.8370000 139.3400000  40.0180000
   6.3890000 139.4530000  39.0900000   4.9980000 138.6990000  39.9350000
   5.3290000 140.7830000  40.5410000   6.2260000 141.3860000  40.8090000
   4.8820000 141.3340000  39.7400000   4.3340000 140.6210000  41.7030000
   3.3550000 140.3470000  41.3150000   4.4230000 139.7690000  42.4400000
   4.2090000 141.9550000  42.4990000   3.9390000 142.7740000  41.7850000
   3.4490000 141.7930000  43.2310000   5.5200000 142.4680000  43.1600000
   6.2650000 142.8080000  42.5050000   5.1920000 143.4420000  43.6210000
   6.1060000 141.4810000  44.1930000   5.2160000 141.2600000  44.7450000
   6.4550000 140.5830000  43.6500000   7.2150000 142.0780000  45.0470000
   7.0210000 143.1290000  45.2460000   7.1960000 141.6310000  46.0470000
   8.6020000 141.8830000  44.3740000   8.6130000 142.1530000  43.3080000
   9.3500000 142.5460000  44.8420000   9.2620000 140.4230000  44.5070000
   8.5050000 139.6860000  44.0760000  10.1340000 140.3960000  43.9120000
   9.5400000 139.8960000  45.9000000  10.2480000 140.5030000  46.6930000
   8.9250000 138.7430000  46.0750000   9.0280000 137.8760000  47.2850000
   8.4930000 136.9520000  47.1430000  10.0980000 137.7480000  47.4620000
   8.4430000 138.5630000  48.5720000   9.1330000 139.3450000  48.9360000
   8.2920000 137.6850000  49.8260000   8.3280000 138.2340000  50.7800000
   7.3520000 137.0790000  49.9100000   9.4340000 136.7580000  50.0050000
  10.9390000 137.1930000  50.3510000  11.3380000 136.0510000  51.3820000
  12.2930000 135.0370000  51.0630000  12.1500000 134.2410000  51.7080000
  12.1000000 134.6800000  50.0610000  13.6950000 135.6410000  51.0650000
  14.3680000 134.8140000  50.9030000  13.7460000 136.3990000  50.2960000
  14.2210000 136.3470000  52.2340000  13.6730000 137.7620000  52.3690000
  12.6330000 137.6840000  52.6910000  14.2470000 138.3950000  53.0850000
  13.7440000 138.2280000  51.3780000  13.9470000 135.6260000  53.5390000
  14.2970000 136.1090000  54.3570000  12.8380000 135.6100000  53.5500000
  14.3650000 134.5830000  53.5900000  15.7020000 136.4050000  52.1030000
  15.9900000 135.4630000  51.5850000  16.2140000 136.3930000  53.0080000
  15.8900000 137.3420000  51.5220000  11.8280000 137.0160000  49.1530000
  10.8330000 138.5240000  50.9730000   7.1690000 139.1470000  48.2620000
   6.9350000 140.5140000  48.3160000   7.7480000 141.4010000  48.5010000
   5.4510000 140.8670000  48.2830000   4.9450000 140.1370000  48.8880000
   5.0650000 140.7340000  47.3470000   5.2140000 142.3160000  48.6720000
   5.6560000 142.4340000  49.6970000   4.1270000 142.3100000  48.8440000
   5.6300000 143.3800000  47.6510000   5.2130000 143.3070000  46.6140000
   6.6890000 143.1790000  47.4820000   5.4660000 144.8390000  48.1800000
   6.0020000 144.8790000  49.2030000   4.4480000 145.1170000  48.3500000
   5.9930000 145.8140000  47.1590000   5.5780000 146.8250000  47.3680000
   5.5090000 145.5820000  46.2520000   7.5710000 145.8850000  47.0920000
   7.9970000 144.9000000  47.2270000   7.9340000 146.4050000  47.9660000
   8.1680000 146.4310000  45.7600000   9.1530000 146.1200000  45.8120000
   8.2280000 147.5060000  45.6520000   7.5330000 145.7580000  44.5470000
   6.9810000 144.9320000  44.7470000   7.3860000 146.3100000  43.3750000
   6.9520000 145.6590000  42.5960000   8.1200000 147.5480000  42.9830000
   9.1830000 147.3650000  43.0420000   7.9190000 148.3610000  43.7010000
   7.6180000 148.1070000  41.6800000   6.5440000 148.3100000  41.7200000
   7.9010000 147.3470000  40.9220000   8.4090000 149.3920000  41.2420000
   9.4560000 149.1200000  41.0170000   8.4060000 150.1580000  42.0700000
   7.7300000 149.9110000  39.9680000   6.6760000 149.8850000  40.0380000
   7.8770000 149.2490000  39.1370000   8.0850000 151.3540000  39.5210000
   7.9190000 152.1630000  40.2780000   7.4360000 151.5800000  38.6090000
   9.4940000 151.5130000  39.0010000   9.6980000 150.8510000  38.1670000
  10.1850000 151.2490000  39.8090000   9.8410000 152.8900000  38.4110000
   9.6050000 153.6270000  39.1500000   9.1710000 153.1150000  37.5440000
  11.2970000 152.9170000  37.9650000  11.9380000 152.6280000  38.7170000
  11.5990000 153.8910000  37.5850000  11.3270000 152.1730000  37.1350000
   4.2740000  42.6080000  34.4200000   3.2060000  42.7330000  34.4300000
   4.4690000  42.3610000  33.3640000   4.7080000  43.5390000  34.7550000
   4.8930000  41.4570000  35.2550000   4.4570000  40.5480000  34.8300000
   5.9450000  41.4490000  35.0200000   4.6900000  41.5010000  36.8140000
   4.9770000  42.5250000  37.0910000   3.6460000  41.3910000  37.0580000
   5.6120000  40.3460000  37.4360000   5.0050000  39.4890000  37.7210000
   6.3750000  39.9230000  36.7990000   6.1380000  41.0470000  38.7260000
   6.7840000  41.8660000  38.4550000   5.2680000  41.4190000  39.2440000
   6.9070000  39.9590000  39.5350000   6.2560000  39.1490000  39.7240000
   7.8320000  39.6620000  39.0940000   7.4540000  40.3040000  40.9170000
   8.5420000  40.6550000  40.8040000   6.8910000  41.1560000  41.3540000
   7.4620000  39.2670000  42.0340000   6.6570000  38.5350000  41.9550000
   8.3720000  38.6620000  42.1430000   7.2750000  39.8970000  43.4450000
   6.5380000  40.7220000  43.3530000   7.0070000  39.1270000  44.1080000
   8.6490000  40.5130000  43.9750000   8.8980000  41.3460000  43.2650000
   8.5240000  41.0140000  44.9500000   9.9130000  39.5980000  44.2010000
  10.2870000  39.1720000  43.2340000  10.6290000  40.2670000  44.5920000
   9.6410000  38.5270000  45.2420000   9.1110000  39.0000000  46.1280000
   9.0090000  37.7660000  44.7560000  10.9030000  37.8230000  45.7560000
  11.5380000  37.7320000  44.8930000  11.5010000  38.4430000  46.4170000
  10.6440000  36.4840000  46.4240000  10.1970000  35.6950000  45.7210000
  11.5930000  36.0720000  46.5920000   9.7410000  36.4880000  47.6780000
   8.7610000  36.7070000  47.3430000   9.6320000  35.4320000  48.0730000
  10.1450000  37.4510000  48.8290000  10.7150000  37.0490000  49.8440000
   9.8610000  38.7350000  48.6050000  10.2900000  39.7780000  49.5040000
   9.8590000  40.6590000  49.1550000   9.8330000  39.5310000  50.4930000
  11.8250000  39.9250000  49.6890000  12.1220000  38.8750000  49.9440000
  12.2560000  40.7660000  50.8830000  12.3830000  41.8090000  50.6310000
  11.3800000  40.6960000  51.4980000  13.5100000  40.2030000  51.4500000
  14.7990000  41.2030000  51.5730000  16.0230000  40.3010000  51.3730000
  16.5990000  40.0230000  50.0610000  17.2230000  39.1570000  50.2870000
  15.8310000  39.7810000  49.3860000  17.4170000  41.1900000  49.5060000
  17.9580000  40.8570000  48.6560000  16.6630000  41.8580000  49.0530000
  18.3940000  42.0120000  50.3070000  19.2580000  42.8100000  49.4560000
  20.0520000  42.2240000  48.9210000  18.6380000  43.2740000  48.7360000
  19.8720000  43.5590000  49.9800000  17.7050000  42.8900000  51.2080000
  18.4870000  43.5350000  51.5880000  17.0280000  43.4950000  50.6800000
  17.2190000  42.3440000  52.0200000  19.2920000  41.1530000  51.1640000
  18.6140000  40.3720000  51.6500000  19.9310000  41.8300000  51.8070000
  19.9350000  40.6350000  50.4470000  14.6280000  42.0990000  50.4330000
  14.9500000  41.8870000  52.8700000  12.4250000  40.3470000  48.4640000
  13.4150000  39.5970000  47.9200000  13.7960000  38.5470000  48.4250000
  13.9130000  40.1390000  46.6360000  14.2420000  41.1700000  46.9100000
  13.1780000  40.1850000  45.8420000  15.1620000  39.4770000  46.0850000
  16.0120000  39.3620000  46.7850000  15.5760000  40.1910000  45.3620000
  14.8180000  38.2250000  45.3020000  14.1870000  38.5660000  44.3980000
  14.1310000  37.5780000  46.0140000  15.9180000  37.3600000  44.7850000
  16.4910000  37.0050000  45.5680000  16.6450000  37.9260000  44.1180000
  15.5420000  36.2320000  43.8190000  16.4350000  35.6570000  43.6070000
  15.2670000  36.6870000  42.8710000  14.3260000  35.3430000  44.1700000
  13.4870000  36.0390000  44.2960000  14.4580000  34.7430000  45.0550000
  14.0040000  34.3890000  43.0450000  14.8990000  33.8410000  42.7430000
  13.7430000  35.0560000  42.1970000  12.7360000  33.6550000  43.4450000
  12.8800000  32.7840000  44.0940000  11.4800000  34.0060000  43.0800000
  10.6230000  33.4140000  43.3670000  11.1840000  35.1820000  42.2500000
  12.0170000  35.9050000  42.4770000  10.3010000  35.6920000  42.7000000
  11.0580000  34.9880000  40.6970000  10.3280000  34.1750000  40.3970000
  12.0460000  34.6890000  40.3050000  10.7000000  36.3210000  39.9970000
  11.4920000  37.0230000  39.8290000   9.9100000  36.8220000  40.5600000
  10.2640000  36.0430000  38.5470000   9.3720000  35.4000000  38.6840000
  11.0740000  35.4910000  38.0710000  10.0080000  37.2820000  37.7770000
  10.9740000  37.8710000  37.7920000   9.2960000  37.7870000  38.4360000
   9.5490000  36.9770000  36.3460000  10.3530000  36.5050000  35.7560000
   9.4180000  37.8640000  35.8410000   8.3620000  36.0530000  36.0790000
   8.6950000  35.0750000  36.4140000   8.1150000  35.9190000  35.0750000
   6.9620000  36.3440000  36.7400000   6.2230000  35.5970000  36.4020000
   6.7180000  37.3260000  36.3920000   7.0810000  36.3700000  37.8480000
  68.0150000 151.1710000  40.0530000  67.9310000 151.8820000  39.2260000
  69.0490000 151.0390000  40.3680000  67.4280000 151.5430000  40.8880000
  67.3990000 149.8110000  39.8110000  67.4610000 149.1610000  40.6960000
  66.3570000 149.9460000  39.5970000  67.8320000 149.0970000  38.5320000
  67.9310000 149.7820000  37.7140000  68.7830000 148.6940000  38.7990000
  66.9160000 147.8950000  38.2890000  65.8580000 148.1460000  38.0780000
  67.2560000 147.4350000  37.3410000  67.0420000 146.7340000  39.2740000
  68.0060000 146.2360000  39.2990000  66.8960000 147.1080000  40.3030000
  65.9790000 145.5990000  39.0990000  65.9800000 145.2370000  38.1290000
  66.3840000 144.8760000  39.7560000  64.6230000 146.0920000  39.5980000
  64.7210000 146.4960000  40.5760000  64.2870000 146.9480000  39.1360000
  63.4820000 145.1320000  39.6580000  62.6730000 145.7850000  40.0420000
  63.2620000 144.7260000  38.6400000  63.8640000 143.9740000  40.5640000
  64.6780000 143.4390000  40.0300000  64.3770000 144.3400000  41.4840000
  62.7260000 142.9850000  40.9200000  62.3440000 142.6880000  39.9590000
  63.2680000 142.0560000  41.1610000  61.6190000 143.4020000  41.9780000
  60.8250000 143.9720000  41.4590000  61.1480000 142.5640000  42.5280000
  62.1790000 144.3180000  43.0680000  63.1420000 143.9270000  43.4400000
  62.4630000 145.3290000  42.6630000  61.3320000 144.4750000  44.3060000
  60.2370000 144.3410000  44.1800000  61.7020000 143.7380000  44.9970000
  61.4450000 145.8640000  44.9110000  61.1870000 146.5810000  44.1070000
  60.6790000 146.0220000  45.6510000  62.7960000 146.0820000  45.4960000
  62.9860000 145.1610000  46.0220000  63.5090000 146.1680000  44.6660000
  62.7370000 147.2980000  46.4910000  62.4170000 148.3980000  46.1230000
  63.1480000 146.9920000  47.7150000  62.9750000 148.0040000  48.8030000
  63.7340000 147.7600000  49.4790000  63.1450000 149.0430000  48.4280000
  61.6900000 147.9790000  49.6310000  61.7180000 148.5520000  50.5160000
  61.5910000 146.4670000  50.0880000  60.5950000 146.0670000  49.8960000
  62.3490000 145.7630000  49.6280000  61.7070000 146.4490000  51.5310000
  63.1570000 146.4120000  52.2540000  63.9550000 145.2660000  51.5470000
  63.8700000 143.9290000  51.9320000  63.2490000 143.8240000  52.8160000
  63.2740000 143.2900000  51.1980000  65.2570000 143.3380000  52.0900000
  65.0030000 142.3360000  52.5720000  65.8760000 143.2970000  51.2020000
  66.2540000 143.9010000  53.0290000  65.7050000 143.9260000  54.4210000
  66.4150000 144.4110000  55.1040000  64.8370000 144.5080000  54.3980000
  65.4570000 142.9340000  54.6560000  67.4720000 142.9790000  53.0760000
  68.0450000 143.2270000  53.9920000  67.1090000 141.9360000  53.1610000
  68.1320000 143.1060000  52.1880000  66.8540000 145.2310000  52.6890000
  67.4440000 145.5980000  53.4410000  66.0700000 145.9430000  52.5540000
  67.5020000 145.1290000  51.8660000  63.6990000 147.7240000  51.9230000
  62.8670000 146.0690000  53.6240000  60.4240000 148.2800000  48.9500000
  60.1700000 149.6220000  48.8890000  60.8830000 150.5460000  49.2870000
  58.9050000 149.8300000  48.1600000  58.1690000 149.9940000  48.9490000
  58.5590000 148.9290000  47.6730000  58.9970000 150.9760000  47.1700000
  59.9310000 151.0250000  46.7320000  58.7110000 151.8430000  47.7420000
  58.1110000 150.8430000  45.9020000  58.2030000 151.7910000  45.4040000
  57.0290000 150.8070000  46.1190000  58.5000000 149.6970000  44.8920000
  58.2910000 148.8170000  45.4670000  59.4940000 149.7980000  44.6290000
  57.7630000 149.7100000  43.5620000  56.6790000 149.7580000  43.7770000
  58.0550000 148.8110000  42.9670000  58.0030000 150.8840000  42.6200000
  59.0180000 150.7410000  42.1740000  57.8990000 151.8330000  43.1420000
  57.0510000 150.7660000  41.4180000  56.0360000 150.7460000  41.9060000
  57.1260000 149.8100000  40.8750000  57.0650000 151.9380000  40.5280000
  56.4080000 152.7430000  40.8790000  57.7280000 152.1260000  39.4060000
  57.7600000 152.9930000  38.8230000  58.5850000 151.0840000  38.7300000
  58.1110000 150.8060000  37.7430000  58.4450000 150.1790000  39.2430000
  60.0950000 151.5100000  38.5910000  60.5140000 151.3750000  39.5860000
  60.2120000 152.4940000  38.2310000  60.9640000 150.5910000  37.7040000
  60.6750000 150.6420000  36.6560000  60.5670000 149.5580000  38.0240000
  62.5290000 150.7110000  37.7700000  62.8630000 150.6910000  38.8370000
  62.8790000 151.6520000  37.2310000  63.2430000 149.4510000  37.2520000
  63.0970000 148.5200000  37.8700000  64.3190000 149.5530000  37.3140000
  62.8270000 149.0940000  35.7640000  63.1310000 149.9740000  35.2100000
  61.7490000 149.0000000  35.7210000  63.5500000 147.7980000  35.2860000
  64.6350000 147.9510000  35.3640000  63.4620000 147.6600000  34.1950000
  63.1090000 146.4870000  35.9960000  63.3570000 145.5410000  35.4430000
  62.0150000 146.4520000  35.9890000  63.4580000 146.5000000  37.0510000
  63.9670000  29.8000000  45.0120000  64.8230000  29.2950000  45.4430000
  63.3500000  28.9910000  44.5120000  63.4400000  30.1700000  45.8130000
  64.4370000  30.9760000  44.0910000  64.8800000  30.5500000  43.1630000
  63.4950000  31.4780000  43.7420000  65.4460000  31.9210000  44.6750000
  65.3560000  32.8460000  44.0560000  65.2870000  32.3810000  45.6990000
  66.8740000  31.4020000  44.7370000  66.9430000  30.5530000  45.4120000
  67.1990000  31.0750000  43.7080000  67.9380000  32.3980000  45.2110000
  67.4750000  33.1110000  45.9000000  68.7110000  31.8750000  45.8180000
  68.6450000  33.2200000  44.0730000  69.2910000  32.5210000  43.4570000
  67.8490000  33.6990000  43.4910000  69.6330000  34.3360000  44.5250000
  70.5190000  33.9180000  45.0170000  69.9750000  34.9150000  43.6410000
  69.1160000  35.4050000  45.5050000  68.7060000  34.9030000  46.4050000
  69.9670000  35.9000000  45.9710000  68.1880000  36.4320000  44.9010000
  68.7090000  37.0720000  44.1680000  67.3000000  36.0870000  44.4480000
  67.7580000  37.3440000  46.1240000  68.6340000  37.6640000  46.7380000
  67.2390000  38.1440000  45.6850000  66.7450000  36.8480000  47.1710000
  67.0870000  35.9090000  47.5540000  66.7720000  37.5840000  48.0810000
  65.2430000  36.6120000  46.5560000  64.8340000  37.5550000  46.3250000
  65.2110000  36.0420000  45.6440000  64.3590000  35.8040000  47.5920000
  64.8330000  34.9110000  48.0440000  64.1460000  36.4920000  48.4380000
  62.9400000  35.3880000  47.0030000  62.4610000  36.3280000  46.7770000
  63.0310000  34.8560000  46.0310000  62.0510000  34.6320000  48.0070000
  62.3270000  34.7450000  49.0590000  61.0330000  34.9010000  47.9410000
  62.1430000  33.1980000  47.6050000  63.1900000  32.6260000  47.4390000
  60.9740000  32.6170000  47.9010000  60.8170000  31.1740000  47.8130000
  59.8270000  30.9140000  47.4420000  61.5320000  30.7760000  47.1510000
  60.8630000  30.5960000  49.2310000  60.7940000  29.5410000  49.0870000
  59.7610000  31.1160000  50.2170000  59.9680000  30.8020000  51.2360000
  59.6960000  32.2500000  50.2900000  58.4040000  30.6910000  49.8600000
  57.9270000  29.0390000  49.8650000  59.0020000  28.3370000  50.8030000
  58.5730000  27.4200000  51.8540000  59.2800000  27.4890000  52.7040000
  57.4950000  27.6770000  52.0730000  58.6880000  25.9870000  51.2580000
  58.2970000  25.2030000  51.9920000  58.0300000  25.9930000  50.2890000
  60.0650000  25.5600000  50.7740000  60.4040000  24.1510000  51.0840000
  60.6660000  24.0960000  52.1750000  59.5320000  23.5710000  50.8930000
  61.1810000  23.8300000  50.4120000  59.9960000  25.8050000  49.3170000
  60.9390000  25.5460000  48.8920000  59.2560000  25.1430000  48.8600000
  59.6550000  26.8430000  49.2420000  61.1720000  26.3610000  51.3670000
  62.0360000  25.9270000  50.6820000  61.1760000  26.0770000  52.4150000
  61.0010000  27.4250000  51.3390000  56.6510000  28.9390000  50.5730000
  58.0680000  28.4060000  48.5430000  62.1220000  30.9660000  49.8310000
  63.2380000  30.2190000  49.5570000  63.1300000  29.1510000  49.0140000
  64.4980000  30.8980000  50.0270000  64.6860000  30.6570000  51.0980000
  64.4020000  32.0070000  49.9180000  65.7920000  30.4110000  49.2250000
  65.5520000  30.3690000  48.2150000  66.0730000  29.3920000  49.5510000
  66.9730000  31.3480000  49.4390000  67.2220000  31.2880000  50.5480000
  66.8350000  32.5160000  49.1090000  68.0840000  30.6560000  48.5860000
  67.7600000  30.4360000  47.5790000  68.4800000  29.8450000  49.1450000
  69.3320000  31.6230000  48.5860000  69.5670000  32.0450000  49.5610000
  69.1500000  32.4570000  47.9140000  70.6470000  30.9100000  48.1220000
  70.4790000  30.4110000  47.2210000  71.0310000  30.2090000  48.8630000
  71.8260000  31.9040000  47.7490000  71.9890000  32.4850000  48.6810000
  71.6030000  32.5470000  46.8720000  73.0800000  31.1240000  47.4150000
  73.7890000  31.0860000  48.1940000  73.5230000  30.7960000  46.2080000
  74.5160000  30.2800000  46.0060000  72.6590000  31.0030000  44.9820000
  71.7820000  31.5300000  45.2450000  72.2010000  30.0310000  44.7790000
  73.4150000  31.5750000  43.7770000  73.7600000  30.8100000  43.1430000
  74.2570000  32.2790000  44.1560000  72.3880000  32.3440000  42.9290000
  72.0700000  33.1260000  43.5510000  71.5740000  31.7360000  42.6320000
  72.9380000  32.8040000  41.5790000  73.5380000  32.0040000  41.1240000
  73.6230000  33.6120000  41.7330000  71.9470000  33.2020000  40.5030000
  71.1180000  32.3880000  40.5110000  72.4150000  33.1350000  39.5320000
  71.3570000  34.6300000  40.8570000  72.1860000  35.3010000  40.4590000
  71.3130000  34.7620000  41.9320000  70.1330000  34.9960000  40.1340000
  69.3020000  34.3430000  40.3280000  70.4260000  34.7910000  39.0420000
  69.6950000  36.4430000  40.1530000  69.0070000  36.5360000  39.3630000
  70.5420000  37.1000000  39.8930000  69.2650000  36.8170000  41.0900000
 106.2180000 110.0930000  35.0600000 106.0490000 109.0630000  35.5220000
 107.3230000 110.1780000  35.0090000 105.7710000 110.2240000  34.0860000
 105.6290000 111.1980000  36.0510000 106.0880000 111.1610000  37.0120000
 105.8430000 112.1860000  35.7150000 104.1290000 110.9850000  36.2010000
 103.9360000 109.9630000  36.4010000 103.8920000 111.6260000  37.0930000
 103.1490000 111.5120000  35.1390000 103.2410000 110.8790000  34.2790000
 102.1830000 111.3710000  35.5630000 103.3520000 112.9600000  34.7080000
 104.3710000 113.2890000  34.7280000 102.9200000 113.0630000  33.7370000
 102.4950000 113.8350000  35.6390000 101.4410000 113.5940000  35.5270000
 102.7880000 113.6730000  36.6860000 102.6150000 115.3770000  35.6390000
 103.6090000 115.6630000  35.8600000 102.3530000 115.8810000  34.7280000
 101.7510000 115.9220000  36.7170000 100.7370000 115.6590000  36.4760000
 102.0270000 115.5230000  37.6890000 102.0160000 117.4300000  36.8810000
 103.0910000 117.6530000  36.9190000 101.5700000 118.0020000  36.0760000
 101.4410000 118.2170000  38.0810000 101.8120000 117.6780000  38.9440000
 101.7870000 119.2810000  38.1270000  99.9390000 118.2200000  38.1700000
  99.7170000 119.1370000  38.7560000  99.5260000 118.3140000  37.1570000
  99.3280000 117.0210000  38.9000000  98.2350000 117.1030000  38.7160000
  99.7890000 116.0890000  38.5660000  99.5100000 117.1690000  40.3730000
 100.5660000 117.2860000  40.5670000  98.9370000 118.0680000  40.6960000
  99.0200000 115.9260000  41.1060000  97.9680000 115.6360000  40.8430000
  99.7610000 115.1250000  40.8120000  99.0060000 116.1500000  42.5870000
 100.0320000 116.5420000  42.8310000  98.2310000 116.8130000  42.9410000
  98.8230000 114.8470000  43.2710000  98.5480000 113.8190000  42.6930000
  99.0300000 114.8160000  44.6140000  99.6960000 115.7890000  45.3330000
  99.6290000 116.8020000  44.9100000  99.2030000 115.8560000  46.3060000
 101.1850000 115.6650000  45.5620000 101.4450000 114.8110000  46.1200000
 101.7450000 116.9130000  46.2790000 102.1810000 117.4610000  45.4560000
 101.0870000 117.4920000  46.7860000 102.7620000 116.6350000  47.2910000
 102.2400000 116.1810000  48.6950000 102.2480000 117.4700000  49.5380000
 103.2320000 117.8710000  50.4560000 104.0690000 117.1620000  50.5480000
 103.7430000 118.7910000  50.1290000 102.5540000 118.0930000  51.7890000
 103.2470000 118.6680000  52.3400000 101.6340000 118.5540000  51.6900000
 102.2600000 116.9420000  52.6990000 101.5570000 117.4260000  53.9120000
 100.5370000 117.8880000  53.6850000 101.3140000 116.5870000  54.5980000
 102.2090000 118.1750000  54.3670000 101.4510000 115.9040000  52.0260000
 100.5340000 116.3420000  51.5800000 102.1410000 115.4820000  51.2370000
 101.2040000 115.0350000  52.6410000 103.5270000 116.2630000  53.1780000
 104.1970000 116.9520000  53.7260000 104.0550000 115.8850000  52.3080000
 103.2680000 115.3320000  53.7380000 100.8240000 115.8420000  48.5070000
 103.1260000 115.1920000  49.2480000 101.7990000 115.7030000  44.2520000
 102.8290000 114.8310000  44.0960000 102.6510000 113.6740000  44.4340000
 104.0450000 115.4110000  43.3710000 104.8450000 114.8440000  43.7430000
 104.2790000 116.4700000  43.6800000 103.7980000 115.4740000  41.8790000
 103.0590000 116.2270000  41.6490000 103.3870000 114.5330000  41.5240000
 105.0540000 115.6920000  40.9980000 105.6000000 114.7890000  41.0710000
 105.6370000 116.4900000  41.4350000 104.6300000 115.9610000  39.5330000
 103.9690000 116.8320000  39.4460000 104.1820000 115.0840000  39.1960000
 105.8450000 116.2580000  38.5830000 106.3870000 117.1490000  38.9240000
 105.3750000 116.5590000  37.6560000 106.9180000 115.1000000  38.4020000
 106.3370000 114.2330000  38.2770000 107.5620000 114.9190000  39.2970000
 107.9220000 115.3630000  37.2960000 108.8060000 114.6710000  37.3550000
 108.2750000 116.4270000  37.3920000 107.2310000 115.0660000  35.9670000
 107.1340000 114.0290000  35.7550000 106.6950000 115.9590000  35.1180000
 106.2570000 115.6660000  34.2310000 106.8220000 117.5040000  35.3470000
 107.8550000 117.7490000  35.5600000 106.2640000 117.8630000  36.2130000
 106.4290000 118.3800000  34.1650000 106.8090000 117.9680000  33.2350000
 106.7990000 119.4160000  34.3080000 104.8570000 118.4510000  34.1010000
 104.4370000 118.9160000  35.0100000 104.4220000 117.4630000  34.1410000
 104.1880000 119.0870000  32.8460000 104.3460000 120.1580000  32.9370000
 103.0800000 118.9260000  32.8670000 104.8460000 118.7470000  31.5250000
 104.8540000 117.7200000  31.3610000 105.8690000 119.1540000  31.5680000
 104.0870000 119.4000000  30.2930000 103.8070000 120.4010000  30.4330000
 103.1820000 118.8250000  30.0640000 105.1100000 119.4700000  29.1590000
 106.0560000 120.0620000  29.4830000 104.5900000 120.0660000  28.4130000
 105.2410000 118.1640000  28.3750000 105.8990000 117.4430000  28.8730000
 105.7180000 118.3910000  27.4230000 104.3280000 117.5750000  28.1430000
  10.0980000   8.6090000  41.8210000  10.0340000   9.2490000  40.9500000
   9.7390000   9.1210000  42.7230000   9.5100000   7.7210000  41.5810000
  11.4570000   8.0200000  42.0830000  11.8880000   8.5120000  42.9900000
  11.3700000   6.9390000  42.3310000  12.3090000   8.1870000  40.8500000
  11.7920000   8.1260000  39.8650000  12.7220000   9.2110000  40.8530000
  13.5550000   7.2500000  41.0990000  14.3700000   7.6930000  40.6050000
  13.7930000   7.2310000  42.2090000  13.3170000   5.7760000  40.6640000
  12.6640000   5.3260000  41.4570000  12.7070000   5.7340000  39.7650000
  14.6340000   4.9990000  40.4730000  15.2390000   5.4940000  39.6510000
  15.1560000   5.1180000  41.4280000  14.3230000   3.5000000  40.1960000
  13.4650000   3.3070000  39.4740000  15.1570000   2.9490000  39.7040000
  13.9390000   2.8550000  41.5020000  13.2140000   3.4570000  42.0040000
  13.3690000   1.9530000  41.3580000  15.0790000   2.5500000  42.4980000
  15.8930000   1.9110000  42.0820000  15.5870000   3.4750000  42.7990000
  14.5280000   2.0290000  43.8710000  14.1420000   1.0570000  43.6440000
  15.4390000   1.9590000  44.5090000  13.4700000   2.7980000  44.6240000
  12.5620000   2.8190000  43.9760000  13.2170000   2.1370000  45.5220000
  13.8840000   4.2230000  45.1110000  14.7640000   4.2260000  45.7370000
  14.2840000   4.8800000  44.3350000  12.7770000   5.0310000  45.7820000
  11.8100000   4.8550000  45.3010000  12.5360000   4.5760000  46.7460000
  13.0900000   6.4890000  45.9190000  14.0460000   6.5070000  46.4050000
  13.3100000   7.0020000  44.9760000  12.0260000   7.2190000  46.7420000
  11.1890000   7.4180000  46.1210000  11.6630000   6.4280000  47.4490000
  12.6030000   8.4840000  47.3040000  13.1680000   9.3490000  46.7320000
  12.4360000   8.5780000  48.6500000  13.1950000   9.6720000  49.3700000
  14.1860000   9.5990000  48.9740000  12.8810000  10.6320000  49.0370000
  13.2880000   9.4270000  50.9140000  12.2920000   9.5840000  51.2350000
  14.3630000  10.2120000  51.6390000  14.0020000  11.2850000  51.6890000
  14.5020000   9.8950000  52.6360000  15.6620000  10.1390000  51.0280000
  16.2620000  11.2600000  50.0530000  16.8530000  10.3140000  48.9150000
  18.1880000   9.8030000  49.1400000  18.6150000   9.4340000  48.1760000
  18.8870000  10.5380000  49.5080000  18.0600000   8.6150000  50.0880000
  19.0390000   8.3860000  50.4620000  17.4450000   8.9060000  50.9360000
  17.6210000   7.2390000  49.6370000  16.1650000   7.2080000  49.1980000
  15.9350000   6.1750000  48.8490000  15.5750000   7.4790000  50.0960000
  15.9480000   8.0020000  48.4170000  18.4110000   6.8140000  48.4440000
  18.0590000   7.4560000  47.6450000  19.4630000   6.8520000  48.6370000
  18.0870000   5.7830000  48.1810000  17.8630000   6.1790000  50.5950000
  17.3220000   5.3130000  50.2020000  17.3580000   6.3530000  51.5340000
  18.8850000   5.9330000  50.7710000  15.0850000  11.9950000  49.6200000
  17.3260000  12.0160000  50.6420000  13.6420000   8.0510000  51.0860000
  12.7800000   7.1590000  51.5640000  11.7050000   7.5220000  52.0820000
  13.3190000   5.7840000  51.4700000  13.9950000   5.5850000  52.2720000
  13.8070000   5.6640000  50.4540000  12.2150000   4.6860000  51.5950000
  11.7150000   4.6680000  52.5680000  12.7270000   3.7090000  51.4970000
  11.2510000   4.8010000  50.3990000  11.7700000   4.7150000  49.4300000
  10.7440000   5.7450000  50.3810000  10.2020000   3.7810000  50.3660000
   9.3530000   4.1200000  51.0380000  10.6710000   2.8250000  50.6350000
   9.6870000   3.4290000  48.8890000   8.9270000   2.6480000  49.0500000
  10.5110000   2.9880000  48.2640000   9.1350000   4.5800000  48.0510000
  10.0350000   5.0490000  47.6940000   8.5520000   5.2600000  48.6480000
   8.2690000   4.1270000  46.8990000   7.7630000   4.9690000  46.4580000
   7.5080000   3.4710000  47.3510000   9.1150000   3.4080000  45.8630000
   9.4480000   2.4250000  46.1490000   9.5450000   3.9200000  44.7060000
  10.0590000   3.3180000  44.0040000   9.2840000   5.3000000  44.1960000
  10.1880000   5.9370000  44.1810000   8.5590000   5.7900000  44.8690000
   8.5510000   5.1950000  42.8470000   8.0190000   6.1010000  42.5850000
   7.8780000   4.3680000  43.0220000   9.4100000   4.6850000  41.6090000
   9.9660000   3.8330000  41.8800000  10.1810000   5.4040000  41.2860000
   8.6450000   4.3660000  40.2990000   7.6240000   3.9550000  40.6360000
   9.1830000   3.5050000  39.9160000   8.5130000   5.4680000  39.1820000
   9.4880000   5.9940000  39.1100000   7.8030000   6.1560000  39.3230000
   8.2050000   4.8870000  37.8020000   9.0150000   4.2290000  37.5420000
   8.1390000   5.7230000  37.1730000   6.8730000   4.0470000  37.8090000
   6.0500000   4.7160000  38.2450000   6.8680000   3.2850000  38.5820000
   6.5310000   3.3960000  36.4950000   5.6200000   2.7080000  36.5950000
   7.3630000   2.7880000  36.2240000   6.3850000   4.1510000  35.6580000
  16.2240000  15.7110000  36.9370000  15.6940000  14.8830000  37.3080000
  17.1520000  15.3240000  36.5560000  15.6670000  16.0440000  36.1010000
  16.5120000  16.8060000  38.0470000  15.5200000  17.1330000  38.3610000
  16.9800000  16.2140000  38.8630000  17.4600000  17.9060000  37.5770000
  18.1760000  17.4950000  36.9140000  16.8370000  18.7010000  37.0690000
  18.1160000  18.6520000  38.8040000  18.7790000  19.4010000  38.3460000
  17.2740000  19.1530000  39.3750000  18.8820000  17.6820000  39.6970000
  18.1960000  17.0620000  40.1680000  19.5350000  17.0430000  38.9900000
  19.7410000  18.4680000  40.7090000  20.3890000  19.0980000  40.1700000
  19.0110000  18.9600000  41.3540000  20.6690000  17.4310000  41.4510000
  20.1430000  16.5230000  41.8320000  21.3690000  16.9630000  40.8080000
  21.4740000  18.1160000  42.6380000  22.1170000  18.9880000  42.3280000
  20.7310000  18.4870000  43.3710000  22.4750000  17.1960000  43.3770000
  21.9610000  16.2810000  43.5140000  23.3730000  17.0300000  42.8120000
  22.9300000  17.7670000  44.7750000  22.0480000  17.9610000  45.2860000
  23.4510000  16.9960000  45.4010000  23.7230000  19.1450000  44.6390000
  24.4590000  19.0390000  43.8830000  22.9620000  19.7960000  44.4550000
  24.4960000  19.5530000  45.8560000  23.9510000  19.3260000  46.7520000
  25.3740000  18.9290000  45.9760000  24.8630000  21.0320000  45.7810000
  25.4170000  21.1520000  44.7780000  23.9100000  21.5140000  45.7950000
  25.7410000  21.5570000  46.9400000  26.6420000  20.9460000  46.9020000
  25.9740000  22.6290000  46.8540000  25.1720000  21.4110000  48.3590000
  24.9800000  20.3730000  48.5950000  26.0140000  21.7100000  48.9930000
  23.8650000  22.0910000  48.7950000  23.7640000  23.2940000  49.0820000
  22.7930000  21.2150000  48.6950000  21.5690000  21.8870000  49.0170000
  21.6620000  22.1970000  50.0400000  21.4550000  22.7120000  48.3020000
  20.4130000  20.9800000  48.6410000  19.5650000  21.5080000  49.0080000
  20.4570000  19.6620000  49.3300000  19.5980000  19.0210000  49.0470000
  21.3650000  19.0910000  49.1180000  20.3800000  19.9430000  50.7170000
  19.6130000  18.9070000  51.6990000  18.0940000  19.2420000  51.3890000
  17.3640000  20.4370000  51.8210000  17.2300000  20.2690000  52.9180000
  18.0220000  21.2620000  51.5810000  15.9850000  20.5390000  51.0060000
  15.7500000  19.4620000  50.9190000  15.2690000  21.0730000  51.6270000
  15.9900000  21.1420000  49.6390000  14.6290000  20.7920000  49.0340000
  14.7250000  20.9820000  47.9420000  14.4570000  19.6820000  49.1440000
  13.8580000  21.3530000  49.5850000  16.3290000  22.6140000  49.7380000
  16.1630000  22.9800000  48.7100000  15.6330000  23.0860000  50.3950000
  17.2730000  22.8520000  50.1290000  17.0260000  20.4930000  48.7860000
  17.9530000  20.4950000  49.3090000  17.0890000  20.9670000  47.8530000
  16.6030000  19.5110000  48.6280000  19.9700000  17.5430000  51.2370000
  19.9610000  19.1460000  53.0950000  20.3390000  20.7470000  47.2110000
  19.7910000  21.7300000  46.4230000  19.2100000  22.7780000  46.7700000
  20.0760000  21.3410000  45.0200000  19.1100000  21.2700000  44.4870000
  20.6310000  20.3660000  44.9940000  21.0170000  22.2930000  44.2110000
  21.9030000  22.4570000  44.7760000  20.5990000  23.2320000  44.0010000
  21.3250000  21.6650000  42.8450000  20.3190000  21.4670000  42.3140000
  21.7600000  20.6660000  43.0410000  22.3270000  22.5540000  42.0850000
  23.2140000  22.7460000  42.6880000  21.7020000  23.5050000  41.9710000
  22.6880000  21.9460000  40.6780000  22.0360000  21.1130000  40.3630000
  23.7460000  21.6090000  40.6900000  22.7550000  23.0680000  39.6110000
  23.5000000  22.7450000  38.7990000  23.2070000  23.9770000  40.0130000
  21.3080000  23.3320000  39.1440000  20.7260000  23.5020000  40.0520000
  20.7990000  22.4700000  38.6490000  21.3360000  24.6320000  38.2990000
  22.3640000  25.0490000  38.2170000  20.3040000  25.1540000  37.6060000
  20.5220000  26.0470000  37.1040000  18.9180000  24.6500000  37.5370000
  18.2830000  25.2090000  38.2430000  18.8010000  23.5660000  37.8280000
  18.2700000  24.6430000  36.1430000  18.7050000  23.8660000  35.6240000
  18.4210000  25.5400000  35.6040000  16.7340000  24.5230000  36.1430000
  16.3980000  24.7520000  35.0480000  16.2170000  25.2970000  36.7360000
  16.1550000  23.1520000  36.3630000  16.2350000  22.9290000  37.4690000
  16.8350000  22.3830000  35.8260000  14.7380000  23.0720000  35.7720000
  14.5510000  23.5670000  34.8250000  14.0050000  23.4850000  36.4540000
  14.2490000  21.6170000  35.4480000  14.9360000  21.1800000  34.6130000
  13.3000000  21.6240000  35.1120000  14.2330000  20.6240000  36.6360000
  13.8440000  21.0560000  37.5430000  15.2610000  20.3990000  36.8650000
  13.5650000  19.2460000  36.1620000  13.7870000  18.4890000  36.9180000
  13.9900000  19.0750000  35.2290000  12.4720000  19.3550000  36.1430000
  21.2550000  76.5480000  53.8870000  21.7890000  77.1650000  53.1340000
  21.4940000  75.4640000  53.7850000  21.6400000  76.8720000  54.8830000
  19.7630000  76.8780000  53.8320000  19.1750000  76.5550000  54.7490000
  19.7080000  77.9780000  53.8170000  19.0240000  76.2790000  52.6090000
  19.6840000  76.5080000  51.7680000  18.9570000  75.2100000  52.7520000
  17.5970000  76.8390000  52.4360000  16.9070000  76.5700000  53.2620000
  17.7430000  77.9270000  52.5540000  16.9370000  76.4650000  51.0570000
  15.9620000  77.0520000  50.9630000  17.6520000  76.9400000  50.3260000
  16.6390000  74.9320000  50.8780000  17.5530000  74.4410000  50.7950000
  16.2870000  74.5730000  51.7490000  15.7270000  74.4940000  49.7210000
  16.0350000  75.2000000  48.8910000  15.8800000  73.4900000  49.3340000
  14.1810000  74.6070000  49.9140000  13.9460000  75.6800000  50.0300000
  13.7670000  74.2460000  48.9530000  13.6330000  73.7660000  51.0940000
  13.9650000  72.7900000  50.9010000  13.9690000  74.1120000  52.0670000
  12.0390000  73.8630000  51.0540000  11.6750000  73.7120000  50.0620000
  11.6230000  73.1380000  51.6670000  11.5010000  75.2310000  51.4810000
  11.5000000  75.7750000  50.5410000  10.4220000  75.1450000  51.7750000
  12.1970000  75.9550000  52.6350000  12.1280000  75.1820000  53.4720000
  13.2520000  76.2140000  52.3320000  11.6380000  77.3560000  53.0520000
  11.6140000  77.9210000  52.1850000  10.5800000  77.2620000  53.3230000
  12.3790000  78.0830000  54.2500000  11.8130000  78.9140000  54.5990000
  12.4850000  77.3010000  55.0280000  13.7040000  78.6920000  53.6980000
  14.3000000  77.8180000  53.2640000  13.5050000  79.3880000  52.9680000
  14.5830000  79.2040000  54.7940000  15.5950000  78.6290000  55.1220000
  14.2570000  80.4610000  55.2840000  14.9230000  81.1140000  56.3980000
  14.3100000  81.9470000  56.8720000  15.1540000  80.3770000  57.1910000
  16.2790000  81.7470000  55.9150000  16.9290000  80.8480000  55.8290000
  16.8780000  82.8860000  56.9010000  17.0820000  82.3420000  57.7860000
  17.8750000  83.2280000  56.5940000  16.0990000  84.0980000  57.1190000
  15.9360000  85.2470000  55.9980000  15.9480000  86.6150000  56.8300000
  17.1750000  87.1930000  57.2820000  16.9420000  87.7520000  58.1240000
  17.7450000  86.3720000  57.6440000  17.9190000  88.0930000  56.2700000
  18.7230000  88.5820000  56.8380000  18.2700000  87.3880000  55.5310000
  17.1610000  89.2960000  55.7090000  16.4020000  90.0950000  56.7000000
  17.0120000  90.4100000  57.5620000  15.9580000  90.8310000  56.0560000
  15.6490000  89.4230000  57.0030000  18.1220000  90.1340000  54.9660000
  18.7400000  90.6060000  55.6770000  18.6870000  89.4650000  54.3190000
  17.5830000  90.8120000  54.3260000  16.2000000  88.7250000  54.7100000
  15.4870000  88.0840000  55.1100000  16.7390000  88.1950000  53.9430000
  15.5170000  89.4450000  54.2240000  17.2010000  85.2020000  55.1860000
  14.6200000  85.1350000  55.4660000  16.0540000  82.3770000  54.6410000
  16.9850000  82.3050000  53.6930000  17.9820000  81.6890000  53.8410000
  16.4750000  82.9970000  52.4230000  16.5950000  84.0800000  52.6310000
  15.3550000  82.8830000  52.3570000  17.0930000  82.5160000  51.1330000
  18.1780000  82.3600000  51.2730000  17.0970000  83.2390000  50.3100000
  16.3330000  81.2840000  50.6730000  15.3170000  81.4740000  50.4730000
  16.2510000  80.6330000  51.5800000  16.8230000  80.4700000  49.4580000
  16.8590000  81.1370000  48.5800000  16.2180000  79.7400000  49.3700000
  18.2120000  79.9250000  49.7400000  18.1930000  79.3550000  50.6670000
  18.8690000  80.7460000  49.9270000  18.9140000  79.0220000  48.6970000
  18.7970000  79.6420000  47.7500000  18.3310000  78.0890000  48.5950000
  20.4120000  78.8470000  49.0360000  20.6190000  78.3800000  50.0640000
  20.8760000  79.8070000  48.9240000  21.1890000  78.0800000  47.9890000
  21.2030000  78.5570000  47.0010000  21.7710000  76.9450000  48.1240000
  22.1540000  76.4580000  47.2790000  21.6930000  75.9590000  49.2820000
  21.2770000  76.4310000  50.2050000  22.7130000  75.5680000  49.3950000
  20.7950000  74.7640000  48.9570000  21.0220000  74.3310000  47.9540000
  19.7590000  74.9570000  48.8440000  21.0290000  73.6620000  49.9540000
  20.5660000  73.9750000  50.8680000  22.1000000  73.5910000  50.2660000
  20.4970000  72.3390000  49.5860000  21.2320000  71.8730000  48.8900000
  19.5440000  72.4650000  48.9900000  20.4250000  71.4330000  50.8240000
  19.7760000  71.8430000  51.5610000  21.3640000  71.3910000  51.3950000
  19.8550000  70.0300000  50.5870000  19.9350000  69.4910000  51.5360000
  20.4170000  69.4680000  49.8100000  18.3560000  69.9440000  50.1960000
  18.1110000  68.8740000  49.9900000  18.1990000  70.5700000  49.2390000
  17.4900000  70.4170000  51.4170000  17.6700000  71.4390000  51.6530000
  17.6740000  69.8110000  52.2590000  16.4070000  70.3610000  51.1680000
 143.5180000  11.1260000  40.5270000 144.2500000  11.4460000  39.7510000
 142.6630000  11.7200000  40.4800000 143.2030000  10.1630000  40.1140000
 144.1590000  10.8710000  41.8480000 145.1710000  10.3740000  41.7480000
 144.4170000  11.8220000  42.2360000 143.2730000   9.9960000  42.7220000
 142.3510000  10.5710000  42.8160000 143.1040000   8.9890000  42.3140000
 143.9210000   9.8550000  44.1010000 144.9000000   9.3450000  43.9510000
 143.9850000  10.9060000  44.3840000 143.0870000   9.0580000  45.1600000
 143.6450000   9.0560000  46.1380000 142.1730000   9.6710000  45.3200000
 142.7080000   7.6820000  44.8590000 141.9050000   7.2610000  45.4460000
 142.3970000   7.7290000  43.8410000 144.0070000   6.8640000  45.0170000
 144.7120000   7.2030000  45.7990000 143.6840000   5.8010000  45.2190000
 144.8130000   6.6150000  43.7040000 144.0470000   6.5160000  42.9420000
 145.4510000   7.4400000  43.4590000 145.5730000   5.3130000  43.6370000
 144.8690000   4.4600000  43.7650000 145.9060000   5.2620000  42.5800000
 146.8600000   4.9950000  44.5050000 146.6530000   4.8380000  45.5360000
 147.2610000   4.0040000  44.2430000 147.9570000   6.0990000  44.2340000
 148.9230000   5.6850000  44.3120000 147.9780000   6.5350000  43.2470000
 147.8550000   7.3070000  45.1460000 148.4220000   8.0810000  44.5550000
 146.7870000   7.5440000  45.2590000 148.5050000   7.1890000  46.5390000
 148.1730000   6.2860000  47.0780000 149.5780000   7.0450000  46.3040000
 148.2280000   8.4230000  47.4200000 147.1700000   8.5910000  47.6320000
 148.7730000   8.2700000  48.3640000 148.8630000   9.7340000  46.8990000
 149.8820000   9.6440000  46.7880000 148.3670000  10.0070000  45.9560000
 148.6960000  10.8810000  47.8120000 148.9910000  10.8410000  48.9960000
 148.2220000  11.9860000  47.1460000 148.0700000  13.2460000  47.8280000
 147.1970000  13.2820000  48.4640000 148.8820000  13.4440000  48.4560000
 147.8890000  14.5080000  46.9800000 148.8490000  14.6320000  46.4060000
 147.5240000  15.8000000  47.8400000 148.3920000  15.9690000  48.4120000
 147.2890000  16.6760000  47.2540000 146.5540000  15.5490000  48.8290000
 146.4850000  16.2940000  50.2800000 145.3140000  17.3490000  50.0910000
 145.6410000  18.7100000  49.7590000 146.7310000  18.9180000  49.6710000
 145.1820000  18.8250000  48.7890000 144.8190000  19.5640000  50.7260000
 144.7020000  20.5400000  50.2950000 143.8630000  19.0850000  50.7980000
 145.3550000  19.5480000  52.0900000 146.7740000  19.8680000  52.1760000
 147.2280000  18.8960000  51.8630000 147.1070000  20.7450000  51.5320000
 146.9530000  20.0120000  53.2400000 144.6660000  20.6780000  52.7800000
 144.9660000  20.6800000  53.8380000 144.8000000  21.5750000  52.2630000
 143.6190000  20.4050000  52.7680000 145.0070000  18.3220000  52.8520000
 143.9890000  18.0060000  52.6150000 145.2080000  18.5560000  53.8820000
 145.7120000  17.5610000  52.5430000 145.9500000  15.2990000  51.2380000
 147.7650000  17.0270000  50.5030000 146.8190000  14.1880000  45.9760000
 147.0140000  14.5530000  44.6900000 147.7670000  15.3930000  44.3560000
 146.1940000  13.7590000  43.6180000 145.3360000  14.3680000  43.4530000
 145.9130000  12.7930000  44.0760000 146.7570000  13.5860000  42.2100000
 147.1710000  14.5680000  41.9490000 146.0010000  13.2910000  41.4940000
 147.8450000  12.5020000  42.0400000 148.3440000  12.5570000  41.0410000
 147.4160000  11.5650000  42.0340000 148.8960000  12.4490000  43.1810000
 148.3000000  12.4790000  44.1270000 149.4390000  13.4050000  43.1460000
 149.8890000  11.2800000  43.0630000 150.3880000  11.3940000  42.1400000
 149.2750000  10.3640000  43.2150000 150.9280000  11.2380000  44.1850000
 150.4350000  11.3680000  45.1370000 151.5900000  12.1650000  44.1300000
 151.7370000   9.9200000  44.1930000 152.1560000   9.6390000  43.1760000
 150.9890000   9.1350000  44.4150000 152.9140000  10.0780000  45.2320000
 153.3080000  11.0310000  45.2310000 153.4220000   9.0850000  45.9130000
 154.3080000   9.2650000  46.5670000 152.9440000   7.6470000  46.0350000
 151.9940000   7.5830000  45.6310000 152.9770000   7.3540000  46.9960000
 153.8450000   6.6700000  45.2400000 154.8950000   6.7990000  45.5520000
 153.7080000   7.0130000  44.2370000 153.3770000   5.1690000  45.3950000
 152.2730000   5.1770000  45.4500000 153.7700000   4.8380000  46.3430000
 154.0530000   4.2500000  44.3670000 155.0880000   4.0400000  44.6830000
 154.1060000   4.7320000  43.4140000 153.2040000   2.9770000  44.1400000
 152.6760000   2.7160000  45.0490000 153.9110000   2.1200000  43.8990000
 152.2250000   3.0690000  42.9520000 152.7170000   3.4100000  42.0800000
 151.4840000   3.7910000  43.2590000 151.4720000   1.8640000  42.5770000
 152.2430000   1.3290000  42.0060000 150.7210000   2.1920000  41.8940000
 150.9180000   1.0030000  43.6720000 151.7070000   0.8490000  44.4660000
 150.6140000   0.0520000  43.1800000 150.1010000   1.5500000  44.1390000
 100.6140000  79.0390000  44.1200000 100.7600000  80.1160000  44.1820000
  99.6400000  78.8150000  43.6360000 101.4300000  78.6870000  43.5120000
 100.4940000  78.2070000  45.3820000 101.4490000  78.2210000  45.9150000
  99.7150000  78.6020000  46.0830000 100.1610000  76.6970000  45.2290000
 100.5200000  76.2220000  46.2180000  99.1240000  76.4350000  45.2200000
 100.9960000  76.0230000  44.0850000 100.8580000  76.4610000  43.1160000
 102.0850000  76.1730000  44.3140000 100.7630000  74.5440000  43.9200000
 101.0030000  74.0240000  44.8630000  99.7080000  74.4620000  43.7430000
 101.6270000  73.9850000  42.7970000 101.4680000  74.5880000  41.8880000
 102.6640000  74.1400000  43.0320000 101.3770000  72.5190000  42.4200000
 100.3410000  72.4130000  42.1740000 101.9880000  72.3230000  41.5350000
 101.6800000  71.5280000  43.5750000 100.9420000  71.4920000  44.2970000
 101.6730000  70.6030000  43.0980000 103.0470000  71.5180000  44.2540000
 103.7550000  71.7970000  43.4800000 103.0430000  72.2720000  45.0520000
 103.3710000  70.0980000  44.8200000 103.5220000  69.4240000  43.9700000
 104.3000000  70.1260000  45.4230000 102.2680000  69.5670000  45.7610000
 101.3270000  69.2650000  45.2580000 102.6060000  68.6100000  46.1600000
 101.8820000  70.5550000  46.8610000 102.7660000  70.8390000  47.4650000
 101.3690000  71.4330000  46.4770000 100.9990000  69.6830000  47.8600000
 100.2210000  69.3240000  47.1570000 101.6120000  68.8650000  48.2650000
 100.4380000  70.4650000  49.1280000  99.8650000  71.3790000  48.8670000
  99.7350000  69.8670000  49.7050000 101.5060000  70.9340000  50.1740000
 102.1170000  71.7080000  49.8040000 100.9120000  71.2830000  51.0560000
 102.3850000  69.7910000  50.7030000 103.1770000  69.1440000  50.0800000
 102.0010000  69.4170000  51.9100000 102.7300000  68.3610000  52.6420000
 103.8320000  68.4300000  52.4370000 102.5410000  68.7500000  53.6420000
 102.1330000  66.9620000  52.4940000 101.0410000  67.0160000  52.6560000
 102.5010000  66.0490000  53.6690000 102.2460000  66.5960000  54.5290000
 101.9200000  65.1780000  53.7120000 103.8320000  65.4700000  53.7300000
 105.0940000  66.2600000  54.4320000 106.0890000  66.6430000  53.2790000
 106.8590000  65.5610000  52.6300000 107.9520000  65.8290000  52.6510000
 106.7310000  64.5470000  53.1100000 106.3330000  65.4080000  51.1470000
 106.7980000  64.5620000  50.7110000 105.2110000  65.3200000  51.1720000
 106.5500000  66.5180000  50.1500000 105.7680000  67.7440000  50.4620000
 104.8090000  67.6740000  49.9480000 105.7180000  67.9440000  51.5790000
 106.2980000  68.6200000  50.0310000 108.0150000  66.9900000  50.0490000
 108.3490000  67.3440000  49.0690000 108.2290000  67.7440000  50.8370000
 108.6500000  66.0830000  50.2510000 106.0690000  66.0530000  48.8770000
 106.2950000  64.9630000  48.8250000 106.5410000  66.4630000  47.9740000
 105.0050000  66.2410000  48.8330000 104.7060000  67.5300000  54.9570000
 105.7480000  65.2780000  55.2720000 102.4220000  66.3040000  51.2670000
 101.7170000  66.4780000  50.0970000 100.6320000  66.9880000  50.1240000
 102.3220000  65.9290000  48.8310000 102.7310000  64.9500000  49.1120000
 103.1270000  66.5860000  48.5830000 101.2450000  65.7800000  47.7330000
 101.0810000  66.8060000  47.4150000 100.3950000  65.2640000  48.0240000
 101.6280000  65.0700000  46.4370000 102.0530000  64.0930000  46.6390000
 102.4090000  65.6840000  45.9110000 100.4770000  65.0610000  45.3490000
  99.6740000  64.3260000  45.7070000 100.8510000  64.6500000  44.4260000
  99.8670000  66.4380000  44.9880000 100.6390000  67.0650000  44.5380000
  99.6460000  66.8670000  45.9590000  98.6780000  66.5300000  43.9910000
  97.9490000  65.6920000  44.1680000  99.0150000  66.2190000  42.9970000
  97.8360000  67.7660000  43.9050000  97.0880000  67.5670000  43.1180000
  98.4930000  68.5900000  43.6400000  97.3120000  67.9320000  45.3030000
  96.8470000  67.1030000  45.7490000  97.3080000  69.1060000  45.9490000
  96.8160000  69.1590000  46.9420000  97.7080000  70.3880000  45.3700000
  97.4640000  70.4260000  44.2840000  98.8070000  70.6430000  45.4930000
  96.9080000  71.6150000  45.8930000  97.2380000  71.8770000  46.9210000
  95.8350000  71.3810000  45.9240000  97.0660000  72.8780000  45.0320000
  98.1800000  72.8870000  44.8070000  96.7850000  73.7310000  45.6690000
  96.3040000  72.8830000  43.7300000  95.3200000  73.2730000  43.8880000
  96.2380000  71.9140000  43.4460000  97.0470000  73.6480000  42.5860000
  96.5660000  73.4000000  41.6530000  98.0160000  73.1950000  42.5120000
  97.1000000  75.1880000  42.8090000  97.4360000  75.4240000  43.7760000
  96.0890000  75.6080000  42.8380000  98.0700000  75.8130000  41.7810000
  98.9420000  75.1760000  41.8160000  98.3490000  76.7720000  42.1690000
  97.6790000  75.9450000  40.2790000  96.9060000  76.6520000  40.0760000
  97.3530000  75.0450000  39.9120000  98.4770000  76.2550000  39.6670000
  97.4630000  44.0680000  45.1230000  96.9840000  43.6930000  46.0070000
  97.5010000  43.1890000  44.4120000  96.8390000  44.9090000  44.8280000
  98.9230000  44.4900000  45.4670000  99.4330000  44.6650000  44.4770000
  98.8570000  45.5260000  45.8990000  99.7680000  43.5930000  46.4800000
  99.1210000  43.5190000  47.3220000  99.8970000  42.6140000  45.9340000
 101.1340000  44.2170000  46.7440000 101.6490000  44.5290000  45.8310000
 101.0960000  45.1730000  47.3550000 102.1290000  43.1470000  47.3260000
 101.6420000  42.6430000  48.0980000 102.2960000  42.5120000  46.4580000
 103.3430000  43.7140000  48.0660000 103.9410000  44.3230000  47.3310000
 103.1460000  44.3990000  48.8490000 104.3380000  42.6470000  48.5240000
 103.8190000  41.7500000  49.0380000 104.8000000  42.1700000  47.7140000
 105.4290000  43.3440000  49.3940000 105.8530000  44.2070000  48.9510000
 104.9090000  43.7400000  50.3020000 106.4640000  42.3220000  49.8570000
 106.0190000  41.4410000  50.2200000 107.1080000  41.9420000  49.0710000
 107.3770000  42.6790000  50.9820000 106.7500000  43.0950000  51.8440000
 107.7130000  41.6640000  51.3270000 108.5850000  43.5720000  50.6100000
 109.0480000  43.1600000  49.7260000 108.2860000  44.6380000  50.4410000
 109.7240000  43.5150000  51.5930000 110.2070000  42.5420000  51.5830000
 110.4610000  44.2350000  51.2660000 109.3620000  43.9340000  53.0260000
 109.2640000  45.0270000  53.0680000 108.3480000  43.6320000  53.2690000
 110.3670000  43.6150000  54.1630000 111.1680000  44.3200000  54.1030000
 109.9070000  43.6960000  55.1500000 110.8750000  42.1510000  54.1900000
 111.3060000  41.8480000  53.2700000 111.6490000  42.0700000  54.9020000
 109.7960000  41.1530000  54.5840000 109.8170000  40.4830000  55.6130000
 108.8270000  41.0140000  53.6480000 107.6130000  40.3620000  54.0580000
 106.9460000  40.3310000  53.1380000 107.8690000  39.3340000  54.2810000
 106.9960000  41.0590000  55.2940000 107.8520000  41.4170000  55.9250000
 106.0380000  40.1630000  56.1650000 106.5430000  39.6810000  57.0260000
 105.1300000  40.6710000  56.5280000 105.5650000  39.0160000  55.4360000
 104.1810000  38.9860000  54.6040000 104.6350000  39.4540000  53.1300000
 104.2740000  40.7910000  52.6550000 103.7450000  41.3320000  53.4640000
 105.1850000  41.2790000  52.4750000 103.4240000  40.6770000  51.3630000
 103.0300000  41.7080000  51.1270000 104.0250000  40.3570000  50.5130000
 102.2570000  39.7600000  51.4180000 101.4280000  39.8660000  50.1670000
 101.9260000  39.5090000  49.2720000 100.6270000  39.1040000  50.3130000
 101.0390000  40.9160000  50.1790000 102.7180000  38.2770000  51.4730000
 103.1310000  38.0430000  52.4260000 101.8700000  37.6610000  51.4370000
 103.3920000  38.0060000  50.7310000 101.3180000  40.0290000  52.5650000
 100.8820000  40.9720000  52.1740000 101.8400000  40.1470000  53.4730000
 100.6160000  39.2040000  52.5410000 103.7190000  37.6400000  54.3840000
 103.3190000  40.0030000  55.2850000 106.2260000  42.1510000  54.8700000
 105.9180000  43.1080000  55.7740000 106.5560000  43.4070000  56.8290000
 104.7140000  43.9080000  55.4310000 104.1700000  44.1860000  56.3850000
 104.0860000  43.3190000  54.9250000 104.9660000  45.2430000  54.6040000
 104.0330000  45.5190000  54.1180000 105.6740000  45.0030000  53.7620000
 105.4870000  46.4720000  55.3570000 106.4020000  46.2450000  55.9060000
 104.7980000  46.6580000  56.1760000 105.7110000  47.6790000  54.4760000
 105.8230000  48.5320000  55.1320000 104.8080000  47.8950000  53.9570000
 106.9540000  47.5800000  53.5270000 106.9580000  46.6410000  53.0040000
 107.9150000  47.6100000  54.0560000 107.1630000  48.7730000  52.5480000
 108.1810000  48.6510000  52.1510000 107.1090000  49.7740000  53.0600000
 106.1560000  48.7670000  51.3370000 106.3180000  49.5520000  50.6440000
 105.1720000  48.9080000  51.6400000 106.3460000  47.4400000  50.6010000
 107.2720000  46.9390000  50.8010000 105.5910000  46.9630000  49.6490000
 105.9100000  46.1220000  49.0830000 104.3220000  47.5390000  49.0690000
 104.1020000  48.4880000  49.6060000 103.4870000  46.7830000  49.2080000
 104.3900000  47.8390000  47.5810000 104.6390000  46.9080000  47.0320000
 105.1930000  48.5420000  47.3920000 103.0430000  48.4590000  47.0340000
 102.8450000  49.3100000  47.7330000 102.2820000  47.7140000  47.1670000
 103.1620000  49.0060000  45.6080000 103.9710000  49.7420000  45.6560000
 102.1910000  49.4740000  45.4950000 103.3050000  47.9480000  44.5110000
 102.3730000  47.4020000  44.5170000 104.0610000  47.2320000  44.7290000
 103.5350000  48.5680000  43.1020000 104.6310000  48.8300000  42.9880000
 103.0560000  49.5210000  43.0320000 103.2300000  47.7070000  41.8710000
 103.3640000  48.3030000  40.9600000 102.1540000  47.4700000  42.0210000
 104.0420000  46.4340000  41.9030000 103.9770000  45.9140000  42.8780000
 105.0960000  46.7030000  41.7920000 103.7860000  45.6950000  41.0740000
  16.4930000  10.7840000  38.3430000  16.7910000  11.1080000  39.3140000
  15.7910000  11.5800000  37.9460000  17.3770000  10.7490000  37.6190000
  15.6950000   9.4360000  38.4680000  14.9410000   9.4570000  39.2130000
  15.1680000   9.2580000  37.4820000  16.7060000   8.2850000  38.9300000
  17.0130000   8.4090000  39.9660000  16.1880000   7.3670000  38.9130000
  17.9300000   8.0510000  38.0380000  17.6270000   8.2260000  37.0060000
  18.7470000   8.7440000  38.3500000  18.4520000   6.5880000  38.0710000
  17.8090000   5.7940000  37.6700000  19.3580000   6.6300000  37.4270000
  18.7970000   6.1230000  39.5850000  19.3450000   6.9550000  40.0120000
  17.8580000   6.0440000  40.0910000  19.4990000   4.7130000  39.5160000
  18.8610000   4.0000000  38.8950000  20.4540000   4.8770000  38.9970000
  19.8100000   4.2290000  40.9420000  18.9490000   4.1240000  41.5420000
  20.3300000   3.2520000  40.8890000  20.7520000   5.2120000  41.6770000
  21.6130000   5.2840000  41.0420000  20.1950000   6.1010000  41.8380000
  21.1770000   4.6240000  42.9660000  20.2320000   4.4040000  43.4740000
  21.7590000   3.6590000  42.8310000  22.1730000   5.5130000  43.7180000
  23.0380000   5.6390000  43.1610000  21.6930000   6.5340000  43.8600000
  22.5770000   4.9730000  45.1090000  21.6590000   4.8820000  45.6330000
  23.0130000   3.9710000  44.8650000  23.5220000   5.8660000  45.9340000
  24.2420000   5.2650000  46.4420000  24.1080000   6.4440000  45.2610000
  22.8760000   6.8180000  47.0300000  22.3140000   6.2350000  47.7810000
  23.7260000   7.3150000  47.4920000  22.0660000   7.8530000  46.2220000
  22.6380000   8.1220000  45.2980000  21.1190000   7.5670000  45.7750000
  21.7860000   8.9900000  47.1730000  21.1900000   8.8220000  48.2440000
  22.2230000  10.1700000  46.7390000  22.3790000  11.2890000  47.7040000
  21.3880000  11.3780000  48.2230000  23.1410000  10.9800000  48.3470000
  22.8220000  12.5480000  47.0090000  23.4770000  12.1460000  46.2590000
  23.5830000  13.6440000  47.8020000  24.5830000  13.2170000  47.9140000
  23.7850000  14.5260000  47.2060000  22.9970000  14.0420000  49.1100000
  23.0530000  13.2390000  50.4750000  21.6030000  12.5120000  50.4840000
  20.6160000  13.1410000  51.3430000  19.7360000  12.4890000  51.3710000
  21.0490000  13.2140000  52.3720000  20.2090000  14.5060000  50.7780000
  19.6380000  14.8670000  51.6280000  21.0870000  15.1020000  50.7480000
  19.4680000  14.5840000  49.4900000  19.3780000  13.3180000  48.7190000
  20.4190000  13.0540000  48.4880000  19.0210000  12.6050000  49.4500000
  18.8080000  13.4520000  47.7860000  18.1290000  15.1090000  49.8680000
  18.2740000  15.8630000  50.6720000  17.6150000  15.5550000  48.9790000
  17.5650000  14.2920000  50.3250000  20.1590000  15.6140000  48.6940000
  20.3540000  16.5140000  49.2330000  19.6100000  15.9120000  47.7690000
  21.0890000  15.2240000  48.3820000  24.1280000  12.2870000  50.2500000
  23.1980000  14.2010000  51.5920000  21.5710000  13.1080000  46.5710000
  21.4250000  13.4080000  45.2890000  22.3170000  13.4270000  44.5000000
  20.0580000  14.0440000  45.0700000  20.0900000  15.0910000  45.3760000
  19.3560000  13.5560000  45.7340000  19.6340000  13.8470000  43.5980000
  19.9530000  12.8830000  43.1000000  20.2490000  14.5940000  42.9830000
  18.1610000  14.0320000  43.3650000  17.9560000  14.7800000  44.0080000
  17.5030000  13.2210000  43.6980000  17.7820000  14.4650000  41.9100000
  18.1160000  13.6970000  41.2340000  18.3230000  15.4140000  41.6890000
  16.2270000  14.7190000  41.5710000  16.0450000  15.4780000  40.7860000
  15.8390000  15.2120000  42.4640000  15.4400000  13.3810000  41.4110000
  15.6120000  12.7430000  42.3260000  15.8970000  12.7570000  40.6560000
  13.9280000  13.5660000  41.3970000  13.5750000  14.1440000  42.1790000
  13.4500000  12.5830000  41.4080000  13.5880000  14.2400000  40.0760000
  13.9040000  15.3050000  39.9490000  12.8690000  13.7720000  39.0900000
  12.7750000  14.4220000  38.2270000  12.1680000  12.4220000  39.0160000
  12.2610000  11.9370000  39.9930000  12.6130000  11.8570000  38.2490000
  10.6820000  12.5780000  38.5710000  10.6670000  12.5450000  37.4880000
  10.2120000  13.5200000  38.9090000   9.8500000  11.4400000  39.1350000
   9.8740000  11.6030000  40.2400000  10.3320000  10.5200000  38.8810000
   8.4580000  11.3050000  38.5220000   8.5730000  11.1170000  37.4760000
   7.9400000  12.2470000  38.6360000   7.8240000  10.2110000  39.2820000
   7.8420000  10.3180000  40.3760000   8.4350000   9.2930000  39.1510000
   6.3650000   9.9470000  38.9770000   6.3290000   9.4320000  38.0020000
   5.7320000  10.8360000  38.8420000   5.8210000   8.9820000  40.0300000
   5.7730000   9.3990000  41.0120000   6.4950000   8.0830000  40.0110000
   4.3110000   8.6920000  39.6860000   4.1120000   8.4490000  38.6290000
   3.6840000   9.6590000  39.8420000   3.6650000   8.0190000  40.2900000
 114.4300000  72.8380000  39.3930000 113.9660000  73.3300000  40.3130000
 114.3830000  71.7740000  39.5400000 113.8410000  73.1860000  38.4830000
 115.8960000  73.3250000  39.1800000 116.1650000  73.1090000  38.1870000
 115.9050000  74.4500000  39.2490000 116.7760000  72.6710000  40.2880000
 116.3010000  72.6780000  41.2900000 116.9430000  71.6130000  40.0360000
 118.1310000  73.3820000  40.4330000 118.3760000  73.7910000  39.4310000
 118.0280000  74.1790000  41.1730000 119.1880000  72.4240000  40.8740000
 119.0330000  72.0780000  41.8850000 119.0440000  71.5200000  40.2350000
 120.5580000  73.1530000  40.6090000 120.6900000  73.1370000  39.5200000
 120.6000000  74.1980000  40.9610000 121.7250000  72.3460000  41.1220000
 121.7670000  71.4700000  40.4990000 122.6250000  72.9820000  40.9090000
 121.6970000  72.0830000  42.6120000 120.7670000  71.7410000  43.0340000
 122.4480000  71.3100000  42.8300000 122.0670000  73.3280000  43.4100000
 122.8810000  73.7110000  42.9210000 121.2880000  74.1370000  43.4490000
 122.4120000  72.9340000  44.8660000 123.1620000  72.1070000  44.9030000
 122.8050000  73.8810000  45.3440000 121.2640000  72.5920000  45.8620000
 120.6940000  71.7760000  45.4480000 121.6860000  72.2890000  46.8240000
 120.2270000  73.6410000  46.1190000 119.8300000  74.0010000  45.1870000
 119.3210000  73.2190000  46.5330000 120.7410000  74.9180000  46.9160000
 121.6070000  75.3230000  46.4390000 119.9550000  75.7100000  46.8890000
 121.0560000  74.5370000  48.3860000 120.4150000  73.8150000  48.7510000
 122.0450000  74.1000000  48.3850000 121.0990000  75.7500000  49.3800000
 120.2370000  76.3210000  49.1720000 120.9800000  75.2710000  50.3740000
 122.3730000  76.5820000  49.2680000 123.2270000  76.4040000  48.3730000
 122.4960000  77.3380000  50.2860000 123.8650000  77.9530000  50.6230000
 124.6910000  77.5160000  49.9530000 123.7880000  79.0620000  50.4530000
 124.3540000  77.5950000  52.1240000 123.5880000  77.8970000  52.8200000
 125.6440000  78.4020000  52.5150000 125.3630000  79.4700000  52.4300000
 126.0280000  78.1890000  53.5390000 126.7020000  78.1110000  51.5290000
 127.9140000  77.0730000  51.7250000 127.2370000  75.7030000  51.1820000
 126.8800000  75.5220000  49.7770000 126.3170000  74.6290000  49.6830000
 126.1810000  76.2810000  49.4050000 128.0080000  75.4780000  48.7610000
 127.4650000  75.2590000  47.8870000 128.5070000  76.4510000  48.7490000
 129.1610000  74.4160000  48.9860000 129.9570000  74.3040000  47.6250000
 130.3560000  75.3170000  47.3700000 130.7840000  73.5850000  47.7170000
 129.2960000  74.0530000  46.8490000 130.1320000  74.8220000  50.0910000
 129.4490000  75.0760000  50.9700000 130.6970000  73.8970000  50.2560000
 130.7380000  75.5380000  49.7000000 128.5940000  73.1040000  49.3490000
 127.8970000  73.2600000  50.2060000 129.3700000  72.4020000  49.6370000
 127.9950000  72.6740000  48.5060000 129.0340000  77.3840000  50.8560000
 128.1880000  76.7790000  53.1270000 124.7400000  76.1930000  52.1950000
 124.2570000  75.3620000  53.0800000 123.5440000  75.7360000  53.9820000
 124.8050000  74.0030000  52.7860000 125.4000000  73.8760000  53.6960000
 125.4650000  73.9170000  51.8810000 123.6440000  72.9580000  52.6260000
 122.8710000  73.3000000  51.9530000 123.2040000  72.7770000  53.6300000
 124.1330000  71.6610000  51.9980000 123.2340000  70.9910000  51.9470000
 124.8680000  71.2730000  52.6780000 124.7160000  71.6970000  50.5360000
 125.6100000  72.2630000  50.4530000 123.9960000  72.3090000  49.9520000
 124.7640000  70.2670000  49.8870000 123.8580000  69.7210000  50.1820000
 125.5640000  69.7390000  50.4270000 125.0960000  70.3540000  48.3880000
 125.9560000  71.0280000  48.2820000 124.2350000  70.8250000  47.9090000
 125.3540000  68.9640000  47.8080000 126.3170000  68.5890000  48.2060000
 125.4920000  68.9700000  46.7620000 124.2590000  68.0200000  48.2390000
 124.2730000  67.6570000  49.3140000 123.3200000  67.5730000  47.4200000
 122.6150000  66.8870000  47.8650000 123.0880000  67.8730000  46.0520000
 123.3860000  67.0440000  45.4150000 123.6450000  68.6830000  45.7180000
 121.5920000  68.1090000  45.7910000 121.2550000  69.0510000  46.2210000
 121.0310000  67.2810000  46.3540000 121.1250000  68.1520000  44.3530000
 121.2540000  67.2340000  43.8220000 121.6320000  68.8770000  43.7460000
 119.6630000  68.5610000  44.3980000 119.4450000  69.4970000  44.8020000
 119.1790000  67.8690000  45.1190000 119.0440000  68.4760000  43.0140000
 119.1760000  67.4870000  42.7080000 119.5650000  69.0730000  42.2050000
 117.5240000  68.6820000  43.0770000 117.5110000  69.7790000  43.2070000
 116.9600000  68.2110000  43.9040000 116.7950000  68.4260000  41.7170000
 116.9860000  67.3520000  41.5350000 117.3410000  68.9680000  40.9720000
 115.2160000  68.5790000  41.6360000 114.6490000  68.1350000  42.4280000
 114.8170000  68.1560000  40.7460000 114.8510000  69.5880000  41.6110000
  36.6610000  57.5340000  39.3930000  37.1200000  58.1950000  40.1050000
  37.3440000  57.4980000  38.5620000  36.6400000  56.4910000  39.8590000
  35.2330000  57.9900000  39.0500000  34.7320000  57.3450000  38.2670000
  34.7400000  57.8960000  40.0660000  35.2870000  59.4650000  38.5460000
  35.9560000  60.1160000  39.1570000  35.8200000  59.5050000  37.5750000
  33.9030000  60.0360000  38.5260000  33.7650000  60.8100000  37.7290000
  33.1650000  59.2670000  38.2810000  33.4420000  60.5760000  39.8870000
  33.6160000  59.7990000  40.6440000  34.1300000  61.4040000  40.2020000
  31.9940000  61.0450000  39.9430000  31.8730000  61.8180000  39.1500000
  31.3560000  60.2830000  39.5610000  31.4790000  61.3900000  41.3050000
  30.4890000  61.0970000  41.5000000  31.9980000  60.7940000  42.1160000
  31.6750000  62.8970000  41.6770000  32.6790000  63.2260000  41.3410000
  30.9530000  63.4690000  41.1710000  31.4000000  63.3050000  43.0750000
  30.3870000  63.1860000  43.1980000  31.7630000  62.5910000  43.7760000
  31.7000000  64.7480000  43.5070000  30.9130000  65.3230000  43.0530000
  31.5000000  64.8190000  44.6190000  33.1100000  65.3380000  43.2500000
  33.3380000  65.3500000  42.2140000  33.0790000  66.4040000  43.6330000
  34.2730000  64.5160000  43.8120000  34.3130000  63.4440000  43.4500000
  35.1650000  65.0080000  43.4990000  34.3290000  64.4840000  45.3390000
  34.3670000  65.4930000  45.5660000  33.4110000  64.1890000  45.7640000
  35.4110000  63.6050000  45.9300000  35.1840000  62.5970000  45.6300000
  36.3900000  63.8080000  45.4370000  35.5930000  63.7460000  47.4820000
  34.6140000  63.5150000  47.8520000  36.1400000  62.9500000  47.8850000
  36.1370000  65.0090000  48.0440000  36.6680000  65.8050000  47.3230000
  35.8260000  65.2560000  49.3120000  36.0570000  66.5520000  49.8760000
  36.5430000  66.5410000  50.8130000  36.7530000  67.1870000  49.2450000
  34.7280000  67.3710000  49.9810000  35.0050000  68.3630000  50.3710000
  33.7160000  66.6980000  50.8790000  32.7420000  66.8190000  50.3500000
  33.8950000  65.5960000  51.0030000  33.7210000  67.2660000  52.1600000
  34.3900000  66.5940000  53.4430000  33.3570000  65.3990000  53.7220000
  32.1660000  65.6780000  54.3950000  32.4400000  66.0680000  55.3990000
  31.5940000  66.5020000  53.9720000  31.3830000  64.3070000  54.3550000
  31.2860000  64.1540000  53.2760000  31.9660000  63.4700000  54.7480000
  30.0740000  64.4520000  55.0490000  29.6440000  63.0160000  55.3240000
  30.5010000  62.5830000  55.9020000  28.7690000  63.1250000  55.9150000
  29.5420000  62.5620000  54.3100000  30.1160000  65.3680000  56.2260000
  30.3520000  66.3330000  55.8930000  29.1630000  65.4740000  56.6780000
  30.8760000  65.0350000  56.9420000  29.0680000  65.0130000  54.1100000
  29.1040000  64.3050000  53.3210000  29.4350000  65.9900000  53.8170000
  28.0540000  65.1120000  54.5040000  35.7410000  66.0800000  53.0250000
  34.2890000  67.5580000  54.5970000  34.0890000  67.5590000  48.6350000
  34.7110000  68.4100000  47.7900000  35.7400000  69.0660000  48.0170000
  33.9100000  68.5660000  46.5610000  32.9790000  69.0550000  46.8660000
  33.4190000  67.6580000  46.3540000  34.4520000  69.2920000  45.2940000
  34.8390000  70.2870000  45.4330000  33.5950000  69.3230000  44.6280000
  35.6510000  68.4050000  44.7180000  35.3090000  67.3750000  44.9270000
  36.5660000  68.5830000  45.3340000  35.9550000  68.6300000  43.1990000
  36.2210000  69.7200000  43.0060000  35.0000000  68.4870000  42.7110000
  36.9950000  67.7440000  42.4960000  36.5560000  66.7450000  42.3100000
  37.8180000  67.4770000  43.1270000  37.4870000  68.3310000  41.1650000
  38.0750000  69.2320000  41.3160000  36.6500000  68.5360000  40.4960000
  38.4080000  67.4210000  40.4330000  38.0790000  66.3400000  40.5160000
  39.3570000  67.4420000  40.9110000  38.6230000  67.9100000  38.9870000
  39.0830000  68.8730000  38.9820000  38.2660000  67.3910000  37.8530000
  38.5480000  67.9720000  36.9170000  37.3980000  66.1690000  37.7190000
  37.2520000  65.8370000  38.7500000  37.9210000  65.4060000  37.1090000
  36.0280000  66.4360000  36.9530000  36.2120000  66.6560000  35.9060000
  35.5180000  67.2590000  37.3820000  35.0800000  65.2110000  36.9470000
  35.6730000  64.3340000  36.7710000  34.4840000  65.0670000  36.0290000
  34.3000000  65.0480000  38.3080000  34.8310000  65.3400000  39.1780000
  33.9310000  63.9730000  38.3200000  33.0370000  65.9650000  38.3830000
  32.5930000  65.8500000  37.3830000  33.3610000  66.9990000  38.5320000
  32.0860000  65.4890000  39.4550000  32.5710000  65.6220000  40.4120000
  31.9580000  64.4230000  39.4530000  30.7490000  66.2910000  39.3520000
  30.2770000  66.0970000  38.3890000  30.8610000  67.4110000  39.3020000
  29.7140000  66.0500000  40.4960000  28.7450000  66.3490000  40.1470000
  29.9400000  66.7490000  41.2960000  29.5080000  64.9710000  40.7560000
  34.6680000 107.2380000  36.3660000  35.6900000 107.2000000  36.1500000
  34.4280000 108.2270000  36.7710000  34.2520000 107.2110000  35.4000000
  34.2890000 106.1020000  37.2920000  34.7220000 105.2000000  36.9140000
  34.7540000 106.1650000  38.2840000  32.7330000 106.0320000  37.4600000
  32.3280000 106.4880000  38.3370000  32.1570000 106.4850000  36.6550000
  32.3780000 104.4620000  37.4930000  31.2360000 104.3600000  37.4370000
  32.7200000 104.0950000  36.5350000  33.0280000 103.5770000  38.6090000
  34.1210000 103.7790000  38.7090000  32.5220000 103.8860000  39.4860000
  32.8040000 102.1170000  38.2650000  33.3660000 101.8660000  37.3420000
  33.2830000 101.5480000  39.0630000  31.3580000 101.6120000  38.2430000
  30.7500000 102.1350000  37.4980000  31.2330000 100.5580000  37.9490000
  30.7150000 101.6860000  39.5880000  30.8550000 102.6820000  39.8940000
  29.7040000 101.4760000  39.4220000  31.3370000 100.6020000  40.5760000
  31.1500000  99.6440000  40.1790000  32.4670000 100.7370000  40.6540000
  30.6800000 100.7030000  42.0080000  29.5510000 100.5350000  41.8990000
  30.9500000  99.7860000  42.5270000  30.9970000 101.9420000  42.8650000
  32.0760000 102.0410000  42.8110000  30.5570000 102.8820000  42.5650000
  30.5660000 101.7030000  44.2860000  30.7980000 100.6430000  44.5010000
  31.0930000 102.3490000  44.9810000  29.0270000 102.0390000  44.6350000
  28.7210000 102.9320000  44.0720000  28.3920000 101.2440000  44.3160000
  28.8150000 102.4050000  46.1250000  29.4040000 103.3520000  46.2530000
  27.7270000 102.5780000  46.2340000  29.3610000 101.2720000  46.9900000
  28.9280000 100.2980000  46.6580000  30.4580000 101.2900000  46.8940000
  29.1540000 101.3280000  48.5110000  28.2380000 101.7360000  49.1550000
  30.1950000 100.7830000  49.2310000  30.1890000 100.8630000  50.7000000
  31.2330000 100.8620000  50.9050000  29.7420000 101.8530000  51.0440000
  29.4990000  99.6590000  51.3920000  28.3950000  99.8050000  51.2000000
  29.6830000  99.7090000  52.9210000  28.8340000 100.0410000  53.4450000
  29.8800000  98.6550000  53.3010000  30.6890000 100.6520000  53.3790000
  31.5940000 100.3030000  54.6280000  32.6240000  99.3800000  54.0630000
  32.2940000  97.9960000  53.9030000  31.3210000  97.7930000  54.4440000
  32.2060000  97.7800000  52.8720000  33.4530000  97.1830000  54.5070000
  33.3730000  96.1150000  54.3090000  34.4400000  97.4640000  54.0390000
  33.7260000  97.1370000  56.0400000  34.8200000  96.2120000  56.2850000
  35.6410000  96.5950000  55.7510000  35.0500000  96.1360000  57.3270000
  34.5150000  95.2950000  55.8740000  34.1300000  98.4670000  56.4530000
  34.9040000  98.7380000  55.7930000  33.2740000  99.1300000  56.5430000
  34.4760000  98.3600000  57.5170000  32.5180000  96.5850000  56.7450000
  32.2960000  95.6300000  56.2120000  31.7120000  97.2670000  56.6290000
  32.6760000  96.5120000  57.8160000  32.2390000 101.5810000  55.0630000
  30.7740000  99.6360000  55.6870000  30.0380000  98.4960000  50.7180000
  29.4330000  97.2870000  50.8060000  28.4860000  97.0260000  51.5530000
  30.2010000  96.3250000  49.9680000  30.3470000  95.3860000  50.4960000
  31.1910000  96.6900000  49.8150000  29.6150000  96.0600000  48.5920000
  29.9270000  96.8590000  47.9780000  28.5920000  95.9000000  48.7270000
  30.1230000  94.7490000  47.9040000  29.6420000  93.9060000  48.4410000
  31.1820000  94.7730000  48.0190000  29.8210000  94.8030000  46.3750000
  30.3700000  95.5420000  45.9270000  28.7330000  94.9360000  46.2020000
  30.2870000  93.4940000  45.7110000  29.5190000  92.8090000  45.9960000
  31.1810000  93.0780000  46.2560000  30.4630000  93.6310000  44.1660000
  30.7250000  92.6480000  43.7130000  31.2090000  94.4520000  43.9050000
  29.0110000  93.9240000  43.5550000  28.6700000  94.8000000  44.0460000
  28.3260000  93.1520000  43.7220000  29.0530000  94.0250000  42.0470000
  29.1920000  93.0870000  41.4560000  28.8620000  95.1550000  41.3870000
  28.8360000  95.1520000  40.3340000  28.6310000  96.5370000  41.9730000
  29.5950000  97.0440000  41.8920000  28.3730000  96.5820000  43.0030000
  27.4520000  97.0620000  41.1500000  26.5770000  96.3120000  41.2220000
  27.7160000  97.1370000  40.1370000  26.9660000  98.4680000  41.6580000
  27.7190000  99.1630000  41.4360000  26.6950000  98.5530000  42.7370000
  25.6750000  98.8770000  40.9200000  25.5130000  99.9390000  41.0920000
  24.8200000  98.2760000  41.3910000  25.7330000  98.7430000  39.3560000
  26.0480000  97.7010000  39.0730000  26.5640000  99.3530000  39.0260000
  24.3820000  99.1440000  38.7420000  24.1900000 100.1250000  39.0100000
  23.5240000  98.5330000  39.0930000  24.3940000  98.9120000  37.2250000
  24.5370000  97.8610000  37.0040000  25.2370000  99.4790000  36.8470000
  23.1100000  99.2220000  36.4750000  23.1690000  99.0860000  35.4010000
  22.7520000 100.2700000  36.6770000  22.3350000  98.5920000  36.7720000
 114.4760000  52.9170000  39.4610000 115.2530000  53.1250000  38.6080000
 114.8300000  53.3380000  40.4230000 113.7350000  53.6530000  39.1540000
 114.0490000  51.4530000  39.5870000 113.7690000  51.0960000  38.5300000
 114.9170000  50.8680000  39.8090000 112.9180000  51.2170000  40.6480000
 112.0190000  51.7460000  40.2660000 112.6330000  50.1130000  40.6890000
 113.3700000  51.8630000  41.9900000 114.5070000  51.7520000  42.1260000
 113.0570000  52.8970000  41.9520000 112.5960000  51.2590000  43.1620000
 111.5510000  51.4370000  43.0430000 112.8430000  50.1610000  43.1130000
 112.9890000  51.7770000  44.5320000 112.6950000  52.8810000  44.5750000
 112.4070000  51.3160000  45.3720000 114.4320000  51.6230000  44.9260000
 114.7510000  50.6270000  44.6250000 114.9110000  52.4270000  44.3610000
 114.7400000  51.9770000  46.4290000 115.7520000  52.3170000  46.4800000
 114.1930000  52.8520000  46.7120000 114.5540000  50.8110000  47.4620000
 113.4480000  50.5940000  47.5470000 115.1060000  49.9780000  47.0220000
 115.1120000  51.1650000  48.8100000 115.4650000  50.2500000  49.3610000
 116.0170000  51.8340000  48.7530000 114.1410000  51.8010000  49.8980000
 113.3080000  51.0760000  50.1580000 114.6530000  51.9160000  50.8880000
 113.5110000  53.1150000  49.4640000 113.3760000  53.7090000  50.3870000
 114.3620000  53.5700000  48.8940000 112.1080000  52.9960000  48.7450000
 112.2770000  52.2320000  48.0360000 111.3310000  52.7980000  49.4970000
 111.8170000  54.3150000  47.9000000 112.5380000  54.5000000  47.1010000
 110.8300000  54.3670000  47.4410000 111.8180000  55.5560000  48.8620000
 112.7590000  55.8700000  49.3180000 111.6020000  56.4840000  48.3420000
 110.7500000  55.4810000  49.8770000 109.7320000  54.7330000  49.8710000
 110.9450000  56.4170000  50.8260000 110.0280000  56.4740000  52.0220000
 110.0320000  57.4700000  52.3710000 109.0070000  56.2830000  51.7300000
 110.5440000  55.5510000  53.1720000 109.6820000  55.5660000  53.8860000
 111.7410000  56.2210000  53.9020000 111.4190000  57.1490000  54.4300000
 112.1760000  55.5800000  54.6950000 112.7280000  56.6080000  52.9380000
 114.2410000  56.2800000  53.1520000 114.4090000  54.6940000  52.8710000
 115.7030000  54.0690000  52.5840000 116.4210000  54.3270000  53.4130000
 115.5350000  53.0240000  52.6030000 116.2540000  54.4680000  51.1690000
 115.5700000  53.9390000  50.4960000 116.1000000  55.5040000  51.1050000
 117.6620000  54.1940000  50.8830000 118.0100000  52.7750000  50.9510000
 118.3010000  52.5050000  51.9420000 117.2150000  52.1320000  50.7300000
 118.7390000  52.5810000  50.1650000 118.0510000  54.6800000  49.5100000
 117.2680000  54.3070000  48.9090000 118.1140000  55.7520000  49.4930000
 119.1090000  54.1950000  49.2990000 118.5140000  54.9920000  51.7510000
 118.1940000  54.8420000  52.7650000 118.3910000  56.0150000  51.4130000
 119.5560000  54.6390000  51.6870000 114.9640000  57.0620000  52.1470000
 114.5170000  56.4940000  54.5980000 110.8580000  54.1930000  52.7460000
 110.0910000  53.1670000  52.9420000 108.9930000  53.1340000  53.5490000
 110.6850000  51.9960000  52.2190000 110.8360000  51.1790000  52.9210000
 111.5660000  52.3480000  51.8450000 109.7800000  51.4810000  51.0850000
 109.5910000  52.3120000  50.3660000 108.8130000  51.3040000  51.5020000
 110.2410000  50.2970000  50.2140000 110.4620000  49.4300000  50.8750000
 111.0990000  50.6080000  49.7100000 109.1570000  49.8470000  49.1210000
 108.7680000  50.8450000  48.7650000 108.4310000  49.3310000  49.7060000
 109.6410000  48.9360000  47.9320000 110.1890000  48.1220000  48.4720000
 110.3380000  49.5330000  47.3270000 108.5000000  48.4980000  46.9790000
 107.7960000  49.2470000  46.7640000 107.9880000  47.7310000  47.5020000
 109.0940000  48.0170000  45.6790000 109.9440000  47.4090000  45.8010000
 109.5830000  48.7770000  45.1670000 108.0190000  47.3460000  44.8750000
 107.4260000  46.7380000  45.5760000 107.7640000  47.4140000  43.5810000
 106.9550000  46.8870000  43.0670000 108.7500000  48.2170000  42.6880000
 109.4370000  47.5640000  42.1260000 109.3670000  49.0170000  43.1210000
 107.9020000  48.9360000  41.6130000 107.1310000  49.5370000  42.1370000
 107.3760000  48.2180000  41.0200000 108.7360000  49.8520000  40.6840000
 109.7270000  49.4130000  40.7420000 108.8360000  50.8230000  41.1260000
 108.2380000  50.0220000  39.2530000 107.1640000  50.3480000  39.0940000
 108.2270000  49.1170000  38.6100000 109.1710000  51.0500000  38.6270000
 110.1630000  50.5740000  38.4130000 109.1530000  52.0030000  39.1310000
 108.6010000  51.4110000  37.2230000 107.4710000  51.5540000  37.0420000
 108.7850000  50.4420000  36.8190000 109.4070000  52.5710000  36.4660000
 110.4570000  52.4400000  36.4200000 109.2880000  53.5450000  36.9190000
 108.7360000  52.5800000  35.1150000 107.6500000  52.9040000  35.2490000
 108.7940000  51.6040000  34.5750000 109.2790000  53.3380000  34.3900000
  29.7950000  97.7250000  37.5600000  30.7220000  98.1880000  37.3390000
  29.2580000  98.3220000  38.3470000  29.1190000  97.7380000  36.7010000
  30.1020000  96.2770000  38.0130000  29.2200000  95.7910000  38.4220000
  30.5790000  95.7430000  37.1690000  31.0820000  96.4030000  39.2260000
  31.9260000  97.0500000  38.9690000  30.5010000  96.8410000  40.0550000
  31.5860000  94.9890000  39.6150000  30.8040000  94.1980000  39.6570000
  32.2410000  94.6630000  38.8870000  32.2620000  95.0270000  40.9410000
  33.0830000  95.7240000  40.9360000  31.6920000  95.3130000  41.8350000
  32.8600000  93.6190000  41.1290000  32.1540000  92.9100000  41.1620000
  33.3500000  93.4180000  40.1520000  33.8430000  93.4390000  42.3390000
  34.6030000  94.3280000  42.3470000  33.2370000  93.4930000  43.2360000
  34.5880000  92.0700000  42.2820000  34.9730000  91.8180000  41.2790000
  35.4610000  92.2360000  42.9370000  33.6180000  90.9980000  42.9940000
  33.4580000  91.3380000  44.0230000  32.5950000  91.0390000  42.6210000
  34.2850000  89.6380000  42.9410000  34.3970000  89.3500000  41.8210000
  35.3140000  89.7790000  43.2530000  33.6400000  88.5920000  43.7810000
  32.7900000  88.0010000  43.4500000  34.4250000  87.8110000  43.7200000
  33.3030000  88.9730000  45.1600000  32.4470000  89.6370000  45.2210000
  33.0320000  88.0600000  45.5680000  34.4150000  89.4380000  46.0970000
  35.3370000  88.9580000  45.9890000  34.7480000  90.3910000  45.6520000
  33.9760000  89.6240000  47.5720000  33.7570000  88.6210000  47.9540000
  34.8740000  89.9280000  48.1170000  32.8630000  90.6200000  47.7000000
  33.1660000  91.4650000  47.0710000  31.9290000  90.2400000  47.3990000
  32.7480000  91.0840000  49.1370000  33.7340000  91.4870000  49.7660000
  31.4720000  91.2600000  49.4950000  31.1630000  91.9970000  50.7000000
  31.3690000  91.4450000  51.6270000  31.7940000  92.8830000  50.6770000
  29.7460000  92.4000000  50.9740000  29.3850000  92.9600000  50.0760000
  29.5430000  93.2680000  52.2910000  29.3890000  94.3080000  52.0190000
  28.5700000  93.0140000  52.6590000  30.5910000  93.0790000  53.2130000
  31.4450000  94.3830000  53.8100000  32.3640000  94.8740000  52.5900000
  33.4350000  94.0450000  52.0540000  33.2470000  92.9610000  52.0580000
  33.6450000  94.4440000  51.0370000  34.6970000  94.1510000  52.9730000
  35.2080000  95.1110000  52.7200000  34.3470000  93.9830000  53.9310000
  35.7110000  93.0670000  52.8020000  36.7480000  93.3970000  53.8050000
  37.4600000  92.5380000  53.8310000  37.2000000  94.3890000  53.6470000
  36.1940000  93.3920000  54.7160000  35.1680000  91.6660000  53.0090000
  34.6890000  91.5860000  54.0300000  34.4170000  91.3870000  52.2640000
  35.9170000  90.8780000  52.9580000  36.2470000  93.0600000  51.4180000
  36.4350000  94.1900000  51.3090000  35.4070000  92.6340000  50.7570000
  37.2310000  92.5120000  51.4900000  30.5540000  95.4530000  54.1950000
  32.3500000  93.9050000  54.8490000  28.9290000  91.1630000  51.1770000
  28.5130000  90.5380000  50.0450000  28.4310000  91.1480000  48.9960000
  28.0180000  89.1150000  50.2710000  27.4010000  88.8860000  49.3930000
  27.4440000  89.1130000  51.1950000  29.1410000  88.0120000  50.3800000
  29.7670000  88.2350000  51.2550000  29.5970000  88.0200000  49.4010000
  28.4430000  86.6460000  50.6380000  27.8380000  86.7370000  51.5480000
  29.2330000  85.9840000  50.8680000  27.5620000  86.1760000  49.4510000
  26.6900000  86.8260000  49.4180000  27.1050000  85.1930000  49.6860000
  28.2230000  86.0480000  48.1390000  28.5240000  87.0020000  47.7440000
  27.5480000  85.6280000  47.4660000  29.4800000  85.1710000  48.2240000
  29.1690000  84.2990000  48.8330000  30.3040000  85.6880000  48.6560000
  29.7470000  84.6900000  46.7840000  28.8970000  84.2730000  46.2520000
  30.3860000  83.8400000  46.8200000  30.4440000  85.8240000  45.9950000
  31.2950000  86.2730000  46.4550000  29.9400000  86.3260000  44.8520000
  30.4770000  87.1690000  44.4180000  28.7300000  85.8660000  43.9960000
  27.8980000  85.5280000  44.6400000  29.0180000  85.0030000  43.4690000
  28.1450000  86.9430000  43.0050000  27.6300000  86.4340000  42.2330000
  29.0400000  87.3290000  42.5130000  27.4580000  88.1420000  43.6410000
  27.7840000  88.2210000  44.6790000  26.3590000  88.0140000  43.6500000
  27.6590000  89.5160000  42.8960000  28.7120000  89.8810000  43.1270000
  26.9870000  90.3210000  43.2440000  27.4420000  89.3860000  41.3920000
  26.3370000  89.4700000  41.1120000  27.7830000  88.3990000  41.0290000
  28.0930000  90.5250000  40.6630000  29.1260000  90.4090000  40.7710000
  27.7860000  91.4480000  41.0630000  27.7570000  90.3870000  39.1840000
  26.7070000  90.4680000  39.0150000  28.0360000  89.4050000  38.7480000
  28.4700000  91.4260000  38.2830000  28.3890000  91.2690000  37.2420000
  29.4850000  91.3710000  38.4850000  28.0280000  92.4120000  38.5510000
 136.3940000 107.1560000  38.8650000 137.1650000 107.9500000  39.0750000
 136.3410000 107.0990000  37.7400000 136.7110000 106.1810000  39.3320000
 134.9480000 107.5460000  39.3870000 134.5840000 108.5100000  39.0380000
 134.2700000 106.7780000  39.2040000 134.9550000 107.6070000  40.9750000
 135.3700000 106.6680000  41.2750000 135.5310000 108.4870000  41.3140000
 133.5680000 107.7300000  41.5670000 133.3140000 108.7440000  41.3020000
 132.9800000 106.9930000  41.0680000 133.4180000 107.4890000  43.0570000
 133.5260000 106.3570000  43.2860000 134.2290000 108.0600000  43.5390000
 132.0800000 107.8470000  43.7310000 131.2730000 107.3640000  43.1360000
 132.0120000 107.3500000  44.7290000 131.8900000 109.3830000  43.7370000
 132.6740000 109.8680000  44.2970000 132.0510000 109.7690000  42.7170000
 130.5460000 109.8420000  44.3660000 130.4530000 109.4920000  45.3680000
 130.5120000 110.9270000  44.3640000 129.3860000 109.3090000  43.5590000
 129.5620000 109.6290000  42.5350000 129.4290000 108.2110000  43.5350000
 127.9160000 109.7140000  43.9360000 127.8890000 110.7840000  44.0800000
 127.1690000 109.5000000  43.1920000 127.6160000 109.0790000  45.3130000
 128.4370000 109.1550000  46.0330000 126.7040000 109.4690000  45.7570000
 127.4030000 107.5290000  45.1740000 126.2930000 107.3420000  45.2850000
 127.6650000 107.1440000  44.2130000 128.1260000 106.7550000  46.2540000
 127.8460000 107.1340000  47.1550000 127.8040000 105.6630000  46.1550000
 129.7120000 106.8380000  46.2800000 130.1000000 106.8420000  45.3410000
 129.9800000 107.8030000  46.8460000 130.4880000 105.6070000  46.9010000
 129.8350000 104.7470000  46.6690000 131.3920000 105.5520000  46.4070000
 130.7180000 105.6990000  48.3670000 131.7700000 106.0140000  48.9300000
 129.5320000 105.5330000  49.0040000 129.5080000 105.1200000  50.4210000
 128.4840000 105.0060000  50.6570000 129.9400000 104.1690000  50.5760000
 130.0480000 106.1760000  51.3740000 131.1460000 106.2460000  51.2710000
 129.8200000 105.8510000  52.9060000 129.5500000 104.7590000  52.8890000
 130.7620000 105.9930000  53.4560000 128.8330000 106.6930000  53.4570000
 127.2980000 106.3290000  53.6070000 126.5460000 107.1200000  52.4680000
 125.3170000 106.5700000  51.8520000 124.8420000 107.3250000  51.2590000
 125.6260000 105.8090000  51.0970000 124.3590000 105.9860000  52.7930000
 123.7300000 105.4460000  52.1510000 124.8180000 105.3370000  53.5200000
 123.5600000 106.9280000  53.5630000 122.2790000 107.2710000  52.7460000
 122.5660000 107.9090000  51.9400000 121.7270000 106.3930000  52.4180000
 121.6000000 107.9300000  53.3280000 123.1600000 106.2370000  54.7820000
 122.5660000 105.4830000  54.4250000 124.0840000 105.9880000  55.2370000
 122.6000000 106.9710000  55.3360000 124.2340000 108.1890000  54.0080000
 124.9420000 107.9310000  54.7790000 123.4820000 108.8680000  54.4220000
 124.7910000 108.6740000  53.1650000 127.0930000 104.9100000  53.2510000
 126.7450000 106.7960000  54.8800000 129.4320000 107.4830000  50.9600000
 130.0760000 108.5190000  51.3510000 131.1070000 108.4800000  52.0310000
 129.5530000 109.7630000  50.8110000 128.9160000 110.1900000  51.5880000
 128.9860000 109.6170000  49.9060000 130.6190000 110.8580000  50.5300000
 130.9160000 111.2440000  51.4810000 130.0640000 111.7030000  50.0510000
 131.7840000 110.5420000  49.6960000 132.3050000 109.7090000  50.1680000
 132.4440000 111.4050000  49.8060000 131.4260000 110.2060000  48.2000000
 131.1300000 111.0870000  47.6050000 130.4960000 109.6630000  48.1390000
 132.4960000 109.3460000  47.5390000 132.4410000 109.4010000  46.4580000
 132.4100000 108.2970000  47.7290000 133.9250000 109.8400000  47.8610000
 134.1260000 109.7480000  48.9260000 133.9400000 110.9360000  47.5840000
 134.9520000 109.2610000  46.9380000 134.6170000 109.2900000  45.9130000
 135.0500000 108.1650000  47.1510000 136.2370000 110.0400000  47.1360000
 136.7360000 110.0990000  48.0950000 136.7760000 110.8450000  46.2300000
 137.7300000 111.2890000  46.5040000 136.3410000 110.9190000  44.7860000
 136.0000000 109.9660000  44.4700000 137.2050000 111.1210000  44.2020000
 135.3030000 111.9890000  44.4600000 135.6940000 112.9460000  44.8180000
 134.3310000 111.8270000  44.9610000 135.0930000 112.1330000  42.9320000
 134.9370000 111.1530000  42.5560000 136.0660000 112.4690000  42.6200000
 134.0450000 113.0680000  42.5360000 134.0910000 113.9720000  43.1670000
 133.0900000 112.5480000  42.7900000 134.3120000 113.3760000  41.0120000
 135.2160000 114.0510000  40.9160000 133.4790000 114.0320000  40.7160000
 134.3930000 112.1430000  40.1010000 133.4460000 111.6450000  40.2540000
 135.1760000 111.4450000  40.2660000 134.4340000 112.6200000  38.6320000
 135.2390000 113.3060000  38.5190000 133.4640000 113.1180000  38.4890000
 134.5900000 111.4120000  37.7340000 135.3760000 110.7420000  38.1600000
 134.7500000 111.7720000  36.6350000 133.6070000 110.9020000  37.7200000
 124.8810000 152.5490000  46.6060000 125.4400000 152.0410000  47.4320000
 125.1420000 153.5810000  46.7080000 125.2030000 152.2030000  45.6180000
 123.3120000 152.5400000  46.8230000 122.8990000 152.9220000  45.8680000
 123.0340000 151.5250000  46.9760000 122.9640000 153.5370000  47.9330000
 123.3740000 154.5560000  47.6620000 121.8310000 153.4120000  47.9510000
 123.4360000 153.1480000  49.3150000 123.0080000 152.1310000  49.4470000
 124.4830000 153.0610000  49.4320000 122.9170000 154.0710000  50.3800000
 123.3210000 155.1050000  50.2000000 121.8360000 154.0640000  50.4690000
 123.4220000 153.6690000  51.8230000 123.0440000 152.6470000  52.0630000
 124.5250000 153.7010000  51.8470000 122.9290000 154.6660000  52.8630000
 123.3070000 155.6850000  52.4920000 121.8310000 154.7470000  52.8680000
 123.3310000 154.4700000  54.3390000 124.4520000 154.4320000  54.2400000
 123.0420000 155.3520000  54.9640000 122.8530000 153.1370000  54.9980000
 123.2060000 152.3140000  54.3390000 123.2220000 153.0740000  55.9940000
 121.2910000 152.9230000  55.0570000 120.8340000 153.8040000  55.4640000
 120.8830000 152.7930000  54.0830000 120.7130000 151.7030000  55.8440000
 120.9300000 151.7820000  56.8520000 119.6980000 151.6410000  55.6820000
 121.2360000 150.3450000  55.4050000 121.1060000 150.2760000  54.3200000
 122.3220000 150.3750000  55.3980000 120.6310000 149.1060000  56.1410000
 120.8700000 149.1810000  57.2140000 119.5160000 148.9960000  56.0610000
 121.1350000 147.7420000  55.6990000 120.8880000 147.6750000  54.6470000
 122.2100000 147.8090000  55.8140000 120.6060000 146.5320000  56.5340000
 120.8930000 146.4330000  57.5740000 119.5870000 146.6270000  56.5240000
 120.8210000 145.2490000  55.8070000 121.2770000 145.0710000  54.7190000
 120.4280000 144.2070000  56.5950000 120.0250000 142.9540000  55.9000000
 119.4060000 142.4000000  56.6460000 119.4040000 143.3100000  55.1180000
 121.1670000 142.0590000  55.3450000 121.5890000 142.5330000  54.5830000
 120.6120000 140.8080000  54.7260000 119.7980000 140.9690000  54.1000000
 121.4580000 140.4100000  54.1620000 120.2360000 139.8350000  55.7320000
 120.2480000 138.2270000  55.5270000 121.7060000 137.6920000  55.9380000
 122.8140000 137.9130000  55.0400000 122.7230000 137.3390000  54.0970000
 122.8040000 139.0040000  54.8690000 124.1050000 137.5890000  55.8260000
 124.0510000 138.1190000  56.7430000 123.9760000 136.5490000  56.1610000
 125.4490000 137.6100000  55.1960000 125.4840000 138.8610000  54.3620000
 125.5110000 139.7980000  54.9150000 126.3090000 138.9200000  53.7140000
 124.6550000 138.8220000  53.6510000 126.6090000 137.6990000  56.2110000
 126.5340000 136.7970000  56.7000000 127.5850000 137.7930000  55.6880000
 126.3960000 138.5030000  56.8830000 125.7000000 136.4600000  54.2970000
 124.9030000 136.4180000  53.5420000 125.6420000 135.5310000  54.8330000
 126.5650000 136.6350000  53.7260000 119.2930000 137.6280000  56.4810000
 120.0740000 137.9390000  54.1330000 122.2350000 141.8110000  56.4380000
 123.4920000 141.6270000  55.9920000 123.7620000 141.3030000  54.8370000
 124.4910000 142.0590000  57.0300000 125.2490000 141.2540000  57.0220000
 123.8960000 142.2000000  57.9370000 125.2850000 143.2770000  56.7310000
 126.0430000 142.9400000  55.9960000 125.8560000 143.6250000  57.6460000
 124.5530000 144.4960000  56.1340000 123.9480000 145.1110000  56.9490000
 123.8330000 144.0250000  55.5320000 125.2890000 145.3470000  55.1680000
 125.5300000 144.7060000  54.3450000 126.2710000 145.5850000  55.5880000
 124.5860000 146.5690000  54.4760000 124.1550000 147.2210000  55.2270000
 123.7480000 146.0420000  53.9210000 125.4400000 147.4610000  53.5320000
 126.0140000 146.9360000  52.8020000 126.1520000 148.1050000  54.0920000
 124.6280000 148.4370000  52.7610000 125.2570000 149.1900000  52.3290000
 123.9660000 149.0450000  53.4150000 123.8820000 147.6790000  51.7060000
 123.7270000 146.6400000  52.0190000 123.7240000 148.1120000  50.4500000
 123.2100000 147.4510000  49.7280000 123.8360000 149.6020000  49.9780000
 123.6550000 150.1840000  50.9190000 122.8920000 149.7750000  49.3490000
 125.2250000 149.9360000  49.4260000 126.0780000 149.5170000  50.0380000
 125.3110000 151.0020000  49.3640000 125.5090000 149.3180000  48.0670000
 124.6970000 149.5340000  47.3080000 125.5230000 148.3120000  48.2360000
 126.9100000 149.6960000  47.5130000 127.6400000 149.2200000  48.1480000
 127.1520000 150.7580000  47.4760000 127.1000000 149.0970000  46.1000000
 126.2010000 149.4790000  45.4910000 127.0100000 148.0030000  46.1730000
 128.4090000 149.4930000  45.3950000 129.2390000 148.9590000  45.8120000
 128.4980000 150.5220000  45.5290000 128.3790000 149.1390000  43.9190000
 128.7190000 150.0490000  43.4100000 127.3590000 149.0300000  43.6070000
 129.0960000 147.8980000  43.3320000 128.6590000 147.6360000  42.3350000
 129.0220000 147.0310000  43.9950000 130.1170000 148.1660000  43.2060000
  90.5770000 126.6080000  42.8190000  89.7260000 127.3020000  42.9510000
  91.0040000 126.5060000  43.8120000  90.2780000 125.6570000  42.3760000
  91.7310000 127.2980000  42.0920000  92.4900000 126.5190000  41.7450000
  91.2820000 127.6820000  41.1900000  92.5680000 128.1780000  43.0120000
  91.9030000 128.8240000  43.5780000  93.1970000 127.5660000  43.5830000
  93.4880000 129.1400000  42.2600000  94.2890000 128.5100000  41.8520000
  92.9050000 129.6160000  41.4210000  94.0780000 130.2900000  43.2460000
  93.1930000 130.8080000  43.5750000  94.6390000 129.9530000  44.1020000
  94.9930000 131.3430000  42.5070000  94.4710000 131.4900000  41.5060000
  95.1470000 132.2830000  43.0960000  96.3870000 130.8150000  42.0140000
  96.2740000 129.7810000  41.6230000  96.6490000 131.4690000  41.2200000
  97.4830000 130.9620000  43.0410000  97.3910000 131.9580000  43.3540000
  97.2930000 130.4360000  44.0370000  98.9630000 130.5060000  42.5360000
  98.9840000 129.4680000  42.1680000  99.0700000 131.1070000  41.6040000
 100.0900000 130.8470000  43.4580000  99.8510000 130.5520000  44.4610000
 100.9580000 130.2690000  43.1800000 100.5140000 132.3190000  43.4570000
 101.5290000 132.2440000  42.9810000  99.8580000 132.9620000  42.8490000
 100.5110000 132.8760000  44.8730000 101.1570000 132.2000000  45.4440000
 100.9420000 133.9240000  44.8270000  99.0930000 133.0220000  45.5870000
  98.2690000 133.2930000  44.8510000  98.7790000 132.0090000  45.9570000
  98.9590000 134.1230000  46.6610000  99.8570000 134.1210000  47.2480000
  98.8860000 135.0870000  46.1690000  97.8860000 133.9140000  47.7310000
  96.9960000 133.4620000  47.2640000  98.1960000 133.1130000  48.3610000
  97.4600000 135.1650000  48.5610000  96.6330000 135.9920000  48.2650000
  97.9610000 135.1780000  49.8230000  97.4950000 136.1740000  50.8250000
  98.0920000 136.1370000  51.7370000  97.6160000 137.1880000  50.4760000
  96.0010000 135.9530000  51.2010000  95.3520000 136.2720000  50.3090000
  95.5550000 136.6990000  52.4620000  96.1110000 137.6150000  52.3410000
  94.4770000 136.8250000  52.4420000  95.9820000 136.0080000  53.6530000
  95.2800000 136.2400000  55.0730000  93.8280000 135.4900000  54.9130000
  92.7490000 136.2060000  54.3420000  92.9760000 137.2700000  54.5290000
  92.6400000 135.8940000  53.2860000  91.5050000 135.9040000  55.2310000
  90.6650000 136.2790000  54.8140000  91.4220000 134.8270000  55.3660000
  91.5700000 136.3840000  56.6870000  90.2240000 136.2160000  57.2020000
  90.0770000 136.5700000  58.2240000  89.6290000 136.9220000  56.6440000
  89.7880000 135.2810000  56.9430000  92.4520000 135.4400000  57.5290000
  92.4100000 135.7040000  58.6070000  92.2880000 134.3290000  57.4240000
  93.4320000 135.6620000  57.2250000  92.1090000 137.7670000  56.9200000
  93.1500000 137.6470000  56.5440000  92.1080000 138.0510000  57.9550000
  91.6280000 138.5610000  56.4310000  96.0970000 135.4920000  56.0140000
  94.9840000 137.6540000  55.3300000  95.8220000 134.4870000  51.5080000
  94.5450000 134.0170000  51.4310000  93.5500000 134.6810000  51.2820000
  94.4810000 132.5010000  51.7720000  95.4570000 132.0230000  51.6120000
  93.8040000 131.9240000  51.1670000  94.1240000 132.3250000  53.3060000
  93.2940000 132.9280000  53.5700000  94.9340000 132.7850000  53.8470000
  93.9890000 130.8670000  53.8070000  94.1570000 130.7220000  54.9400000
  94.7060000 130.1530000  53.2670000  92.6360000 130.2620000  53.5110000
  92.3360000 130.4330000  52.4380000  91.9250000 130.7030000  54.2470000
  92.6430000 128.7370000  53.7190000  93.0070000 128.5920000  54.7770000
  93.3420000 128.2160000  53.1740000  91.3160000 128.0250000  53.5960000
  90.4350000 128.4690000  54.1770000  91.4080000 126.9620000  54.0320000
  90.9290000 127.8980000  52.1280000  91.7800000 127.4460000  51.6060000
  90.7200000 128.8510000  51.6880000  89.7240000 127.0480000  51.9760000
  89.0210000 127.2200000  52.7910000  89.4410000 126.1100000  51.0890000
  88.5600000 125.5220000  51.1740000  90.3880000 125.4670000  50.1160000
  90.4810000 124.3750000  50.1700000  91.4120000 125.8040000  50.2880000
  89.8720000 125.8240000  48.7270000  88.8200000 125.7780000  48.7720000
  90.1100000 124.8900000  48.1000000  90.2640000 127.2450000  48.2820000
  91.3410000 127.3780000  48.2730000  89.9110000 127.9650000  49.0470000
  89.5920000 127.5240000  46.9740000  88.4560000 127.4130000  46.8980000
  90.1260000 126.9220000  46.2210000  89.6500000 128.9360000  46.5440000
  90.6700000 129.1760000  46.4600000  89.2950000 129.5110000  47.3940000
  88.8430000 129.3760000  45.3210000  87.8020000 129.2390000  45.6050000
  89.0060000 128.7790000  44.4560000  88.9440000 130.8840000  45.0430000
  88.6520000 131.4520000  45.9240000  88.3260000 131.0720000  44.1580000
  90.4070000 131.2170000  44.6670000  90.5720000 132.2510000  44.4000000
  90.7790000 130.6150000  43.8480000  91.1100000 131.0120000  45.4850000
 130.9850000  11.2680000  36.9550000 130.3290000  11.4200000  36.0770000
 131.9690000  10.8220000  36.7390000 131.2440000  12.2970000  37.2760000
 130.0890000  10.4670000  37.9040000 129.1420000  10.9320000  38.0550000
 129.7860000   9.4620000  37.6030000 130.7270000  10.3230000  39.2470000
 130.0940000   9.6300000  39.7460000 131.7060000  10.0590000  39.1680000
 130.6430000  11.6940000  40.0230000 131.2750000  12.4560000  39.5180000
 129.6520000  12.0600000  40.0110000 130.8660000  11.4660000  41.5380000
 130.6550000  12.3550000  42.1390000 130.1040000  10.7340000  41.9180000
 132.2910000  10.8470000  41.8300000 132.6260000  10.0720000  41.1740000
 133.0420000  11.7380000  41.7010000 132.4860000  10.4130000  43.3260000
 131.5790000   9.8600000  43.6780000 133.3570000   9.7930000  43.4040000
 132.7500000  11.5510000  44.3370000 131.9840000  12.3210000  44.1480000
 132.6420000  11.2430000  45.3840000 134.1370000  12.1330000  44.2520000
 134.8980000  11.3750000  44.1110000 134.2270000  12.9020000  43.4700000
 134.5120000  13.0040000  45.5000000 134.6320000  12.3330000  46.4400000
 135.4050000  13.4970000  45.2960000 133.4780000  14.0100000  46.0010000
 133.1920000  14.6800000  45.2380000 132.5720000  13.4420000  46.3660000
 134.0580000  14.8870000  47.1800000 134.2700000  14.3410000  48.0560000
 135.0580000  15.2390000  46.8420000 133.2770000  16.1440000  47.6270000
 134.0880000  16.6940000  48.1300000 133.0040000  16.7290000  46.7460000
 132.0150000  16.1300000  48.5580000 131.0890000  15.4970000  48.2060000
 132.2430000  15.8010000  49.6360000 131.4870000  17.4910000  48.7770000
 132.3530000  18.0440000  49.1490000 131.1680000  18.0630000  47.9640000
 130.3540000  17.5450000  49.7940000 129.8550000  16.5150000  50.1960000
 129.9100000  18.7780000  50.0750000 128.7280000  18.7990000  51.0080000
 128.1310000  17.9630000  50.9010000 129.0810000  18.8550000  52.0240000
 127.7400000  19.9830000  50.7230000 128.2960000  20.9060000  50.7770000
 126.5540000  19.9870000  51.7700000 126.9740000  20.2750000  52.8100000
 125.8370000  20.6870000  51.3750000 126.1040000  18.5640000  51.8290000
 124.9190000  17.9590000  50.9380000 125.6740000  16.7860000  50.1860000
 126.0020000  16.8540000  48.7860000 125.6450000  17.8380000  48.3840000
 127.0730000  16.7880000  48.6530000 125.3120000  15.6130000  48.1200000
 125.7110000  15.4700000  47.1670000 125.4810000  14.7060000  48.7430000
 123.8240000  15.6900000  47.8730000 122.8900000  15.6200000  49.0670000
 123.1980000  14.7460000  49.7540000 123.1520000  16.4480000  49.7060000
 121.8610000  15.5650000  48.7810000 123.4990000  17.0040000  47.2740000
 124.1630000  17.0680000  46.3740000 122.4860000  17.1740000  46.9810000
 123.7020000  17.6800000  48.0950000 123.4530000  14.5480000  46.8990000
 122.3890000  14.5050000  46.8690000 123.9080000  13.5840000  47.2460000
 123.7970000  14.9560000  45.9460000 123.9380000  17.2210000  51.8500000
 124.4030000  18.8750000  49.9040000 127.0910000  19.7710000  49.4310000
 126.5700000  20.7940000  48.8050000 126.4620000  21.9120000  49.3040000
 126.1320000  20.4990000  47.3810000 125.2460000  21.0990000  47.2900000
 125.8730000  19.4500000  47.2720000 127.1280000  20.9700000  46.3960000
 128.1190000  20.5380000  46.6760000 127.2680000  22.0130000  46.6480000
 126.7840000  20.7540000  44.9130000 125.7700000  20.9570000  44.6560000
 126.8670000  19.6800000  44.6240000 127.5760000  21.6800000  44.0130000
 128.6050000  21.7200000  44.4080000 127.2970000  22.7540000  44.1180000
 127.6840000  21.2130000  42.5600000 126.6960000  20.9580000  42.2520000
 128.3630000  20.3500000  42.4000000 128.2450000  22.3430000  41.6940000
 129.1950000  22.6830000  42.1250000 127.5370000  23.2180000  41.6750000
 128.6670000  21.9130000  40.2110000 128.8600000  22.7750000  39.5400000
 127.9810000  21.2280000  39.7170000 130.0260000  21.1550000  40.3120000
 130.8920000  21.7980000  40.5410000 130.2890000  19.9240000  39.8050000
 131.3310000  19.5580000  39.5950000 129.2000000  18.8860000  39.6270000
 128.3160000  19.2240000  39.1200000 128.8240000  18.5050000  40.5830000
 129.7340000  17.7180000  38.8430000 130.6690000  17.4340000  39.2880000
 129.8830000  17.9430000  37.8210000 128.8420000  16.4800000  38.9000000
 127.8990000  16.6820000  38.3360000 128.5600000  16.3940000  39.8960000
 129.5280000  15.1630000  38.3700000 129.2510000  14.3400000  39.0620000
 130.6360000  15.3160000  38.4600000 129.0650000  14.8800000  36.9450000
 128.0020000  14.6860000  36.9400000 129.4650000  14.0090000  36.4690000
 129.4260000  16.0370000  35.9310000 130.4900000  16.3160000  35.9890000
 128.8660000  16.8600000  36.2020000 129.0360000  15.7240000  34.4180000
 129.4720000  14.8020000  33.9790000 129.3390000  16.5940000  33.8770000
 127.5120000  15.5340000  34.3380000 127.0800000  16.4570000  34.7400000
 127.0560000  14.6260000  34.8160000 127.2390000  15.4570000  33.2830000
  45.1670000 151.3400000  35.2310000  46.2050000 151.7900000  35.3880000
  44.3940000 151.8490000  35.8690000  44.9460000 151.5060000  34.1480000
  45.3970000 149.8660000  35.6430000  44.5030000 149.4550000  36.1550000
  45.5930000 149.3040000  34.6980000  46.7560000 149.6750000  36.3510000
  47.5610000 149.7860000  35.6010000  46.9550000 150.4840000  37.1350000
  46.8090000 148.3420000  37.1910000  46.7340000 147.4630000  36.5720000
  47.8410000 148.3040000  37.6090000  45.8420000 148.3200000  38.4030000
  45.9680000 149.1450000  39.1080000  44.8400000 148.2320000  38.0420000
  45.9900000 147.0320000  39.1860000  45.8040000 146.2370000  38.5560000
  47.0410000 146.8280000  39.5230000  44.9560000 147.0840000  40.3160000
  45.0360000 147.9320000  41.0000000  43.9440000 147.0550000  39.8190000
  45.0780000 145.9220000  41.3200000  45.0170000 144.9610000  40.7600000
  46.0120000 146.0770000  41.8940000  43.8570000 145.8660000  42.2770000
  43.7510000 146.7980000  42.7660000  43.0170000 145.6810000  41.6330000
  44.0070000 144.7140000  43.3530000  44.0870000 143.7170000  42.8700000
  44.9480000 144.8770000  43.9590000  42.7480000 144.6650000  44.1190000
  41.9180000 144.8730000  43.4900000  42.7000000 143.6330000  44.4670000
  42.8820000 145.5860000  45.3500000  43.8000000 145.4750000  45.9320000
  42.7670000 146.5580000  44.9600000  41.7500000 145.2350000  46.3340000
  40.8130000 145.0110000  45.8820000  42.1120000 144.3900000  46.9070000
  41.4570000 146.5500000  47.1620000  41.6470000 147.5040000  46.6550000
  40.3560000 146.5640000  47.2640000  42.3810000 146.7450000  48.3680000
  43.4130000 146.8980000  48.0520000  42.0000000 147.5730000  48.9550000
  42.3510000 145.7060000  49.4750000  41.5080000 145.6290000  50.3280000
  43.2870000 144.7630000  49.3270000  43.4300000 143.6440000  50.3060000
  44.3540000 143.1370000  49.9390000  43.5810000 144.1380000  51.2580000
  42.3160000 142.6130000  50.2610000  41.4540000 143.0970000  50.0560000
  42.1200000 141.9280000  51.6540000  41.6500000 142.6260000  52.3600000
  41.4470000 141.1020000  51.6070000  43.3560000 141.4730000  52.2460000
  43.8850000 139.9480000  52.0460000  45.2700000 140.2570000  51.4060000
  46.2260000 141.0220000  52.1080000  46.1870000 142.0870000  51.7840000
  46.0960000 140.9170000  53.2350000  47.6270000 140.4870000  51.6050000
  47.5640000 140.3410000  50.5220000  48.4690000 141.1900000  51.8210000
  48.0990000 139.1540000  52.1340000  49.2160000 138.6470000  51.3170000
  49.3270000 137.5810000  51.1880000  49.0930000 139.0500000  50.3690000
  50.1940000 139.0700000  51.7100000  48.5410000 139.4370000  53.5730000
  49.2660000 138.6600000  53.8830000  49.0390000 140.3920000  53.4860000
  47.6730000 139.4720000  54.2350000  46.9530000 138.1490000  52.0390000
  46.3770000 138.2550000  52.9190000  47.3710000 137.1560000  52.0110000
  46.2460000 138.4450000  51.2240000  44.0780000 139.3920000  53.3700000
  43.0370000 139.2360000  51.0920000  42.5700000 141.6080000  49.3260000
  41.5200000 140.8320000  48.9510000  40.3820000 140.9020000  49.4030000
  41.9020000 139.8770000  47.9040000  41.4710000 138.9390000  48.1320000
  43.0210000 139.8390000  47.9900000  41.5880000 140.3620000  46.4280000
  42.0720000 141.3530000  46.3180000  40.5330000 140.3940000  46.2980000
  42.1260000 139.5790000  45.3120000  41.9530000 138.5220000  45.5320000
  43.1640000 139.6220000  45.1440000  41.3800000 140.0010000  44.0850000
  41.6030000 141.0280000  43.8910000  40.3090000 139.8700000  44.2160000
  41.8390000 139.3060000  42.7310000  41.7620000 138.2280000  42.9680000
  42.8700000 139.5850000  42.4640000  40.9610000 139.5900000  41.5280000
  39.9950000 139.8440000  41.8610000  40.7460000 138.6790000  41.0180000
  41.6210000 140.3800000  40.3270000  40.9070000 140.4060000  39.4710000
  42.4750000 139.7340000  40.0490000  42.1150000 141.6800000  40.9510000
  42.3000000 141.6740000  42.0030000  42.0990000 142.8300000  40.2990000
  42.2760000 143.6920000  40.8880000  41.6850000 143.0180000  38.9240000
  40.8920000 142.2980000  38.6520000  42.6360000 142.8450000  38.3610000
  41.1870000 144.4580000  38.8140000  41.7960000 145.2640000  39.2920000
  40.2160000 144.5830000  39.3260000  40.9900000 144.8520000  37.3140000
  40.3110000 144.2250000  36.7940000  42.0010000 144.6330000  36.9030000
  40.5450000 146.3340000  37.1600000  41.2810000 147.0400000  37.5110000
  39.5680000 146.5040000  37.6350000  40.2760000 146.5640000  35.6590000
  39.5860000 145.8320000  35.1600000  41.3060000 146.3050000  35.2990000
  39.8090000 148.0090000  35.2440000  38.9100000 148.2960000  35.7730000
  39.6200000 148.0170000  34.1510000  40.9880000 149.0410000  35.4300000
  41.9620000 148.4840000  35.3780000  40.8790000 149.5210000  36.4130000
  40.9020000 150.1710000  34.3830000  41.6070000 150.9400000  34.6420000
  39.8600000 150.4510000  34.4480000  41.1360000 149.8310000  33.3690000
 117.7200000  94.8950000  35.0790000 118.1400000  94.1830000  34.3390000
 118.3580000  94.7790000  35.9410000 117.8060000  95.8920000  34.7080000
 116.2350000  94.7200000  35.4570000 115.7710000  95.6180000  35.8430000
 115.7020000  94.5280000  34.5050000 115.9640000  93.4800000  36.4270000
 116.6130000  92.6720000  36.2240000 116.3740000  93.7770000  37.4490000
 114.4460000  92.9400000  36.3390000 113.6960000  93.6040000  36.7520000
 114.2280000  92.8090000  35.3050000 114.2640000  91.6080000  37.0200000
 113.2490000  91.2910000  36.8530000 114.8640000  90.8880000  36.4490000
 114.8400000  91.5040000  38.4100000 115.9220000  91.6340000  38.4160000
 114.4520000  92.2540000  39.0690000 114.5790000  90.1530000  39.1290000
 114.9190000  89.4290000  38.3890000 115.3020000  90.0730000  39.9700000
 113.0910000  89.8190000  39.5000000 112.4920000  89.8380000  38.5980000
 113.1320000  88.7910000  39.9010000 112.4270000  90.8380000  40.5080000
 112.2250000  91.7080000  39.9140000 111.4130000  90.5400000  40.6980000
 113.3030000  90.9680000  41.8040000 113.1790000  90.0830000  42.3710000
 114.4000000  91.2170000  41.6780000 112.7410000  92.0620000  42.7090000
 111.7340000  91.8320000  42.9770000 113.3680000  92.1100000  43.5510000
 112.6890000  93.4980000  42.1030000 113.6600000  93.5980000  41.6240000
 111.9380000  93.5890000  41.2870000 112.6200000  94.5960000  43.1230000
 113.5040000  94.6030000  43.8750000 112.6500000  95.6120000  42.6190000
 111.3390000  94.5370000  44.0130000 110.4820000  94.7330000  43.3510000
 111.1700000  93.5510000  44.3980000 111.3640000  95.6470000  45.1480000
 111.7110000  96.5530000  44.7790000 110.3260000  95.8390000  45.5110000
 112.2460000  95.2880000  46.3300000 113.3960000  94.8740000  46.3180000
 111.5160000  95.6110000  47.4520000 112.0510000  95.3050000  48.7660000
 113.1250000  95.2960000  48.7690000 111.6400000  96.0290000  49.4870000
 111.5240000  93.9900000  49.2490000 110.4670000  93.9950000  49.2020000
 111.9600000  93.6430000  50.6810000 111.7170000  94.4700000  51.3980000
 111.4420000  92.7320000  51.0320000 113.3690000  93.3700000  50.7040000
 113.9190000  92.9380000  52.1510000 113.5430000  91.3600000  52.3160000
 113.9390000  90.7260000  53.5220000 114.9080000  91.0230000  53.8010000
 113.2240000  91.1420000  54.3140000 113.6950000  89.2320000  53.3190000
 113.9580000  88.7420000  54.2160000 112.6840000  88.9810000  53.2120000
 114.4970000  88.5160000  52.2780000 113.9700000  87.1040000  52.0820000
 112.8720000  87.2260000  51.8980000 114.4690000  86.6400000  51.3460000
 114.1260000  86.5020000  52.9860000 114.4410000  89.1080000  50.9440000
 114.8850000  90.1040000  50.8960000 115.1020000  88.4670000  50.3690000
 113.4180000  89.2460000  50.5210000 115.9190000  88.3510000  52.7870000
 116.2710000  87.6880000  52.0360000 115.9040000  87.8690000  53.7550000
 116.5150000  89.1860000  52.6390000 115.3480000  93.2170000  52.1270000
 113.1100000  93.6660000  53.1380000 112.0700000  93.0300000  48.3210000
 111.4030000  91.8540000  48.1650000 110.5470000  91.4490000  48.9280000
 111.9660000  91.1280000  46.9310000 112.7280000  90.4040000  47.1780000
 112.4380000  91.9010000  46.2910000 110.8920000  90.3900000  46.2230000
 110.1550000  91.1290000  46.0240000 110.4180000  89.7280000  46.9790000
 111.2550000  89.4580000  45.0690000 112.1250000  88.9590000  45.4270000
 111.6970000  90.0330000  44.2600000 110.1750000  88.5880000  44.2990000
 109.5800000  89.3410000  43.6790000 109.5780000  88.0760000  45.0020000
 110.7560000  87.5250000  43.3880000 111.2470000  86.8190000  44.0320000
 111.3870000  87.8470000  42.6310000 109.5810000  86.8300000  42.7210000
 109.1430000  87.5720000  42.0500000 108.8180000  86.5620000  43.4620000
 110.0470000  85.4850000  42.1010000 110.3590000  84.8110000  42.8990000
 110.9320000  85.6480000  41.4950000 109.0120000  84.8330000  41.3190000
 108.2750000  84.1230000  41.8170000 108.8980000  84.9010000  39.9520000
 108.1860000  84.2640000  39.5180000 109.6660000  85.8450000  39.0710000
 110.3160000  86.4490000  39.6530000 109.0330000  86.5950000  38.5270000
 110.4840000  85.0250000  38.0940000 109.8160000  84.5640000  37.4180000
 110.9990000  84.2180000  38.6870000 111.5500000  85.8710000  37.3290000
 112.4460000  86.0830000  37.9510000 111.1300000  86.8780000  37.2540000
 112.0130000  85.2180000  35.9720000 111.1570000  85.2940000  35.3110000
 112.2540000  84.1750000  36.1940000 113.2540000  85.8670000  35.3140000
 112.9590000  86.7970000  34.8870000 113.5340000  85.1730000  34.4120000
 114.6050000  86.1110000  36.1270000 114.4820000  86.8740000  36.9650000
 115.3790000  86.5030000  35.4660000 115.1640000  84.7290000  36.5720000
 116.2290000  84.8590000  36.6590000 115.0570000  84.0760000  35.7260000
 114.5280000  84.0110000  37.8040000 115.0420000  83.0440000  37.8200000
 113.4590000  83.9100000  37.8990000 114.8710000  84.4770000  38.6890000
  82.3070000  98.9230000  48.8640000  82.9090000  99.7040000  49.3960000
  83.0390000  98.1320000  48.8590000  81.3370000  98.8690000  49.3920000
  82.0500000  99.3350000  47.3600000  81.2900000 100.0960000  47.3020000
  82.9530000  99.7230000  46.8680000  81.7410000  98.1120000  46.4950000
  81.9500000  98.3370000  45.3880000  82.4820000  97.3690000  46.8030000
  80.3980000  97.4300000  46.7510000  80.6240000  96.7130000  47.5530000
  79.5800000  98.1170000  47.0010000  79.9500000  96.5480000  45.5850000
  78.9310000  96.1370000  45.7660000  79.8180000  97.1130000  44.6870000
  80.7470000  95.2330000  45.3590000  81.7960000  95.3880000  45.1560000
  80.8060000  94.6640000  46.2750000  80.1700000  94.1960000  44.4050000
  79.2380000  93.8370000  44.7650000  80.0130000  94.6740000  43.4280000
  81.1060000  92.9390000  44.2330000  81.1750000  92.5470000  45.3130000
  80.6390000  92.1080000  43.6850000  82.5220000  93.1770000  43.6980000
  82.5110000  93.1700000  42.5980000  83.0050000  94.0430000  44.0150000
  83.3370000  91.9420000  44.1210000  82.8260000  90.9930000  43.8350000
  84.2510000  92.0460000  43.5730000  83.7680000  91.6850000  45.6190000
  82.8970000  91.8180000  46.3430000  84.0760000  90.6030000  45.7820000
  84.9210000  92.6370000  46.1060000  84.5990000  93.6810000  46.1530000
  85.0180000  92.4110000  47.1590000  86.2430000  92.3980000  45.3840000
  86.3040000  91.3230000  45.1350000  86.2400000  93.0520000  44.4280000
  87.4670000  92.8010000  46.3550000  88.3250000  93.3400000  45.9110000
  87.1850000  93.5260000  47.1000000  87.9720000  91.5720000  47.1150000
  88.3600000  90.8860000  46.4060000  88.7780000  91.8580000  47.7710000
  87.0050000  90.7960000  48.0220000  86.7200000  91.2590000  49.0950000
  86.6940000  89.5820000  47.6480000  86.0570000  88.7460000  48.7440000
  86.8770000  88.4670000  49.4570000  85.4220000  89.4080000  49.2460000
  85.3440000  87.4510000  48.2830000  84.8300000  87.7560000  47.3650000
  84.2190000  86.9180000  49.2630000  83.5490000  87.6680000  49.6230000
  83.5930000  86.1840000  48.6320000  84.9350000  86.2200000  50.3920000
  84.9140000  86.9230000  51.8000000  86.0690000  86.3780000  52.5980000
  86.0720000  84.9670000  52.8710000  86.6950000  84.7040000  53.7390000
  85.0290000  84.7090000  53.1600000  86.5250000  84.0150000  51.7260000
  86.5270000  82.8810000  51.9550000  85.8420000  84.2230000  50.9160000
  87.9220000  84.2800000  51.1730000  87.8250000  83.7470000  49.7560000
  87.1810000  84.3780000  49.2040000  88.7990000  83.7790000  49.2620000
  87.4570000  82.6900000  49.8380000  88.2130000  85.7250000  51.0250000
  89.0550000  85.8230000  50.4420000  87.3660000  86.1430000  50.4590000
  88.3360000  86.1370000  52.0210000  88.9780000  83.6680000  51.9050000
  88.8400000  82.5770000  51.8140000  88.9460000  83.8400000  52.9460000
  89.9030000  83.9530000  51.3730000  85.2160000  88.2990000  51.4990000
  83.6430000  86.6740000  52.4220000  86.4160000  86.5510000  47.9740000
  86.9510000  86.5780000  46.7070000  86.3650000  87.1560000  45.7990000
  88.2350000  85.8410000  46.5540000  88.2830000  85.2190000  47.3930000
  89.0340000  86.6070000  46.5540000  88.1780000  84.8580000  45.3070000
  87.9390000  85.4160000  44.4230000  87.4720000  83.9960000  45.4260000
  89.5390000  84.3560000  44.9470000  89.9240000  83.6440000  45.6670000
  90.3390000  85.1390000  45.0520000  89.6170000  83.6440000  43.6450000
  89.4210000  84.3470000  42.8060000  88.9920000  82.7710000  43.7130000
  90.9320000  83.0500000  43.2500000  91.3770000  82.5640000  44.1520000
  91.7060000  83.7310000  43.0450000  90.8080000  82.0100000  42.0550000
  90.0660000  81.3130000  42.3460000  91.8470000  81.5970000  41.8730000
  90.5140000  82.6190000  40.6830000  91.4540000  83.0460000  40.3670000
  89.6780000  83.3870000  40.7190000  90.2960000  81.4360000  39.8040000
  91.1560000  80.7590000  39.6090000  89.1210000  81.1240000  39.2360000
  89.0600000  80.3200000  38.4730000  87.7320000  81.7950000  39.5200000
  87.8610000  82.7260000  40.0860000  87.0440000  81.2030000  40.0810000
  87.0930000  81.8860000  38.1080000  87.0060000  80.8780000  37.6930000
  87.8460000  82.4380000  37.4710000  85.7780000  82.6260000  38.1170000
  84.9960000  81.9720000  38.6900000  85.4090000  82.7740000  37.0550000
  85.7000000  83.9330000  38.9800000  86.5680000  84.6380000  38.9620000
  85.7140000  83.6340000  40.0550000  84.4500000  84.7900000  38.8830000
  83.6210000  84.2940000  39.4160000  84.2290000  84.9520000  37.8610000
  84.6330000  86.0900000  39.6270000  85.5290000  86.6370000  39.3040000
  84.7950000  85.9630000  40.6990000  83.4630000  87.1150000  39.4650000
  82.5040000  86.5500000  39.5950000  83.4490000  87.4900000  38.4390000
  83.5640000  88.2320000  40.5320000  82.7380000  88.9090000  40.5060000
  84.4930000  88.7360000  40.5370000  83.5800000  87.7280000  41.4970000
  31.4320000  70.0990000  40.4260000  31.4510000  69.6860000  39.4340000
  30.3840000  70.1020000  40.7680000  32.0290000  69.4230000  41.0340000
  31.9460000  71.5350000  40.1170000  32.7450000  71.4250000  39.3370000
  31.1420000  72.1450000  39.7180000  32.6170000  72.1970000  41.3650000
  33.4590000  71.6350000  41.6240000  33.0060000  73.1280000  41.0730000
  31.7220000  72.2970000  42.5990000  30.8720000  72.9690000  42.3170000
  31.3850000  71.2890000  42.7890000  32.3950000  72.7670000  43.9340000
  33.1650000  72.0600000  44.1040000  32.9340000  73.6670000  43.7320000
  31.2250000  72.8570000  44.9870000  30.6120000  73.7010000  44.7820000
  30.5800000  71.9890000  44.8300000  31.4930000  72.9030000  46.4930000
  30.6710000  72.3690000  47.0340000  32.3710000  72.3300000  46.6940000
  31.6600000  74.3060000  47.0230000  32.6350000  74.5560000  46.7800000
  31.0810000  74.9950000  46.4620000  31.2660000  74.3580000  48.5360000
  31.2560000  75.3850000  48.9370000  30.3160000  73.9360000  48.6460000
  32.1740000  73.6690000  49.5620000  31.7120000  73.8960000  50.5720000
  32.1370000  72.6020000  49.5250000  33.6540000  74.1850000  49.3580000
  34.0610000  73.9060000  48.4060000  33.6340000  75.2350000  49.2510000
  34.5180000  73.8750000  50.6020000  34.2250000  74.7760000  51.2550000
  34.2930000  72.8680000  51.0640000  36.0230000  74.0960000  50.2710000
  36.1950000  75.1910000  50.0750000  36.5730000  73.9440000  51.1560000
  36.6400000  73.3670000  49.1080000  36.2530000  73.7460000  48.1420000
  37.6220000  73.6880000  49.0420000  36.7040000  71.8580000  49.2390000
  35.6820000  71.4940000  49.2070000  37.2580000  71.4570000  48.3960000
  37.2200000  71.3080000  50.5410000  38.4070000  71.3660000  50.7960000
  36.3920000  70.7380000  51.4100000  36.8090000  70.0300000  52.5910000
  35.9190000  69.3940000  53.0130000  37.5960000  69.3630000  52.3350000
  37.1410000  71.0510000  53.7250000  38.1820000  71.3870000  53.5270000
  37.1640000  70.2170000  54.9700000  36.4170000  69.4180000  54.9910000
  38.1770000  69.8930000  55.1630000  36.7820000  71.0140000  56.0960000
  36.5280000  70.4440000  57.5100000  35.3390000  69.4060000  57.3290000
  34.2010000  69.7180000  58.1110000  33.5640000  68.8570000  58.2280000
  34.5850000  70.0500000  59.1130000  33.3040000  70.7420000  57.4420000
  32.4750000  70.9980000  58.1290000  33.8590000  71.7050000  57.4170000
  32.7320000  70.4120000  56.1540000  31.6620000  71.4540000  55.9250000
  30.7930000  71.1520000  56.5460000  32.0440000  72.4210000  56.2160000
  31.3900000  71.4340000  54.8660000  33.6910000  70.4550000  55.0460000
  34.2550000  71.3740000  55.0790000  34.3750000  69.6160000  55.2050000
  33.1170000  70.3870000  54.1890000  32.0780000  69.1520000  56.2030000
  32.8200000  68.3740000  56.2760000  31.6470000  69.0420000  55.2290000
  31.2500000  69.0150000  56.8860000  37.6580000  69.6300000  57.8550000
  36.1960000  71.5380000  58.4360000  36.1770000  72.1350000  53.7910000
  36.6130000  73.3210000  54.2830000  37.6970000  73.5330000  54.8530000
  35.6540000  74.4700000  54.0910000  35.2080000  74.6950000  55.0050000
  34.7640000  74.1970000  53.5220000  36.2990000  75.7190000  53.6560000
  36.7530000  75.5100000  52.6670000  37.0930000  75.9710000  54.3450000
  35.2360000  76.8040000  53.5400000  34.9110000  77.0670000  54.5780000
  34.3740000  76.3690000  53.0870000  35.6030000  78.1270000  52.8200000
  36.4540000  78.6470000  53.3230000  34.6540000  78.6740000  52.9990000
  35.7190000  77.8910000  51.3410000  34.8010000  77.3920000  51.0190000
  36.4550000  77.2110000  51.2270000  36.0640000  79.2170000  50.5700000
  37.0380000  79.5540000  50.8920000  35.3250000  79.9610000  50.9940000
  35.9090000  79.0770000  49.0320000  36.2190000  80.0230000  48.6560000
  34.7740000  78.8670000  48.7250000  36.7930000  78.0070000  48.5460000
  37.7980000  78.0950000  48.9120000  36.6350000  77.0210000  47.6720000
  37.5000000  76.4410000  47.4780000  35.3900000  76.8440000  46.7920000
  34.7480000  77.7190000  46.9220000  34.8170000  75.8890000  47.0050000
  35.7340000  76.6560000  45.2650000  36.3460000  75.7350000  45.1150000
  36.1990000  77.5960000  44.8710000  34.4920000  76.5520000  44.4760000
  33.9520000  77.4890000  44.5180000  33.7990000  75.7630000  44.8800000
  34.9260000  76.2250000  42.9800000  35.4070000  75.2550000  42.8940000
  35.6000000  77.0390000  42.6730000  33.6230000  76.3410000  42.1330000
  33.0600000  77.2830000  42.3450000  32.9200000  75.5850000  42.4230000
  33.8580000  76.2520000  40.6080000  32.9170000  76.3010000  40.0730000
  34.2960000  75.2810000  40.4070000  34.6800000  77.4090000  40.0410000
  35.7350000  77.4400000  40.2790000  34.2260000  78.2900000  40.4680000
  34.4860000  77.6080000  38.5630000  33.4710000  77.9000000  38.3250000
  34.6680000  76.5890000  38.0890000  35.1210000  78.3390000  38.1250000
  61.4450000 107.7650000  37.1860000  62.0220000 108.6590000  37.1970000
  60.3520000 108.0160000  37.1720000  61.5700000 107.2230000  36.1710000
  61.7980000 106.7690000  38.3020000  61.3620000 105.7530000  38.1130000
  62.9410000 106.6960000  38.3640000  61.2200000 107.2440000  39.6750000
  60.1690000 107.3470000  39.5910000  61.3770000 106.4260000  40.4070000
  61.9300000 108.4930000  40.3070000  62.9750000 108.1340000  40.5310000
  62.0250000 109.1900000  39.4560000  61.2770000 109.0900000  41.5380000
  60.2790000 109.3740000  41.3920000  61.1310000 108.2580000  42.3540000
  61.9680000 110.3610000  42.0900000  63.0080000 110.1870000  42.3680000
  61.9520000 111.0870000  41.2450000  61.1640000 111.0290000  43.2850000
  61.7780000 111.8410000  43.6770000  60.2290000 111.5010000  43.0170000
  60.7690000 109.9570000  44.3870000  60.2890000 110.4630000  45.1760000
  59.9810000 109.3350000  43.8970000  61.9450000 109.1570000  44.8540000
  62.5240000 108.7160000  44.1180000  62.6180000 109.7720000  45.4800000
  61.4750000 107.9310000  45.7530000  60.5830000 107.5090000  45.2120000
  62.2290000 107.1420000  45.8240000  61.1650000 108.3990000  47.1720000
  61.9630000 109.0800000  47.5980000  60.2380000 108.9490000  47.2320000
  61.1090000 107.2160000  48.1120000  60.2850000 106.5880000  47.7690000
  61.9990000 106.5810000  48.1620000  60.9990000 107.5870000  49.6530000
  60.0260000 107.7770000  50.0910000  61.2100000 106.5980000  50.1320000
  62.0420000 108.6120000  50.2470000  63.0570000 108.2550000  50.0180000
  61.8710000 109.5550000  49.7650000  61.9240000 108.7220000  51.7680000
  62.0000000 107.7740000  52.2850000  62.7530000 109.3040000  52.1190000
  60.6500000 109.3310000  52.2300000  59.6000000 109.3130000  51.6350000
  60.8770000 109.7990000  53.4970000  59.6930000 110.3470000  54.1860000
  59.9930000 111.1620000  54.7080000  58.9730000 110.6680000  53.4040000
  59.0720000 109.2830000  55.1370000  58.4230000 109.8010000  55.8580000
  60.2210000 108.5020000  55.8330000  60.6790000 107.8680000  55.0940000
  60.9750000 109.1670000  56.2040000  59.8140000 107.6090000  56.8460000
  60.9550000 106.7790000  57.6330000  60.6760000 105.2140000  57.2450000
  59.9010000 104.4220000  58.1460000  60.1370000 103.3620000  58.0200000
  59.9850000 104.7530000  59.2030000  58.4070000 104.5880000  57.9970000
  57.8940000 103.8790000  58.6570000  58.1420000 105.6130000  58.3190000
  57.7790000 104.3790000  56.6190000  58.2220000 103.1110000  55.9270000
  59.3030000 102.9310000  56.1610000  57.9100000 102.2200000  56.3010000
  57.9020000 103.1350000  54.8650000  56.2990000 104.2870000  56.7490000
  55.9070000 105.2340000  57.0600000  55.8860000 104.0390000  55.7470000
  56.0280000 103.3950000  57.3920000  58.1080000 105.4730000  55.6000000
  59.0390000 105.2280000  55.1830000  58.0310000 106.4230000  56.0630000
  57.4120000 105.4380000  54.8350000  62.2990000 107.0900000  57.0870000
  60.7410000 107.0970000  59.0350000  58.2330000 108.3510000  54.3970000
  57.0270000 108.8320000  53.9080000  56.6770000 109.9530000  54.1930000
  56.1750000 107.7760000  53.2410000  55.1320000 107.7780000  53.6520000
  56.6120000 106.8250000  53.3060000  56.0160000 108.0720000  51.7390000
  56.9950000 107.8730000  51.2640000  55.6210000 109.0710000  51.4490000
  55.0350000 107.1550000  50.9830000  54.0000000 107.2890000  51.4540000
  55.2540000 106.1320000  51.1710000  55.0600000 107.3130000  49.4930000
  56.1590000 107.3430000  49.2100000  54.5770000 108.2700000  49.3830000
  54.2570000 106.2810000  48.7840000  53.3040000 106.3540000  49.2830000
  54.5700000 105.2830000  49.0010000  54.2060000 106.4220000  47.2540000
  54.3160000 107.4940000  47.0060000  53.2830000 106.0620000  46.9900000
  55.2840000 105.7210000  46.4360000  54.8270000 105.6860000  45.3630000
  55.4170000 104.6650000  46.7960000  56.6060000 106.4330000  46.5040000
  57.0280000 106.8450000  47.3960000  57.2310000 106.7710000  45.3770000
  58.1940000 107.2910000  45.5310000  56.7490000 106.4940000  43.9610000
  56.0480000 107.2890000  43.6950000  56.2430000 105.5230000  43.8970000
  57.7930000 106.5530000  42.8700000  58.4180000 105.7180000  42.9890000
  58.2710000 107.5350000  43.0020000  57.2370000 106.4720000  41.3560000
  56.3760000 105.8490000  41.3290000  58.0320000 106.1880000  40.6610000
  56.5880000 107.7380000  40.8000000  57.1520000 108.5600000  41.1430000
  55.4920000 107.8320000  41.0140000  56.7860000 107.8740000  39.2810000
  56.4320000 106.9840000  38.7930000  57.8310000 107.8940000  39.1650000
  56.3650000 109.2170000  38.5250000  57.1410000 109.9900000  38.6790000
  55.4000000 109.5220000  38.9150000  56.3850000 108.9230000  36.9970000
  55.7200000 108.1080000  36.8100000  57.3810000 108.5660000  36.6570000
  56.0940000 110.2160000  36.1010000  56.8060000 111.0240000  36.3210000
  55.1240000 110.7130000  36.3920000  56.2250000 110.0090000  35.0600000
  50.6310000 108.3670000  37.1290000  50.6830000 107.3790000  36.5890000
  50.9560000 108.1040000  38.1870000  51.3350000 109.0620000  36.6000000
  49.1960000 108.7990000  37.0100000  48.9030000 108.9870000  35.9900000
  48.5190000 108.0190000  37.4430000  48.9410000 110.1090000  37.7050000
  49.4130000 110.0660000  38.6320000  49.2660000 110.9850000  37.1390000
  47.4190000 110.3320000  37.9190000  47.0030000 110.2120000  36.9850000
  47.0210000 109.5450000  38.5110000  47.0060000 111.6750000  38.6020000
  47.6420000 111.8250000  39.5700000  47.2370000 112.4890000  37.9450000
  45.5470000 111.8800000  39.0030000  44.9400000 111.7530000  38.0950000
  45.3290000 111.0140000  39.5550000  45.3510000 113.2880000  39.7030000
  45.8410000 113.9900000  39.0730000  44.2600000 113.5160000  39.8380000
  45.9060000 113.2990000  41.1370000  46.9440000 112.9490000  41.1550000
  45.9180000 114.3450000  41.5540000  45.3090000 112.3670000  42.1100000
  44.2760000 112.5200000  42.0390000  45.5550000 111.3560000  41.8600000
  45.7440000 112.5480000  43.6090000  45.5120000 113.6050000  43.9760000
  45.2020000 111.8780000  44.2880000  47.2320000 112.4120000  43.8170000
  47.7380000 113.1900000  43.2520000  47.4100000 112.4870000  44.9110000
  47.7870000 111.0160000  43.4170000  47.2140000 110.2720000  43.8860000
  47.6360000 110.7000000  42.4040000  49.2550000 110.8630000  43.7860000
  49.7900000 111.7290000  43.3450000  49.4150000 111.0580000  44.8830000
  49.9080000 109.5630000  43.2720000  49.6870000 109.4300000  42.2570000
  50.9910000 109.6420000  43.4240000  49.3940000 108.3390000  44.0590000
  48.2470000 108.2910000  44.1460000  49.6920000 107.4280000  43.5940000
  49.9210000 108.2970000  45.5130000  51.0450000 107.8340000  45.7580000
  49.0880000 108.7590000  46.4820000  49.5920000 108.7030000  47.8220000
  48.8040000 108.7510000  48.5540000  50.1780000 107.7990000  48.0320000
  50.3570000 110.0350000  48.1670000  51.2190000 110.0160000  47.5530000
  50.9400000 109.9430000  49.5980000  50.2490000 109.4410000  50.2350000
  51.9060000 109.3820000  49.6450000  51.1480000 111.2330000  50.2060000
  51.5540000 111.4080000  51.6500000  50.1740000 111.1450000  52.4270000
  49.1340000 112.1530000  52.5230000  49.4990000 113.0980000  52.1490000
  48.2430000 111.9460000  51.8840000  48.7200000 112.3720000  54.0000000
  47.8310000 112.8950000  54.1350000  48.5790000 111.3960000  54.4590000
  49.6360000 113.0970000  54.8560000  48.8530000 113.3060000  56.1110000
  48.6920000 112.3110000  56.5380000  49.4870000 113.9090000  56.8060000
  47.8650000 113.6880000  55.9920000  50.8060000 112.2810000  55.1650000
  51.1770000 112.7350000  56.0870000  50.4520000 111.2480000  55.3130000
  51.4700000 112.2000000  54.3740000  50.0860000 114.3860000  54.3200000
  50.6320000 114.9820000  55.0400000  49.1830000 114.9420000  54.0030000
  50.7590000 114.2220000  53.5240000  52.4240000 110.2990000  52.0810000
  52.0400000 112.7660000  51.8160000  49.4690000 111.1850000  47.9350000
  48.4080000 111.4910000  48.7370000  47.9150000 110.5950000  49.3970000
  47.9490000 112.8540000  48.5490000  47.0130000 113.0640000  49.2310000
  47.6660000 112.8870000  47.5090000  48.9730000 113.8810000  48.8820000
  49.2870000 113.6470000  49.8560000  49.7830000 113.9320000  48.1830000
  48.4510000 115.3990000  48.7770000  49.3340000 116.0670000  48.8180000
  47.7570000 115.5960000  49.5890000  47.6700000 115.7780000  47.5230000
  47.1180000 116.6590000  47.7280000  46.9200000 114.9850000  47.2500000
  48.6070000 115.9530000  46.2920000  49.0900000 115.0230000  46.0160000
  49.3680000 116.7160000  46.3860000  47.7630000 116.3760000  45.0810000
  47.0060000 117.1380000  45.3380000  47.1220000 115.6040000  44.7630000
  48.6700000 116.8290000  43.8830000  49.1380000 117.8130000  44.1170000
  48.0550000 117.0280000  42.9810000  49.7420000 115.7570000  43.5610000
  50.5770000 115.6200000  44.3230000  49.9500000 115.1300000  42.3940000
  50.8960000 114.5760000  42.1980000  48.9230000 114.9430000  41.3680000
  47.9410000 114.8640000  41.8150000  49.0790000 113.9320000  40.9080000
  49.0620000 115.9410000  40.1750000  50.0770000 115.7660000  39.7830000
  48.9660000 116.8880000  40.6240000  48.0120000 115.5900000  39.1220000
  47.0930000 115.3390000  39.6510000  48.3640000 114.7150000  38.5350000
  47.8130000 116.8130000  38.2180000  48.7290000 117.2570000  37.8130000
  47.2850000 117.5250000  38.8790000  46.7970000 116.7840000  36.9990000
  45.7610000 116.4890000  37.2870000  47.2330000 116.1630000  36.2640000
  46.5070000 118.1620000  36.3750000  47.3890000 118.7470000  36.3680000
  45.8080000 118.6180000  37.1080000  45.8880000 118.0870000  34.9660000
  45.5640000 117.0460000  34.8410000  46.6450000 118.1990000  34.1970000
  44.8550000 119.1380000  34.6500000  44.6340000 119.0670000  33.6140000
  45.3050000 120.1000000  34.9800000  43.9040000 118.9780000  35.1870000
  65.7280000 124.0900000  33.5760000  66.7030000 123.6250000  33.7350000
  65.9690000 124.9630000  32.8830000  65.1400000 123.3300000  33.0710000
  65.0720000 124.4340000  34.9320000  65.7890000 125.0500000  35.6060000
  64.2840000 125.0510000  34.7370000  64.5990000 123.2290000  35.8080000
  63.9590000 122.5540000  35.3170000  65.5580000 122.7390000  36.1310000
  63.9420000 123.8500000  37.0520000  64.7930000 124.4430000  37.5270000
  63.0970000 124.4050000  36.6830000  63.4830000 122.8050000  38.0490000
  62.7140000 122.2370000  37.6050000  64.4090000 122.1790000  38.2430000
  62.7300000 123.2220000  39.3010000  62.6810000 122.4150000  40.0180000
  63.2890000 124.0430000  39.7570000  61.2990000 123.7380000  39.1780000
  61.3400000 124.7660000  38.9650000  60.7790000 123.2830000  38.3100000
  60.4590000 123.5460000  40.4880000  59.4310000 123.9790000  40.1880000
  60.4450000 122.4320000  40.6630000  61.0320000 124.1280000  41.8090000
  62.0350000 123.6890000  42.0170000  61.2660000 125.1950000  41.5950000
  60.1270000 123.6950000  42.9730000  59.1630000 124.1130000  42.7500000
  59.9920000 122.6430000  42.9610000  60.7750000 123.9560000  44.3620000
  61.8660000 123.7900000  44.3250000  60.6360000 125.0270000  44.5930000
  60.1130000 123.0670000  45.4290000  59.1170000 123.5200000  45.6510000
  59.9950000 122.0260000  45.0590000  60.9620000 123.0810000  46.7080000
  61.9380000 122.5660000  46.4620000  61.0220000 124.0390000  47.0700000
  60.3420000 122.2460000  47.7730000  60.2360000 121.2290000  47.4000000
  61.0610000 122.3030000  48.6020000  58.9740000 122.6870000  48.4260000
  59.1190000 123.6590000  48.8150000  58.1450000 122.7810000  47.7330000
  58.6000000 121.9210000  49.5920000  58.2020000 120.7510000  49.5160000
  58.7850000 122.5080000  50.8250000  58.4600000 121.5910000  51.9720000
  58.4580000 122.2430000  52.8110000  57.4690000 121.1580000  51.8070000
  59.5170000 120.5030000  52.2050000  59.3520000 119.7440000  51.4960000
  59.4640000 120.0230000  53.6610000  59.8220000 118.9860000  53.6900000
  60.1740000 120.6200000  54.2450000  58.1750000 120.1430000  54.2690000
  57.8670000 121.1240000  55.5050000  58.5150000 120.4510000  56.9150000
  57.7520000 119.5010000  57.6160000  58.3250000 119.2650000  58.5650000
  56.8230000 120.0130000  57.9140000  57.4240000 118.3110000  56.7240000
  56.5990000 117.8130000  57.2280000  57.0880000 118.6140000  55.7720000
  58.3950000 117.1650000  56.5550000  58.2920000 116.2630000  57.7420000
  58.9150000 115.4270000  57.6440000  58.7160000 116.6380000  58.7060000
  57.2340000 115.9990000  57.7910000  57.9010000 116.4160000  55.4100000
  58.2980000 116.9890000  54.5570000  58.3940000 115.4760000  55.3350000
  56.8020000 116.2900000  55.4580000  59.8870000 117.5790000  56.2470000
  59.7370000 118.2490000  55.4950000  60.4640000 116.7590000  55.8930000
  60.2820000 118.0630000  57.1770000  58.6640000 122.3630000  55.3550000
  56.3940000 121.2380000  55.6020000  60.8540000 121.1150000  52.1070000
  61.8180000 120.3700000  51.6720000  61.7790000 119.1700000  51.6770000
  63.0130000 121.1470000  51.2660000  63.5060000 121.3910000  52.2240000
  62.5680000 122.0590000  50.8520000  63.9250000 120.4360000  50.2100000
  64.3440000 119.5680000  50.6460000  64.8020000 121.0140000  50.0780000
  63.2240000 119.9620000  48.8830000  62.7940000 120.8550000  48.4150000
  62.4760000 119.2320000  49.1010000  64.1900000 119.1680000  47.9080000
  64.4470000 118.2020000  48.3280000  65.1120000 119.8030000  47.8510000
  63.7780000 119.0730000  46.3820000  64.5220000 118.5300000  45.8600000
  63.7720000 120.0830000  45.9650000  62.4400000 118.2980000  46.0540000
  61.6060000 118.5770000  46.6500000  62.5150000 117.2710000  46.3830000
  61.9500000 118.3450000  44.5560000  60.9720000 117.8330000  44.5680000
  62.5810000 117.7530000  43.8330000  61.6420000 119.6740000  43.8840000
  60.6720000 119.9720000  44.1920000  62.3450000 120.3080000  42.9630000
  61.9460000 121.2440000  42.5290000  63.6880000 119.8940000  42.4830000
  63.6290000 119.8330000  41.4030000  64.0290000 118.9010000  42.8720000
  64.7970000 120.8990000  42.7220000  65.7920000 120.5070000  42.2700000
  65.0350000 121.0900000  43.7590000  64.6670000 122.3250000  42.1060000
  63.7510000 122.8410000  42.4140000  64.6010000 122.1840000  41.0370000
  65.8440000 123.3300000  42.2690000  66.8390000 122.9660000  41.9710000
  66.0540000 123.4470000  43.3120000  65.5100000 124.7620000  41.6340000
  64.4540000 125.0020000  41.7980000  65.5290000 124.6820000  40.4780000
  66.3540000 125.9540000  42.1020000  66.5090000 126.0140000  43.1600000
  65.8690000 126.8440000  41.8040000  67.8410000 125.7770000  41.6400000
  68.1690000 124.7840000  41.9480000  68.4880000 126.5330000  42.1270000
  68.3050000 125.7890000  40.1700000  69.3270000 125.4010000  40.0400000
  68.2250000 126.8450000  39.8140000  67.5890000 125.2240000  39.5370000
 110.9010000  71.8060000  34.6310000 111.3590000  71.1090000  33.9230000
 109.8270000  71.8790000  34.4810000 111.1240000  71.3070000  35.5290000
 111.6280000  73.1650000  34.5580000 112.6650000  72.9040000  34.9050000
 111.7260000  73.5540000  33.5830000 111.1720000  74.1900000  35.6490000
 110.1810000  74.5630000  35.4590000 111.0220000  73.7760000  36.6260000
 112.1520000  75.3810000  35.6640000 113.1760000  75.0860000  35.6580000
 112.1810000  75.7910000  34.7030000 111.9410000  76.4700000  36.7580000
 112.4390000  77.3310000  36.4240000 110.9080000  76.7330000  36.8700000
 112.5220000  76.0290000  38.1120000 111.6770000  75.5950000  38.6690000
 113.3450000  75.3120000  38.0320000 112.9850000  77.2530000  38.9710000
 113.6580000  77.9030000  38.4460000 112.0700000  77.8210000  39.2930000
 113.7530000  76.7830000  40.3180000 114.6290000  76.3200000  39.9380000
 113.9420000  77.6810000  40.8710000 112.8840000  75.8490000  41.2700000
 111.8860000  76.2620000  41.5420000 112.6350000  74.9350000  40.7840000
 113.8190000  75.4880000  42.4600000 114.6430000  75.0410000  42.0940000
 114.1930000  76.4220000  42.7710000 113.2570000  74.6890000  43.6410000
 112.3200000  75.1910000  43.9820000 113.0100000  73.6170000  43.2440000
 114.2690000  74.5430000  44.8150000 114.3450000  75.5460000  45.3860000
 113.9540000  73.8680000  45.5490000 115.7260000  74.0710000  44.5630000
 116.1210000  74.5940000  43.7190000 116.3780000  74.3210000  45.4630000
 115.8530000  72.6000000  44.1390000 115.3230000  72.5930000  43.2330000
 116.9380000  72.3720000  43.9280000 115.3620000  71.5060000  45.1890000
 114.3480000  71.6520000  45.3730000 115.4060000  70.4890000  44.7010000
 116.1340000  71.6560000  46.4980000 117.1950000  71.1610000  46.7990000
 115.4320000  72.3080000  47.3920000 115.8210000  72.4290000  48.7810000
 114.9620000  72.5410000  49.4530000 116.2920000  71.4560000  49.0540000
 116.8410000  73.5700000  48.9250000 117.6510000  73.5320000  48.1970000
 117.5040000  73.5480000  50.3090000 118.3910000  74.2370000  50.2630000
 116.7550000  74.0170000  51.0100000 117.9600000  72.2350000  50.8090000
 118.8200000  72.0550000  52.1100000 120.1260000  71.2130000  51.7950000
 120.1260000  69.7600000  51.9860000 121.1540000  69.4050000  52.0530000
 119.7550000  69.4450000  52.9870000 119.3690000  69.0160000  50.8230000
 119.4560000  67.9540000  51.0570000 118.2860000  69.1860000  50.8980000
 119.7660000  69.1310000  49.4030000 121.1820000  69.4470000  49.2690000
 121.3040000  70.4870000  49.6780000 121.8060000  68.7500000  49.8760000
 121.4400000  69.4730000  48.2390000 119.3930000  67.9770000  48.6150000
 119.6880000  68.1020000  47.5770000 119.7470000  67.1050000  49.1480000
 118.3100000  67.9470000  48.6000000 119.0350000  70.3580000  48.8410000
 117.9550000  70.1260000  48.7480000 119.5800000  70.6160000  47.9370000
 119.1830000  71.1490000  49.6290000 119.1560000  73.4630000  52.4900000
 117.9460000  71.2640000  53.0020000 116.1650000  74.9170000  48.8660000
 116.5950000  75.9250000  48.1620000 117.5780000  75.9010000  47.4150000
 115.6600000  77.1070000  48.2430000 115.3910000  77.3120000  49.2500000
 114.6890000  76.8860000  47.7800000 116.3890000  78.3870000  47.7550000
 116.6680000  78.2500000  46.7100000 117.2710000  78.3800000  48.3910000
 115.3940000  79.6220000  47.8080000 115.9440000  80.5580000  47.7580000
 114.8350000  79.4640000  48.7080000 114.3120000  79.6370000  46.7170000
 113.5680000  78.8890000  46.8370000 114.8520000  79.5410000  45.7990000
 113.5400000  80.9560000  46.7220000 114.2710000  81.7630000  46.7210000
 112.9810000  80.8190000  47.6650000 112.5820000  81.1250000  45.4930000
 113.1630000  80.7390000  44.6260000 112.5770000  82.1980000  45.2700000
 111.1900000  80.5220000  45.3720000 110.7660000  80.8310000  44.3880000
 110.5400000  80.9420000  46.2360000 111.1970000  78.9910000  45.5630000
 111.6660000  78.6930000  46.5270000 110.6820000  78.0050000  44.7990000
 110.7880000  77.0400000  45.2640000 110.0290000  78.2160000  43.4860000
 110.6110000  77.6040000  42.7810000 110.1140000  79.2300000  43.1840000
 108.5240000  77.8630000  43.4460000 108.4660000  76.8180000  43.3490000
 108.0030000  78.2540000  42.6200000 107.7260000  78.2480000  44.7070000
 107.8960000  77.4160000  45.4330000 106.6620000  78.1310000  44.4760000
 107.8850000  79.6420000  45.3220000 107.8550000  80.2020000  44.4400000
 108.8490000  79.6260000  45.9000000 106.7530000  80.1590000  46.3120000
 107.1760000  81.0270000  46.9840000 106.6720000  79.2880000  47.0660000
 105.3150000  80.3110000  45.7440000 105.0700000  79.4820000  45.1230000
 105.3310000  81.1070000  45.0540000 104.1700000  80.4770000  46.8260000
 104.0090000  79.5590000  47.3390000 103.2430000  80.7530000  46.2890000
 104.3290000  81.6680000  47.8250000 104.9380000  81.4510000  48.7280000
 103.3630000  81.9440000  48.2380000 104.7740000  82.6120000  47.3150000
 117.4730000 128.9290000  32.7750000 117.0110000 128.4360000  31.8320000
 117.8290000 128.2620000  33.5600000 118.3290000 129.5000000  32.4600000
 116.3270000 129.8820000  33.3140000 116.0240000 130.7030000  32.5920000
 115.3900000 129.2620000  33.3560000 116.6020000 130.4920000  34.7150000
 115.6910000 130.6870000  35.3140000 117.0910000 129.7170000  35.3000000
 117.5910000 131.7040000  34.7400000 118.5160000 131.4150000  34.2680000
 117.1320000 132.5660000  34.1420000 117.7310000 132.1640000  36.2140000
 118.3330000 133.0900000  36.2980000 116.8160000 132.2650000  36.7290000
 118.5240000 131.0790000  37.0440000 117.8770000 130.3160000  37.2810000
 119.3900000 130.6430000  36.4940000 119.1000000 131.5060000  38.4230000
 118.3160000 131.6910000  39.1380000 119.6180000 130.6270000  38.7930000
 120.0570000 132.7100000  38.3650000 120.6400000 132.6110000  37.4000000
 119.4630000 133.5700000  38.1650000 121.0560000 132.8920000  39.5970000
 121.9260000 132.1860000  39.4420000 121.4680000 133.8080000  39.5340000
 120.3860000 132.6540000  41.0000000 119.4460000 133.2300000  41.1370000
 120.0710000 131.6200000  40.9470000 121.3960000 132.9490000  42.1060000
 121.6510000 133.9840000  42.1850000 120.8750000 132.6890000  43.0090000
 122.6680000 132.0580000  42.1020000 122.3740000 131.0760000  41.9510000
 123.3090000 132.3140000  41.2420000 123.5210000 132.2130000  43.3590000
 123.6960000 133.2470000  43.4830000 123.0110000 131.6980000  44.1520000
 124.9730000 131.5430000  43.2000000 125.6690000 132.2380000  42.5360000
 125.4880000 131.5520000  44.1720000 124.8160000 130.0380000  42.8150000
 124.1140000 129.9650000  41.9460000 125.7620000 129.6890000  42.4300000
 124.1980000 129.1660000  43.9210000 123.3320000 128.3560000  43.6680000
 124.6920000 129.3690000  45.1630000 124.3400000 128.5120000  46.2760000
 123.6900000 127.7590000  45.9010000 125.2240000 128.0210000  46.6650000
 123.7790000 129.2590000  47.4450000 124.5360000 129.9560000  47.8340000
 123.3890000 128.2290000  48.5540000 122.5900000 128.5430000  49.1710000
 123.0400000 127.2780000  48.0510000 124.5330000 127.8090000  49.3920000
 124.4120000 126.7930000  50.5850000 123.6450000 127.6050000  51.7140000
 124.1520000 128.9660000  52.1020000 124.2620000 129.0450000  53.1970000
 125.0890000 129.1370000  51.6890000 123.2010000 129.9990000  51.6270000
 123.5210000 130.9740000  51.8690000 123.1170000 129.9900000  50.5060000
 121.6920000 129.8850000  52.0130000 121.1140000 131.2710000  51.7710000
 121.5430000 131.8380000  52.5870000 121.4340000 131.5520000  50.7720000
 120.0070000 131.3260000  51.9060000 120.8470000 128.9460000  51.2620000
 119.9390000 128.7940000  51.8040000 120.7610000 129.3650000  50.2880000
 121.5020000 128.0470000  51.2790000 121.4820000 129.6840000  53.5000000
 121.4280000 128.5880000  53.6620000 120.5360000 130.1810000  53.8520000
 122.3570000 130.1150000  54.0680000 123.5060000 125.6850000  50.2510000
 125.7100000 126.5380000  51.2160000 122.5970000 130.0030000  46.9760000
 122.2350000 131.0560000  47.6580000 122.4230000 131.1800000  48.8530000
 121.3290000 131.9680000  46.8680000 120.3690000 131.9830000  47.3940000
 121.0760000 131.4580000  45.9200000 121.9440000 133.3750000  46.7190000
 122.6060000 133.3430000  45.8870000 122.5330000 133.6060000  47.6030000
 120.9220000 134.3900000  46.3810000 120.2050000 134.3620000  47.1930000
 120.3950000 134.1200000  45.4370000 121.4220000 135.8420000  46.2250000
 122.0650000 135.6900000  45.3790000 122.0000000 136.0940000  47.0540000
 120.3960000 136.9590000  45.9160000 119.6290000 137.0920000  46.7010000
 119.8600000 136.7990000  44.8870000 120.9000000 138.4700000  45.9050000
 121.4030000 138.5930000  46.8600000 120.1260000 139.1940000  45.8280000
 121.9700000 138.8000000  44.8380000 121.9860000 139.8320000  44.7330000
 121.6730000 138.5540000  43.8480000 123.3120000 138.2330000  45.1690000
 123.7390000 138.6590000  46.0670000 124.0650000 137.3940000  44.4370000
 125.0200000 137.1920000  44.8320000 123.7330000 136.7330000  43.0610000
 122.7610000 137.0300000  42.6120000 123.6950000 135.5940000  43.1660000
 124.9300000 137.1030000  42.0320000 125.9600000 136.9410000  42.3950000
 124.8310000 138.1490000  41.7690000 124.8280000 136.3330000  40.6600000
 123.7770000 136.0730000  40.5350000 125.3010000 135.3750000  40.7260000
 125.4010000 137.2170000  39.5630000 126.3260000 137.6430000  39.8880000
 124.7540000 138.0890000  39.5700000 125.5380000 136.6930000  38.1530000
 126.0670000 135.7660000  38.0540000 126.2040000 137.3480000  37.5420000
 124.2230000 136.4660000  37.3910000 123.4180000 136.1480000  38.0730000
 124.2950000 135.7580000  36.5480000 123.8660000 137.7880000  36.7340000
 124.6590000 138.2430000  36.1270000 123.6280000 138.4280000  37.6040000
 122.6050000 137.6000000  35.9360000 121.7430000 137.4060000  36.5680000
 122.7670000 136.7750000  35.3010000 122.4080000 138.5380000  35.4070000
  29.6070000  36.6330000  35.0180000  29.9580000  36.0800000  35.9060000
  30.5300000  36.8140000  34.4080000  28.8790000  36.1000000  34.4250000
  28.9400000  37.9270000  35.4550000  29.8310000  38.3890000  35.8720000
  28.5840000  38.4340000  34.5910000  27.8910000  37.7060000  36.5150000
  27.0440000  37.1480000  36.0670000  28.2670000  37.1130000  37.3040000
  27.3150000  38.9940000  37.1470000  26.6770000  39.3530000  36.3840000
  26.6440000  38.5700000  37.8490000  28.2590000  40.1140000  37.7690000
  27.9450000  40.6580000  38.6560000  29.1820000  39.6210000  38.0390000
  28.4970000  41.1360000  36.6310000  29.1250000  40.5710000  35.9070000
  27.5720000  41.4810000  36.1390000  29.2390000  42.3780000  37.1920000
  30.2400000  42.0430000  37.5240000  29.3970000  43.1250000  36.4030000
  28.3980000  43.0900000  38.2190000  28.4970000  42.4700000  39.1370000
  28.9480000  44.1060000  38.3660000  26.8600000  43.2750000  37.9200000
  26.8880000  43.8150000  36.9960000  26.3360000  42.3120000  37.7030000
  26.1430000  43.9630000  39.1600000  26.7040000  44.8980000  39.4410000
  25.1930000  44.2790000  38.8520000  25.8210000  43.0390000  40.3560000
  26.7700000  42.5450000  40.6750000  25.5410000  43.7070000  41.2180000
  24.8190000  42.0020000  40.1160000  23.8580000  42.4260000  39.8680000
  25.0330000  41.4010000  39.2160000  24.5170000  41.1560000  41.3550000
  25.3720000  40.6910000  41.7930000  24.0330000  41.7700000  42.0850000
  23.5880000  40.0180000  40.8700000  22.8480000  40.4260000  40.2290000
  24.1480000  39.2820000  40.3040000  22.8780000  39.3220000  42.1070000
  22.5430000  40.0510000  42.8670000  22.0040000  38.7740000  41.7110000
  23.6950000  38.2300000  42.8560000  23.5690000  37.0550000  42.6620000
  24.6030000  38.6810000  43.6350000  25.3810000  37.8010000  44.4970000
  25.6450000  38.4360000  45.3190000  24.7360000  37.0820000  44.8790000
  26.5370000  37.1120000  43.7460000  26.2450000  36.4650000  42.9220000
  27.2840000  36.1200000  44.6630000  26.5920000  35.3380000  44.9670000
  28.1940000  35.7200000  44.2310000  27.6800000  36.8530000  45.8860000
  27.0220000  36.6960000  47.3380000  27.9380000  35.5790000  47.9560000
  28.2250000  35.6690000  49.3840000  27.6010000  36.3450000  50.0090000
  27.9690000  34.6620000  49.7680000  29.7160000  35.8750000  49.6500000
  29.9190000  35.6670000  50.7430000  30.2300000  35.3160000  48.9120000
  30.3200000  37.1770000  49.3660000  31.7230000  37.1700000  49.8100000
  32.3390000  36.4000000  49.1780000  32.1050000  38.2360000  49.7670000
  31.7930000  36.8130000  50.7870000  30.4840000  37.5180000  47.8970000
  29.5410000  37.8560000  47.4700000  31.2210000  38.2960000  47.8300000
  30.6530000  36.5390000  47.4440000  29.6610000  38.2920000  50.1320000
  30.2440000  39.2420000  49.9640000  29.8260000  38.0710000  51.1640000
  28.5640000  38.3320000  49.9110000  27.1960000  38.0010000  47.9860000
  25.6400000  36.1600000  47.1850000  27.6200000  38.0320000  43.2710000
  27.4260000  38.6610000  42.0880000  26.5590000  38.4200000  41.2270000
  28.3870000  39.7880000  41.9100000  27.9790000  40.6560000  42.4720000
  28.2880000  40.2230000  40.8920000  29.8290000  39.5470000  42.3130000
  29.8840000  39.2300000  43.3690000  30.4260000  40.5180000  42.2500000
  30.3800000  38.3720000  41.4920000  30.4070000  38.7890000  40.5210000
  29.7160000  37.5050000  41.4020000  31.8240000  37.8070000  41.7380000
  31.8580000  37.3060000  42.6900000  32.5840000  38.5610000  41.7610000
  32.0760000  36.7040000  40.6980000  31.7030000  36.9460000  39.7300000
  31.4310000  35.9420000  41.0100000  33.5790000  36.3360000  40.5600000
  34.0470000  36.1160000  41.5040000  33.9790000  37.1520000  40.0570000
  33.6970000  35.0530000  39.7520000  33.1980000  35.4080000  38.8220000
  33.1050000  34.2300000  40.2230000  35.1860000  34.5950000  39.6360000
  35.7090000  34.3850000  40.5490000  35.7680000  34.5950000  38.4570000
  36.8070000  34.1120000  38.4480000  35.2650000  35.0570000  37.1200000
  35.7460000  36.0140000  36.8900000  34.2120000  35.2510000  37.2080000
  35.5540000  33.9840000  36.0330000  34.9260000  33.0830000  36.1390000
  36.6830000  33.6770000  36.1520000  35.2730000  34.4130000  34.5730000
  34.1370000  34.4910000  34.3960000  35.7610000  33.8330000  33.8000000
  35.8030000  35.7930000  34.2480000  36.8640000  35.8480000  34.5380000
  35.3170000  36.6390000  34.7660000  35.5660000  36.1040000  32.7500000
  34.5700000  36.3490000  32.6280000  35.7890000  35.2070000  32.1680000
  36.4010000  37.2900000  32.2380000  37.4790000  37.0470000  32.5040000
  36.0470000  38.1620000  32.7840000  36.3250000  37.5200000  30.7650000
  35.3230000  37.9080000  30.6010000  36.6310000  36.5860000  30.1460000
  37.3740000  38.6410000  30.4040000  37.2610000  39.5520000  31.0080000
  37.3590000  38.8770000  29.3300000  38.3130000  38.1310000  30.7310000
   1.5470000  42.7210000  43.7480000   1.0170000  41.9480000  43.2110000
   2.0940000  43.3030000  43.0710000   0.7410000  43.3360000  44.1510000
   2.3940000  42.2720000  44.9280000   3.4380000  42.0500000  44.6600000
   2.4710000  43.1850000  45.5780000   1.7910000  41.2390000  45.8480000
   0.9230000  41.5320000  46.3600000   1.4670000  40.3890000  45.2350000
   2.8220000  40.7550000  46.8960000   3.6260000  40.2010000  46.3930000
   3.1820000  41.6470000  47.3500000   2.2680000  39.8930000  48.0790000
   3.1180000  39.6070000  48.7710000   1.5910000  40.5880000  48.6380000
   1.3960000  38.7120000  47.7320000   0.6170000  38.9000000  47.0700000
   2.1150000  38.0390000  47.1980000   0.7210000  38.0030000  48.9130000
   0.2200000  38.8200000  49.4400000  -0.0490000  37.3310000  48.5050000
   1.6000000  37.3120000  49.9860000   2.2760000  38.1080000  50.4600000
   0.9750000  37.0200000  50.7720000   2.4280000  36.1160000  49.4700000
   1.9100000  35.3010000  48.9930000   3.2280000  36.4930000  48.7790000
   3.2020000  35.4950000  50.6100000   3.7990000  36.3600000  51.0510000
   2.6080000  35.1650000  51.4450000   4.1880000  34.3750000  50.1140000
   3.6760000  33.5920000  49.5100000   4.9210000  34.8470000  49.4450000
   4.9710000  33.7290000  51.2170000   5.5960000  32.9410000  50.8410000
   5.6960000  34.4740000  51.6340000   4.1480000  33.1510000  52.4110000
   3.3790000  33.8440000  52.8530000   3.4940000  32.2840000  52.1240000
   4.9460000  32.7000000  53.6100000   4.2690000  32.1290000  54.2200000
   5.6020000  31.9880000  53.2640000   5.6010000  33.7740000  54.4850000
   4.9170000  34.6340000  54.5550000   5.8110000  33.3710000  55.4890000
   6.9070000  34.3070000  53.9570000   7.8630000  33.6750000  53.6560000
   6.9290000  35.6620000  53.7640000   7.9870000  36.2780000  52.9770000
   8.8600000  36.5520000  53.5820000   8.2750000  35.5560000  52.1720000
   7.5580000  37.6240000  52.3590000   8.4190000  37.9830000  51.7420000
   7.2260000  38.6850000  53.5410000   6.1670000  38.6420000  53.8840000
   7.8560000  38.3400000  54.4380000   7.5870000  40.0640000  53.1650000
   9.0760000  40.5390000  53.1170000   9.4260000  41.2110000  54.4960000
   9.5260000  42.5520000  54.7620000   9.5660000  43.1260000  53.8100000
   8.6840000  42.7940000  55.4010000  10.8790000  42.9990000  55.4300000
  10.9310000  44.0490000  55.4870000  11.0160000  42.5490000  56.4040000
  12.1300000  42.7610000  54.6350000  13.3730000  43.3150000  55.2770000
  14.1750000  43.2830000  54.5100000  13.1150000  44.3200000  55.5100000
  13.6030000  42.7170000  56.1320000  12.3360000  41.2750000  54.4680000
  11.5490000  40.9230000  53.9570000  13.2610000  41.1190000  53.9960000
  12.2590000  40.7310000  55.3800000  12.1340000  43.4510000  53.3190000
  12.3300000  44.5400000  53.4620000  11.1390000  43.1650000  52.9200000
  12.8660000  42.9270000  52.6580000   9.8640000  39.3000000  53.0150000
   9.2220000  41.6700000  52.1500000   6.3620000  37.5170000  51.5700000
   6.5570000  37.4420000  50.2330000   7.2200000  36.6130000  49.7090000
   5.7960000  38.4390000  49.4560000   4.8580000  38.7120000  49.9360000
   5.4930000  37.8720000  48.5300000   6.5840000  39.7200000  49.1620000
   7.6830000  39.4420000  49.1130000   6.5200000  40.2570000  50.1370000
   6.0110000  40.6180000  48.0030000   5.0690000  41.1030000  48.0600000
   5.9700000  39.9450000  47.1280000   7.1020000  41.7490000  47.7200000
   7.9990000  41.3150000  47.2890000   7.3360000  42.2220000  48.7360000
   6.6180000  42.7500000  46.6800000   5.7410000  43.1290000  47.1360000
   6.3470000  42.2860000  45.7370000   7.6520000  43.9050000  46.5310000
   8.7320000  43.6290000  46.6150000   7.4950000  44.7550000  47.2830000
   7.6330000  44.4280000  45.0730000   7.8650000  43.5850000  44.3530000
   8.4680000  45.1290000  44.9560000   6.3300000  45.0950000  44.8320000
   5.7340000  45.3200000  45.6720000   5.9320000  45.4230000  43.6290000
   5.0650000  46.1310000  43.5270000   6.6730000  45.2000000  42.3420000
   7.6300000  44.7040000  42.5400000   7.0790000  46.1320000  41.9360000
   6.0100000  44.4650000  41.1520000   5.6750000  43.4600000  41.4160000
   6.5750000  44.5230000  40.2080000   4.6700000  45.1250000  40.7250000
   4.8690000  46.1680000  40.4250000   3.9530000  45.1040000  41.6080000
   3.9990000  44.3070000  39.6560000   3.6920000  43.2990000  39.9130000
   4.7230000  44.3470000  38.7570000   2.6630000  45.0530000  39.2000000
   2.8920000  46.0490000  38.9210000   1.8910000  45.0480000  39.9730000
   2.0480000  44.4560000  37.9020000   2.8790000  44.5870000  37.2210000
   1.2660000  45.1050000  37.4100000   1.5000000  43.0270000  38.0970000
   2.2700000  42.2780000  38.4690000   1.1360000  42.6340000  37.1120000
   0.2750000  43.0450000  39.0140000  -0.0030000  42.0200000  39.2530000
  -0.5620000  43.6660000  38.7100000   0.5200000  43.4290000  40.0040000
  21.6090000  47.1940000  41.6330000  22.0260000  46.6990000  42.5470000
  20.7750000  46.5280000  41.2400000  21.2710000  48.1780000  41.9510000
  22.5900000  47.3770000  40.4550000  22.5790000  46.4820000  39.8260000
  22.1870000  48.1450000  39.7670000  24.0400000  47.8520000  40.8120000
  24.5540000  47.8480000  39.9060000  24.0820000  48.8280000  41.2260000
  24.7260000  46.8320000  41.7850000  24.2550000  46.9150000  42.8150000
  24.5830000  45.7500000  41.4380000  26.2530000  47.0480000  41.8320000
  26.6830000  46.1400000  42.3360000  26.5800000  46.8940000  40.8510000
  26.7320000  48.3630000  42.5010000  26.4060000  49.1700000  41.8220000
  26.2160000  48.5570000  43.4160000  28.2240000  48.3230000  42.9020000
  28.7030000  47.9670000  42.0470000  28.6100000  49.3400000  42.9370000
  28.5340000  47.6390000  44.2270000  27.9810000  46.6850000  44.2930000
  29.6030000  47.4260000  44.1530000  28.2870000  48.4630000  45.5130000
  29.1640000  49.2790000  45.5660000  27.3930000  49.0560000  45.3480000
  28.2190000  47.6230000  46.8480000  29.1410000  46.9680000  46.8840000
  28.0630000  48.2360000  47.7320000  27.0040000  46.7480000  46.8680000
  26.0930000  47.3730000  46.7290000  27.1840000  46.0840000  46.0690000
  26.9520000  45.9930000  48.1890000  27.7730000  45.3000000  48.2950000
  27.1360000  46.7070000  49.0030000  25.5830000  45.3370000  48.4250000
  25.3700000  44.7880000  47.4700000  25.7120000  44.6050000  49.2030000
  24.3610000  46.2950000  48.7930000  24.1760000  47.0680000  47.9670000
  23.4690000  45.6000000  48.9860000  24.5800000  47.0100000  50.1370000
  25.2170000  47.8610000  50.0730000  23.6110000  47.4520000  50.3100000
  24.8780000  46.1380000  51.2590000  24.0850000  45.4020000  51.7160000
  26.0850000  46.2560000  51.7330000  26.4870000  45.4240000  52.8250000
  27.4600000  45.8620000  53.2220000  25.7500000  45.5310000  53.6870000
  26.7470000  43.9030000  52.5800000  25.8620000  43.2610000  52.4210000
  27.4570000  43.2810000  53.7700000  28.5220000  43.6680000  53.9060000
  26.8830000  43.5780000  54.6620000  27.2480000  41.8430000  53.7500000
  28.3680000  40.7360000  53.4960000  29.4400000  40.9880000  54.7030000
  30.6530000  40.2870000  54.5600000  31.1150000  40.3520000  55.5020000
  30.4880000  39.2650000  54.2400000  31.6020000  40.9520000  53.5460000
  32.3780000  40.1270000  53.3880000  31.0210000  41.1940000  52.6000000
  32.2470000  42.1990000  53.9130000  33.1680000  42.1920000  55.0830000
  32.5270000  42.0750000  56.0080000  33.8700000  41.3730000  55.0120000
  33.7850000  43.0620000  55.2130000  32.9520000  42.7300000  52.7200000
  32.2290000  42.8900000  51.9190000  33.2860000  43.7760000  52.9550000
  33.7810000  42.0710000  52.4840000  31.2610000  43.2560000  54.2620000
  30.8770000  43.0110000  55.2130000  30.5520000  43.4070000  53.4020000
  31.8390000  44.2060000  54.3980000  27.8700000  39.3840000  53.6580000
  29.0890000  41.0210000  52.2410000  27.5840000  43.8270000  51.5330000
  27.3360000  42.8210000  50.6230000  26.2640000  42.2500000  50.5620000
  28.4880000  42.6040000  49.5680000  29.3990000  42.5260000  50.1900000
  28.6370000  43.4580000  48.9040000  28.4110000  41.3500000  48.6990000
  27.4280000  41.1910000  48.2030000  28.6640000  40.4530000  49.3140000
  29.4070000  41.2010000  47.5690000  29.6600000  40.1630000  47.4960000
  30.3540000  41.6790000  47.8170000  28.9800000  41.6420000  46.1720000
  28.1400000  40.9050000  45.8380000  29.8270000  41.4550000  45.4620000
  28.5030000  43.1310000  46.0360000  29.2470000  43.8350000  46.4930000
  27.5920000  43.3380000  46.6390000  28.1800000  43.4680000  44.5780000
  28.8300000  42.9230000  43.9290000  28.3890000  44.5060000  44.4680000
  26.6840000  43.3430000  44.3410000  26.5150000  43.5190000  43.2270000
  26.2050000  44.0540000  44.9900000  26.2550000  41.9300000  44.6390000
  26.8920000  41.1810000  44.1550000  25.1100000  41.6370000  45.2270000
  24.9080000  40.5820000  45.4700000  24.0440000  42.6170000  45.7790000
  24.3600000  43.6680000  46.0610000  23.6830000  42.1800000  46.6780000
  22.8160000  42.8220000  44.8950000  22.2510000  41.8940000  44.6680000
  23.1800000  43.1400000  43.9090000  21.8640000  43.8840000  45.3780000
  22.4490000  44.8000000  45.7140000  21.3950000  43.5140000  46.3080000
  20.7580000  44.3120000  44.3930000  20.2150000  43.4600000  44.0570000
  21.2560000  44.7720000  43.4770000  19.7670000  45.2220000  45.0190000
  19.4880000  44.8480000  45.9680000  18.8640000  45.2340000  44.4570000
  20.2880000  46.6650000  45.1920000  20.4650000  47.1380000  44.2150000
  21.2930000  46.6160000  45.6770000  19.3850000  47.4710000  46.0560000
  18.3640000  47.0900000  45.8830000  19.3270000  48.5160000  45.9470000
  19.6260000  47.1680000  47.5500000  20.6570000  47.2000000  47.8410000
  19.2830000  46.1740000  47.8880000  18.9310000  47.9000000  48.0480000
  11.5760000  71.4500000  36.0870000  12.4440000  70.7830000  35.8360000
  11.9620000  72.1480000  36.9170000  11.2930000  72.2290000  35.3160000
  10.3730000  70.6610000  36.5430000   9.5720000  71.3080000  36.7210000
  10.0190000  70.0510000  35.6810000  10.6830000  69.7570000  37.8340000
  11.3460000  68.9230000  37.5350000  11.1890000  70.3810000  38.5640000
   9.3870000  69.1820000  38.4350000   8.6830000  69.9620000  38.6480000
   9.0250000  68.5990000  37.6740000   9.4610000  68.3110000  39.6800000
  10.3620000  67.7520000  39.6460000   9.3750000  68.9800000  40.5960000
   8.3290000  67.2320000  39.7500000   8.4780000  66.6050000  38.9140000
   8.5170000  66.6810000  40.6290000   6.8440000  67.7670000  39.8140000
   6.8430000  68.6740000  40.4280000   6.5980000  68.0070000  38.7230000
   5.8320000  66.7860000  40.4090000   6.0070000  65.7320000  40.0670000
   5.8510000  66.8180000  41.4540000   4.5140000  67.3200000  40.1050000
   4.5990000  68.3930000  40.4360000   4.2670000  67.3040000  39.0440000
   3.3140000  66.7670000  40.9530000   3.4930000  67.0240000  42.0120000
   2.3280000  67.2690000  40.6450000   3.0870000  65.3040000  40.8730000
   2.7210000  65.1340000  39.8370000   4.0230000  64.8330000  41.0360000
   1.9810000  64.7600000  41.7770000   1.0340000  65.3410000  41.6220000
   1.8050000  63.7140000  41.4220000   2.2940000  64.7770000  43.3020000
   2.4340000  65.7260000  43.7680000   1.3970000  64.5050000  43.8430000
   3.3930000  63.7270000  43.7530000   3.0710000  62.7750000  43.3830000
   4.3970000  63.8910000  43.3410000   3.6020000  63.5960000  45.2880000
   4.1820000  64.4170000  45.7150000   2.6120000  63.4000000  45.7250000
   4.4460000  62.4210000  45.5190000   4.9680000  61.7490000  44.6400000
   4.6390000  62.1650000  46.8390000   5.4050000  61.0080000  47.3320000
   5.2590000  60.9480000  48.3820000   5.0990000  60.1520000  46.7390000
   6.9360000  61.3200000  47.2510000   7.2580000  61.6090000  46.2810000
   7.7240000  60.0210000  47.5350000   7.4540000  59.2460000  46.8120000
   8.7850000  60.2630000  47.3210000   7.5250000  59.6240000  48.8910000
   7.7760000  58.2080000  49.4800000   6.4960000  57.4090000  48.9560000
   5.1680000  57.7480000  49.4610000   4.9600000  58.7820000  49.4110000
   4.3590000  57.2830000  48.8380000   4.9790000  57.2620000  50.9980000
   5.0310000  56.1790000  51.0800000   5.8300000  57.7570000  51.5030000
   3.7390000  57.6110000  51.7450000   3.6160000  56.9850000  53.0450000
   2.9080000  57.4660000  53.6840000   3.4570000  55.9390000  52.9070000
   4.5680000  57.2530000  53.5240000   3.6110000  59.0620000  51.8500000
   2.7480000  59.4090000  52.4280000   4.5430000  59.2970000  52.3540000
   3.4820000  59.5320000  50.8760000   2.6220000  57.0550000  50.8780000
   2.9060000  55.9740000  50.6120000   2.7450000  57.6560000  49.9440000
   1.6380000  57.0850000  51.4170000   9.0040000  57.6990000  48.8420000
   7.8020000  58.3050000  50.9640000   7.2910000  62.3250000  48.2760000
   7.0520000  63.5830000  47.9830000   6.7520000  64.0180000  46.8940000
   7.2250000  64.5520000  49.1590000   7.9500000  64.2180000  49.8700000
   6.3550000  64.6950000  49.7780000   7.7520000  65.9280000  48.7370000
   7.0620000  66.3690000  47.9810000   8.6740000  65.8010000  48.1500000
   7.9580000  66.8030000  49.9830000   8.5020000  66.2590000  50.6880000
   6.9990000  67.1470000  50.3910000   8.8620000  67.9740000  49.6250000
   9.8570000  67.5820000  49.3510000   8.9470000  68.6370000  50.4780000
   8.3050000  68.8080000  48.4620000   7.3150000  69.1420000  48.6600000
   8.2720000  68.2080000  47.5290000   9.1940000  69.9620000  48.3610000
  10.2850000  69.6900000  48.2730000   9.0640000  70.5630000  49.2080000
   8.8150000  70.8330000  47.1240000   7.8280000  71.0670000  47.2080000
   8.8630000  70.1130000  46.2430000   9.7420000  72.0630000  47.1550000
   9.7080000  72.5920000  48.0890000  10.4130000  72.5430000  46.1070000
  11.0130000  73.4790000  46.1530000  10.5210000  71.8940000  44.7290000
   9.7260000  71.2390000  44.6340000  11.4990000  71.4000000  44.7060000
  10.4690000  72.9830000  43.6310000  11.3840000  73.5480000  43.7330000
   9.6540000  73.7390000  43.8030000  10.2680000  72.4310000  42.2340000
   9.9230000  73.2470000  41.6600000   9.4520000  71.7920000  42.1450000
  11.5170000  71.9890000  41.4780000  11.2840000  72.2720000  40.4190000
  11.5690000  70.8760000  41.5560000  12.8620000  72.6890000  41.9030000
  13.0090000  72.3710000  42.8760000  12.8240000  73.6780000  41.7040000
  14.0820000  72.0790000  41.1440000  14.2180000  71.0880000  41.4110000
  14.9720000  72.6780000  41.3890000  14.0200000  72.0860000  39.5870000
  13.0960000  71.7890000  39.2330000  14.8080000  71.5200000  39.2010000
  14.1980000  73.5790000  39.0650000  15.1510000  74.0270000  39.4100000
  13.3680000  74.1130000  39.4970000  14.1250000  73.7530000  38.0010000
  96.7400000 111.5880000  40.1920000  96.5920000 111.3260000  39.1290000
  97.6560000 111.0960000  40.4270000  97.0000000 112.5720000  40.3900000
  95.6310000 111.0320000  41.0930000  94.6780000 111.3840000  40.6340000
  95.5550000 109.8600000  41.0220000  95.7950000 111.3950000  42.6150000
  95.0730000 110.7440000  43.0850000  96.7580000 111.0610000  42.8900000
  95.4380000 112.8760000  42.9590000  96.1520000 113.4630000  42.3650000
  94.3730000 113.0810000  42.7010000  95.6510000 113.0920000  44.4620000
  94.9190000 112.5160000  45.0380000  96.6740000 112.8240000  44.7840000
  95.2680000 114.5330000  44.9290000  95.9500000 115.1610000  44.2870000
  94.2590000 114.7870000  44.6390000  95.6270000 114.8490000  46.3630000
  96.4410000 114.2630000  46.6970000  95.8230000 115.9240000  46.3800000
  94.4380000 114.5010000  47.3400000  94.4020000 115.0500000  48.2570000
  93.4930000 114.6450000  46.8360000  94.4860000 113.0460000  47.7970000
  94.4980000 112.3070000  46.9650000  95.3470000 112.7630000  48.4080000
  93.2570000 112.8060000  48.7640000  93.3510000 113.5030000  49.5950000
  92.2960000 113.0220000  48.1490000  93.2140000 111.4010000  49.3060000
  94.1690000 111.2480000  49.8760000  92.4240000 111.3280000  50.0150000
  93.1150000 110.2980000  48.2620000  92.2950000 110.5350000  47.6190000
  94.0200000 110.3950000  47.7230000  93.0500000 108.8570000  48.8660000
  93.8550000 108.6930000  49.5160000  92.1990000 108.8790000  49.5850000
  92.9750000 107.7680000  47.8150000  93.7770000 107.9350000  47.0790000
  93.3340000 106.8700000  48.3170000  91.6650000 107.5950000  47.0860000
  91.5600000 108.4810000  46.4500000  91.8210000 106.7690000  46.3360000
  90.5540000 107.2320000  48.0000000  90.1870000 106.1490000  48.2510000
  89.9300000 108.2940000  48.5410000  88.7250000 108.1420000  49.2970000
  88.2010000 109.0760000  49.2040000  88.1250000 107.3430000  48.8800000
  88.9390000 107.8850000  50.7410000  89.3210000 106.8650000  50.8470000
  87.5410000 108.1390000  51.3550000  87.4800000 107.9580000  52.3970000
  87.1760000 109.1460000  51.1580000  86.5400000 107.2630000  50.7720000
  86.0960000 105.8920000  51.5670000  85.1550000 106.4120000  52.7350000
  84.1130000 107.3900000  52.4660000  83.7730000 107.8510000  53.4460000
  84.4450000 108.2270000  51.8470000  82.9470000 106.6450000  51.8010000
  82.2840000 107.3980000  51.3510000  83.3000000 106.0020000  51.0000000
  82.0490000 105.7140000  52.5890000  80.7540000 105.4240000  51.8690000
  80.2010000 106.3740000  51.8700000  81.0930000 105.2790000  50.9140000
  80.2150000 104.5500000  52.2620000  82.8870000 104.4640000  52.7880000
  82.2610000 103.6850000  53.1590000  83.2790000 104.2110000  51.7940000
  83.6670000 104.6880000  53.4680000  81.6670000 106.2070000  53.9140000
  82.6720000 106.4550000  54.3400000  81.1520000 105.4640000  54.4440000
  81.1720000 107.0760000  53.6960000  85.2550000 105.0360000  50.7250000
  87.3280000 105.3560000  52.1670000  89.7080000 108.9140000  51.3980000
  90.6250000 108.4540000  52.3430000  90.7550000 107.3250000  52.6950000
  91.4240000 109.6270000  52.8750000  90.8300000 110.2370000  53.4980000
  91.6770000 110.2820000  52.0270000  92.7000000 109.3120000  53.5980000
  92.4980000 108.6560000  54.5060000  92.9910000 110.3000000  54.0750000
  93.9090000 108.8390000  52.7500000  94.7450000 108.7980000  53.3750000
  94.0720000 109.5640000  51.9750000  93.6510000 107.4680000  52.1570000
  92.9310000 107.5450000  51.3980000  93.1380000 106.7960000  52.8940000
  94.8370000 106.6990000  51.4720000  95.6170000 106.4800000  52.2640000
  95.4080000 107.3240000  50.7820000  94.1940000 105.3680000  50.8900000
  93.3180000 105.7330000  50.3340000  93.8610000 104.7700000  51.7720000
  95.1540000 104.5500000  50.0560000  96.1280000 104.3820000  50.4320000
  95.3500000 105.1590000  49.2010000  94.5830000 103.1810000  49.8110000
  94.6790000 102.4710000  50.6880000  93.7830000 102.9150000  48.8190000
  93.2410000 101.9770000  48.7920000  93.2770000 103.8420000  47.8060000
  93.7790000 104.8020000  47.8130000  92.2000000 104.0120000  48.0320000
  93.3020000 103.2110000  46.4490000  92.5590000 102.4740000  46.4290000
  94.2980000 102.7560000  46.3240000  93.0020000 104.2010000  45.2460000
  93.9540000 104.7430000  44.9780000  92.1060000 104.7480000  45.5090000
  92.7780000 103.3710000  43.9590000  92.1450000 103.8650000  43.2400000
  92.1560000 102.5270000  44.2340000  94.0320000 102.9170000  43.2270000
  94.4450000 102.1200000  43.8150000  94.6820000 103.7320000  43.1020000
  93.6150000 102.2730000  41.9400000  92.9650000 102.8780000  41.2940000
  93.0580000 101.4410000  42.3080000  94.7690000 101.7510000  41.1290000
  95.3920000 101.1570000  41.7600000  95.2730000 102.6250000  40.7610000
  94.4070000 100.9000000  39.8940000  95.3510000 100.4540000  39.4760000
  93.7590000 101.5220000  39.1990000  93.7530000 100.0470000  40.1560000
  92.8330000  38.4430000  41.4930000  93.2020000  38.6980000  40.5280000
  92.7060000  37.3600000  41.4520000  93.5860000  38.7710000  42.2110000
  91.4390000  39.0700000  41.6200000  91.5820000  40.1790000  41.8550000
  90.8230000  39.1680000  40.7350000  90.4860000  38.3060000  42.5480000
  90.9900000  38.4000000  43.4660000  89.4850000  38.7570000  42.7360000
  90.2290000  36.8360000  42.1870000  89.5830000  36.6970000  41.2900000
  91.2290000  36.3040000  42.0360000  89.4860000  36.0750000  43.2460000
  90.2040000  36.1670000  44.1190000  88.4450000  36.5240000  43.4450000
  89.1900000  34.6530000  42.7730000  88.4920000  34.7750000  41.9950000
  90.1130000  34.2510000  42.4310000  88.5500000  33.8410000  43.8670000
  87.5790000  34.2280000  44.1200000  88.2680000  32.8590000  43.4300000
  89.3930000  33.5260000  45.1290000  90.3740000  33.3750000  44.7980000
  89.3030000  34.3990000  45.7790000  88.9390000  32.1990000  45.7620000
  87.9360000  32.4100000  46.2090000  88.7620000  31.4550000  44.9300000
  89.8740000  31.6480000  46.8760000  89.8960000  32.2330000  47.8050000
  89.5750000  30.7100000  47.2350000  91.3820000  31.4430000  46.4980000
  91.7680000  32.3900000  46.0610000  91.9850000  31.1910000  47.4070000
  91.5300000  30.3380000  45.4730000  90.9630000  29.3860000  45.6990000
  90.9290000  30.5780000  44.5900000  92.9890000  30.2120000  44.8930000
  93.2370000  31.2100000  44.4350000  93.6950000  30.0400000  45.7780000
  93.1400000  29.1430000  43.8460000  92.5400000  29.3810000  43.0410000
  94.0960000  29.1390000  43.4610000  92.8950000  27.7220000  44.3030000
  91.8070000  27.6410000  44.6260000  92.9750000  27.0930000  43.4360000
  93.8660000  27.2510000  45.3040000  94.9600000  26.8410000  45.0420000
  93.2860000  27.4020000  46.5150000  93.9790000  27.0970000  47.7090000
  93.3680000  27.2910000  48.5630000  94.1290000  26.0270000  47.7850000
  95.3080000  27.8640000  47.8930000  96.0530000  27.5580000  47.1680000
  95.8150000  27.5490000  49.3560000  96.2120000  26.5340000  49.3180000
  96.6230000  28.2380000  49.5580000  94.8990000  27.6480000  50.4910000
  94.3870000  29.0150000  51.2410000  92.8250000  28.8820000  51.0130000
  92.0870000  29.5450000  49.8820000  91.6120000  30.4150000  50.3030000
  92.8120000  29.8700000  49.1350000  91.1070000  28.5400000  49.3640000
  90.7530000  28.8820000  48.3820000  91.5820000  27.5910000  49.4030000
  89.8830000  28.4230000  50.2800000  88.8750000  27.5310000  49.5620000
  88.6170000  27.9200000  48.5690000  89.3380000  26.5530000  49.4410000
  87.9670000  27.5640000  50.1090000  90.2670000  27.8430000  51.6690000
  90.7470000  28.5320000  52.3210000  89.3090000  27.4550000  52.0340000
  90.9400000  27.0100000  51.4220000  89.1420000  29.6950000  50.4110000
  88.8190000  30.0620000  49.4610000  89.6880000  30.5630000  50.8120000
  88.2430000  29.5170000  50.9960000  94.7310000  28.8480000  52.6370000
  94.8470000  30.2290000  50.5670000  95.0460000  29.2730000  47.8570000
  96.1320000  30.0260000  47.7680000  97.2530000  29.5810000  47.5610000
  95.7290000  31.4920000  47.8140000  95.7420000  31.8640000  48.8450000
  94.6250000  31.5770000  47.6200000  96.5600000  32.4200000  46.8460000
  97.6170000  32.4080000  47.1400000  96.1090000  33.4310000  47.0450000
  96.3630000  32.2570000  45.3310000  96.8860000  33.0640000  44.9090000
  95.3640000  32.1970000  45.0770000  97.0460000  31.0120000  44.7920000
  96.5290000  30.2080000  45.3790000  98.1110000  31.0200000  45.1060000
  96.8240000  30.8000000  43.2710000  96.9760000  31.6630000  42.6130000
  95.7000000  30.5550000  43.1870000  97.6380000  29.6150000  42.6840000
  97.6320000  28.7480000  43.3480000  98.6690000  29.8600000  42.5760000
  97.0620000  29.2520000  41.2930000  95.9960000  29.0060000  41.4110000
  97.5220000  28.2760000  40.9950000  97.3170000  30.3570000  40.2800000
  98.2630000  30.9010000  40.3920000  96.4460000  30.7340000  39.3480000
  96.6320000  31.5650000  38.7410000  95.0230000  30.1960000  39.0990000
  94.6280000  30.0380000  40.1160000  95.1380000  29.2100000  38.6110000
  94.1430000  31.1440000  38.2500000  93.1290000  30.6870000  38.1060000
  94.5240000  31.2270000  37.2380000  93.9070000  32.4720000  38.8890000
  94.9230000  32.8630000  38.8690000  93.5000000  32.2470000  39.8730000
  93.0300000  33.3800000  37.9670000  91.9290000  33.1130000  37.9650000
  93.3850000  33.4030000  36.9550000  93.0880000  34.7860000  38.5370000
  94.1000000  35.1530000  38.3540000  93.0710000  34.7470000  39.6500000
  91.9630000  35.6200000  37.9640000  90.9270000  35.3450000  38.4270000
  91.8980000  35.2800000  36.9440000  92.3180000  37.0980000  38.1200000
  93.2220000  37.3120000  37.5160000  92.6070000  37.3950000  39.1410000
  91.2120000  37.9930000  37.4960000  91.5730000  39.0260000  37.3350000
  90.4700000  37.9990000  38.2550000  90.7120000  37.5670000  36.6050000
  61.0860000 112.5240000  35.5200000  61.5620000 113.4930000  35.5850000
  60.0210000 112.7460000  35.3080000  61.5010000 112.0380000  34.6250000
  61.4010000 111.8050000  36.8280000  61.0940000 110.8610000  36.6780000
  62.4880000 111.7270000  36.9070000  60.6790000 112.3430000  38.1330000
  60.9860000 111.6720000  38.9230000  61.0600000 113.3100000  38.4090000
  59.1720000 112.4440000  37.9160000  59.1590000 113.2970000  37.2200000
  58.7590000 111.5740000  37.4420000  58.3760000 112.7460000  39.2040000
  57.3200000 112.8260000  39.0370000  58.4470000 111.8520000  39.9020000
  58.8040000 113.9800000  40.0260000  59.8500000 113.9320000  40.3080000
  58.7060000 114.9330000  39.5130000  57.8240000 114.1230000  41.2380000
  56.8180000 113.8140000  40.9350000  58.0690000 113.3700000  41.9930000
  57.8540000 115.5060000  41.9090000  57.6170000 116.2290000  41.1080000
  57.0010000 115.5780000  42.6200000  59.0800000 115.9180000  42.6610000
  59.8660000 115.9430000  41.8600000  58.9890000 117.0240000  42.9450000
  59.6890000 115.0550000  43.7940000  60.0900000 114.0590000  43.3780000
  60.5650000 115.5580000  44.2240000  58.7810000 114.7460000  44.9740000
  57.7630000 114.6220000  44.5600000  59.0650000 113.7980000  45.3830000
  58.7390000 115.7420000  46.1780000  59.7170000 116.1450000  46.4620000
  58.1840000 116.6180000  45.8180000  58.0850000 115.1620000  47.5030000
  57.1420000 114.6300000  47.2290000  58.7340000 114.4800000  48.0160000
  57.5250000 116.2350000  48.3760000  56.7330000 116.8110000  47.9810000
  57.0520000 115.6820000  49.2110000  58.5470000 117.3650000  48.8190000
  58.7620000 117.9670000  47.9060000  58.1100000 118.0400000  49.5760000
  59.7580000 116.6480000  49.3430000  60.7850000 116.8870000  48.7780000
  59.6020000 115.8190000  50.3600000  60.7900000 115.1000000  50.9220000
  61.4810000 114.7650000  50.1140000  61.3360000 115.8080000  51.6310000
  60.2670000 113.8290000  51.6000000  59.3850000 114.0500000  52.2410000
  61.2880000 113.1990000  52.4780000  61.4320000 112.1460000  52.1870000
  62.2140000 113.7330000  52.3970000  60.8550000 113.2260000  53.8560000
  61.3670000 114.3380000  54.8880000  62.9510000 114.0950000  55.0150000
  63.5090000 113.1360000  55.8610000  64.6250000 113.3390000  56.0080000
  63.0430000 113.2370000  56.8880000  63.3190000 111.6900000  55.2990000
  62.2430000 111.4500000  55.2920000  63.7220000 111.6160000  54.3070000
  63.8640000 110.5720000  56.1910000  63.6360000 109.3250000  55.2740000
  63.8910000 108.3940000  55.8670000  62.6930000 109.4490000  54.8240000
  64.4330000 109.3410000  54.5710000  65.3910000 110.6100000  56.3480000
  65.7920000 111.3070000  57.1110000  65.7730000 109.5870000  56.5510000
  65.8060000 110.9990000  55.3800000  63.1040000 110.2860000  57.4290000
  62.1020000 109.8690000  57.3640000  62.9840000 111.1940000  58.0620000
  63.7470000 109.4920000  57.8680000  61.1080000 115.6540000  54.2390000
  60.7660000 114.0060000  56.1960000  59.8610000 112.8270000  50.6290000
  58.5800000 112.5710000  50.3830000  57.6000000 113.1560000  50.8100000
  58.5430000 111.4780000  49.3210000  58.9910000 110.6190000  49.7750000
  59.1140000 111.7780000  48.4370000  57.0440000 111.0850000  48.9890000
  56.4150000 111.9790000  48.6280000  56.6140000 110.5690000  49.8310000
  57.0620000 109.9650000  47.9540000  56.0230000 109.5900000  47.8540000
  57.7370000 109.1190000  48.1920000  57.5350000 110.5060000  46.6060000
  57.5850000 109.6380000  45.9840000  58.5620000 110.9710000  46.6460000
  56.4740000 111.5480000  46.0920000  56.5700000 112.5310000  46.6550000
  55.4400000 111.1080000  46.3630000  56.5820000 111.8210000  44.5600000
  57.5850000 112.2090000  44.2650000  55.9750000 112.6910000  44.2660000
  56.2920000 110.6030000  43.6610000  55.3000000 110.1660000  43.7880000
  56.9930000 109.8190000  43.8500000  56.3130000 110.9630000  42.1660000
  57.2940000 110.9570000  41.7110000  55.2580000 111.1930000  41.3650000
  55.4120000 111.3180000  40.3080000  53.8220000 111.3830000  41.8900000
  53.8920000 111.6880000  42.9540000  53.2500000 110.4590000  41.8340000
  53.1020000 112.5680000  41.2400000  53.7030000 113.5270000  41.3200000
  52.1950000 112.7100000  41.8400000  52.5040000 112.3820000  39.7360000
  51.9270000 113.2660000  39.6090000  51.8000000 111.5270000  39.6770000
  53.6300000 112.3760000  38.7530000  54.1550000 111.4290000  38.9250000
  54.3620000 113.1840000  38.7870000  53.1350000 112.3660000  37.3040000
  52.5780000 111.4770000  37.1750000  53.9680000 112.3950000  36.6840000
  52.1360000 113.5200000  36.9280000  52.6510000 114.5120000  37.0820000
  51.2650000 113.4560000  37.5830000  51.6400000 113.4190000  35.4490000
  50.8010000 112.6880000  35.3690000  52.4050000 112.9280000  34.8250000
  51.0420000 114.7640000  34.8730000  50.2590000 114.9510000  35.6320000
  50.5850000 114.5690000  33.8690000  51.7370000 115.6040000  34.7530000
  59.0910000 133.3540000  34.2740000  58.9530000 133.9720000  33.3830000
  58.1440000 133.4570000  34.8040000  59.1630000 132.3130000  34.0320000
  60.2800000 133.7400000  35.1480000  61.2610000 133.3160000  34.8380000
  60.4060000 134.8660000  34.9960000  60.0150000 133.4540000  36.6520000
  59.5320000 132.4680000  36.6320000  60.9590000 133.4180000  37.2480000
  59.1290000 134.3790000  37.3560000  58.1640000 134.3670000  36.9570000
  59.0060000 134.0390000  38.3960000  59.5890000 135.8420000  37.4010000
  60.6500000 135.9530000  37.8530000  59.6410000 136.2960000  36.4220000
  58.6290000 136.6130000  38.3770000  57.6460000 136.5270000  38.0760000
  58.6190000 136.1640000  39.3610000  59.0150000 138.1390000  38.4110000
  60.0830000 138.2220000  38.4740000  58.7000000 138.4590000  37.3690000
  58.3870000 139.0000000  39.5100000  58.5400000 138.5370000  40.4940000
  58.8530000 139.9990000  39.4200000  56.9030000 139.1340000  39.1950000
  56.7830000 139.5870000  38.2130000  56.5040000 138.0910000  39.1850000
  56.2570000 140.0810000  40.2000000  56.6820000 141.0510000  39.9920000
  55.2000000 140.1550000  39.8840000  56.2800000 139.6660000  41.6590000
  57.3030000 139.5110000  41.8890000  55.8910000 140.4470000  42.2780000
  55.4900000 138.3880000  42.0280000  54.5220000 138.3550000  41.5320000
  55.9790000 137.4360000  41.7740000  55.0790000 138.2340000  43.5220000
  54.5810000 139.2000000  43.8180000  54.3640000 137.3850000  43.6540000
  56.2730000 137.9780000  44.5830000  57.0540000 138.7030000  44.4690000
  55.8800000 138.2000000  45.6940000  56.7360000 136.5300000  44.5820000
  55.7350000 135.9940000  44.6440000  57.1380000 136.2420000  43.6830000
  57.6830000 136.1910000  45.7020000  58.7020000 136.8020000  45.8920000
  57.3850000 135.1030000  46.4880000  58.0720000 134.7840000  47.7050000
  57.9590000 133.6950000  47.8740000  59.0470000 134.9570000  47.5550000
  57.4130000 135.4090000  48.8910000  57.8410000 134.9960000  49.7400000
  55.8800000 135.0530000  49.0100000  55.3340000 135.5780000  48.2240000
  55.8900000 133.9740000  48.9120000  55.3660000 135.4370000  50.3130000
  55.7180000 134.6520000  51.6050000  54.3640000 134.0250000  51.9750000
  53.8410000 132.7610000  51.5050000  53.0500000 132.9560000  50.8090000
  54.5400000 132.1040000  51.0170000  53.2350000 132.0740000  52.7350000
  54.0900000 131.7160000  53.3430000  52.6190000 132.8080000  53.2880000
  52.3180000 130.8580000  52.5980000  51.8940000 130.4440000  53.9200000
  51.0720000 129.7130000  53.9090000  52.6490000 129.9680000  54.3250000
  51.6150000 131.4050000  54.4550000  51.1660000 131.1170000  51.7460000
  51.4680000 131.4540000  50.7260000  50.5010000 130.2350000  51.7580000
  50.6370000 131.9840000  52.1240000  53.1490000 129.7550000  51.9930000
  53.3770000 129.9390000  50.9770000  52.6320000 128.7650000  51.9560000
  54.0190000 129.6640000  52.6440000  56.6260000 133.5740000  51.2300000
  56.1080000 135.6480000  52.6270000  57.3810000 136.8500000  48.8570000
  57.9950000 137.5560000  49.8000000  58.9050000 137.0860000  50.4630000
  57.4570000 138.9570000  50.0100000  56.7630000 139.2280000  49.2670000
  58.2970000 139.6730000  50.0610000  56.9000000 139.1350000  51.3300000
  57.6770000 139.1150000  52.1120000  56.1750000 138.3820000  51.5530000
  56.1940000 140.5150000  51.4180000  55.6970000 140.6740000  52.4020000
  55.3870000 140.4730000  50.6870000  57.1390000 141.7420000  51.2460000
  56.5240000 142.6530000  51.1680000  57.6590000 141.7760000  50.3000000
  58.1280000 141.9580000  52.4130000  57.6340000 141.7540000  53.3510000
  58.3610000 143.0450000  52.4440000  59.6100000 141.3500000  52.2440000
  59.5050000 140.3600000  51.7960000  60.0040000 141.3240000  53.2150000
  60.6210000 142.1890000  51.4940000  60.7580000 143.1440000  52.0330000
  60.1790000 142.3160000  50.4810000  61.8490000 141.3360000  51.3730000
  62.3340000 141.1030000  52.3650000  62.4770000 141.1720000  50.1750000
  63.4600000 140.6720000  50.1570000  62.0430000 141.8060000  48.8470000
  63.0220000 141.8030000  48.2470000  61.6690000 142.8130000  49.0120000
  61.0130000 140.8370000  48.1760000  60.1390000 140.8730000  48.7480000
  61.3610000 139.8110000  48.1220000  60.7100000 141.3750000  46.7770000
  61.5960000 141.5100000  46.2120000  60.2210000 142.3890000  46.8200000
  59.6650000 140.4550000  46.0950000  58.7500000 140.5430000  46.6480000
  59.9700000 139.4130000  46.2430000  59.3380000 140.8960000  44.6940000
  59.5060000 141.8890000  44.6600000  58.2620000 140.5990000  44.5270000
  60.1570000 140.2120000  43.5670000  61.1660000 140.3950000  43.7430000
  59.8870000 140.6900000  42.5730000  60.0910000 138.6870000  43.3210000
  59.1210000 138.3700000  43.0790000  60.3950000 138.1770000  44.2960000
  60.9290000 138.2440000  42.1960000  60.7260000 137.2040000  41.9260000
  61.9940000 138.4040000  42.3640000  60.6450000 138.8380000  41.3160000
  65.7950000  90.4070000  52.2310000  66.8000000  90.5860000  52.6600000
  65.5160000  91.0050000  51.2960000  65.6890000  89.3920000  51.9880000
  64.7660000  90.6730000  53.3370000  64.9100000  89.8800000  54.0480000
  65.0080000  91.5300000  53.8560000  63.3040000  90.8010000  52.9090000
  63.3330000  91.7290000  52.2670000  62.9270000  90.0170000  52.3050000
  62.3330000  90.9840000  54.0770000  61.3190000  90.8490000  53.6980000
  62.5020000  90.1510000  54.7650000  62.5390000  92.1970000  54.9280000
  61.8570000  92.1590000  55.6800000  63.5350000  92.1610000  55.3700000
  62.3360000  93.6090000  54.4200000  62.6730000  94.3160000  55.1080000
  62.8790000  93.8460000  53.4700000  60.8340000  93.8780000  54.2920000
  60.3860000  93.0810000  53.6380000  60.2440000  93.8190000  55.2610000
  60.6080000  95.1940000  53.5430000  61.1720000  95.1930000  52.5850000
  59.6010000  95.2840000  53.3810000  61.1240000  96.4560000  54.2500000
  62.2290000  96.3870000  54.5340000  61.0380000  97.2890000  53.6170000
  60.3770000  96.9370000  55.4700000  59.3350000  97.0850000  55.2660000
  60.4120000  96.2300000  56.3090000  60.9190000  98.1940000  56.0870000
  61.9590000  97.9860000  56.3080000  60.9410000  99.0820000  55.3800000
  60.1250000  98.6690000  57.3200000  59.8230000  97.8110000  57.9600000
  60.6120000  99.4520000  57.8240000  58.8000000  99.2740000  56.8620000
  58.8700000  99.9670000  56.0160000  58.1620000  98.4580000  56.5740000
  58.1650000 100.0050000  58.0310000  58.2740000  99.5060000  58.9570000
  58.7170000 100.9210000  58.2390000  56.6420000 100.1980000  57.8040000
  56.3980000 100.8000000  56.9120000  56.2180000  99.1890000  57.6850000
  55.9680000 101.0650000  58.8390000  56.4630000 102.1120000  59.2490000
  54.8340000 100.5280000  59.2480000  53.9820000 101.2470000  60.2020000
  53.4310000 100.5370000  60.8660000  54.6820000 101.8160000  60.8560000
  52.9480000 102.1940000  59.4700000  53.5680000 103.0960000  59.2810000
  51.8380000 102.5650000  60.4210000  51.2820000 101.6780000  60.6990000
  52.3100000 102.8800000  61.2530000  50.9350000 103.6640000  59.9930000
  49.6110000 103.4130000  59.0540000  49.9920000 103.7990000  57.5560000
  50.0770000 105.1280000  57.0460000  49.5030000 105.7880000  57.7330000
  51.1580000 105.4660000  56.9560000  49.2950000 105.2060000  55.6850000
  49.0520000 106.2390000  55.4920000  49.8880000 104.9000000  54.8550000
  47.9960000 104.5120000  55.5060000  47.2340000 105.0850000  54.3550000
  46.9790000 106.1220000  54.6680000  47.8560000 105.2100000  53.5150000
  46.3990000 104.3260000  54.1800000  48.2360000 103.0780000  55.2470000
  47.2550000 102.5890000  55.2290000  48.7600000 103.0560000  54.3420000
  48.8750000 102.7260000  56.0740000  47.0670000 104.6760000  56.6810000
  46.1710000 104.2110000  56.3420000  46.9560000 105.8080000  56.9010000
  47.3940000 104.0420000  57.4970000  49.2900000 101.9440000  59.1030000
  48.4590000 104.2830000  59.3510000  52.2990000 101.7520000  58.3220000
  52.9410000 101.8700000  57.1100000  54.0570000 102.2320000  56.8250000
  51.9540000 101.5400000  55.9760000  51.2060000 102.3160000  55.8030000
  51.3010000 100.7530000  56.2720000  52.7210000 101.2050000  54.6360000
  53.4870000 101.9310000  54.4220000  51.9570000 101.3390000  53.8530000
  53.3260000  99.7670000  54.6090000  53.9760000  99.7120000  55.4660000
  53.9620000  99.6150000  53.7220000  52.2070000  98.7450000  54.6300000
  51.3730000  99.0030000  55.3420000  52.7340000  97.8540000  55.0080000
  51.6810000  98.5450000  53.2000000  52.4290000  98.0020000  52.6610000
  51.3570000  99.5020000  52.8040000  50.4870000  97.6480000  53.2250000
  49.5890000  98.2510000  53.4460000  50.5990000  97.0590000  54.0840000
  50.1910000  96.7950000  51.9960000  49.3030000  96.2190000  52.1710000
  51.0620000  96.1660000  51.8160000  49.9410000  97.7390000  50.8650000
  49.2390000  98.5200000  51.1280000  50.3380000  97.6510000  49.5950000
  49.9430000  98.3810000  48.9050000  51.2060000  96.5140000  49.1880000
  50.9500000  95.6250000  49.8830000  52.1850000  96.8010000  49.3810000
  50.8630000  96.0410000  47.7040000  51.1160000  96.7940000  47.0010000
  49.8340000  95.7400000  47.5680000  51.6990000  94.8030000  47.4050000
  51.4450000  93.9400000  48.0620000  52.8060000  94.9690000  47.5660000
  51.4040000  94.2100000  45.9800000  50.3950000  93.9210000  45.9160000
  52.1020000  93.3660000  45.8660000  51.7730000  95.1410000  44.8400000
  51.1830000  96.0500000  45.0780000  51.4880000  94.6730000  43.9460000
  53.2330000  95.5730000  44.7570000  53.5890000  96.1440000  45.6260000
  53.2800000  96.3180000  43.9830000  54.2600000  94.4430000  44.3590000
  53.9070000  93.4520000  44.6570000  55.1590000  94.6300000  44.9120000
  54.7060000  94.4160000  42.8790000  55.1740000  93.4510000  42.6550000
  55.2860000  95.3020000  42.6780000  53.8450000  94.5770000  42.2330000
  36.8820000  52.0240000  33.1430000  36.4430000  51.6020000  32.2240000
  37.6270000  52.7780000  32.9150000  36.1280000  52.4150000  33.8940000
  37.6060000  50.8090000  33.7190000  36.9070000  50.0660000  33.9100000
  38.3000000  50.3850000  32.9780000  38.3420000  51.1230000  35.0150000
  39.2350000  51.6840000  34.7360000  37.6710000  51.6120000  35.7600000
  38.8650000  49.8810000  35.7350000  38.0230000  49.2240000  35.8030000
  39.6310000  49.4670000  35.0540000  39.3180000  50.4660000  37.1140000
  40.2120000  49.8750000  37.4970000  39.6850000  51.5220000  37.0630000
  38.1960000  50.5970000  38.2230000  38.3100000  51.3030000  38.9510000
  37.2390000  50.7490000  37.6680000  37.9120000  49.3140000  38.9950000
  37.7630000  48.5690000  38.2430000  38.6930000  49.0820000  39.6340000
  36.5550000  49.4780000  39.8340000  35.7070000  49.6100000  39.1610000
  36.4230000  48.6180000  40.4210000  36.6900000  50.6340000  40.8430000
  37.6770000  50.5970000  41.3590000  36.7680000  51.5460000  40.2550000
  35.4930000  50.8280000  41.8300000  34.7660000  51.2210000  41.1510000
  35.1700000  49.8570000  42.2690000  35.7180000  51.8320000  43.0680000
  36.2120000  52.7060000  42.6270000  34.7100000  51.9960000  43.3530000
  36.5170000  51.1340000  44.2070000  35.8220000  50.5440000  44.8030000
  37.2190000  50.3960000  43.8520000  37.2520000  52.1790000  45.0820000
  37.5470000  52.9350000  44.3640000  36.4980000  52.7190000  45.7080000
  38.5110000  51.6890000  45.8250000  39.1870000  51.2060000  45.2140000
  38.9380000  52.5180000  46.3170000  38.1330000  50.5960000  46.8550000
  37.7880000  49.7600000  46.3300000  39.0280000  50.4060000  47.4090000
  37.0380000  51.0460000  47.7890000  37.1540000  52.0440000  48.4740000
  35.8520000  50.3560000  47.8410000  34.7780000  50.7690000  48.7280000
  34.1610000  49.8320000  48.7550000  35.2340000  50.8880000  49.7200000
  34.0130000  51.9340000  48.1180000  34.7550000  52.5890000  47.5650000
  33.2050000  52.8130000  49.1630000  33.7620000  53.2220000  50.0300000
  32.8280000  53.7280000  48.6040000  32.1250000  52.1430000  49.6190000
  32.0690000  51.1210000  50.9020000  32.2640000  49.6060000  50.2250000
  31.3320000  49.0740000  49.2730000  31.0140000  49.8870000  48.6070000
  31.8280000  48.3570000  48.6830000  30.1390000  48.3170000  49.9180000
  29.7020000  49.0570000  50.6200000  29.5060000  48.0740000  49.0700000
  30.4530000  47.1290000  50.8490000  31.2650000  47.5070000  52.0270000
  31.3560000  46.6710000  52.6880000  32.2170000  47.8490000  51.6640000
  30.7070000  48.3350000  52.4410000  29.1530000  46.5760000  51.2830000
  28.4630000  47.3990000  51.6860000  28.6840000  45.9670000  50.4650000
  29.2920000  45.8570000  52.0670000  31.1280000  46.0360000  50.1410000
  32.1710000  46.3060000  50.0530000  30.6280000  45.9420000  49.1470000
  31.0470000  45.1450000  50.8500000  33.3490000  51.2820000  51.6420000
  30.7990000  51.3140000  51.5900000  33.0700000  51.3830000  47.1430000
  32.6910000  52.1130000  46.1030000  32.9940000  53.2580000  45.9070000
  31.6650000  51.3740000  45.2320000  30.8320000  52.0050000  45.0700000
  31.4250000  50.4170000  45.5360000  32.3250000  51.1670000  43.8500000
  33.2110000  50.4570000  43.9470000  32.6230000  52.1110000  43.3790000
  31.3540000  50.4010000  42.9390000  30.4150000  51.0000000  42.8380000
  31.1230000  49.5120000  43.3880000  32.0700000  50.0530000  41.5870000
  32.9710000  49.4480000  41.7450000  32.3750000  50.9760000  41.1310000
  31.1080000  49.2820000  40.6670000  30.7090000  48.4130000  41.2640000
  31.8200000  48.8620000  40.0210000  30.0770000  50.1500000  39.8370000
  30.6200000  50.9890000  39.3160000  29.2940000  50.5170000  40.4670000
  29.3250000  49.3650000  38.7140000  28.5200000  49.9700000  38.3330000
  28.7040000  48.5920000  39.2560000  30.3390000  48.8000000  37.7090000
  31.2950000  49.3410000  37.5920000  30.1890000  47.6120000  37.1270000
  31.1240000  47.1660000  36.6140000  29.0170000  46.6090000  37.1880000
  28.6230000  46.3420000  38.2210000  29.4540000  45.6390000  36.8860000
  27.7890000  46.9350000  36.3410000  27.3130000  47.7850000  36.9230000
  26.9700000  46.2050000  36.3210000  28.1320000  47.3000000  34.9060000
  28.7770000  48.1980000  34.8720000  27.1890000  47.5190000  34.3970000
  28.9880000  46.2170000  34.1840000  28.4920000  45.3550000  33.8190000
  29.7210000  45.7870000  34.8150000  29.6260000  46.6900000  32.8130000
  28.9010000  47.0930000  32.0620000  30.0890000  45.7690000  32.3280000
  30.6650000  47.8280000  32.7970000  30.2780000  48.7040000  33.1590000
  30.9840000  47.9410000  31.7050000  31.8820000  47.4350000  33.7000000
  32.2010000  46.4660000  33.4590000  31.5560000  47.3730000  34.6750000
  32.9970000  48.4430000  33.5020000  33.2210000  48.4400000  32.4280000
  33.8620000  48.1680000  34.0600000  32.8000000  49.4930000  33.7100000
  80.0390000  13.5840000  38.9340000  79.5190000  13.2590000  39.8190000
  79.8890000  13.0450000  37.9640000  79.6360000  14.5560000  38.8040000
  81.5150000  13.6880000  39.2580000  81.9920000  14.3080000  38.5420000
  81.4840000  14.1540000  40.2550000  82.4320000  12.4230000  39.2210000
  82.4880000  11.9760000  38.2430000  83.4910000  12.5790000  39.5250000
  81.9240000  11.2880000  40.1030000  81.5850000  11.6260000  41.1530000
  81.0050000  10.9260000  39.6590000  82.8280000  10.1210000  40.2740000
  83.1500000   9.7750000  39.2890000  83.7080000  10.4720000  40.8810000
  82.2390000   8.8050000  40.7960000  81.1460000   9.0100000  40.8870000
  82.5490000   8.0000000  40.1150000  82.6610000   8.6090000  42.2780000
  83.7410000   8.3280000  42.2670000  82.5370000   9.5670000  42.7660000
  81.7860000   7.5780000  43.0870000  80.7710000   7.9040000  43.0330000
  81.8210000   6.6230000  42.6120000  82.3770000   7.5760000  44.5480000
  83.3880000   7.1580000  44.5410000  82.4490000   8.6030000  44.8720000
  81.6230000   6.6180000  45.5240000  81.7440000   5.5660000  45.1860000
  81.9600000   6.8200000  46.5780000  80.1290000   6.7970000  45.5530000
  79.6860000   6.7960000  44.6260000  79.6260000   6.0610000  46.2410000
  79.6530000   8.1180000  46.2110000  80.2460000   8.2680000  47.1660000
  79.9480000   8.9820000  45.6090000  78.1660000   8.1930000  46.6480000
  77.6820000   8.0610000  45.6800000  77.9850000   7.3970000  47.3770000
  77.7310000   9.5610000  47.2330000  77.7820000  10.2070000  46.3750000
  76.6330000   9.5970000  47.5290000  78.6340000  10.0330000  48.3670000
  79.6500000  10.1530000  48.1020000  78.2980000  11.0450000  48.5820000
  78.3510000   9.2310000  49.6540000  77.4120000   8.4750000  49.8510000
  79.2950000   9.4720000  50.6000000  79.2190000   8.6930000  51.9030000
  78.7750000   9.3160000  52.6340000  78.6370000   7.8360000  51.6800000
  80.6790000   8.2010000  52.3490000  80.4810000   7.4950000  53.1310000
  81.4030000   9.4460000  52.9520000  81.7180000  10.0520000  52.0630000
  80.7190000  10.1700000  53.4360000  82.6010000   9.1880000  53.8560000
  84.0760000   8.8410000  53.2030000  84.0340000   7.2660000  53.0110000
  83.7330000   6.4200000  54.1270000  83.9980000   6.8930000  55.0280000
  82.6670000   6.2640000  54.0440000  84.4150000   5.0460000  53.9920000
  84.0680000   4.4210000  54.8570000  84.1260000   4.6100000  53.0520000
  85.9170000   5.1070000  54.0020000  86.4410000   3.7300000  54.2660000
  86.1640000   3.3550000  55.2860000  86.0490000   2.9890000  53.5270000
  87.5100000   3.8240000  54.2980000  86.5320000   5.4950000  52.7040000
  87.5890000   5.4660000  52.8480000  86.2440000   4.7520000  51.9440000
  86.2590000   6.5420000  52.4720000  86.4810000   5.9340000  55.0870000
  86.1030000   5.4890000  56.0610000  86.2500000   7.0090000  54.9170000
  87.5510000   5.8720000  55.0240000  84.2540000   9.5790000  51.9190000
  85.0900000   9.0820000  54.2570000  81.3940000   7.6440000  51.2390000
  81.7540000   6.3600000  51.3530000  81.3740000   5.6680000  52.2360000
  82.7610000   5.9140000  50.4380000  83.7160000   5.9910000  50.9280000
  82.6850000   6.5590000  49.5080000  82.6980000   4.4100000  50.0140000
  82.5340000   3.7890000  50.8880000  83.6360000   4.0860000  49.6310000
  81.5320000   4.0600000  48.9900000  81.4800000   2.9700000  48.9520000
  81.6310000   4.4200000  47.9360000  80.1520000   4.3530000  49.5600000
  80.0170000   5.4000000  49.8120000  79.9560000   3.8110000  50.5160000
  79.0940000   4.0390000  48.5170000  79.5010000   3.2360000  47.9590000
  78.9820000   4.8200000  47.7890000  77.7580000   3.6380000  49.1110000
  77.8680000   2.7380000  49.6600000  77.0830000   3.3970000  48.2850000
  77.0960000   4.7260000  50.0000000  76.8910000   5.6830000  49.5360000
  77.6480000   4.9420000  50.8630000  75.7380000   4.2820000  50.4070000
  75.5810000   3.4510000  51.0210000  74.5930000   4.8960000  50.0830000
  73.6750000   4.4950000  50.3830000  74.4340000   6.0940000  49.1020000
  75.3110000   6.6160000  48.8820000  73.7330000   6.8730000  49.5300000
  73.6990000   5.6550000  47.7660000  73.4930000   6.5440000  47.0950000
  72.7580000   5.1290000  47.9750000  74.4870000   4.5450000  46.8860000
  74.4810000   3.5820000  47.4240000  75.5420000   4.7760000  46.7920000
  73.9060000   4.3500000  45.4640000  74.0190000   5.2710000  44.8960000
  72.8690000   4.2080000  45.4670000  74.6590000   3.2840000  44.5560000
  75.7130000   3.3960000  44.5770000  74.1960000   3.4110000  43.5130000
  74.4110000   1.7960000  44.9060000  73.3370000   1.5330000  44.8280000
  74.7620000   1.6470000  45.9250000  75.2980000   0.9890000  43.9380000
  76.4100000   1.2090000  44.0300000  74.9890000   1.2730000  42.8980000
  75.0080000  -0.4480000  44.0730000  73.9790000  -0.6230000  44.3840000
  75.4980000  -0.8470000  44.9540000  75.1220000  -1.0340000  43.0980000
  86.2230000  17.0750000  33.9990000  85.6960000  17.9980000  34.3470000
  85.4730000  16.3240000  33.7900000  86.8280000  17.1940000  33.0950000
  87.0850000  16.6270000  35.2510000  87.7060000  17.4820000  35.4910000
  86.3540000  16.4510000  36.0050000  88.0090000  15.4900000  34.9430000
  87.5370000  14.6080000  34.5330000  88.6430000  15.8080000  34.2080000
  88.8240000  15.1550000  36.1660000  89.4180000  16.0350000  36.4970000
  88.2340000  14.8860000  37.0160000  89.8760000  14.0520000  35.9640000
  89.2310000  13.2340000  35.5880000  90.5290000  14.4230000  35.2310000
  90.7230000  13.6050000  37.1880000  90.0280000  13.2530000  37.9010000
  91.3190000  12.7410000  36.8180000  91.6570000  14.6870000  37.8400000
  92.4430000  14.9090000  37.1050000  91.0700000  15.6090000  38.0140000
  92.2660000  14.2510000  39.2040000  92.7190000  13.3340000  38.9300000
  93.0880000  14.8980000  39.4700000  91.3040000  13.8410000  40.3490000
  90.6010000  13.0750000  40.0490000  91.8150000  13.6480000  41.2640000
  90.3410000  15.0090000  40.7110000  90.9400000  15.9030000  40.9280000
  89.7140000  15.3410000  39.8250000  89.5190000  14.7920000  42.0080000
  88.8840000  15.6460000  42.2160000  88.9780000  13.8740000  41.8880000
  90.4070000  14.6060000  43.2430000  91.1890000  13.9180000  42.9970000
  91.0260000  15.4560000  43.5100000  89.6180000  14.0080000  44.4070000
  89.1910000  13.1130000  44.1600000  90.3200000  13.7690000  45.1560000
  88.6270000  14.9910000  45.1130000  87.9200000  15.4020000  44.3720000
  87.9890000  14.2690000  45.7140000  89.1030000  16.1740000  45.9170000
  89.5760000  16.9230000  45.2700000  88.3010000  16.7340000  46.3550000
  90.0640000  15.9090000  47.0300000  89.6530000  15.4710000  48.0430000
  91.3290000  16.3620000  46.7080000  92.3730000  16.3690000  47.7170000
  93.0810000  17.0770000  47.2920000  91.9990000  16.8530000  48.6340000
  92.8880000  14.9950000  48.1370000  92.0430000  14.4330000  48.5980000
  94.0630000  15.0290000  49.0870000  94.1380000  14.0810000  49.5720000
  94.9980000  15.2570000  48.5370000  93.7550000  15.9300000  50.1300000
  94.5510000  17.1910000  50.4230000  93.6320000  18.3340000  49.8360000
  93.1720000  19.4390000  50.6120000  92.1580000  19.7530000  50.3200000
  93.1900000  19.3070000  51.6970000  94.1480000  20.6000000  50.3720000
  93.7460000  21.5060000  50.8230000  95.1260000  20.4360000  50.7990000
  94.3850000  20.9770000  48.9680000  94.6000000  22.4300000  48.7690000
  95.4370000  22.6880000  49.3880000  94.8000000  22.4710000  47.6840000
  93.7790000  22.9210000  49.2220000  95.6540000  20.1900000  48.5690000
  95.4680000  19.1080000  48.7830000  95.8840000  20.3280000  47.4960000
  96.5540000  20.5570000  49.1750000  93.2430000  20.6980000  48.0950000
  92.9830000  19.6420000  48.0880000  93.6140000  20.8770000  47.1000000
  92.4420000  21.3510000  48.4210000  94.5590000  17.3730000  51.8600000
  95.8220000  17.2410000  49.6450000  93.4240000  14.3180000  46.9310000
  93.5020000  12.9650000  46.9030000  93.0340000  12.2930000  47.7130000
  94.2470000  12.5130000  45.7050000  94.7490000  11.6180000  46.0030000
  94.9590000  13.2620000  45.3720000  93.2720000  12.1280000  44.6390000
  92.7800000  12.9470000  44.0490000  92.5090000  11.5730000  45.2480000
  93.7980000  11.1640000  43.5390000  94.3450000  10.2870000  43.8910000
  94.5050000  11.7310000  42.8440000  92.6730000  10.8740000  42.5660000
  92.2630000  11.9130000  42.2220000  91.9560000  10.2100000  43.0850000
  93.2430000  10.0940000  41.3350000  93.5930000   9.1290000  41.6410000
  94.0860000  10.5940000  40.9250000  92.0530000   9.9090000  40.4030000
  91.8530000  10.9030000  40.0120000  91.0860000   9.6140000  40.9340000
  92.3850000   8.8810000  39.2510000  92.5510000   7.8900000  39.6230000
  93.3090000   9.2300000  38.7800000  91.1780000   8.8860000  38.3590000
  90.2740000   8.4560000  38.8330000  91.1820000   9.2710000  37.0270000
  90.2660000   9.1630000  36.4010000  92.4790000   9.7730000  36.3180000
  93.3890000   9.4730000  36.7990000  92.5180000  10.7950000  36.2230000
  92.5170000   9.2800000  34.8570000  92.0940000   8.2090000  34.8080000
  93.5360000   9.3780000  34.4390000  91.5490000  10.2070000  34.1050000
  91.8240000  11.2060000  34.3160000  90.5860000  10.0830000  34.4870000
  91.4430000   9.8410000  32.5860000  91.2750000   8.7740000  32.5360000
  92.4720000  10.0000000  32.1490000  90.4360000  10.7230000  31.7410000
  89.4460000  10.5180000  32.1140000  90.5080000  10.3830000  30.6620000
  90.5310000  12.2620000  31.7060000  90.3320000  12.7880000  32.6230000
  89.8300000  12.7410000  30.9260000  91.9910000  12.6150000  31.2330000
  92.2610000  12.1180000  30.3300000  92.7140000  12.2580000  31.9800000
  92.1060000  14.1000000  31.0340000  91.3790000  14.5530000  30.2430000
  93.0830000  14.3110000  30.6670000  91.9420000  14.6630000  31.9330000
 137.6380000  67.0200000  31.4750000 137.2560000  66.0040000  31.2970000
 138.7130000  66.9530000  31.2800000 137.2690000  67.7730000  30.8090000
 137.4630000  67.4010000  32.9340000 136.4530000  67.0930000  33.2750000
 138.1050000  66.7090000  33.4690000 137.9400000  68.8690000  33.2080000
 138.9790000  68.9470000  32.8260000 137.1870000  69.5800000  32.8090000
 137.8260000  69.1600000  34.6970000 136.8110000  69.0250000  35.1010000
 138.5460000  68.4100000  35.2250000 138.4460000  70.5420000  34.9080000
 139.6030000  70.4680000  34.8480000 138.0690000  71.1780000  34.1400000
 138.1290000  70.9950000  36.3440000 137.1030000  71.2560000  36.2610000
 138.2460000  70.1800000  37.1240000 138.8640000  72.2300000  36.7940000
 139.0260000  72.8600000  35.9400000 138.1790000  72.7530000  37.4070000
 140.2450000  71.8650000  37.5020000 140.7710000  71.1790000  36.8860000
 140.8780000  72.7650000  37.5020000 140.0310000  71.4640000  38.9320000
 139.6330000  72.2530000  39.5010000 139.3130000  70.6390000  38.9660000
 141.2700000  70.9910000  39.6500000 141.9090000  70.2940000  38.9630000
 141.9730000  71.8130000  39.9400000 141.1390000  70.1190000  40.9540000
 140.1900000  69.6310000  40.9200000 141.9180000  69.4290000  41.0120000
 141.0940000  70.9990000  42.2220000 142.0400000  71.4170000  42.3920000
 140.4940000  71.7960000  41.9710000 140.4320000  70.2580000  43.4300000
 139.5590000  69.7080000  43.0030000 141.1030000  69.4400000  43.6760000
 140.0440000  71.1880000  44.6660000 140.9700000  71.7340000  45.0240000
 139.3080000  71.9030000  44.3510000 139.4520000  70.3540000  45.8100000
 138.6100000  69.7570000  45.4650000 140.3200000  69.7160000  46.1790000
 138.8740000  71.1920000  46.9670000 138.2150000  72.1870000  46.7470000
 138.9700000  70.7130000  48.2450000 138.7300000  71.5250000  49.3520000
 139.2210000  71.0110000  50.2090000 139.2360000  72.4690000  49.2390000
 137.1750000  71.6290000  49.6290000 136.6170000  71.8830000  48.7270000
 136.8470000  72.6990000  50.6260000 136.6500000  73.6290000  50.1710000
 135.9970000  72.3530000  51.1920000 137.9810000  72.9840000  51.5600000
 137.7810000  73.9340000  52.8920000 138.9570000  73.6820000  54.0180000
 140.1470000  74.4540000  53.8740000 139.9350000  75.5170000  53.7130000
 140.7650000  74.3590000  54.8030000 140.8170000  73.8340000  52.6510000
 140.9820000  72.6800000  52.8190000 140.0760000  74.0170000  51.8060000
 142.1390000  74.3560000  52.2150000 142.0960000  75.7750000  51.7580000
 142.1660000  76.4010000  52.6730000 142.8920000  75.9570000  50.9730000
 141.1020000  75.9340000  51.3800000 143.1030000  74.1020000  53.2880000
 142.8330000  74.6190000  54.2040000 143.0270000  73.0200000  53.3860000
 144.1040000  74.4380000  52.9900000 142.5630000  73.5270000  51.0070000
 143.5030000  73.9470000  50.5320000 141.6720000  73.4970000  50.3820000
 142.9830000  72.5320000  51.3570000 137.8100000  75.3170000  52.3850000
 136.5520000  73.3410000  53.5120000 136.6520000  70.3670000  50.1160000
 136.1860000  69.4190000  49.2570000 136.0780000  69.4290000  48.0370000
 135.6070000  68.2190000  49.9960000 134.5150000  68.3020000  49.6990000
 135.7030000  68.3960000  51.0870000 136.1370000  66.8800000  49.5500000
 135.7580000  66.7040000  48.5950000 135.8740000  66.1350000  50.2850000
 137.7180000  66.8320000  49.4220000 138.1820000  66.7910000  50.4000000
 138.1370000  67.7100000  48.9400000 138.2630000  65.6100000  48.6320000
 137.8810000  64.6860000  49.1400000 139.3680000  65.6370000  48.7610000
 137.8340000  65.7160000  47.0860000 136.7330000  65.8000000  46.8890000
 138.0780000  64.7030000  46.7720000 138.4700000  66.8460000  46.2550000
 139.5400000  66.8840000  46.3530000 138.1370000  67.8090000  46.6410000
 138.0210000  66.8180000  44.7610000 138.4780000  67.6560000  44.2410000
 136.9740000  66.9090000  44.6110000 138.5150000  65.5060000  44.1010000
 138.5250000  64.6480000  44.7880000 139.1690000  65.4560000  42.9540000
 139.5680000  64.4350000  42.7330000 139.4070000  66.5200000  41.8960000
 140.4290000  66.8720000  41.7480000 138.7530000  67.3850000  42.1860000
 138.9240000  65.9330000  40.5690000 137.8760000  65.5940000  40.5810000
 139.4420000  65.0670000  40.5140000 139.1670000  66.9650000  39.4040000
 140.2350000  67.1840000  39.2560000 138.7040000  67.8680000  39.7140000
 138.3630000  66.6420000  38.0630000 138.2140000  65.5420000  37.8890000
 139.0040000  66.9660000  37.2210000 136.9670000  67.3100000  37.9740000
 137.0970000  68.4200000  38.0000000 136.4760000  67.0850000  38.9460000
 136.1540000  66.7360000  36.8130000 135.8990000  65.7240000  37.0790000
 136.6900000  66.6940000  35.8540000 134.9010000  67.5610000  36.6110000
 135.1760000  68.6740000  36.4880000 134.4670000  67.3430000  37.6140000
 133.9090000  67.1170000  35.4410000 133.6020000  66.0980000  35.6190000
 134.4670000  67.0710000  34.5050000 132.9970000  67.6560000  35.3070000
  61.2150000 129.2660000  37.5220000  60.2020000 128.9720000  37.7430000
  61.3020000 129.6150000  36.4710000  61.3360000 130.0990000  38.2070000
  62.2120000 128.0730000  37.7870000  61.8360000 127.2580000  37.1070000
  63.2040000 128.2900000  37.4770000  62.1770000 127.4930000  39.1970000
  61.1710000 127.0090000  39.4460000  62.9300000 126.6780000  39.2080000
  62.5590000 128.5140000  40.2340000  63.6040000 128.9330000  40.0530000
  61.8660000 129.3510000  40.2860000  62.5850000 127.8610000  41.6230000
  61.6320000 127.3660000  41.8350000  63.3740000 127.0790000  41.5950000
  62.8360000 129.0060000  42.6550000  63.6470000 129.5830000  42.1990000
  61.9840000 129.7340000  42.7430000  63.3080000 128.5640000  44.0040000
  64.1380000 127.9020000  43.9720000  63.8700000 129.4480000  44.3360000
  62.3020000 128.0900000  45.0830000  61.8720000 128.9960000  45.4830000
  61.4490000 127.6540000  44.5350000  62.8250000 127.1900000  46.1790000
  63.6140000 127.6590000  46.6880000  62.0120000 127.0450000  46.8990000
  63.4800000 125.8010000  45.7620000  62.7420000 125.2100000  45.2650000
  64.2540000 125.9950000  45.0120000  64.1700000 125.0880000  46.9160000
  65.0740000 125.6060000  47.2420000  63.4830000 124.8170000  47.7720000
  65.0280000 123.8520000  46.5180000  64.4030000 123.1160000  45.9710000
  65.8360000 124.1160000  45.8420000  65.6030000 123.2030000  47.7990000
  64.7380000 123.0370000  48.4130000  65.9940000 122.3140000  47.4500000
  66.7660000 123.9750000  48.3830000  67.5080000 124.1910000  47.5570000
  66.4670000 124.9730000  48.7210000  67.4910000 123.2540000  49.5740000
  67.8080000 122.2420000  49.3440000  68.4880000 123.6660000  49.7540000
  66.6440000 123.1840000  50.7910000  65.4770000 123.5790000  50.9840000
  67.3300000 122.5080000  51.7580000  66.7020000 121.9040000  52.9680000
  65.5960000 121.7720000  52.8980000  67.1170000 120.8970000  53.0400000
  67.1240000 122.7380000  54.2140000  68.1710000 123.0000000  53.9310000
  67.2250000 121.7850000  55.4850000  67.5860000 120.7860000  55.1440000
  67.9440000 122.2480000  56.2090000  66.0030000 121.6860000  56.2520000
  64.8100000 120.6970000  55.8940000  63.7040000 121.2260000  56.9320000
  62.2790000 120.9430000  56.7810000  62.0520000 120.5790000  55.7690000
  62.1170000 120.2060000  57.4360000  61.4750000 122.1840000  57.0450000
  60.3930000 121.9610000  56.8750000  61.5350000 122.5730000  58.0760000
  61.7230000 123.3770000  56.2010000  63.0920000 123.9140000  56.4830000
  63.1150000 124.1500000  57.5520000  63.7530000 123.1580000  56.1340000
  63.2390000 124.7770000  55.7940000  61.5660000 123.0580000  54.7890000
  62.3470000 122.3170000  54.6250000  60.5840000 122.5660000  54.6890000
  61.6780000 123.9250000  54.3030000  60.7100000 124.4070000  56.5700000
  59.8210000 124.1300000  56.0550000  61.1270000 125.3610000  56.2100000
  60.4640000 124.3930000  57.6900000  64.2480000 121.0410000  54.5650000
  65.2170000 119.2930000  56.2170000  66.2410000 123.8930000  54.4030000
  66.8930000 124.9170000  54.9900000  68.0680000 124.8890000  55.3450000
  65.9410000 126.0700000  54.9790000  65.8730000 126.2160000  56.1100000
  64.9160000 125.7320000  54.8120000  66.4090000 127.3060000  54.1810000
  67.3410000 127.6830000  54.6100000  65.6260000 128.1010000  54.2910000
  66.6400000 126.8750000  52.6880000  65.9080000 126.1830000  52.3270000
  67.5850000 126.3240000  52.6630000  66.7830000 128.0750000  51.7180000
  67.6470000 128.6000000  52.0180000  65.8680000 128.7030000  51.8890000
  66.9230000 127.6690000  50.2170000  66.3730000 126.7330000  50.0630000
  67.9050000 127.3560000  49.9210000  66.4250000 128.8420000  49.2660000
  67.0470000 129.6490000  49.5380000  65.4060000 129.0680000  49.4390000
  66.5230000 128.6930000  47.7470000  65.8990000 127.8680000  47.5010000
  67.5650000 128.4620000  47.5350000  66.0070000 129.8650000  47.0180000
  65.2930000 130.4690000  47.6490000  66.5380000 130.3140000  45.8900000
  66.1310000 131.2510000  45.5570000  67.4540000 129.5770000  44.9090000
  67.2800000 128.5080000  45.0280000  68.4870000 129.8400000  45.1950000
  67.0800000 130.0090000  43.4980000  66.6430000 130.9880000  43.3900000
  66.3640000 129.3730000  42.9990000  68.2470000 129.9990000  42.4470000
  68.6840000 128.9870000  42.3430000  69.0420000 130.6320000  42.7600000
  67.7200000 130.6360000  41.1280000  68.5950000 130.6520000  40.5150000
  67.4320000 131.6770000  41.2540000  66.7090000 129.7630000  40.3140000
  65.7540000 129.6090000  40.8440000  67.2020000 128.7960000  40.1230000
  66.3520000 130.3090000  38.9500000  65.9390000 129.5190000  38.3770000
  67.3480000 130.5440000  38.5010000  65.4800000 131.6230000  39.1180000
  66.0500000 132.4600000  39.5320000  64.8150000 131.3310000  39.9020000
  64.7430000 132.3320000  37.9100000  63.8430000 132.9590000  38.2930000
  64.3590000 131.6110000  37.2370000  65.3150000 133.0090000  37.2920000
  42.7220000  54.6590000  38.4160000  43.2890000  54.3210000  39.3300000
  42.7650000  53.8870000  37.6740000  41.6540000  54.8580000  38.5870000
  43.4420000  55.9570000  37.8610000  44.5120000  55.6220000  37.8690000
  43.1950000  56.1370000  36.8250000  43.1940000  57.2880000  38.7620000
  43.4450000  57.0410000  39.7620000  43.8650000  58.0030000  38.3400000
  41.7050000  57.8220000  38.7370000  41.3580000  57.9400000  37.7080000
  41.0780000  57.1190000  39.3430000  41.5200000  59.1600000  39.5030000
  41.8390000  59.0700000  40.5600000  42.2760000  59.8660000  39.0670000
  40.1680000  59.7860000  39.2750000  39.9770000  59.8060000  38.1590000
  39.3960000  59.1710000  39.7250000  40.0070000  61.1880000  39.8040000
  40.2470000  61.0850000  40.9030000  40.8110000  61.8500000  39.3510000
  38.5700000  61.6930000  39.5620000  38.4630000  61.6880000  38.4420000
  37.8590000  61.0640000  40.0620000  38.3780000  63.1900000  39.9320000
  39.2610000  63.6920000  39.5360000  37.4700000  63.5440000  39.4080000
  38.0630000  63.4040000  41.4110000  37.2090000  64.0490000  41.5300000
  37.7810000  62.5250000  41.8390000  39.3230000  63.8770000  42.1670000
  40.1000000  63.0310000  42.1640000  39.6040000  64.6860000  41.5290000
  39.1570000  64.3260000  43.6670000  40.1480000  64.6650000  43.9810000
  38.4080000  65.0610000  43.9150000  39.0840000  63.1430000  44.6270000
  38.1040000  62.6850000  44.5940000  39.8050000  62.3330000  44.3400000
  39.3010000  63.6780000  46.1310000  40.2330000  64.2400000  46.1270000
  38.3920000  64.2540000  46.4640000  39.4920000  62.5120000  47.1330000
  38.5820000  61.9590000  47.2780000  40.2740000  61.6890000  46.8400000
  39.8510000  62.8990000  48.5620000  40.9510000  62.6250000  49.0310000
  38.8850000  63.6190000  49.2030000  39.3320000  64.3530000  50.3930000
  38.4880000  64.7010000  50.9600000  40.0920000  63.7730000  51.0050000
  40.1490000  65.5070000  49.8870000  40.8250000  65.1200000  49.1140000
  40.8910000  66.1870000  51.0390000  41.3520000  65.4130000  51.6190000
  41.6740000  66.8450000  50.6690000  40.1320000  67.0500000  51.8950000
  40.6550000  67.4360000  53.3970000  40.1340000  66.1720000  54.2500000
  38.7850000  65.6910000  54.1750000  38.1730000  66.5990000  53.9060000
  38.6820000  64.9180000  53.4030000  38.5070000  65.0290000  55.5670000
  37.6410000  64.3980000  55.4530000  39.4100000  64.4000000  55.8620000
  38.2680000  66.0340000  56.7660000  38.5500000  65.4480000  58.0960000
  38.5460000  66.3490000  58.7350000  37.8280000  64.6710000  58.3570000
  39.5780000  65.0150000  58.0930000  39.0670000  67.2870000  56.6610000
  38.6640000  67.8520000  55.8300000  38.8620000  67.8180000  57.6440000
  40.1380000  67.0840000  56.5670000  36.8600000  66.4180000  56.6910000
  36.4520000  66.6050000  55.6370000  36.6480000  67.2890000  57.3490000
  36.3410000  65.5980000  57.1670000  42.1190000  67.5330000  53.3240000
  39.9210000  68.6260000  53.8870000  39.3300000  66.4650000  49.1830000
  39.8720000  67.5010000  48.5100000  41.1220000  67.7080000  48.3330000
  38.8070000  68.3950000  47.8270000  38.2620000  68.8640000  48.6920000
  38.0940000  67.7270000  47.3320000  39.2940000  69.4830000  46.8420000
  40.1810000  70.0150000  47.1770000  38.5380000  70.2660000  46.7250000
  39.5870000  69.0540000  45.4080000  39.4130000  69.8900000  44.7500000
  38.8350000  68.2820000  45.1730000  40.9660000  68.3740000  45.1600000
  41.0270000  67.5140000  45.8630000  41.7860000  69.0010000  45.4720000
  40.9000000  68.0150000  43.7270000  40.7440000  68.9330000  43.0890000
  40.0540000  67.3620000  43.4580000  42.2490000  67.4430000  43.2910000
  42.6640000  66.7040000  43.9800000  42.9810000  68.2020000  43.2460000
  42.1790000  66.6850000  41.9290000  41.6790000  67.3470000  41.2000000
  41.5740000  65.7520000  42.1100000  43.6620000  66.2310000  41.7150000
  43.9580000  65.3510000  42.2610000  44.4660000  66.8610000  40.9290000
  45.3910000  66.3960000  40.5650000  44.2730000  68.2630000  40.3200000
  43.6010000  68.8840000  40.8980000  43.8710000  68.1370000  39.3610000
  45.6520000  68.9360000  40.1440000  46.3390000  68.2600000  39.6740000
  46.0430000  69.2120000  41.1920000  45.6410000  70.2730000  39.4850000
  44.8020000  70.8170000  39.8950000  45.3600000  70.1710000  38.4180000
  46.9680000  71.0960000  39.5960000  47.8440000  70.5470000  39.3130000
  47.2010000  71.4420000  40.5880000  46.9050000  72.3580000  38.6240000
  46.8740000  71.9910000  37.6120000  47.8530000  72.7770000  38.6160000
  45.8040000  73.4550000  38.8760000  44.7940000  72.9680000  38.7120000
  45.8060000  74.2220000  38.1010000  45.8850000  73.9660000  40.3220000
  46.8710000  74.2340000  40.5410000  45.5810000  73.2120000  40.9960000
  45.0400000  75.2500000  40.4790000  45.3340000  75.7170000  41.3950000
  43.9550000  75.0500000  40.4710000  45.3140000  75.9880000  39.7720000
  95.7680000  94.5430000  40.5430000  95.8760000  95.4390000  39.9810000
  95.6740000  93.7320000  39.8740000  96.6810000  94.4400000  41.0740000
  94.4550000  94.5660000  41.4320000  94.6120000  95.2600000  42.2130000
  93.6000000  94.6660000  40.8170000  94.3490000  93.2920000  42.2200000
  93.8960000  92.5680000  41.5780000  95.3080000  93.0890000  42.5450000
  93.5030000  93.3560000  43.4750000  93.9770000  93.8760000  44.2240000
  92.5790000  93.8020000  43.1530000  93.1780000  91.9210000  44.0540000
  92.6190000  91.3100000  43.2670000  94.0690000  91.3170000  44.3130000
  92.4170000  92.0430000  45.3540000  92.9690000  92.7440000  45.9290000
  91.4480000  92.5150000  45.2160000  92.1450000  90.6800000  46.0310000
  91.2980000  90.1230000  45.6500000  93.0170000  89.9930000  45.9310000
  91.8050000  90.9200000  47.5230000  91.0510000  91.6370000  47.4440000
  91.4640000  89.9980000  48.0310000  92.8510000  91.4630000  48.5030000
  93.6730000  90.7090000  48.5290000  93.2810000  92.3710000  48.0750000
  92.2860000  91.7550000  49.8740000  91.7060000  92.6270000  49.8220000
  91.6150000  90.9580000  50.1940000  93.3730000  91.8060000  50.9760000
  94.0760000  90.9960000  50.7520000  93.9320000  92.7780000  50.7260000
  92.9310000  91.7530000  52.4980000  92.4240000  90.7710000  52.7200000
  93.8980000  91.6690000  53.0730000  91.9850000  92.8850000  52.8320000
  91.0720000  92.6360000  52.2530000  91.7900000  92.7510000  53.9160000
  92.3950000  94.3870000  52.6000000  92.5420000  94.6140000  51.5730000
  91.6650000  95.0870000  52.9860000  93.7610000  94.6890000  53.3870000
  93.4270000  94.8020000  54.3830000  94.5050000  93.8960000  53.4400000
  94.4630000  95.9440000  52.9890000  94.9380000  96.0310000  51.8860000
  94.3000000  96.9160000  53.8510000  94.4150000  98.2920000  53.3440000
  94.6200000  98.9790000  54.2640000  95.2950000  98.3690000  52.6170000
  93.0990000  98.7970000  52.6390000  93.4340000  99.6170000  51.9860000
  92.1530000  99.5520000  53.5940000  91.2450000  99.8780000  53.0340000
  91.8350000  98.8260000  54.3660000  92.7660000 100.6400000  54.2410000
  93.5370000 101.9020000  53.5030000  92.3910000 102.5380000  52.5150000
  91.4730000 103.5860000  52.9430000  90.8260000 103.1650000  53.7130000
  92.0340000 104.3660000  53.3580000  90.6470000 104.1180000  51.8060000
  89.9430000 104.8640000  52.1520000  91.4510000 104.5820000  51.2140000
  89.8380000 103.2040000  50.9320000  90.6780000 102.2030000  50.1170000
  90.0040000 101.4210000  49.7780000  91.2140000 102.6830000  49.2830000
  91.3270000 101.7370000  50.8040000  88.7400000 102.3970000  51.6120000
  88.1920000 101.8160000  50.8980000  89.0240000 101.8200000  52.4530000
  88.0640000 103.1290000  52.0730000  89.1500000 104.0420000  50.0110000
  89.8650000 104.6330000  49.4870000  88.4280000 104.7160000  50.5220000
  88.5430000 103.4690000  49.2480000  93.8690000 102.9780000  54.5030000
  94.6910000 101.2960000  52.7130000  92.3720000  97.7600000  51.9680000
  91.8610000  97.9550000  50.7500000  91.6180000  99.1110000  50.3310000
  91.5940000  96.8020000  49.8400000  90.8590000  96.2430000  50.2530000
  92.4980000  96.1620000  49.7790000  91.1620000  97.2800000  48.3910000
  92.0350000  97.8190000  47.9730000  90.3540000  97.9530000  48.5690000
  90.6050000  96.1460000  47.5250000  89.6300000  95.8900000  47.8620000
  91.2290000  95.2890000  47.7460000  90.6500000  96.4210000  45.9830000
  90.1270000  97.3580000  45.8600000  90.0670000  95.5830000  45.5650000
  92.0420000  96.3780000  45.2850000  92.3360000  95.3250000  45.3760000
  92.6550000  97.0240000  45.8900000  92.1360000  96.6970000  43.8100000
  91.4060000  96.0030000  43.4180000  93.0840000  96.4880000  43.3530000
  91.8290000  98.2100000  43.4180000  92.3730000  98.5580000  42.4710000
  92.0550000  98.9020000  44.2910000  90.3840000  98.3100000  43.1150000
  89.8260000  98.8230000  43.8950000  89.8140000  97.9110000  42.0380000
  88.7720000  98.1650000  41.8920000  90.4110000  97.0270000  40.9720000
  91.3770000  96.7010000  41.2860000  90.6080000  97.7100000  40.0920000
  89.5270000  95.8470000  40.5990000  89.9010000  95.2250000  39.7550000
  88.5250000  96.2140000  40.5040000  89.6510000  94.8390000  41.6850000
  89.2440000  95.3250000  42.5750000  90.6680000  94.5150000  41.9390000
  88.9740000  93.4060000  41.5290000  87.8960000  93.5860000  41.3520000
  89.1900000  93.0180000  42.5220000  89.7240000  92.5840000  40.4940000
  89.8350000  93.1670000  39.5740000  89.2270000  91.6270000  40.2880000
  91.1450000  92.1940000  40.9970000  91.0710000  91.8520000  42.0500000
  91.7640000  93.0130000  41.0010000  91.7690000  90.9650000  40.2600000
  90.9230000  90.3560000  39.8250000  92.3880000  90.3750000  40.9010000
  92.7410000  91.4330000  39.1400000  93.5700000  92.1080000  39.5030000
  92.1920000  91.8720000  38.2480000  93.2620000  90.5940000  38.7430000
  51.5880000  44.5930000  35.0370000  50.8170000  45.3260000  35.0470000
  52.3820000  44.7920000  34.3950000  52.1060000  44.6820000  36.0370000
  50.8530000  43.2730000  34.7970000  50.2150000  43.4810000  33.9950000
  51.5910000  42.4490000  34.5420000  50.0040000  42.8650000  36.0020000
  50.6400000  42.6130000  36.7850000  49.3210000  43.6590000  36.2160000
  49.2410000  41.6300000  35.7070000  48.5010000  41.9670000  34.9260000
  50.0350000  40.9270000  35.2810000  48.5080000  41.0450000  36.9710000
  47.9530000  40.1320000  36.6240000  49.1410000  40.6260000  37.7110000
  47.6220000  42.0420000  37.6910000  48.2110000  42.7530000  38.2960000
  46.9430000  42.5770000  36.9860000  46.6570000  41.3080000  38.7020000
  46.2600000  40.4280000  38.2190000  47.2120000  41.0460000  39.5760000
  45.4660000  42.1900000  39.0650000  45.0360000  42.6000000  38.1100000
  44.6370000  41.5440000  39.4620000  45.8750000  43.2930000  40.0500000
  46.2070000  42.8340000  40.9740000  46.6050000  43.8420000  39.4000000
  44.5770000  44.1340000  40.3350000  44.1420000  44.4230000  39.4140000
  43.8330000  43.5400000  40.8670000  44.8150000  45.3860000  41.2230000
  45.5390000  45.9920000  40.5940000  43.8420000  45.8920000  41.3780000
  45.2500000  45.1100000  42.6660000  44.8890000  44.0890000  42.7960000
  46.3140000  45.2400000  42.7590000  44.6010000  45.9750000  43.7140000
  44.7910000  47.0660000  43.4670000  43.4840000  46.0020000  43.7020000
  45.1800000  45.7040000  45.0860000  46.2170000  45.8040000  45.1160000
  44.7760000  46.4690000  45.8250000  44.7130000  44.3540000  45.6100000
  43.5980000  44.3250000  45.6480000  45.0920000  43.5180000  44.9670000
  45.2780000  44.1680000  47.0680000  46.3740000  43.7060000  47.2700000
  44.3660000  44.5480000  48.0140000  44.7200000  44.4050000  49.4920000
  45.5350000  43.8080000  49.6220000  45.0670000  45.3920000  49.8690000
  43.6180000  43.8250000  50.3520000  42.7190000  44.4910000  50.4650000
  44.0580000  43.4460000  51.8360000  43.2390000  42.9900000  52.2430000
  44.8920000  42.7590000  51.8270000  44.3850000  44.6390000  52.5440000
  43.3080000  45.5340000  53.3080000  42.8180000  46.4970000  52.0660000
  43.5850000  47.7450000  51.7750000  44.4220000  47.8430000  52.3630000
  43.8830000  47.5850000  50.7320000  42.7950000  49.0060000  52.0440000
  43.3130000  49.8780000  51.7720000  41.7600000  48.8860000  51.6430000
  42.5620000  49.3440000  53.4720000  41.5730000  48.4020000  54.0310000
  40.8410000  48.1710000  53.3080000  42.1890000  47.5600000  54.2340000
  41.1510000  48.8210000  54.9710000  43.8170000  49.4700000  54.3210000
  43.5740000  49.2940000  55.3590000  44.5670000  48.7020000  53.9780000
  44.3040000  50.4450000  54.1910000  41.8800000  50.6830000  53.5530000
  42.5640000  51.4510000  53.3840000  41.5430000  50.8070000  54.5430000
  41.1280000  50.8240000  52.7510000  42.0780000  44.7890000  53.6030000
  43.8500000  46.2900000  54.3950000  43.2120000  42.5430000  49.6840000
  41.9130000  42.2840000  49.4650000  40.9930000  42.9890000  49.8930000
  41.6680000  41.0410000  48.7060000  41.3030000  40.2420000  49.3840000
  42.6160000  40.8860000  48.1990000  40.6530000  41.3310000  47.6070000
  39.7000000  41.6810000  48.0410000  40.5420000  40.4060000  47.1040000
  41.1380000  42.3390000  46.6170000  42.2210000  42.1350000  46.5280000
  41.0060000  43.3390000  47.0390000  40.5090000  42.3730000  45.2230000
  40.7690000  43.3830000  44.8440000  39.4550000  42.5510000  45.2570000
  40.9720000  41.2680000  44.2520000  40.8750000  40.3270000  44.8650000
  41.9930000  41.5380000  43.9390000  40.0940000  41.1360000  43.0120000
  39.9490000  42.2110000  42.7290000  39.0500000  40.8400000  43.2950000
  40.6610000  40.0930000  41.9650000  40.8340000  39.0790000  42.2640000
  41.5510000  40.5930000  41.6940000  39.7440000  40.0970000  40.7300000
  38.6970000  40.1010000  40.9020000  40.0960000  40.3440000  39.4430000
  39.2360000  40.4720000  38.7750000  41.5540000  40.5260000  39.0040000
  42.2250000  40.0800000  39.8330000  41.7710000  41.5750000  38.8360000
  41.8550000  39.7580000  37.7460000  41.0670000  40.0040000  37.0330000
  41.8070000  38.6850000  37.9290000  43.1640000  40.1480000  37.1030000
  44.0310000  40.0040000  37.7050000  43.1200000  41.1870000  36.8820000
  43.4470000  39.3910000  35.7840000  42.6330000  39.6650000  35.1040000
  43.4670000  38.3630000  36.0120000  44.8050000  39.8150000  35.1270000
  45.6050000  39.5240000  35.7900000  44.7910000  40.8410000  34.9180000
  45.0430000  39.1240000  33.7720000  44.2440000  39.4530000  33.0960000
  44.9560000  37.9780000  33.8540000  46.3820000  39.4070000  33.0510000
  46.4100000  40.4900000  32.6560000  46.4370000  38.8200000  32.1790000
  47.6950000  39.1750000  33.8240000  47.8370000  38.0400000  33.8080000
  47.6110000  39.3680000  34.9070000  48.5740000  39.6550000  33.3850000
 137.2700000  80.9220000  37.9660000 137.7690000  80.8870000  38.9270000
 137.0070000  81.9880000  37.7100000 137.9050000  80.5510000  37.1500000
 135.9710000  80.1070000  38.0000000 135.5220000  79.9110000  36.9780000
 136.2150000  79.1840000  38.4320000 134.8130000  80.7700000  38.7080000
 135.0910000  80.7630000  39.7430000 134.8560000  81.8070000  38.5110000
 133.4370000  80.0650000  38.5290000 133.0170000  80.4580000  37.5840000
 133.4290000  78.9700000  38.4890000 132.4410000  80.4230000  39.6560000
 132.5990000  79.7470000  40.4890000 132.6320000  81.4150000  39.9960000
 130.9950000  80.3850000  39.1260000 131.0520000  80.7340000  38.1200000
 130.7450000  79.3170000  39.1990000 130.0100000  81.2850000  39.8940000
 130.2030000  82.3260000  39.7700000 129.0890000  81.1100000  39.3330000
 129.9350000  81.0080000  41.3210000 130.7940000  81.0940000  41.8600000
 129.1850000  81.6640000  41.7620000 129.4850000  79.6420000  41.6630000
 128.7060000  79.4230000  40.9190000 130.3680000  79.0120000  41.5840000
 128.8480000  79.5630000  43.0290000 128.0140000  80.2690000  43.1020000
 128.5470000  78.5330000  43.0880000 129.8140000  79.7540000  44.1720000
 130.3270000  80.6450000  44.0740000 129.2130000  79.9210000  45.1060000
 130.8620000  78.6620000  44.4480000 130.4590000  77.8480000  43.7820000
 131.8260000  78.8810000  43.9850000 131.0120000  78.1120000  45.9420000
 130.1270000  77.5290000  46.1730000 131.7980000  77.3440000  45.9700000
 131.4340000  79.1150000  46.9310000 132.5280000  79.2970000  46.7550000
 130.9500000  80.1430000  46.8700000 131.1580000  78.5030000  48.3430000
 130.2030000  78.0660000  48.3270000 131.9710000  77.8350000  48.5130000
 131.1920000  79.5540000  49.4550000 132.1560000  79.6780000  50.2170000
 130.0990000  80.2820000  49.5110000 129.9980000  81.3930000  50.4990000
 128.9140000  81.6490000  50.5600000 130.4180000  81.0780000  51.4340000
 130.6160000  82.7280000  49.8920000 131.6210000  82.8270000  50.2070000
 129.9300000  83.9660000  50.4710000 129.2580000  84.3530000  49.6870000
 129.2220000  83.6730000  51.2290000 130.8520000  84.9920000  50.9810000
 131.0550000  85.0360000  52.5460000 129.9140000  86.0470000  53.0360000
 129.8960000  87.4140000  52.6910000 130.7300000  87.7580000  53.3080000
 130.0080000  87.5520000  51.5660000 128.4960000  87.9900000  53.0700000
 128.6320000  89.0960000  52.9450000 127.7200000  87.6530000  52.3170000
 127.9250000  87.7580000  54.5080000 128.9600000  87.8080000  55.6500000
 129.6890000  86.9970000  55.5130000 129.3920000  88.7820000  55.6590000
 128.4260000  87.7200000  56.6010000 126.9030000  88.8330000  54.7660000
 126.2280000  88.9700000  53.9450000 126.5060000  88.6740000  55.6660000
 127.4820000  89.7880000  54.6960000 127.2000000  86.4230000  54.6120000
 127.7580000  85.5600000  54.1890000 126.1950000  86.5470000  54.1020000
 127.0930000  86.2630000  55.6500000 130.8020000  83.6850000  52.9610000
 132.3960000  85.5730000  52.7500000 130.5600000  82.7450000  48.4880000
 131.6470000  82.4930000  47.7540000 132.7650000  82.2580000  48.1830000
 131.3230000  82.7170000  46.2740000 130.3540000  82.2250000  45.9580000
 132.1600000  82.2410000  45.6640000 131.2220000  84.2870000  45.9440000
 132.2450000  84.6820000  46.0660000 130.5990000  84.8120000  46.6660000
 130.6820000  84.7420000  44.6060000 130.5080000  85.7910000  44.6420000
 129.7770000  84.1930000  44.4840000 131.4990000  84.2820000  43.3670000
 131.6020000  83.2040000  43.3390000 132.5110000  84.6090000  43.4560000
 130.9580000  84.6720000  41.9360000 129.9340000  84.9650000  41.9790000
 130.9190000  83.7710000  41.4340000 131.7210000  85.7390000  41.1030000
 131.5280000  86.7150000  41.6220000 131.1960000  85.8320000  40.1120000
 133.2290000  85.4550000  40.8790000 133.5160000  84.5080000  40.4050000
 133.6750000  85.3740000  41.8240000 133.8040000  86.6350000  40.1320000
 133.5840000  87.6260000  40.5480000 134.5070000  86.5630000  38.9840000
 134.8570000  87.4890000  38.5270000 135.0470000  85.2990000  38.2460000
 134.5780000  84.3820000  38.6420000 136.0700000  85.1410000  38.5200000
 134.8550000  85.4200000  36.6940000 135.5580000  84.6980000  36.3050000
 135.2380000  86.4020000  36.3810000 133.4450000  85.2670000  36.1930000
 133.5120000  85.5420000  35.1420000 132.9020000  86.1320000  36.5450000
 132.8230000  83.8740000  36.4130000 133.0800000  83.5270000  37.4700000
 133.1580000  83.2480000  35.5330000 131.2970000  84.0340000  36.3990000
 130.7900000  83.0940000  36.2690000 131.1690000  84.7160000  35.5460000
 130.6560000  84.6450000  37.6490000 130.8680000  85.6910000  37.6810000
 131.0560000  84.1630000  38.6060000 129.1380000  84.5900000  37.4040000
 128.7740000  83.5070000  37.3230000 128.8830000  85.1170000  36.5140000
 128.3670000  85.0920000  38.6290000 128.6640000  86.0950000  38.8630000
 128.5610000  84.4820000  39.5220000 127.2930000  85.0760000  38.4060000
  33.3340000 104.7820000  41.9240000  33.6700000 104.8170000  42.8920000
  34.2370000 104.5880000  41.3390000  32.6620000 103.9430000  41.7980000
  32.6550000 106.0490000  41.4400000  32.4590000 105.9250000  40.3900000
  31.6310000 106.0640000  41.8150000  33.4270000 107.3850000  41.7820000
  33.1230000 107.4320000  42.7950000  34.5150000 107.3340000  41.6940000
  32.8780000 108.6350000  41.0910000  33.5160000 109.5550000  41.1300000
  32.9980000 108.3510000  39.9950000  31.4260000 108.9410000  41.5860000
  30.9090000 109.4960000  40.7560000  30.8740000 108.0390000  41.8330000
  31.6060000 109.8620000  42.7440000  32.1610000 109.3530000  43.5380000
  32.1340000 110.7690000  42.5240000  30.2840000 110.2030000  43.4810000
  30.5100000 111.0850000  44.0250000  29.4870000 110.3320000  42.8010000
  29.8670000 109.2390000  44.6230000  30.6700000 108.9850000  45.2600000
  29.0680000 109.7790000  45.1710000  29.3370000 107.8530000  44.1810000
  28.6960000 108.1100000  43.4060000  30.1260000 107.4180000  43.6240000
  28.5490000 107.0570000  45.2730000  27.7450000 107.6760000  45.6870000
  28.1040000 106.1450000  44.8310000  29.4070000 106.6300000  46.5120000
  29.7030000 107.5000000  47.0940000  28.7710000 106.0500000  47.1690000
  30.7190000 105.8210000  46.2070000  30.4460000 104.9240000  45.6780000
  31.5320000 106.4050000  45.6470000  31.3530000 105.4970000  47.5540000
  31.3490000 106.4710000  48.1100000  30.7080000 104.7290000  48.0120000
  32.8220000 104.9470000  47.5420000  32.9260000 104.3880000  46.5790000
  33.5540000 105.7380000  47.5240000  33.0420000 103.8900000  48.6700000
  32.3000000 103.1530000  48.5550000  34.1020000 103.5340000  48.5710000
  32.7230000 104.3920000  50.0780000  33.3750000 105.3040000  50.5940000
  31.6500000 103.8050000  50.6620000  31.3990000 104.0720000  52.0770000
  30.6240000 103.3890000  52.3700000  32.2320000 104.0310000  52.7460000
  30.7690000 105.4620000  52.2340000  31.5580000 106.2220000  52.0320000
  30.2160000 105.5540000  53.6890000  29.6620000 104.6520000  53.9000000
  31.0530000 105.7230000  54.4540000  29.3610000 106.5970000  53.7670000
  28.3790000 106.7350000  55.0670000  27.1730000 105.6730000  54.9530000
  26.1520000 105.8160000  53.9650000  25.1770000 105.4950000  54.3500000
  26.0160000 106.8530000  53.7410000  26.5770000 105.1620000  52.6330000
  25.7660000 105.3930000  51.9740000  27.4880000 105.5720000  52.2790000
  26.5980000 103.6620000  52.5530000  27.5200000 103.2770000  51.4530000
  27.2270000 103.7370000  50.4550000  28.5360000 103.4820000  51.7340000
  27.4700000 102.1830000  51.3220000  27.0900000 103.0760000  53.7990000
  27.9590000 103.6360000  53.9810000  26.3520000 103.2220000  54.6050000
  27.2910000 102.0170000  53.6760000  25.2070000 103.1130000  52.3150000
  25.3310000 102.0690000  52.2160000  24.8910000 103.6560000  51.3970000
  24.5690000 103.3810000  53.1230000  29.2470000 106.3050000  56.1600000
  27.7320000 108.0580000  55.0800000  29.6500000 105.6390000  51.3410000
  29.6160000 106.7900000  50.6540000  30.5420000 107.5460000  50.6330000
  28.2300000 107.1060000  49.9160000  27.4760000 106.8610000  50.5840000
  28.0150000 106.4210000  49.0320000  28.1770000 108.6460000  49.5720000
  29.1070000 108.8790000  49.1040000  28.1180000 109.2700000  50.4480000
  27.0050000 108.9950000  48.6460000  26.0530000 109.1280000  49.2270000
  26.8140000 108.1350000  48.0550000  27.2180000 110.3170000  47.9310000
  28.1540000 110.3080000  47.3840000  27.3140000 111.1220000  48.6900000
  26.1770000 110.6300000  46.8440000  25.1600000 110.7230000  47.2720000
  26.1680000 109.7360000  46.1770000  26.4510000 111.8260000  45.9580000
  27.3670000 111.7660000  45.4020000  26.5870000 112.5930000  46.6900000
  25.3860000 112.0960000  44.8950000  24.3000000 112.0390000  45.3460000
  25.3630000 111.3520000  44.1640000  25.4490000 113.3920000  44.1220000
  25.7760000 114.3230000  44.6290000  25.3430000 113.4870000  42.7980000
  25.5580000 114.4460000  42.3620000  24.5870000 112.5190000  41.8590000
  24.1800000 113.0500000  41.0120000  23.6990000 112.0830000  42.3800000
  25.4880000 111.4110000  41.3500000  25.9690000 110.8410000  42.1640000
  26.3530000 111.7450000  40.7870000  24.6370000 110.5480000  40.3740000
  24.1980000 111.0620000  39.4570000  23.7250000 110.1550000  40.9040000
  25.4370000 109.3360000  39.8960000  24.6870000 108.6860000  39.4160000
  25.9360000 108.8210000  40.7970000  26.5450000 109.6160000  38.7840000
  27.2250000 110.4610000  39.1850000  26.1000000 110.0270000  37.8630000
  27.5200000 108.4250000  38.5520000  27.1140000 107.5290000  37.9290000
  27.8920000 107.9880000  39.4600000  28.7880000 108.8570000  37.8920000
  29.3410000 109.5480000  38.5380000  28.5600000 109.4540000  36.9910000
  29.6440000 107.6570000  37.5550000  29.6360000 107.0300000  38.3830000
  30.6530000 108.0240000  37.3540000  29.2840000 107.1410000  36.6550000
 151.4550000 145.3240000  37.9380000 152.3260000 145.0300000  37.3490000
 151.7930000 146.1330000  38.5940000 150.6530000 145.7170000  37.2950000
 150.9630000 144.1060000  38.7770000 150.4740000 143.4080000  38.1120000
 151.8310000 143.6090000  39.1050000 149.9620000 144.4050000  39.8950000
 149.0590000 144.9210000  39.5120000 149.5470000 143.3650000  40.1720000
 150.6190000 144.9910000  41.1440000 151.4050000 144.2310000  41.5110000
 150.8780000 146.0500000  40.9600000 149.5870000 145.0360000  42.2750000
 150.0980000 145.4350000  43.1560000 148.7080000 145.7090000  42.1730000
 149.0110000 143.7070000  42.7870000 148.5070000 143.1250000  42.0050000
 149.8080000 143.1210000  43.2950000 148.0890000 143.9370000  43.9400000
 148.5580000 144.5810000  44.6960000 147.1850000 144.4660000  43.5640000
 147.7450000 142.5710000  44.5400000 147.4590000 141.8280000  43.7920000
 148.7000000 142.1880000  44.9820000 146.7590000 142.6150000  45.6430000
 146.9840000 143.4220000  46.2610000 145.6870000 142.7980000  45.2830000
 146.6920000 141.2780000  46.4390000 146.5970000 140.4940000  45.6420000
 147.6100000 140.9340000  46.9030000 145.5450000 141.1990000  47.5020000
 144.6860000 141.5570000  47.0120000 145.3760000 140.1270000  47.8100000
 145.9630000 141.8130000  48.9060000 146.8780000 141.2200000  49.1990000
 146.1950000 142.8060000  48.5840000 144.8910000 141.6260000  49.9640000
 144.0520000 142.2720000  49.6270000 144.5010000 140.6560000  49.9640000
 145.4210000 142.1780000  51.3610000 146.0800000 141.4150000  51.7930000
 145.9280000 143.1890000  51.1810000 144.2590000 142.5780000  52.2810000
 144.7300000 143.2850000  53.0120000 143.4950000 143.0930000  51.6680000
 143.5320000 141.4600000  52.9070000 143.7840000 141.0200000  54.0040000
 142.6250000 140.8780000  52.1020000 142.0010000 139.6500000  52.4660000
 142.8300000 139.0010000  52.4380000 141.6840000 139.6140000  53.4450000
 140.9270000 139.3690000  51.3790000 140.4460000 140.3120000  51.2020000
 139.8970000 138.4180000  51.9500000 139.5310000 138.8690000  52.8370000
 139.0960000 138.4390000  51.2790000 140.2600000 137.0320000  52.2610000
 141.2180000 136.6120000  53.4440000 142.6090000 136.7710000  52.7550000
 142.8500000 136.0960000  51.5060000 142.8410000 134.9870000  51.6080000
 141.9690000 136.2700000  50.8690000 144.2040000 136.6200000  50.9560000
 144.1910000 137.6770000  50.6180000 144.9390000 136.5340000  51.7310000
 144.7460000 135.7950000  49.7500000 145.5640000 136.6880000  48.8920000
 144.8390000 137.4240000  48.4840000 146.2750000 137.1810000  49.5680000
 145.8770000 136.1780000  48.0530000 145.6290000 134.7620000  50.2720000
 145.0380000 133.9050000  50.4610000 146.3950000 134.4770000  49.5290000
 146.1340000 135.1690000  51.1950000 143.6620000 135.2430000  48.9350000
 143.0320000 134.7690000  49.6760000 144.0340000 134.5230000  48.1490000
 143.0580000 136.0970000  48.4660000 141.1530000 137.6650000  54.4680000
 140.9610000 135.2240000  53.8490000 141.5800000 138.7580000  50.2800000
 141.1200000 138.9800000  49.0640000 140.0690000 139.5210000  48.9220000
 142.1030000 138.5160000  47.9910000 141.8320000 137.6070000  47.5930000
 143.0610000 138.3520000  48.5270000 142.2900000 139.5540000  46.8640000
 142.5590000 140.5000000  47.2950000 141.3620000 139.6490000  46.3300000
 143.3220000 139.2020000  45.8050000 143.0140000 138.2060000  45.4350000
 144.3330000 138.9570000  46.2080000 143.4100000 140.1890000  44.6280000
 143.4040000 141.2230000  44.9800000 142.5190000 140.0710000  44.1110000
 144.5860000 139.9300000  43.6250000 144.8260000 138.8660000  43.4840000
 145.4180000 140.4550000  43.9820000 144.2450000 140.6510000  42.3190000
 144.0300000 141.6980000  42.5300000 143.2670000 140.3390000  42.0250000
 145.2420000 140.5140000  41.1130000 145.4680000 139.4810000  41.0630000
 146.1670000 141.1140000  41.3070000 144.5450000 140.9690000  39.8440000
 143.6730000 141.6460000  39.8400000 144.7510000 140.4780000  38.5890000
 144.0830000 140.9160000  37.8730000 145.8140000 139.4920000  38.0850000
 145.4720000 138.9520000  37.2590000 146.0460000 138.8360000  38.9150000
 146.9920000 140.2500000  37.5740000 147.3520000 140.9320000  38.3300000
 146.6480000 140.8870000  36.7040000 148.1790000 139.3440000  37.1380000
 148.8660000 139.9800000  36.6250000 147.7810000 138.6400000  36.4080000
 148.9540000 138.5670000  38.2310000 148.2740000 138.0550000  38.8980000
 149.5130000 139.2230000  38.8130000 150.0720000 137.5630000  37.6730000
 150.6880000 138.2060000  37.0390000 149.5260000 136.8150000  37.0520000
 150.7840000 136.8220000  38.8450000 149.9890000 136.3400000  39.4020000
 151.2040000 137.5920000  39.4490000 151.8120000 135.7860000  38.3370000
 151.2810000 135.1650000  37.5320000 152.2150000 135.1500000  39.1960000
 152.9770000 136.5150000  37.6350000 153.7700000 136.8770000  38.2400000
 152.6070000 137.3600000  37.0340000 153.3780000 135.8190000  36.9340000
  89.4420000  83.6760000  35.1400000  89.8170000  82.7160000  34.7320000
  89.5250000  84.5670000  34.4680000  88.3650000  83.5220000  35.2210000
  89.9920000  83.9590000  36.5520000  89.6360000  83.2210000  37.1560000
  91.1200000  83.8100000  36.4560000  89.6760000  85.3170000  37.0810000
  89.7880000  86.0560000  36.2040000  88.6370000  85.2240000  37.2940000
  90.4650000  85.7110000  38.2880000  90.3360000  84.9490000  39.0730000
  91.4910000  85.7550000  37.9720000  90.1360000  87.1490000  38.8520000
  90.7140000  87.3480000  39.7310000  90.4090000  87.9740000  38.1360000
  88.6660000  87.2200000  39.3160000  88.1160000  87.1630000  38.3490000
  88.4430000  86.3600000  39.9500000  88.1630000  88.5180000  40.0060000
  88.2840000  89.4180000  39.3880000  87.2080000  88.3560000  40.3440000
  88.9400000  88.7880000  41.3500000  89.9790000  89.0770000  41.1230000
  88.5260000  89.6260000  41.7460000  89.1270000  87.6470000  42.3520000
  88.1160000  87.3470000  42.7390000  89.4660000  86.6970000  41.9130000
  90.0850000  87.9500000  43.5680000  89.8060000  88.9160000  43.9660000
  89.8840000  87.2220000  44.2870000  91.5740000  88.0000000  43.2260000
  91.6450000  88.6070000  42.3310000  92.1490000  88.5270000  43.9820000
  92.1910000  86.6140000  43.0800000  92.4650000  86.2770000  44.1000000
  91.6770000  85.9500000  42.4560000  93.5250000  86.7250000  42.3450000
  93.3620000  87.2610000  41.3970000  94.2100000  87.1980000  43.0660000
  94.1240000  85.2870000  42.0780000  93.5340000  84.7870000  41.3820000
  95.0530000  85.5440000  41.5840000  94.3900000  84.3840000  43.2810000
  93.5120000  84.1300000  43.8470000  94.7320000  83.4540000  42.8380000
  95.3270000  84.8680000  44.3950000  96.3240000  85.4880000  44.2360000
  94.7810000  84.4980000  45.5690000  95.4290000  84.8960000  46.7790000
  95.2490000  84.1300000  47.5400000  96.4670000  85.1530000  46.7090000
  94.6270000  86.1240000  47.3610000  95.0330000  86.3940000  48.3470000
  93.0690000  85.7400000  47.4170000  92.6800000  85.5220000  46.4330000
  93.0020000  84.8820000  48.2280000  92.2670000  86.8800000  48.0740000
  90.9270000  86.5440000  48.9530000  91.3900000  86.8280000  50.3960000
  91.7320000  88.1440000  50.7480000  92.3020000  88.4220000  49.8740000
  90.7920000  88.6930000  51.0240000  92.6810000  88.0940000  51.9610000
  93.1060000  89.0780000  52.2350000  92.1430000  87.6150000  52.7380000
  93.8950000  87.2520000  51.8710000  93.5830000  85.8300000  51.8760000
  94.3690000  85.2570000  51.4700000  93.3940000  85.5450000  52.9230000
  92.6580000  85.7130000  51.3570000  94.6560000  87.5010000  50.5510000
  93.9370000  87.3920000  49.7820000  95.0140000  88.5270000  50.5690000
  95.4440000  86.7640000  50.4920000  94.7870000  87.5820000  52.9880000
  95.4840000  86.7740000  53.0620000  94.2130000  87.7240000  53.8520000
  95.3360000  88.4800000  52.7420000  89.9540000  87.5780000  48.6890000
  90.5400000  85.1230000  48.9180000  94.7090000  87.2400000  46.4580000
  95.5550000  88.1890000  46.8200000  96.1910000  88.3930000  47.8530000
  95.8050000  89.1880000  45.7040000  95.1480000  90.0220000  46.0050000
  95.4130000  88.8360000  44.8060000  97.2930000  89.5060000  45.4860000
  97.6820000  88.6130000  45.0690000  97.8230000  89.7920000  46.4210000
  97.4210000  90.8030000  44.5880000  98.1910000  91.3770000  44.9960000
  96.6290000  91.4810000  44.5290000  97.8650000  90.4440000  43.1360000
  98.8400000  89.9660000  43.0920000  98.0020000  91.2950000  42.5740000
  96.7330000  89.6640000  42.4860000  95.7610000  90.0550000  42.8850000
  96.8740000  88.6970000  42.8500000  96.7590000  89.8820000  40.9260000
  97.7400000  89.7070000  40.4970000  96.4960000  90.9100000  40.7740000
  95.8920000  88.9730000  40.0330000  95.8150000  89.4490000  39.0450000
  94.9280000  88.8660000  40.4970000  96.3530000  87.5830000  39.7680000
  97.3150000  87.2770000  40.2860000  95.8810000  86.7500000  38.8500000
  96.4120000  85.8110000  38.6040000  94.5130000  86.9910000  38.2020000
  93.8860000  87.5970000  38.8190000  93.8660000  86.0840000  38.0250000
  94.7680000  87.6690000  36.8840000  95.3640000  87.0190000  36.2380000
  95.3640000  88.5730000  37.0050000  93.4060000  88.0560000  36.3060000
  92.8600000  88.6250000  37.1490000  92.7430000  87.1200000  36.0980000
  93.5100000  89.0110000  35.1020000  94.2550000  88.5520000  34.4110000
  93.8930000  90.0490000  35.1990000  92.1950000  89.1830000  34.3510000
  91.7760000  88.2200000  34.1990000  92.2430000  89.5990000  33.3810000
  91.1390000  90.0870000  35.1050000  91.6100000  91.0450000  35.2300000
  91.0160000  89.7150000  36.1450000  89.7110000  90.0510000  34.4590000
  89.3230000  89.0260000  34.2680000  89.7480000  90.6170000  33.5330000
  88.7500000  90.8320000  35.4020000  89.1680000  91.8600000  35.6150000
  88.7320000  90.3710000  36.3940000  87.6950000  90.8140000  35.0580000
 133.6670000 117.0410000  37.3580000 133.7990000 116.0730000  37.8890000
 134.3400000 117.7370000  37.8180000 133.9100000 116.9950000  36.3630000
 132.2050000 117.5110000  37.3610000 132.2110000 118.5090000  37.0740000
 131.6090000 116.8750000  36.6440000 131.4730000 117.4250000  38.7510000
 130.5530000 117.9830000  38.6120000 131.4960000 116.3750000  39.0370000
 132.3550000 118.1060000  39.8770000 133.1080000 117.4090000  40.1390000
 132.7060000 119.0620000  39.4890000 131.7060000 118.4400000  41.2900000
 132.3610000 118.9610000  41.9450000 130.9280000 119.1600000  41.1410000
 130.8640000 117.3450000  41.9470000 130.0410000 117.1180000  41.3080000
 131.4190000 116.3880000  42.0520000 130.4600000 117.6200000  43.4280000
 130.0130000 116.7580000  43.9110000 131.3320000 117.7460000  44.0960000
 129.4970000 118.8140000  43.5630000 128.8650000 118.7440000  42.6570000
 128.8930000 118.5170000  44.4060000 130.0870000 120.2220000  43.8380000
 131.1680000 120.2860000  43.9990000 129.8570000 120.7960000  42.8990000
 129.4040000 121.0030000  44.9840000 128.3400000 121.0180000  44.9260000
 129.6670000 120.3680000  45.8840000 129.9790000 122.3200000  45.0870000
 130.0060000 122.6240000  46.1190000 131.0110000 122.2200000  44.6920000
 129.2130000 123.4350000  44.3790000 129.9590000 124.1980000  44.2660000
 128.8090000 122.9850000  43.4310000 128.0650000 124.0470000  45.0990000
 127.2440000 123.3000000  45.0030000 128.3230000 124.1200000  46.1710000
 127.5840000 125.3500000  44.5650000 128.3900000 126.0720000  44.4240000
 127.2240000 125.1480000  43.5190000 126.4700000 125.9410000  45.4460000
 126.9450000 126.1710000  46.4840000 126.1140000 126.7940000  44.9020000
 125.1970000 125.0640000  45.6000000 124.7600000 124.3910000  44.6540000
 124.6960000 125.1740000  46.8500000 123.7510000 124.1390000  47.3070000
 123.3070000 124.5800000  48.1940000 123.0210000 124.0210000  46.5030000
 124.5390000 122.9100000  47.8530000 123.9830000 122.4000000  48.5120000
 125.8090000 123.2720000  48.6640000 126.6110000 123.7600000  48.1230000
 125.3790000 124.0020000  49.3750000 126.1780000 121.9920000  49.2120000
 127.2020000 121.9410000  50.4450000 128.5570000 122.2830000  49.7700000
 129.1810000 121.4400000  48.7270000 128.7260000 120.4340000  48.9110000
 128.9340000 121.7390000  47.7320000 130.7650000 121.2600000  48.9130000
 131.1540000 120.4740000  48.2870000 131.2890000 122.1840000  48.7200000
 131.2860000 120.9090000  50.3140000 132.6920000 120.3990000  50.1640000
 132.5770000 119.4340000  49.6270000 133.3100000 121.0570000  49.5070000
 133.1520000 120.1980000  51.1050000 131.2230000 122.1020000  51.2150000
 131.3620000 121.7360000  52.2160000 132.1540000 122.5910000  50.9120000
 130.3310000 122.6290000  50.9460000 130.5040000 119.8730000  51.0350000
 130.7280000 119.8180000  52.0660000 130.6240000 118.8700000  50.6100000
 129.4340000 120.2010000  51.0120000 126.9680000 123.0930000  51.3420000
 127.1930000 120.5640000  50.9170000 125.0720000 122.0520000  46.7920000
 124.1220000 121.2900000  46.1530000 122.9640000 121.2540000  46.4990000
 124.6470000 120.3260000  45.1660000 123.7720000 119.7280000  44.8270000
 125.4870000 119.6550000  45.5300000 125.2390000 121.1000000  43.9970000
 126.0460000 121.6840000  44.4070000 124.5320000 121.8490000  43.6690000
 125.8580000 120.3980000  42.7850000 125.0790000 119.8860000  42.3400000
 126.5910000 119.6910000  43.1090000 126.4790000 121.3490000  41.7920000
 127.4680000 121.6560000  42.1040000 125.9260000 122.3140000  41.7220000
 126.6380000 120.6630000  40.4160000 125.7330000 120.8660000  39.8270000
 126.8100000 119.5460000  40.4660000 127.7950000 121.1430000  39.5200000
 128.7100000 120.9000000  40.0010000 127.7900000 122.2780000  39.3900000
 127.7620000 120.6320000  38.0540000 127.1150000 121.2790000  37.4350000
 127.3400000 119.6800000  38.1450000 129.1390000 120.6100000  37.5060000
 129.8290000 121.3320000  37.9380000 129.5270000 119.7250000  36.5630000
 130.5840000 119.7200000  36.3240000 128.6860000 118.6480000  35.8580000
 127.7080000 118.5060000  36.3500000 129.2650000 117.7980000  35.9180000
 128.3100000 119.0790000  34.4410000 129.1390000 119.7070000  33.9660000
 127.4630000 119.7670000  34.4120000 128.1720000 117.8270000  33.5110000
 129.0520000 117.1570000  33.6230000 128.0270000 118.0650000  32.4250000
 126.9290000 117.0160000  33.9020000 126.0320000 117.6860000  34.0950000
 127.1540000 116.4380000  34.7620000 126.5270000 115.9090000  32.8550000
 125.8240000 115.1870000  33.3370000 127.4740000 115.4890000  32.5220000
 125.8490000 116.3930000  31.5180000 126.5880000 116.8490000  30.8540000
 125.0360000 117.1100000  31.7810000 125.2810000 115.1340000  30.8720000
 124.5980000 114.6240000  31.4540000 126.0520000 114.3430000  30.6720000
 124.6260000 115.5100000  29.5440000 124.1180000 114.6200000  29.3240000
 125.3400000 115.9000000  28.7870000 123.9650000 116.3940000  29.7550000
   5.3530000  84.5180000  50.4580000   5.9300000  84.4550000  49.4680000
   5.1600000  83.4710000  50.7310000   5.9550000  85.1470000  51.0830000
   4.0600000  85.2580000  50.0980000   3.3480000  84.7690000  49.4480000
   3.4640000  85.3150000  51.0080000   4.2390000  86.7230000  49.6110000
   3.3140000  87.1990000  49.5670000   4.8610000  87.2410000  50.3630000
   4.9860000  86.9030000  48.2820000   5.8500000  86.2310000  48.2120000
   4.2930000  86.6170000  47.5110000   5.4890000  88.3670000  48.0540000
   4.6610000  89.1030000  48.2500000   6.2520000  88.6260000  48.8140000
   5.9050000  88.5290000  46.6340000   6.5880000  87.7310000  46.4650000
   4.9960000  88.3800000  46.0010000   6.6240000  89.9010000  46.3610000
   6.1860000  90.5890000  46.9910000   7.6240000  89.9060000  46.6470000
   6.5670000  90.2620000  44.8320000   5.4460000  90.4720000  44.5830000
   6.9980000  91.2400000  44.8210000   7.2340000  89.3420000  43.8220000
   6.7060000  88.4450000  43.8960000   7.1910000  89.7970000  42.8210000
   8.7380000  89.1640000  44.0360000   9.0860000  90.1690000  43.8670000
   8.8390000  88.8000000  45.0100000   9.4850000  88.1750000  43.1030000
   9.1610000  87.1840000  43.2900000   9.0130000  88.4460000  42.1550000
  11.0010000  88.2970000  43.0320000  11.4450000  87.7030000  42.2080000
  11.3690000  89.3150000  42.7860000  11.5800000  87.7480000  44.3180000
  11.1290000  88.2880000  45.1860000  11.2350000  86.7500000  44.5440000
  13.0900000  88.0130000  44.2070000  13.4670000  87.4400000  43.3470000
  13.2370000  89.0500000  44.0340000  13.9050000  87.6230000  45.4690000
  13.4340000  88.0840000  46.3220000  13.9120000  86.4660000  45.5490000
  15.3500000  88.1080000  45.4450000  15.9090000  88.6420000  44.4620000
  15.9420000  87.8160000  46.5390000  17.3790000  87.9420000  46.5690000
  17.9110000  87.0160000  46.7700000  17.8490000  88.2750000  45.6450000
  17.6570000  89.0400000  47.5890000  18.7260000  89.1820000  47.6530000
  17.2790000  88.6980000  48.9930000  16.1990000  88.5020000  48.9810000
  17.7770000  87.7610000  49.3000000  17.4880000  89.8450000  49.8860000
  16.8840000  89.7760000  51.3280000  15.3040000  89.8340000  51.0330000
  14.5270000  91.0470000  51.1410000  14.9540000  91.8560000  50.5850000
  13.6160000  90.8210000  50.7480000  14.3220000  91.3340000  52.6500000
  13.7620000  90.5320000  53.1450000  15.3210000  91.4420000  53.0060000
  13.6830000  92.6650000  53.0050000  12.3190000  92.9040000  52.4360000
  11.7020000  92.1130000  52.8930000  11.9950000  93.8660000  52.7460000
  12.2390000  92.9090000  51.3440000  13.5850000  92.7160000  54.5280000
  14.5920000  92.8340000  54.9750000  13.0080000  93.5890000  54.7280000
  12.8220000  91.9810000  54.8950000  14.6560000  93.7090000  52.4570000
  14.5800000  94.6550000  53.0640000  14.3360000  93.9390000  51.3900000
  15.7340000  93.4940000  52.5590000  17.1480000  88.4930000  51.9330000
  17.3060000  91.0260000  51.9610000  16.8910000  90.1820000  47.2550000
  17.5540000  91.3750000  47.3240000  18.7400000  91.4440000  47.6430000
  16.7120000  92.4870000  46.6780000  15.7050000  92.0040000  46.4450000
  17.1670000  92.8000000  45.7450000  16.6630000  93.5380000  47.7440000
  17.6110000  94.1370000  47.6770000  16.6680000  93.0810000  48.7490000
  15.4940000  94.5240000  47.6530000  15.6750000  95.4450000  48.1430000
  14.7480000  93.9230000  48.2120000  15.1820000  94.9590000  46.1940000
  14.8090000  94.1060000  45.6270000  16.1020000  95.2500000  45.7100000
  14.2030000  96.1920000  46.0840000  14.5670000  97.1370000  46.4140000
  13.2830000  95.9720000  46.6020000  13.9630000  96.4570000  44.6320000
  13.4640000  95.5660000  44.1140000  14.9550000  96.7410000  44.1970000
  13.0210000  97.6940000  44.3220000  13.5470000  98.5640000  44.5640000
  12.1330000  97.5570000  44.9370000  12.5310000  97.6700000  42.8590000
  12.4170000  96.6930000  42.4590000  12.2010000  98.7220000  42.0990000
  12.0080000  98.5370000  41.0600000  12.4150000 100.1920000  42.5320000
  12.9210000 100.6610000  41.7020000  12.9930000 100.3780000  43.4470000
  11.0830000 100.9650000  42.6610000  11.2680000 102.0050000  43.0030000
  10.5290000 100.4450000  43.4650000  10.1440000 101.0350000  41.3830000
  10.7970000 100.8190000  40.5750000   9.9030000 102.1200000  41.3020000
   8.9130000 100.1150000  41.5440000   8.1300000 100.5560000  41.0000000
   8.6890000 100.1800000  42.5640000   8.9750000  98.6130000  41.0640000
   9.6670000  98.0590000  41.7370000   9.3480000  98.6090000  40.0280000
   7.5630000  98.0970000  41.0190000   7.0830000  98.7660000  40.3320000
   7.0040000  98.2450000  41.9800000   7.4350000  96.6260000  40.4840000
   7.9060000  96.5150000  39.5050000   6.4120000  96.4770000  40.4200000
   8.0450000  95.5060000  41.2800000   7.6670000  94.6600000  40.7610000
   7.8320000  95.4800000  42.3110000   9.1040000  95.4850000  41.1230000
   8.2700000 104.8770000  38.5540000   8.2010000 105.9560000  38.5260000
   7.5420000 104.6180000  37.8210000   9.2970000 104.6010000  38.3030000
   7.8760000 104.3290000  39.9430000   6.8570000 104.6240000  40.1010000
   7.8460000 103.2240000  39.8860000   8.7410000 104.7440000  41.1130000
   9.7570000 104.3960000  41.0240000   8.8730000 105.8380000  41.1060000
   8.1570000 104.1330000  42.4010000   7.0960000 104.1770000  42.4670000
   8.3490000 103.0590000  42.4720000   8.8110000 104.8880000  43.5590000
   9.8570000 104.8440000  43.3350000   8.4040000 105.9470000  43.7000000
   8.5130000 104.0960000  44.8920000   7.4350000 103.9320000  45.0180000
   8.9350000 103.0970000  44.6380000   9.1390000 104.6700000  46.1740000
   8.8370000 105.6320000  46.4540000   8.8360000 104.0370000  47.0070000
  10.7080000 104.5500000  45.9870000  10.9160000 103.4620000  45.7010000
  11.0430000 105.0050000  45.0870000  11.5070000 104.8820000  47.2160000
  11.5260000 105.9470000  47.2580000  11.0840000 104.4580000  48.1520000
  12.9650000 104.4010000  47.1100000  13.3730000 104.8300000  46.1080000
  13.5250000 104.8040000  47.9280000  13.2670000 102.9270000  47.0860000
  12.9960000 102.5370000  46.0290000  14.3990000 102.8640000  47.0170000
  12.6390000 102.1190000  48.2680000  12.9010000 102.6120000  49.1950000
  11.6080000 102.2350000  48.1750000  13.0530000 100.6760000  48.3440000
  14.1250000 100.5590000  48.4650000  12.7070000 100.1580000  49.2040000
  12.6140000  99.8220000  47.1360000  13.0720000 100.2280000  46.2450000
  12.9590000  98.8080000  47.2410000  11.0490000  99.7280000  46.8780000
  10.5850000 100.6170000  47.1050000  10.8060000  99.4730000  45.8370000
  10.4740000  98.5650000  47.7290000  10.2510000  97.4660000  47.3060000
  10.1930000  98.9580000  49.0200000   9.9490000  97.8790000  50.0170000
   9.6270000  98.3710000  50.9260000   9.1130000  97.2420000  49.7180000
  11.1430000  96.9580000  50.2100000  11.2480000  96.3560000  49.3400000
  11.0240000  96.0260000  51.4210000  10.2150000  95.3370000  51.3250000
  11.9640000  95.4930000  51.4060000  10.9310000  96.8470000  52.6280000
  11.6400000  96.3510000  53.9780000  11.6560000  97.6670000  54.8380000
  12.6820000  98.6400000  54.7330000  12.5920000  99.3360000  55.5780000
  13.6610000  98.2020000  54.8120000  12.5730000  99.4050000  53.3550000
  13.4530000  99.8910000  53.0050000  12.3650000  98.6850000  52.5690000
  11.4060000 100.3780000  53.2200000  11.2920000 100.8410000  51.7920000
  10.5610000 101.6380000  51.6410000  12.2840000 101.2030000  51.5500000
  11.0690000 100.0130000  51.2000000  10.0400000  99.8320000  53.6530000
   9.3000000 100.6750000  53.6110000   9.8450000  98.9750000  53.0240000
  10.1470000  99.4030000  54.6080000  11.5560000 101.6300000  54.0510000
  10.7700000 102.2970000  53.8550000  12.4910000 102.0910000  53.6960000
  11.5830000 101.4530000  55.0920000  10.7270000  95.3930000  54.6960000
  13.0290000  95.9810000  53.7370000  12.3450000  97.7640000  50.4800000
  13.5490000  97.2170000  50.5310000  13.7930000  96.0500000  50.2740000
  14.6550000  98.1540000  50.7220000  14.3260000  99.0070000  51.2740000
  14.9890000  98.5600000  49.7660000  15.7410000  97.4130000  51.5260000
  16.1700000  96.6070000  51.0450000  15.2770000  96.9530000  52.3830000
  16.9280000  98.2800000  51.8070000  17.6950000  97.6920000  52.4430000
  16.5780000  99.2330000  52.2400000  17.6620000  98.6810000  50.5140000
  18.5520000  99.3030000  50.7420000  17.0690000  99.3490000  49.9550000
  18.0370000  97.5020000  49.6040000  17.1970000  96.9070000  49.2370000
  18.6220000  96.8060000  50.2160000  18.9350000  97.9210000  48.4010000
  19.1770000  96.9930000  47.8630000  19.9520000  98.3700000  48.7830000
  18.1660000  98.8840000  47.3700000  18.8610000  99.4960000  46.8830000
  17.3670000  99.5560000  47.7910000  17.5300000  98.0160000  46.3350000
  17.4220000  96.9760000  46.6460000  16.9370000  98.3840000  45.1850000
  16.4630000  97.5640000  44.6020000  16.8530000  99.8330000  44.6260000
  17.2340000 100.5560000  45.3560000  15.8520000 100.1750000  44.3090000
  17.7860000  99.9750000  43.3790000  18.7380000  99.8240000  43.7590000
  17.6820000 100.9090000  42.9910000  17.5290000  99.0210000  42.1710000
  17.4900000  97.9140000  42.3650000  18.3390000  99.0380000  41.4590000
  16.1600000  99.2450000  41.4820000  15.8910000 100.2820000  41.3600000
  15.4220000  98.7750000  42.0850000  16.0300000  98.6020000  40.1160000
  16.1480000  97.5040000  40.3490000  16.8780000  98.9370000  39.5270000
  14.6670000  98.8400000  39.3560000  14.7450000  99.8670000  38.9140000
  13.8880000  98.8330000  40.1640000  14.4250000  97.8340000  38.2850000
  14.2370000  96.8780000  38.7060000  15.3320000  97.7880000  37.6690000
  13.2520000  98.2570000  37.4040000  12.3870000  98.4340000  37.9740000
  13.0170000  97.4220000  36.7070000  13.5010000  99.1900000  36.8030000
 123.8700000  74.9540000  37.5050000 123.6270000  74.5330000  38.4570000
 124.9310000  75.1110000  37.3830000 123.6360000  74.2270000  36.7170000
 123.0940000  76.2780000  37.3620000 123.4080000  77.0250000  38.0880000
 123.2820000  76.7440000  36.3570000 121.5840000  75.9840000  37.5820000
 121.3590000  75.1290000  36.9310000 121.3830000  75.5200000  38.5270000
 120.7070000  77.1770000  37.2720000 121.1600000  78.1600000  37.4660000
 120.6300000  77.2420000  36.1830000 119.3830000  77.1140000  38.0130000
 118.7010000  77.9220000  37.5440000 118.8300000  76.2140000  37.7650000
 119.4340000  77.4350000  39.5080000 120.0610000  76.7300000  40.0710000
 119.9980000  78.3080000  39.5970000 117.9560000  77.5710000  40.0670000
 117.4840000  78.4440000  39.6580000 117.3600000  76.7100000  39.7510000
 117.8920000  77.8480000  41.5940000 118.6850000  78.5760000  41.8110000
 116.9270000  78.3410000  41.8670000 118.1450000  76.6250000  42.5820000
 117.4760000  75.6950000  42.4900000 119.2090000  76.2780000  42.4150000
 118.0760000  77.1710000  44.0840000 117.0210000  77.6580000  44.2690000
 117.9750000  76.3350000  44.7740000 119.0860000  78.1660000  44.6680000
 118.9150000  79.1170000  44.1670000 119.0360000  78.3530000  45.8110000
 120.4960000  77.8230000  44.2610000 120.6780000  76.7910000  44.5160000
 120.5180000  77.8980000  43.1600000 121.5440000  78.8320000  44.8550000
 122.3070000  78.8830000  44.0620000 120.9200000  79.6970000  44.9340000
 122.1860000  78.3730000  46.1660000 121.4780000  78.2850000  46.9880000
 122.7030000  77.4770000  46.0410000 123.1510000  79.4430000  46.5960000
 123.7410000  78.9710000  47.2960000 123.8290000  79.6430000  45.8020000
 122.5270000  80.6960000  47.1020000 122.2020000  81.6000000  46.3770000
 122.5660000  80.6270000  48.4520000 121.8910000  81.6330000  49.2910000
 122.4840000  81.7880000  50.2170000 121.9020000  82.5500000  48.7360000
 120.4650000  81.2350000  49.6210000 120.0870000  82.1010000  50.0960000
 120.3300000  79.9180000  50.4500000 119.6220000  79.2460000  49.8900000
 121.3390000  79.4100000  50.5540000 119.7150000  80.2500000  51.7100000
 120.4870000  80.9160000  52.9130000 121.2290000  79.6430000  53.5370000
 120.8510000  78.9520000  54.7440000 121.5830000  78.2510000  55.0330000
 120.7500000  79.6240000  55.6140000 119.4700000  78.2120000  54.6580000
 119.0010000  78.1130000  55.6550000 118.7460000  78.7980000  54.0770000
 119.4030000  76.8530000  54.0290000 120.1830000  76.7480000  52.8590000
 121.1710000  77.1200000  53.0970000 120.1300000  75.7500000  52.4980000
 119.8320000  77.3600000  52.0270000 120.0720000  75.7860000  54.9170000
 119.8860000  74.8220000  54.4590000 121.1570000  75.9660000  54.9570000
 119.5630000  75.8110000  55.9150000 117.9830000  76.4580000  53.6860000
 118.0460000  75.4200000  53.3840000 117.6970000  77.1250000  52.8960000
 117.3620000  76.6020000  54.6170000 121.5110000  81.8240000  52.3900000
 119.4110000  81.3540000  53.7690000 119.6380000  81.0180000  48.4210000
 119.3520000  82.1720000  47.6810000 119.5490000  83.2590000  48.0330000
 118.6790000  81.6840000  46.3860000 118.0730000  80.7990000  46.5630000
 119.4750000  81.4410000  45.6530000 117.7930000  82.7220000  45.6650000
 118.3660000  83.6800000  45.4680000 116.9030000  83.0630000  46.2600000
 117.1750000  82.1240000  44.3530000 116.2010000  82.6770000  44.1400000
 116.9840000  81.0420000  44.4370000 118.1280000  82.3010000  43.1650000
 119.0910000  81.7710000  43.5480000 118.4830000  83.3920000  43.0850000
 117.5930000  81.8010000  41.8110000 116.5830000  82.1140000  41.7250000
 117.4940000  80.6910000  41.7050000 118.3780000  82.3870000  40.6480000
 118.2830000  83.4280000  40.6440000 117.8580000  82.1300000  39.7310000
 119.8060000  82.0080000  40.3790000 119.9720000  80.9740000  40.3870000
 120.3430000  82.3320000  41.2980000 120.4710000  82.7750000  39.2060000
 121.0110000  83.6770000  39.5470000 120.3910000  82.4610000  37.9570000
 120.8200000  83.1060000  37.1840000 119.6070000  81.3290000  37.3730000
 119.4350000  80.5650000  38.0920000 120.2090000  80.8320000  36.5990000
 118.2670000  81.7390000  36.7410000 118.4780000  82.3590000  35.8820000
 117.6760000  82.3430000  37.4510000 117.4970000  80.5010000  36.2580000
 117.5000000  79.7420000  37.0820000 117.9890000  79.9440000  35.4480000
 116.0500000  80.7950000  36.0330000 116.0480000  81.4800000  35.2830000
 115.6730000  81.3330000  36.8750000 115.2720000  79.5360000  35.8230000
 115.2220000  79.0830000  36.8260000 115.7710000  78.8880000  35.0800000
 113.8230000  79.7990000  35.2960000 113.3180000  78.7900000  35.1690000
 113.9590000  80.3900000  34.3940000 113.0560000  80.6750000  36.2380000
 113.5530000  81.6190000  36.2740000 113.0890000  80.2780000  37.1920000
 111.6030000  80.8010000  35.7700000 110.9920000  81.1510000  36.5670000
 111.1960000  79.8780000  35.4000000 111.5460000  81.6410000  35.0260000
 139.8380000  33.6060000  34.5700000 140.9470000  33.6280000  34.5350000
 139.5820000  34.6370000  34.3140000 139.5060000  32.8690000  33.7650000
 139.1050000  33.2850000  35.9020000 138.0710000  33.5290000  35.7370000
 139.1250000  32.2470000  36.1700000 139.6620000  34.2160000  36.9990000
 139.6770000  35.2630000  36.6810000 139.0610000  34.1420000  37.9060000
 141.1670000  33.8670000  37.3680000 141.8190000  33.8490000  36.4860000
 141.5020000  34.7370000  37.9240000 141.2380000  32.4860000  38.0740000
 140.3380000  31.9190000  37.8360000 142.1560000  31.9980000  37.7890000
 141.2290000  32.5650000  39.5860000 142.1390000  32.8040000  40.0970000
 140.4280000  33.2910000  39.8420000 140.7370000  31.2320000  40.2920000
 139.7760000  30.8650000  39.8700000 141.3710000  30.5060000  39.9600000
 140.6140000  31.2050000  41.8110000 140.1500000  32.1070000  42.1830000
 140.0510000  30.4330000  42.1950000 142.0160000  30.9450000  42.5020000
 142.3530000  29.9910000  42.1590000 142.7500000  31.7530000  42.1900000
 141.8770000  30.9830000  44.0300000 141.7160000  31.9690000  44.4770000
 141.0170000  30.3520000  44.2210000 143.1430000  30.4210000  44.7190000
 144.0790000  30.9730000  44.4600000 143.1580000  30.4640000  45.8050000
 143.3360000  28.8980000  44.4620000 142.4270000  28.4500000  44.8840000
 143.4470000  28.6330000  43.4090000 144.4660000  28.2300000  45.2190000
 144.3860000  28.5100000  46.3190000 144.3250000  27.1020000  45.0770000
 145.8800000  28.6520000  44.9520000 146.1340000  28.1670000  44.0420000
 145.9130000  29.7490000  44.6840000 146.9640000  28.5210000  46.0020000
 147.3720000  27.4920000  46.0100000 147.8680000  29.0900000  45.7510000
 146.5700000  29.0610000  47.3730000 146.7040000  28.5370000  48.4390000
 146.1590000  30.3610000  47.2980000 145.9710000  31.1900000  48.4840000
 146.1310000  30.5650000  49.3130000 146.7880000  31.9180000  48.4400000
 144.5910000  31.7820000  48.6030000 144.5680000  32.5090000  49.3900000
 143.5360000  30.7060000  48.6510000 142.5310000  30.9960000  48.5720000
 143.6990000  30.0040000  47.8860000 143.7690000  29.9100000  49.8560000
 143.3000000  30.5170000  51.2930000 142.3020000  29.2800000  51.7560000
 141.0400000  29.0110000  51.1300000 140.3020000  29.7700000  51.4370000
 141.0880000  29.0020000  50.0560000 140.5310000  27.6910000  51.6120000
 141.2850000  26.9570000  51.5730000 140.2980000  27.8480000  52.7060000
 139.3050000  26.9940000  51.0790000 139.5760000  26.6900000  49.6850000
 139.7180000  27.6510000  49.0310000 140.5290000  26.1430000  49.7910000
 138.7620000  26.1670000  49.1860000 139.1070000  25.7890000  51.9070000
 138.4910000  25.9090000  52.8260000 138.4250000  25.1820000  51.2790000
 140.0970000  25.2780000  52.0040000 138.1460000  27.8360000  51.2840000
 137.3070000  27.1850000  51.2020000 138.2640000  28.5730000  50.5170000
 138.0340000  28.3340000  52.2620000 144.5740000  30.4830000  52.0620000
 142.4760000  31.7240000  51.0860000 144.2900000  32.5730000  47.3960000
 144.3660000  33.8990000  47.4340000 144.4570000  34.4960000  48.4680000
 144.2710000  34.5050000  46.0510000 144.4630000  33.6780000  45.3950000
 145.0910000  35.2530000  45.8990000 142.8350000  35.0590000  45.9260000
 142.7560000  36.1180000  46.3110000 142.2020000  34.4710000  46.5750000
 142.3780000  35.1090000  44.4500000 142.6170000  34.0540000  44.0670000
 143.0820000  35.7240000  43.8350000 140.8810000  35.3930000  44.0580000
 140.5470000  36.3370000  44.5170000 140.2790000  34.5490000  44.4400000
 140.5760000  35.5150000  42.5960000 139.5090000  35.7880000  42.6480000
 140.7660000  34.5190000  42.1230000 141.3920000  36.5080000  41.7470000
 142.5080000  36.3240000  41.7230000 141.2140000  37.5370000  42.0390000
 141.0510000  36.3910000  40.2090000 139.9280000  36.4980000  40.1050000
 141.3430000  35.4240000  39.9170000 141.8550000  37.4290000  39.4660000
 142.9550000  37.3730000  39.5730000 141.4160000  38.4650000  38.7840000
 142.1870000  39.1860000  38.3810000 139.9810000  38.7200000  38.3460000
 139.5550000  39.3230000  39.0930000 139.4320000  37.7890000  38.4170000
 139.8160000  39.5230000  37.0150000 140.5870000  39.0470000  36.4050000
 140.1490000  40.5430000  37.1890000 138.4120000  39.5310000  36.4090000
 138.3940000  40.3560000  35.6230000 137.6940000  39.7200000  37.1870000
 138.1150000  38.1480000  35.8280000 137.9500000  37.4280000  36.5540000
 138.9660000  37.8330000  35.1500000 137.0060000  38.2360000  34.8080000
 137.1640000  37.3630000  34.2340000 137.1160000  38.9990000  34.0810000
 135.5060000  38.1910000  35.2120000 135.3250000  37.3810000  35.9900000
 134.7800000  37.8670000  34.3930000 134.8860000  39.4790000  35.7970000
 134.9920000  40.2630000  35.0080000 135.5120000  39.8700000  36.6170000
 133.3540000  39.1950000  35.9870000 132.8080000  40.1620000  36.2210000
 133.1830000  38.5020000  36.8460000 132.9050000  38.8610000  35.0570000
 102.5330000 155.7260000  44.3620000 103.5750000 155.4690000  44.0900000
 102.3260000 156.6850000  43.8510000 101.8310000 154.8760000  44.2050000
 102.3780000 156.1800000  45.8040000 103.2390000 156.9390000  45.9300000
 101.4170000 156.6930000  45.8840000 102.5310000 155.0540000  46.8730000
 101.9370000 154.2280000  46.6730000 103.5850000 154.7180000  46.8170000
 102.2370000 155.5010000  48.3720000 102.9310000 156.2900000  48.5670000
 101.2520000 155.9220000  48.5260000 102.4530000 154.3480000  49.4040000
 101.8560000 153.4910000  49.2560000 103.3940000 153.9120000  49.2760000
 102.5940000 154.9040000  50.8580000 103.1320000 154.1430000  51.4330000
 103.2480000 155.7630000  50.7460000 101.2600000 155.2120000  51.6110000
 101.5300000 155.5620000  52.6120000 100.6640000 155.9690000  51.0980000
 100.6170000 153.7790000  51.7620000 100.2990000 153.4910000  50.7580000
 101.3310000 153.0870000  52.1180000  99.2860000 153.8200000  52.5470000
  98.6560000 154.6180000  52.0820000  98.6860000 152.9490000  52.4690000
  99.5470000 154.1860000  54.0280000 100.0810000 155.1470000  54.0080000
  98.5850000 154.3840000  54.4460000 100.2850000 153.1920000  54.8800000
 101.3230000 153.1190000  54.5870000 100.3470000 153.5910000  55.8640000
  99.7000000 151.7600000  54.9620000  98.7560000 151.9090000  55.3900000
  99.5530000 151.3950000  53.9380000 100.5760000 150.8010000  55.7850000
 101.6760000 150.9830000  55.7000000 100.4350000 150.9240000  56.8540000
 100.2620000 149.3450000  55.3890000 100.3140000 149.2080000  54.3030000
 101.0020000 148.7610000  55.8230000  98.8370000 148.8810000  55.8580000
  98.7900000 149.0310000  56.9390000  98.0490000 149.4280000  55.3420000
  98.6170000 147.3930000  55.5440000  98.2500000 146.9460000  54.4590000
  99.0240000 146.5750000  56.5810000  99.0200000 145.1580000  56.4240000
  99.5070000 144.8150000  57.3390000  98.0170000 144.7870000  56.5870000
  99.8830000 144.6530000  55.3100000  99.4370000 144.9810000  54.3820000
  99.8770000 143.0920000  55.2830000  98.8430000 142.8320000  55.1360000
 100.5470000 142.8070000  54.5080000 100.1570000 142.4570000  56.5870000
 101.6770000 142.3490000  57.0850000 102.1350000 143.6320000  57.9660000
 102.7730000 143.5290000  59.2610000 103.0320000 144.5420000  59.7120000
 102.0540000 142.9740000  59.8360000 104.1400000 142.8590000  59.0570000
 104.4700000 142.6560000  60.0740000 103.9420000 141.8860000  58.6340000
 105.2880000 143.5100000  58.4510000 105.2020000 144.9680000  58.3430000
 106.1970000 145.3740000  58.0180000 104.4010000 145.3010000  57.6620000
 104.9150000 145.3670000  59.2860000 106.4840000 143.2290000  59.1300000
 106.8800000 142.3370000  58.6360000 107.3170000 143.9500000  58.9990000
 106.3280000 142.9340000  60.1430000 105.3110000 142.9900000  57.1110000
 106.2130000 143.3630000  56.5200000 104.3770000 143.4170000  56.6650000
 105.3630000 141.9170000  57.1150000 101.7660000 141.1640000  57.9530000
 102.5410000 142.3460000  55.8920000 101.1640000 145.1560000  55.3310000
 101.8910000 145.0740000  54.2100000 101.5860000 144.6060000  53.1210000
 103.2530000 145.7050000  54.4100000 104.0320000 144.9080000  54.3670000
 103.3120000 146.1410000  55.4270000 103.5990000 146.7740000  53.3470000
 103.5590000 146.4020000  52.3320000 104.6460000 147.0370000  53.5030000
 102.7030000 148.0520000  53.3390000 102.6550000 148.5110000  54.3320000
 101.6720000 147.7920000  53.0600000 103.3070000 149.0670000  52.3250000
 103.5860000 148.5200000  51.4020000 104.2300000 149.5160000  52.7790000
 102.2700000 150.2440000  52.0710000 102.7490000 151.0660000  51.6450000
 101.8960000 150.6830000  52.9660000 101.0260000 149.7850000  51.2530000
 100.5390000 150.6900000  50.8980000 100.3230000 149.2560000  51.8900000
 101.3120000 148.8550000  50.0250000 101.7070000 147.8120000  50.3320000
 102.1880000 149.2480000  49.4230000 100.0150000 148.8180000  49.2730000
  99.2340000 148.0110000  49.4400000  99.8960000 149.5110000  48.1380000
  98.9800000 149.3220000  47.4820000 100.7050000 150.7330000  47.7830000
 101.3830000 151.1880000  48.6000000  99.9660000 151.5770000  47.6770000
 101.4240000 150.6490000  46.4710000 102.4750000 150.3010000  46.5600000
 101.5880000 151.6910000  46.2550000 100.7510000 149.8170000  45.2900000
  99.7280000 150.1960000  45.0640000 100.6340000 148.8490000  45.6330000
 101.3920000 149.8610000  43.9010000 100.6690000 149.3130000  43.2460000
 102.3440000 149.3690000  43.9090000 101.6120000 151.2810000  43.4680000
 102.3680000 151.5600000  44.2160000 100.7060000 151.9020000  43.5160000
 102.1780000 151.2860000  42.0750000 101.3570000 150.9390000  41.4110000
 103.1140000 150.7500000  41.9950000 102.5370000 152.7090000  41.6310000
 103.3490000 153.1140000  42.2680000 101.6230000 153.2760000  41.7960000
 102.8910000 152.7070000  40.1960000 103.2030000 153.6760000  39.8630000
 102.0980000 152.3540000  39.4820000 103.8130000 152.1530000  40.1260000
