%VERSION  VERSION_STAMP = V0001.000  DATE = 03/03/26  17:01:39                  
%FLAG TITLE                                                                     
%FORMAT(20a4)                                                                   
DA5                                                                             
%FLAG POINTERS                                                                  
%FORMAT(10I8)                                                                   
     190      15      69     136     161     208     318     401       0       0
    1049       6     136     208     401      50     103      66      29       0
       0       0       0       0       0       0       0       0      33       0
       0
%FLAG ATOM_NAME                                                                 
%FORMAT(20a4)                                                                   
HO5'O5' C5' H5' H5''C4' H4' O4' C1' H1' N9  C8  H8  N7  C5  C6  N6  H61 H62 N1  
C2  H2  N3  C4  C3' H3' C2' H2' H2''O3' P   OP1 OP2 O5' C5' H5' H5''C4' H4' O4' 
C1' H1' N9  C8  H8  N7  C5  C6  N6  H61 H62 N1  C2  H2  N3  C4  C3' H3' C2' H2' 
H2''O3' P   OP1 OP2 O5' C5' H5' H5''C4' H4' O4' C1' H1' N9  C8  H8  N7  C5  C6  
O6  N1  H1  C2  N2  H21 H22 N3  C4  C3' H3' C2' H2' H2''O3' P   OP1 OP2 O5' C5' 
H5' H5''C4' H4' O4' C1' H1' N1  C6  H6  C5  H5  C4  N4  H41 H42 N3  C2  O2  C3' 
H3' C2' H2' H2''O3' P   OP1 OP2 O5' C5' H5' H5''C4' H4' O4' C1' H1' N1  C6  H6  
C5  C7  H71 H72 H73 C4  O4  N3  H3  C2  O2  C3' H3' C2' H2' H2''O3' P   OP1 OP2 
O5' C5' H5' H5''C4' H4' O4' C1' H1' N9  C8  H8  N7  C5  C6  N6  H61 H62 N1  C2  
H2  N3  C4  C3' H3' C2' H2' H2''O3' HO3'
%FLAG CHARGE                                                                    
%FORMAT(5E16.8)                                                                 
  8.05790106E+00 -1.15128491E+01 -1.25733870E-01  1.37396142E+00  1.37396142E+00
  2.96841267E+00  2.14294248E+00 -6.72585093E+00  7.85381130E-01  3.34925874E+00
 -4.88357640E-01  2.92832361E+00  3.42032571E+00 -1.12522703E+01  1.32111675E+00
  1.25679203E+01 -1.66242043E+01  7.59323241E+00  7.59323241E+00 -1.38926815E+01
  1.04158667E+01  1.08969354E+00 -1.35154799E+01  6.92447400E+00  1.29924999E+00
  1.79489655E+00 -1.55618442E+00  1.30836114E+00  1.30836114E+00 -9.53390736E+00
  2.12453796E+01 -1.41423270E+01 -1.41423270E+01 -9.02732742E+00 -1.25733870E-01
  1.37396142E+00  1.37396142E+00  2.96841267E+00  2.14294248E+00 -6.72585093E+00
  7.85381130E-01  3.34925874E+00 -4.88357640E-01  2.92832361E+00  3.42032571E+00
 -1.12522703E+01  1.32111675E+00  1.25679203E+01 -1.66242043E+01  7.59323241E+00
  7.59323241E+00 -1.38926815E+01  1.04158667E+01  1.08969354E+00 -1.35154799E+01
  6.92447400E+00  1.29924999E+00  1.79489655E+00 -1.55618442E+00  1.30836114E+00
  1.30836114E+00 -9.53390736E+00  2.12453796E+01 -1.41423270E+01 -1.41423270E+01
 -9.02732742E+00 -1.25733870E-01  1.37396142E+00  1.37396142E+00  2.96841267E+00
  2.14294248E+00 -6.72585093E+00  6.52358340E-01  3.18161358E+00  1.05142671E+00
  1.34116128E+00  3.63899331E+00 -1.04322668E+01  3.62805993E+00  8.96172714E+00
 -1.03848888E+01 -9.20772819E+00  6.41424960E+00  1.35428134E+01 -1.68191829E+01
  7.71714405E+00  7.71714405E+00 -1.20923183E+01  3.30552522E+00  1.29924999E+00
  1.79489655E+00 -1.55618442E+00  1.30836114E+00  1.30836114E+00 -9.53390736E+00
  2.12453796E+01 -1.41423270E+01 -1.41423270E+01 -9.02732742E+00 -1.25733870E-01
  1.37396142E+00  1.37396142E+00  2.96841267E+00  2.14294248E+00 -6.72585093E+00
 -2.11378680E-01  3.57703749E+00 -6.17735970E-01 -3.33468090E-01  4.17837339E+00
 -9.51568506E+00  3.39481449E+00  1.53777990E+01 -1.78086538E+01  7.86110022E+00
  7.86110022E+00 -1.41186380E+01  1.45031286E+01 -1.19319620E+01  1.29924999E+00
  1.79489655E+00 -1.55618442E+00  1.30836114E+00  1.30836114E+00 -9.53390736E+00
  2.12453796E+01 -1.41423270E+01 -1.41423270E+01 -9.02732742E+00 -1.25733870E-01
  1.37396142E+00  1.37396142E+00  2.96841267E+00  2.14294248E+00 -6.72585093E+00
  1.23911640E+00  3.28730292E+00 -4.35512970E-01 -4.02530607E+00  4.75055361E+00
  4.55557500E-02 -4.13463987E+00  1.40311710E+00  1.40311710E+00  1.40311710E+00
  9.46466262E+00 -1.01370655E+01 -7.90847820E+00  6.23202660E+00  1.03447997E+01
 -1.07165346E+01  1.29924999E+00  1.79489655E+00 -1.55618442E+00  1.30836114E+00
  1.30836114E+00 -9.53390736E+00  2.12453796E+01 -1.41423270E+01 -1.41423270E+01
 -9.02732742E+00 -1.25733870E-01  1.37396142E+00  1.37396142E+00  2.96841267E+00
  2.14294248E+00 -6.72585093E+00  7.85381130E-01  3.34925874E+00 -4.88357640E-01
  2.92832361E+00  3.42032571E+00 -1.12522703E+01  1.32111675E+00  1.25679203E+01
 -1.66242043E+01  7.59323241E+00  7.59323241E+00 -1.38926815E+01  1.04158667E+01
  1.08969354E+00 -1.35154799E+01  6.92447400E+00  1.29924999E+00  1.79489655E+00
 -1.55618442E+00  1.30836114E+00  1.30836114E+00 -1.19337843E+01  8.01052308E+00
%FLAG ATOMIC_NUMBER                                                             
%FORMAT(10I8)                                                                   
       1       8       6       1       1       6       1       8       6       1
       7       6       1       7       6       6       7       1       1       7
       6       1       7       6       6       1       6       1       1       8
      15       8       8       8       6       1       1       6       1       8
       6       1       7       6       1       7       6       6       7       1
       1       7       6       1       7       6       6       1       6       1
       1       8      15       8       8       8       6       1       1       6
       1       8       6       1       7       6       1       7       6       6
       8       7       1       6       7       1       1       7       6       6
       1       6       1       1       8      15       8       8       8       6
       1       1       6       1       8       6       1       7       6       1
       6       1       6       7       1       1       7       6       8       6
       1       6       1       1       8      15       8       8       8       6
       1       1       6       1       8       6       1       7       6       1
       6       6       1       1       1       6       8       7       1       6
       8       6       1       6       1       1       8      15       8       8
       8       6       1       1       6       1       8       6       1       7
       6       1       7       6       6       7       1       1       7       6
       1       7       6       6       1       6       1       1       8       1
%FLAG MASS                                                                      
%FORMAT(5E16.8)                                                                 
  1.00800000E+00  1.60000000E+01  1.20100000E+01  1.00800000E+00  1.00800000E+00
  1.20100000E+01  1.00800000E+00  1.60000000E+01  1.20100000E+01  1.00800000E+00
  1.40100000E+01  1.20100000E+01  1.00800000E+00  1.40100000E+01  1.20100000E+01
  1.20100000E+01  1.40100000E+01  1.00800000E+00  1.00800000E+00  1.40100000E+01
  1.20100000E+01  1.00800000E+00  1.40100000E+01  1.20100000E+01  1.20010000E+01
  1.00800000E+00  1.20100000E+01  1.00800000E+00  1.00800000E+00  1.60000000E+01
  3.09700000E+01  1.60000000E+01  1.60000000E+01  1.60000000E+01  1.20100000E+01
  1.00800000E+00  1.00800000E+00  1.20100000E+01  1.00800000E+00  1.60000000E+01
  1.20100000E+01  1.00800000E+00  1.40100000E+01  1.20100000E+01  1.00800000E+00
  1.40100000E+01  1.20100000E+01  1.20100000E+01  1.40100000E+01  1.00800000E+00
  1.00800000E+00  1.40100000E+01  1.20100000E+01  1.00800000E+00  1.40100000E+01
  1.20100000E+01  1.20010000E+01  1.00800000E+00  1.20100000E+01  1.00800000E+00
  1.00800000E+00  1.60000000E+01  3.09700000E+01  1.60000000E+01  1.60000000E+01
  1.60000000E+01  1.20100000E+01  1.00800000E+00  1.00800000E+00  1.20100000E+01
  1.00800000E+00  1.60000000E+01  1.20100000E+01  1.00800000E+00  1.40100000E+01
  1.20100000E+01  1.00800000E+00  1.40100000E+01  1.20100000E+01  1.20100000E+01
  1.60000000E+01  1.40100000E+01  1.00800000E+00  1.20100000E+01  1.40100000E+01
  1.00800000E+00  1.00800000E+00  1.40100000E+01  1.20100000E+01  1.20010000E+01
  1.00800000E+00  1.20100000E+01  1.00800000E+00  1.00800000E+00  1.60000000E+01
  3.09700000E+01  1.60000000E+01  1.60000000E+01  1.60000000E+01  1.20100000E+01
  1.00800000E+00  1.00800000E+00  1.20100000E+01  1.00800000E+00  1.60000000E+01
  1.20100000E+01  1.00800000E+00  1.40100000E+01  1.20100000E+01  1.00800000E+00
  1.20100000E+01  1.00800000E+00  1.20100000E+01  1.40100000E+01  1.00800000E+00
  1.00800000E+00  1.40100000E+01  1.20100000E+01  1.60000000E+01  1.20010000E+01
  1.00800000E+00  1.20100000E+01  1.00800000E+00  1.00800000E+00  1.60000000E+01
  3.09700000E+01  1.60000000E+01  1.60000000E+01  1.60000000E+01  1.20100000E+01
  1.00800000E+00  1.00800000E+00  1.20100000E+01  1.00800000E+00  1.60000000E+01
  1.20100000E+01  1.00800000E+00  1.40100000E+01  1.20100000E+01  1.00800000E+00
  1.20100000E+01  1.20100000E+01  1.00800000E+00  1.00800000E+00  1.00800000E+00
  1.20100000E+01  1.60000000E+01  1.40100000E+01  1.00800000E+00  1.20100000E+01
  1.60000000E+01  1.20010000E+01  1.00800000E+00  1.20100000E+01  1.00800000E+00
  1.00800000E+00  1.60000000E+01  3.09700000E+01  1.60000000E+01  1.60000000E+01
  1.60000000E+01  1.20100000E+01  1.00800000E+00  1.00800000E+00  1.20100000E+01
  1.00800000E+00  1.60000000E+01  1.20100000E+01  1.00800000E+00  1.40100000E+01
  1.20100000E+01  1.00800000E+00  1.40100000E+01  1.20100000E+01  1.20100000E+01
  1.40100000E+01  1.00800000E+00  1.00800000E+00  1.40100000E+01  1.20100000E+01
  1.00800000E+00  1.40100000E+01  1.20100000E+01  1.20010000E+01  1.00800000E+00
  1.20100000E+01  1.00800000E+00  1.00800000E+00  1.60000000E+01  1.00800000E+00
%FLAG ATOM_TYPE_INDEX                                                           
%FORMAT(10I8)                                                                   
       1       2       3       4       4       3       4       5       3       6
       7       8       9       7       8       8       7      10      10       7
       8       9       7       8       3       4       3      11      11       5
      12      13      13       5       3       4       4       3       4       5
       3       6       7       8       9       7       8       8       7      10
      10       7       8       9       7       8       3       4       3      11
      11       5      12      13      13       5       3       4       4       3
       4       5       3       6       7       8       9       7       8       8
      13       7      10       8       7      10      10       7       8       3
       4       3      11      11       5      12      13      13       5       3
       4       4       3       4       5       3       6       7       8      14
       8      15       8       7      10      10       7       8      13       3
       4       3      11      11       5      12      13      13       5       3
       4       4       3       4       5       3       6       7       8      14
       8       3      11      11      11       8      13       7      10       8
      13       3       4       3      11      11       5      12      13      13
       5       3       4       4       3       4       5       3       6       7
       8       9       7       8       8       7      10      10       7       8
       9       7       8       3       4       3      11      11       2       1
%FLAG NUMBER_EXCLUDED_ATOMS                                                     
%FORMAT(10I8)                                                                   
       5       7      10       5       4      12       6      11      14       7
      12       7       3       6       8       8       5       2       1       4
       3       2       1       1       9       5       4       2       1       5
       7       3       2       7      10       5       4      12       6      11
      14       7      12       7       3       6       8       8       5       2
       1       4       3       2       1       1       9       5       4       2
       1       5       7       3       2       7      10       5       4      12
       6      11      14       7      12       7       3       6       7       7
       4       7       3       5       4       2       1       1       1       9
       5       4       2       1       5       7       3       2       7      10
       5       4      12       6      11      14       7      12       9       4
       7       3       6       4       2       1       2       2       1       9
       5       4       2       1       5       7       3       2       7      10
       5       4      12       6      11      14       7      13      12       4
       9       6       3       2       1       5       3       3       2       2
       1       9       5       4       2       1       5       7       3       2
       7      10       5       4      12       6      11      14       7      12
       7       3       6       8       8       5       2       1       4       3
       2       1       1       6       5       4       2       1       1       1
%FLAG NONBONDED_PARM_INDEX                                                      
%FORMAT(10I8)                                                                   
       1       2       4       7      11      16      22      29      37      46
      56      67      79      92     106       2       3       5       8      12
      17      23      30      38      47      57      68      80      93     107
       4       5       6       9      13      18      24      31      39      48
      58      69      81      94     108       7       8       9      10      14
      19      25      32      40      49      59      70      82      95     109
      11      12      13      14      15      20      26      33      41      50
      60      71      83      96     110      16      17      18      19      20
      21      27      34      42      51      61      72      84      97     111
      22      23      24      25      26      27      28      35      43      52
      62      73      85      98     112      29      30      31      32      33
      34      35      36      44      53      63      74      86      99     113
      37      38      39      40      41      42      43      44      45      54
      64      75      87     100     114      46      47      48      49      50
      51      52      53      54      55      65      76      88     101     115
      56      57      58      59      60      61      62      63      64      65
      66      77      89     102     116      67      68      69      70      71
      72      73      74      75      76      77      78      90     103     117
      79      80      81      82      83      84      85      86      87      88
      89      90      91     104     118      92      93      94      95      96
      97      98      99     100     101     102     103     104     105     119
     106     107     108     109     110     111     112     113     114     115
     116     117     118     119     120
%FLAG RESIDUE_LABEL                                                             
%FORMAT(20a4)                                                                   
DA5 DA  DG  DC  DT  DA3 
%FLAG RESIDUE_POINTER                                                           
%FORMAT(10I8)                                                                   
       1      31      63      96     126     158
%FLAG BOND_FORCE_CONSTANT                                                       
%FORMAT(5E16.8)                                                                 
  2.30000000E+02  3.40000000E+02  3.40000000E+02  3.10000000E+02  3.20000000E+02
  4.61000000E+02  3.67000000E+02  5.02000000E+02  4.34000000E+02  4.81000000E+02
  4.83000000E+02  4.69000000E+02  5.20000000E+02  4.14000000E+02  3.67000000E+02
  5.29000000E+02  4.40000000E+02  4.36000000E+02  3.40000000E+02  3.37000000E+02
  3.10000000E+02  3.20000000E+02  3.40000000E+02  3.40000000E+02  3.10000000E+02
  3.20000000E+02  5.53000000E+02  3.20000000E+02  5.25000000E+02  4.34000000E+02
  4.27000000E+02  5.70000000E+02  4.18000000E+02  4.47000000E+02  3.67000000E+02
  5.29000000E+02  4.40000000E+02  4.57000000E+02  3.67000000E+02  4.27000000E+02
  3.67000000E+02  5.49000000E+02  4.48000000E+02  4.24000000E+02  3.17000000E+02
  4.10000000E+02  3.67000000E+02  5.49000000E+02  4.48000000E+02  3.20000000E+02
%FLAG BOND_EQUIL_VALUE                                                          
%FORMAT(5E16.8)                                                                 
  1.61000000E+00  1.09000000E+00  1.09000000E+00  1.52600000E+00  1.41000000E+00
  1.35400000E+00  1.08000000E+00  1.32400000E+00  1.01000000E+00  1.34000000E+00
  1.33900000E+00  1.40400000E+00  1.37000000E+00  1.39100000E+00  1.08000000E+00
  1.30400000E+00  1.37100000E+00  1.37400000E+00  1.09000000E+00  1.47500000E+00
  1.52600000E+00  1.41000000E+00  1.09000000E+00  1.09000000E+00  1.52600000E+00
  1.41000000E+00  9.60000000E-01  1.41000000E+00  1.48000000E+00  1.01000000E+00
  1.38100000E+00  1.22900000E+00  1.38800000E+00  1.41900000E+00  1.08000000E+00
  1.30400000E+00  1.37100000E+00  1.35800000E+00  1.08000000E+00  1.43300000E+00
  1.08000000E+00  1.35000000E+00  1.36500000E+00  1.38300000E+00  1.51000000E+00
  1.44400000E+00  1.08000000E+00  1.35000000E+00  1.36500000E+00  1.41000000E+00
%FLAG ANGLE_FORCE_CONSTANT                                                      
%FORMAT(5E16.8)                                                                 
  1.00000000E+02  4.50000000E+01  3.50000000E+01  5.00000000E+01  5.00000000E+01
  5.00000000E+01  5.00000000E+01  1.00000000E+02  5.00000000E+01  7.00000000E+01
  7.00000000E+01  3.50000000E+01  7.00000000E+01  6.30000000E+01  5.00000000E+01
  7.00000000E+01  7.00000000E+01  7.00000000E+01  7.00000000E+01  7.00000000E+01
  7.00000000E+01  5.00000000E+01  7.00000000E+01  7.00000000E+01  5.00000000E+01
  5.00000000E+01  7.00000000E+01  7.00000000E+01  7.00000000E+01  5.00000000E+01
  5.00000000E+01  7.00000000E+01  7.00000000E+01  4.00000000E+01  5.00000000E+01
  5.00000000E+01  5.00000000E+01  5.00000000E+01  5.00000000E+01  5.00000000E+01
  5.00000000E+01  6.00000000E+01  4.00000000E+01  5.00000000E+01  3.50000000E+01
  5.00000000E+01  5.00000000E+01  4.00000000E+01  5.00000000E+01  5.00000000E+01
  5.50000000E+01  5.00000000E+01  5.00000000E+01  1.40000000E+02  1.00000000E+02
  7.00000000E+01  5.00000000E+01  7.00000000E+01  7.00000000E+01  8.00000000E+01
  6.30000000E+01  5.00000000E+01  7.00000000E+01  8.00000000E+01  7.00000000E+01
  7.00000000E+01  5.00000000E+01  7.00000000E+01  7.00000000E+01  5.00000000E+01
  7.00000000E+01  7.00000000E+01  8.00000000E+01  7.00000000E+01  5.00000000E+01
  7.00000000E+01  7.00000000E+01  5.00000000E+01  7.00000000E+01  5.00000000E+01
  6.30000000E+01  5.00000000E+01  7.00000000E+01  7.00000000E+01  8.00000000E+01
  7.00000000E+01  7.00000000E+01  7.00000000E+01  7.00000000E+01  5.00000000E+01
  8.00000000E+01  7.00000000E+01  5.00000000E+01  7.00000000E+01  7.00000000E+01
  6.30000000E+01  5.00000000E+01  7.00000000E+01  7.00000000E+01  7.00000000E+01
  5.00000000E+01  5.00000000E+01  5.50000000E+01
%FLAG ANGLE_EQUIL_VALUE                                                         
%FORMAT(5E16.8)                                                                 
  1.88897066E+00  1.79070858E+00  1.91113635E+00  1.91113635E+00  1.91113635E+00
  1.91113635E+00  1.91113635E+00  2.10312265E+00  2.01498349E+00  1.93731630E+00
  2.25322103E+00  2.09439600E+00  2.08217869E+00  2.04727209E+00  2.09439600E+00
  2.06996138E+00  2.15548255E+00  2.04727209E+00  2.22878641E+00  2.31081692E+00
  1.92684432E+00  2.14762857E+00  1.83957782E+00  1.81165254E+00  1.91113635E+00
  2.14762857E+00  1.98793087E+00  1.85354046E+00  2.20260646E+00  1.91113635E+00
  1.91113635E+00  2.24798504E+00  2.19562514E+00  1.91113635E+00  1.91113635E+00
  1.91113635E+00  1.91113635E+00  1.91113635E+00  1.91113635E+00  1.91113635E+00
  1.91113635E+00  1.91113635E+00  1.91113635E+00  1.91113635E+00  1.91113635E+00
  1.91113635E+00  1.91113635E+00  1.91113635E+00  1.91113635E+00  1.91113635E+00
  1.89368305E+00  1.91113635E+00  1.91113635E+00  2.09265067E+00  2.10312265E+00
  1.95826026E+00  2.05948940E+00  2.02458280E+00  2.15199189E+00  2.10486798E+00
  2.08043336E+00  2.03854544E+00  2.18515316E+00  2.24798504E+00  1.94255229E+00
  2.26892900E+00  2.14762857E+00  1.83957782E+00  1.81165254E+00  2.14762857E+00
  1.98793087E+00  2.24798504E+00  2.13802925E+00  2.10312265E+00  2.15199189E+00
  2.09614133E+00  2.12057595E+00  2.08916001E+00  2.12232128E+00  2.08916001E+00
  2.04203610E+00  2.07868803E+00  2.11533996E+00  2.06996138E+00  2.11010397E+00
  2.11533996E+00  2.05250808E+00  2.20609712E+00  2.08916001E+00  1.91113635E+00
  2.18689849E+00  1.99142153E+00  2.08916001E+00  2.12232128E+00  2.08916001E+00
  2.10661331E+00  2.07868803E+00  2.11533996E+00  2.01411082E+00  2.11533996E+00
  1.91113635E+00  1.91113635E+00  1.89368305E+00
%FLAG DIHEDRAL_FORCE_CONSTANT                                                   
%FORMAT(5E16.8)                                                                 
  1.85181000E-01  1.25653100E+00  3.54858000E-01  1.55555556E-01  1.07993300E+00
  3.19017000E-01  5.48360000E-02  3.83333333E-01  2.50000000E-01  3.21859000E-01
  5.44600000E-01  7.97144000E-01  0.00000000E+00  6.80000000E+00  3.50000000E+00
  2.40000000E+00  4.80000000E+00  5.45000000E+00  4.15000000E+00  1.70000000E+00
  1.00000000E+01  1.65000000E+00  2.55000000E+00  1.00000000E-01  3.83300000E-01
  1.20000000E+00  1.17500000E+00  1.44000000E-01  9.10000000E-01  1.91000000E+00
  4.10000000E-01  2.50000000E-01  0.00000000E+00  6.50000000E-01  3.83000000E-01
  1.20000000E+00  9.00000000E-01  1.60000000E-01  1.17804000E+00  9.21020000E-02
  9.62830000E-01  1.66666667E-01  1.50000000E+00  3.00000000E+00  1.35000000E+00
  8.10000000E-01  1.73000000E+00  4.40000000E-01  4.00000000E+00  1.85000000E+00
  6.65000000E+00  1.45000000E+00  1.03000000E+00  1.52000000E+00  2.60000000E-01
  2.17500000E+00  1.15000000E+00  3.80000000E-01  3.00000000E-01  9.90000000E-01
  1.67000000E+00  1.70000000E-01  0.00000000E+00  1.10000000E+00  1.00000000E+00
  1.05000000E+01
%FLAG DIHEDRAL_PERIODICITY                                                      
%FORMAT(5E16.8)                                                                 
  1.00000000E+00  2.00000000E+00  3.00000000E+00  3.00000000E+00  1.00000000E+00
  2.00000000E+00  3.00000000E+00  3.00000000E+00  3.00000000E+00  1.00000000E+00
  2.00000000E+00  3.00000000E+00  2.00000000E+00  2.00000000E+00  2.00000000E+00
  2.00000000E+00  2.00000000E+00  2.00000000E+00  2.00000000E+00  2.00000000E+00
  2.00000000E+00  2.00000000E+00  2.00000000E+00  2.00000000E+00  3.00000000E+00
  1.00000000E+00  2.00000000E+00  3.00000000E+00  1.00000000E+00  2.00000000E+00
  3.00000000E+00  1.00000000E+00  3.00000000E+00  2.00000000E+00  3.00000000E+00
  1.00000000E+00  3.00000000E+00  3.00000000E+00  1.00000000E+00  2.00000000E+00
  3.00000000E+00  3.00000000E+00  2.00000000E+00  2.00000000E+00  2.00000000E+00
  1.00000000E+00  2.00000000E+00  3.00000000E+00  2.00000000E+00  2.00000000E+00
  2.00000000E+00  2.00000000E+00  1.00000000E+00  2.00000000E+00  3.00000000E+00
  2.00000000E+00  1.00000000E+00  3.00000000E+00  3.00000000E+00  1.00000000E+00
  2.00000000E+00  3.00000000E+00  2.00000000E+00  2.00000000E+00  2.00000000E+00
  2.00000000E+00
%FLAG DIHEDRAL_PHASE                                                            
%FORMAT(5E16.8)                                                                 
  5.54929070E-01  6.14285649E+00  6.23514744E+00  0.00000000E+00  5.19698240E+00
  3.50131437E+00  2.64638419E+00  0.00000000E+00  0.00000000E+00  1.15045137E+00
  9.53800156E-02  5.15662653E+00  0.00000000E+00  3.14159400E+00  3.14159400E+00
  3.14159400E+00  3.14159400E+00  3.14159400E+00  3.14159400E+00  3.14159400E+00
  3.14159400E+00  3.14159400E+00  3.14159400E+00  3.14159400E+00  0.00000000E+00
  5.62711845E+00  0.00000000E+00  0.00000000E+00  2.09614133E+00  1.22173100E-02
  3.93397382E+00  0.00000000E+00  0.00000000E+00  0.00000000E+00  0.00000000E+00
  6.71079385E-01 -3.89208590E-02  0.00000000E+00  3.33317067E+00  5.15976777E+00
  6.07541257E+00  0.00000000E+00  3.14159400E+00  3.14159400E+00  3.14159400E+00
  1.52716375E+00  6.98132000E-02  3.83623534E+00  3.14159400E+00  3.14159400E+00
  3.14159400E+00  3.14159400E+00  3.22536984E+00  1.36135740E-01  3.65821168E+00
  3.14159400E+00  0.00000000E+00  3.14159400E+00  0.00000000E+00  3.28122040E+00
  8.20305100E-02  3.68090097E+00  3.14159400E+00  3.14159400E+00  3.14159400E+00
  3.14159400E+00
%FLAG SCEE_SCALE_FACTOR                                                         
%FORMAT(5E16.8)                                                                 
  1.20000000E+00  1.20000000E+00  1.20000000E+00  1.20000000E+00  1.20000000E+00
  1.20000000E+00  1.20000000E+00  1.20000000E+00  1.20000000E+00  1.20000000E+00
  1.20000000E+00  1.20000000E+00  1.20000000E+00  1.20000000E+00  1.20000000E+00
  1.20000000E+00  1.20000000E+00  1.20000000E+00  1.20000000E+00  1.20000000E+00
  1.20000000E+00  1.20000000E+00  1.20000000E+00  1.20000000E+00  1.20000000E+00
  1.20000000E+00  1.20000000E+00  1.20000000E+00  1.20000000E+00  1.20000000E+00
  1.20000000E+00  1.20000000E+00  1.20000000E+00  1.20000000E+00  1.20000000E+00
  1.20000000E+00  1.20000000E+00  1.20000000E+00  1.20000000E+00  1.20000000E+00
  1.20000000E+00  1.20000000E+00  1.20000000E+00  1.20000000E+00  1.20000000E+00
  1.20000000E+00  1.20000000E+00  1.20000000E+00  1.20000000E+00  1.20000000E+00
  1.20000000E+00  1.20000000E+00  1.20000000E+00  1.20000000E+00  1.20000000E+00
  1.20000000E+00  1.20000000E+00  1.20000000E+00  1.20000000E+00  1.20000000E+00
  1.20000000E+00  1.20000000E+00  0.00000000E+00  0.00000000E+00  0.00000000E+00
  0.00000000E+00
%FLAG SCNB_SCALE_FACTOR                                                         
%FORMAT(5E16.8)                                                                 
  2.00000000E+00  2.00000000E+00  2.00000000E+00  2.00000000E+00  2.00000000E+00
  2.00000000E+00  2.00000000E+00  2.00000000E+00  2.00000000E+00  2.00000000E+00
  2.00000000E+00  2.00000000E+00  2.00000000E+00  2.00000000E+00  2.00000000E+00
  2.00000000E+00  2.00000000E+00  2.00000000E+00  2.00000000E+00  2.00000000E+00
  2.00000000E+00  2.00000000E+00  2.00000000E+00  2.00000000E+00  2.00000000E+00
  2.00000000E+00  2.00000000E+00  2.00000000E+00  2.00000000E+00  2.00000000E+00
  2.00000000E+00  2.00000000E+00  2.00000000E+00  2.00000000E+00  2.00000000E+00
  2.00000000E+00  2.00000000E+00  2.00000000E+00  2.00000000E+00  2.00000000E+00
  2.00000000E+00  2.00000000E+00  2.00000000E+00  2.00000000E+00  2.00000000E+00
  2.00000000E+00  2.00000000E+00  2.00000000E+00  2.00000000E+00  2.00000000E+00
  2.00000000E+00  2.00000000E+00  2.00000000E+00  2.00000000E+00  2.00000000E+00
  2.00000000E+00  2.00000000E+00  2.00000000E+00  2.00000000E+00  2.00000000E+00
  2.00000000E+00  2.00000000E+00  0.00000000E+00  0.00000000E+00  0.00000000E+00
  0.00000000E+00
%FLAG SOLTY                                                                     
%FORMAT(5E16.8)                                                                 
  0.00000000E+00  0.00000000E+00  0.00000000E+00  0.00000000E+00  0.00000000E+00
  0.00000000E+00  0.00000000E+00  0.00000000E+00  0.00000000E+00  0.00000000E+00
  0.00000000E+00  0.00000000E+00  0.00000000E+00  0.00000000E+00  0.00000000E+00
  0.00000000E+00  0.00000000E+00  0.00000000E+00  0.00000000E+00  0.00000000E+00
  0.00000000E+00  0.00000000E+00  0.00000000E+00  0.00000000E+00  0.00000000E+00
  0.00000000E+00  0.00000000E+00  0.00000000E+00  0.00000000E+00
%FLAG LENNARD_JONES_ACOEF                                                       
%FORMAT(5E16.8)                                                                 
  0.00000000E+00  0.00000000E+00  5.81803229E+05  0.00000000E+00  7.91544157E+05
  1.04308023E+06  0.00000000E+00  4.66922514E+04  6.78771368E+04  3.25969625E+03
  0.00000000E+00  4.58874091E+05  6.28541240E+05  3.63097246E+04  3.61397723E+05
  0.00000000E+00  3.15360051E+04  4.68930885E+04  2.09814978E+03  2.44050579E+04
  1.32801250E+03  0.00000000E+00  7.44975864E+05  9.95480466E+05  6.20665997E+04
  5.89818288E+05  4.24594555E+04  9.44293233E+05  0.00000000E+00  7.01803794E+05
  9.24822270E+05  6.01816484E+04  5.57281136E+05  4.15766412E+04  8.82619071E+05
  8.19971662E+05  0.00000000E+00  4.09427581E+04  5.98885646E+04  2.82099197E+03
  3.17965283E+04  1.80748014E+03  5.46147253E+04  5.30987710E+04  2.43828624E+03
  0.00000000E+00  1.40467023E+03  2.56678134E+03  5.94667300E+01  1.03954408E+03
  3.20009193E+01  2.12601181E+03  2.27577561E+03  4.90239937E+01  1.39982777E-01
  0.00000000E+00  6.82786631E+04  9.71708117E+04  4.98586848E+03  5.33379252E+04
  3.25969625E+03  8.96776989E+04  8.61541883E+04  4.33325458E+03  1.07193646E+02
  7.51607703E+03  0.00000000E+00  1.98683736E+06  2.54188684E+06  1.81087383E+05
  1.58759528E+06  1.27716552E+05  2.45746558E+06  2.25370349E+06  1.60682053E+05
  8.41065839E+03  2.54238516E+05  6.02589390E+06  0.00000000E+00  4.71003287E+05
  6.47841731E+05  3.69471530E+04  3.70622491E+05  2.47595516E+04  6.06829342E+05
  5.74393458E+05  3.23283631E+04  1.02595236E+03  5.44261042E+04  1.64263766E+06
  3.79876399E+05  0.00000000E+00  4.96707306E+04  7.18621074E+04  3.50301067E+03
  3.86654993E+04  2.26273716E+03  6.58473870E+04  6.37148278E+04  3.03448006E+03
  6.63368273E+01  5.34045360E+03  1.90880272E+05  3.93690817E+04  3.76169105E+03
  0.00000000E+00  6.00750218E+04  8.59947003E+04  4.33325458E+03  4.68711055E+04
  2.82099197E+03  7.91627154E+04  7.62451550E+04  3.76169105E+03  8.90987508E+01
  6.55825601E+03  2.26202022E+05  4.77908183E+04  4.64559155E+03  5.71629601E+03
%FLAG LENNARD_JONES_BCOEF                                                       
%FORMAT(5E16.8)                                                                 
  0.00000000E+00  0.00000000E+00  6.99746810E+02  0.00000000E+00  6.93079947E+02
  6.75612247E+02  0.00000000E+00  1.03606917E+02  1.06076943E+02  1.43076527E+01
  0.00000000E+00  5.89183300E+02  5.85549272E+02  8.66220817E+01  4.95732238E+02
  0.00000000E+00  8.51470647E+01  8.81685417E+01  1.14788417E+01  7.10161395E+01
  9.13231543E+00  0.00000000E+00  7.50714425E+02  7.36907417E+02  1.13252061E+02
  6.33305958E+02  9.36708259E+01  8.01323529E+02  0.00000000E+00  6.14502845E+02
  5.99015525E+02  9.40505980E+01  5.19163331E+02  7.81725398E+01  6.53361429E+02
  5.31102864E+02  0.00000000E+00  9.59185913E+01  9.85097219E+01  1.31591746E+01
  8.01410250E+01  1.05333009E+01  1.05031585E+02  8.73413012E+01  1.20953369E+01
  0.00000000E+00  1.79702257E+01  2.06278363E+01  1.93248820E+00  1.46567808E+01
  1.41762397E+00  2.09604198E+01  1.82891803E+01  1.73473071E+00  9.37598976E-02
  0.00000000E+00  1.25287818E+02  1.26919150E+02  1.76949863E+01  1.04986921E+02
  1.43076527E+01  1.36131731E+02  1.12529845E+02  1.63092814E+01  2.59456373E+00
  2.17257828E+01  0.00000000E+00  1.27682121E+03  1.22636552E+03  2.01468199E+02
  1.08210555E+03  1.69194406E+02  1.34630496E+03  1.08732781E+03  1.87626421E+02
  4.34187588E+01  2.38716853E+02  2.19561270E+03  0.00000000E+00  6.29300710E+02
  6.26720080E+02  9.21192136E+01  5.29252520E+02  7.54103785E+01  6.77220874E+02
  5.55666448E+02  8.51921330E+01  1.53505284E+01  1.11805549E+02  1.16041466E+03
  5.64885984E+02  0.00000000E+00  1.05648788E+02  1.07908863E+02  1.46638650E+01
  8.83744760E+01  1.17854122E+01  1.15327881E+02  9.56748258E+01  1.34932874E+01
  2.01792524E+00  1.81057616E+01  2.04498832E+02  9.40124296E+01  1.50233639E+01
  0.00000000E+00  1.16187983E+02  1.18043746E+02  1.63092814E+01  9.73010751E+01
  1.31591746E+01  1.26451907E+02  1.04660679E+02  1.50233639E+01  2.33864085E+00
  2.00642027E+01  2.22617115E+02  1.03580945E+02  1.66953734E+01  1.85196588E+01
%FLAG BONDS_INC_HYDROGEN                                                        
%FORMAT(10I8)                                                                   
      78      81       2      78      84       2      72      75       3      60
      63       7      48      51       9      48      54       9      33      36
      15      24      27      19      15      18      23       6       9      24
       6      12      24       0       3      27     174     177       2     174
     180       2     168     171       3     156     159       7     144     147
       9     144     150       9     129     132      15     120     123      19
     111     114      23     102     105      24     102     108      24     273
     276       2     273     279       2     267     270       3     252     255
       9     252     258       9     243     246      30     225     228      35
     216     219      19     207     210      23     198     201      24     198
     204      24     363     366       2     363     369       2     357     360
       3     339     342       9     339     345       9     330     333      39
     324     327      41     315     318      19     306     309      23     297
     300      24     297     303      24     459     462       2     459     465
       2     453     456       3     441     444      30     423     426       2
     423     429       2     423     432       2     414     417      47     405
     408      19     396     399      23     387     390      24     387     393
      24     564     567      27     555     558       2     555     561       2
     549     552       3     537     540       7     525     528       9     525
     531       9     510     513      15     501     504      19     492     495
      23     483     486      24     483     489      24
%FLAG BONDS_WITHOUT_HYDROGEN                                                    
%FORMAT(10I8)                                                                   
      87      90       1      72      78       4      72      87       5      66
      69       6      60      66       8      57      60       8      45      48
      10      45      57      11      42      45      12      42      69      13
      39      42      14      33      39      16      30      33      17      30
      69      18      24      30      20      24      78      21      21      24
      22      15      21      22      15      72       4       6      15      25
       3       6      26     183     186       1     168     174       4     168
     183       5     162     165       6     156     162       8     153     156
       8     141     144      10     141     153      11     138     141      12
     138     165      13     135     138      14     129     135      16     126
     129      17     126     165      18     120     126      20     120     174
      21     117     120      22     111     117      22     111     168       4
     102     111      25      99     102      28      90      93      29      90
      96      29      90      99       1     282     285       1     267     273
       4     267     282       5     261     264       6     249     252      10
     249     261      11     243     249      31     237     240      32     237
     243      33     234     237      34     234     264      13     231     234
      14     225     231      36     222     225      37     222     264      18
     216     222      20     216     273      21     213     216      22     207
     213      22     207     267       4     198     207      25     195     198
      28     186     189      29     186     192      29     186     195       1
     372     375       1     357     363       4     357     372       5     351
     354      32     348     351      38     336     339      10     336     348
      11     330     336      40     324     330      42     321     324      43
     321     351      44     315     321      20     315     363      21     312
     315      22     306     312      22     306     357       4     297     306
      25     294     297      28     285     288      29     285     291      29
     285     294       1     468     471       1     453     459       4     453
     468       5     447     450      32     441     447      33     435     438
      32     435     441      33     420     423      45     420     435      46
     414     420      48     411     414      49     411     447      44     405
     411      20     405     459      21     402     405      22     396     402
      22     396     453       4     387     396      25     384     387      28
     375     378      29     375     381      29     375     384       1     549
     555       4     549     564      50     543     546       6     537     543
       8     534     537       8     522     525      10     522     534      11
     519     522      12     519     546      13     516     519      14     510
     516      16     507     510      17     507     546      18     501     507
      20     501     555      21     498     501      22     492     498      22
     492     549       4     483     492      25     480     483      28     471
     474      29     471     477      29     471     480       1
%FLAG ANGLES_INC_HYDROGEN                                                       
%FORMAT(10I8)                                                                   
      81      78      84       3      75      72      78       5      75      72
      87       6      72      78      81       7      72      78      84       7
      63      60      66       9      57      60      63       9      51      48
      54      12      45      48      51      15      45      48      54      15
      36      33      39      22      30      33      36      26      27      24
      30      30      27      24      78      31      24      78      81      35
      24      78      84      35      21      24      27      37      18      15
      21      40      18      15      72      41      15      72      75       5
      12       6      15      44       9       6      12      45       9       6
      15      44       6      15      18      46       3       6       9      49
       3       6      12      49       0       3       6      51     177     174
     180       3     171     168     174       5     171     168     183       6
     168     174     177       7     168     174     180       7     159     156
     162       9     153     156     159       9     147     144     150      12
     141     144     147      15     141     144     150      15     132     129
     135      22     126     129     132      26     123     120     126      30
     123     120     174      31     120     174     177      35     120     174
     180      35     117     120     123      37     114     111     117      40
     114     111     168      41     111     168     171       5     108     102
     111      44     105     102     108      45     105     102     111      44
     102     111     114      46      99     102     105      52      99     102
     108      52     276     273     279       3     270     267     273       5
     270     267     282       6     267     273     276       7     267     273
     279       7     255     252     258      12     249     252     255      15
     249     252     258      15     246     243     249      57     237     243
     246      62     228     225     231      67     222     225     228      70
     219     216     222      30     219     216     273      31     216     273
     276      35     216     273     279      35     213     216     219      37
     210     207     213      40     210     207     267      41     207     267
     270       5     204     198     207      44     201     198     204      45
     201     198     207      44     198     207     210      46     195     198
     201      52     195     198     204      52     366     363     369       3
     360     357     363       5     360     357     372       6     357     363
     366       7     357     363     369       7     342     339     345      12
     336     339     342      15     336     339     345      15     333     330
     336      75     327     324     330      78     324     330     333      80
     321     324     327      82     318     315     321      30     318     315
     363      31     315     363     366      35     315     363     369      35
     312     315     318      37     309     306     312      40     309     306
     357      41     306     357     360       5     303     297     306      44
     300     297     303      45     300     297     306      44     297     306
     309      46     294     297     300      52     294     297     303      52
     462     459     465       3     456     453     459       5     456     453
     468       6     453     459     462       7     453     459     465       7
     444     441     447      62     435     441     444      62     429     423
     432       3     426     423     429       3     426     423     432       3
     420     423     426      90     420     423     429      90     420     423
     432      90     417     414     420      93     411     414     417      97
     408     405     411      30     408     405     459      31     405     459
     462      35     405     459     465      35     402     405     408      37
     399     396     402      40     399     396     453      41     396     453
     456       5     393     387     396      44     390     387     393      45
     390     387     396      44     387     396     399      46     384     387
     390      52     384     387     393      52     558     555     561       3
     552     549     555       5     552     549     564     102     549     555
     558       7     549     555     561       7     549     564     567     103
     540     537     543       9     534     537     540       9     528     525
     531      12     522     525     528      15     522     525     531      15
     513     510     516      22     507     510     513      26     504     501
     507      30     504     501     555      31     501     555     558      35
     501     555     561      35     498     501     504      37     495     492
     498      40     495     492     549      41     492     549     552       5
     489     483     492      44     486     483     489      45     486     483
     492      44     483     492     495      46     480     483     486      52
     480     483     489      52
%FLAG ANGLES_WITHOUT_HYDROGEN                                                   
%FORMAT(10I8)                                                                   
      87      90      93       1      87      90      96       1      87      90
      99       2      78      72      87       4      72      87      90       8
      60      66      69      10      57      60      66      11      48      45
      57      13      45      42      69      14      45      57      60      16
      42      45      48      17      42      45      57      18      42      69
      66      19      39      42      45      20      39      42      69      21
      33      30      69      23      33      39      42      24      30      24
      78      25      30      33      39      27      30      69      42      28
      30      69      66      29      24      30      33      32      24      30
      69      33      24      78      72      34      21      15      72      36
      21      24      30      38      21      24      78      39      15      21
      24      42      15      72      78      43      15      72      87       4
       6      15      21      47       6      15      72      48       3       6
      15      50     183     186     189       1     183     186     192       1
     183     186     195       2     174     168     183       4     168     183
     186       8     156     162     165      10     153     156     162      11
     144     141     153      13     141     138     165      14     141     153
     156      16     138     141     144      17     138     141     153      18
     138     165     162      19     135     138     141      20     135     138
     165      21     129     126     165      23     129     135     138      24
     126     120     174      25     126     129     135      27     126     165
     138      28     126     165     162      29     120     126     129      32
     120     126     165      33     120     174     168      34     117     111
     168      36     117     120     126      38     117     120     174      39
     111     117     120      42     111     168     174      43     111     168
     183       4     102     111     117      47     102     111     168      48
      99     102     111      53      96      90      99       1      93      90
      96      54      93      90      99       1      90      99     102      55
     282     285     288       1     282     285     291       1     282     285
     294       2     273     267     282       4     267     282     285       8
     252     249     261      13     249     261     264      56     243     249
     252      58     243     249     261      59     240     237     243      60
     237     234     264      61     237     243     249      63     234     237
     240      64     234     237     243      65     234     264     261      19
     231     234     237      66     231     234     264      21     225     222
     264      68     225     231     234      69     222     216     273      25
     222     225     231      71     222     264     234      28     222     264
     261      29     216     222     225      72     216     222     264      33
     216     273     267      34     213     207     267      36     213     216
     222      38     213     216     273      39     207     213     216      42
     207     267     273      43     207     267     282       4     198     207
     213      47     198     207     267      48     195     198     207      53
     192     186     195       1     189     186     192      54     189     186
     195       1     186     195     198      55     372     375     378       1
     372     375     381       1     372     375     384       2     363     357
     372       4     357     372     375       8     348     351     354      73
     339     336     348      13     336     348     351      74     330     336
     339      76     330     336     348      77     324     321     351      79
     324     330     336      81     321     315     363      25     321     324
     330      83     321     351     348      84     321     351     354      85
     315     321     324      86     315     321     351      87     315     363
     357      34     312     306     357      36     312     315     321      38
     312     315     363      39     306     312     315      42     306     357
     363      43     306     357     372       4     297     306     312      47
     297     306     357      48     294     297     306      53     291     285
     294       1     288     285     291      54     288     285     294       1
     285     294     297      55     468     471     474       1     468     471
     477       1     468     471     480       2     459     453     468       4
     453     468     471       8     441     447     450      60     438     435
     441      60     435     441     447      88     423     420     435      89
     420     435     438      91     420     435     441      92     414     411
     447      94     414     420     423      95     414     420     435      96
     411     405     459      25     411     414     420      98     411     447
     441      99     411     447     450      85     405     411     414     100
     405     411     447      87     405     459     453      34     402     396
     453      36     402     405     411      38     402     405     459      39
     396     402     405      42     396     453     459      43     396     453
     468       4     387     396     402      47     387     396     453      48
     384     387     396      53     381     375     384       1     378     375
     381      54     378     375     384       1     375     384     387      55
     555     549     564     101     537     543     546      10     534     537
     543      11     525     522     534      13     522     519     546      14
     522     534     537      16     519     522     525      17     519     522
     534      18     519     546     543      19     516     519     522      20
     516     519     546      21     510     507     546      23     510     516
     519      24     507     501     555      25     507     510     516      27
     507     546     519      28     507     546     543      29     501     507
     510      32     501     507     546      33     501     555     549      34
     498     492     549      36     498     501     507      38     498     501
     555      39     492     498     501      42     492     549     555      43
     492     549     564     101     483     492     498      47     483     492
     549      48     480     483     492      53     477     471     480       1
     474     471     477      54     474     471     480       1     471     480
     483      55
%FLAG DIHEDRALS_INC_HYDROGEN                                                    
%FORMAT(10I8)                                                                   
      84      78      72      87       4      81      78      72      87       4
      75      72      78      81       4      75      72      78      84       4
      75      72      87      90       8      63      60      66      69      14
      54      48      45      57      16      51      48      45      57      16
      45      57      60      63      14      42      45      48      51      16
      42      45      48      54      16      36      33      30      69      20
      36      33      39      42      21      30      24      78      81       4
      30      24      78      84       4      27      24      30      33      13
      27      24      30      69      13      27      24      78      72       4
      27      24      78      81       4      27      24      78      84       4
      24      30      33      36      20      24      78      72      75       4
      21      15      72      75       4      21      24      78      81      32
      21      24     -78      81      33      21      24      78      84      32
      21      24     -78      84      33      18      15      21      24       8
      18      15      72      75       4      18      15      72      78       4
      18      15      72      87       4      15      21      24      27       8
      15      72      78      81       4      15      72      78      84       4
      12       6      15      18       4      12       6      15      21      32
      12       6     -15      21      33      12       6      15      72      38
       9       6      15      18       4       9       6      15      21      32
       9       6     -15      21      33       9       6      15      72      38
       6      15      72      75       4       3       6      15      18      32
       3       6     -15      18      33       0       3       6       9      42
       0       3       6      12      42       0       3       6      15      42
     180     174     168     183       4     177     174     168     183       4
     171     168     174     177       4     171     168     174     180       4
     171     168     183     186       8     159     156     162     165      14
     150     144     141     153      16     147     144     141     153      16
     141     153     156     159      14     138     141     144     147      16
     138     141     144     150      16     132     129     126     165      20
     132     129     135     138      21     126     120     174     177       4
     126     120     174     180       4     123     120     126     129      13
     123     120     126     165      13     123     120     174     168       4
     123     120     174     177       4     123     120     174     180       4
     120     126     129     132      20     120     174     168     171       4
     117     111     168     171       4     117     120     174     177      32
     117     120    -174     177      33     117     120     174     180      32
     117     120    -174     180      33     114     111     117     120       8
     114     111     168     171       4     114     111     168     174       4
     114     111     168     183       4     111     117     120     123       8
     111     168     174     177       4     111     168     174     180       4
     108     102     111     114       4     108     102     111     117      32
     108     102    -111     117      33     108     102     111     168      38
     105     102     111     114       4     105     102     111     117      32
     105     102    -111     117      33     105     102     111     168      38
     102     111     168     171       4      99     102     111     114      32
      99     102    -111     114      33      90      99     102     105       8
      90      99     102     108       8     279     273     267     282       4
     276     273     267     282       4     270     267     273     276       4
     270     267     273     279       4     270     267     282     285       8
     258     252     249     261      16     255     252     249     261      16
     246     243     249     252      43     246     243     249     261      43
     243     249     252     255      16     243     249     252     258      16
     240     237     243     246      45     234     237     243     246      45
     228     225     222     264      20     228     225     231     234      21
     222     216     273     276       4     222     216     273     279       4
     219     216     222     225      13     219     216     222     264      13
     219     216     273     267       4     219     216     273     276       4
     219     216     273     279       4     216     222     225     228      20
     216     273     267     270       4     213     207     267     270       4
     213     216     273     276      32     213     216    -273     276      33
     213     216     273     279      32     213     216    -273     279      33
     210     207     213     216       8     210     207     267     270       4
     210     207     267     273       4     210     207     267     282       4
     207     213     216     219       8     207     267     273     276       4
     207     267     273     279       4     204     198     207     210       4
     204     198     207     213      32     204     198    -207     213      33
     204     198     207     267      38     201     198     207     210       4
     201     198     207     213      32     201     198    -207     213      33
     201     198     207     267      38     198     207     267     270       4
     195     198     207     210      32     195     198    -207     210      33
     186     195     198     201       8     186     195     198     204       8
     369     363     357     372       4     366     363     357     372       4
     360     357     363     366       4     360     357     363     369       4
     360     357     372     375       8     345     339     336     348      16
     342     339     336     348      16     333     330     336     339      23
     333     330     336     348      23     330     336     339     342      16
     330     336     339     345      16     327     324     321     351      50
     327     324     330     333      51     327     324     330     336      51
     321     315     363     366       4     321     315     363     369       4
     321     324     330     333      51     318     315     321     324      13
     318     315     321     351      13     318     315     363     357       4
     318     315     363     366       4     318     315     363     369       4
     315     321     324     327      50     315     363     357     360       4
     312     306     357     360       4     312     315     363     366      32
     312     315    -363     366      33     312     315     363     369      32
     312     315    -363     369      33     309     306     312     315       8
     309     306     357     360       4     309     306     357     363       4
     309     306     357     372       4     306     312     315     318       8
     306     357     363     366       4     306     357     363     369       4
     303     297     306     309       4     303     297     306     312      32
     303     297    -306     312      33     303     297     306     357      38
     300     297     306     309       4     300     297     306     312      32
     300     297    -306     312      33     300     297     306     357      38
     297     306     357     360       4     294     297     306     309      32
     294     297    -306     309      33     285     294     297     300       8
     285     294     297     303       8     465     459     453     468       4
     462     459     453     468       4     456     453     459     462       4
     456     453     459     465       4     456     453     468     471       8
     444     441     447     450      45     438     435     441     444      45
     432     423     420     435      33     429     423     420     435      33
     426     423     420     435      33     420     435     441     444      45
     417     414     411     447      50     417     414     420     423      51
     417     414     420     435      51     414     420     423     426      57
     414     420    -423     426      58     414     420     423     429      57
     414     420    -423     429      58     414     420     423     432      57
     414     420    -423     432      58     411     405     459     462       4
     411     405     459     465       4     411     447     441     444      45
     408     405     411     414      13     408     405     411     447      13
     408     405     459     453       4     408     405     459     462       4
     408     405     459     465       4     405     411     414     417      50
     405     459     453     456       4     402     396     453     456       4
     402     405     459     462      32     402     405    -459     462      33
     402     405     459     465      32     402     405    -459     465      33
     399     396     402     405       8     399     396     453     456       4
     399     396     453     459       4     399     396     453     468       4
     396     402     405     408       8     396     453     459     462       4
     396     453     459     465       4     393     387     396     399       4
     393     387     396     402      32     393     387    -396     402      33
     393     387     396     453      38     390     387     396     399       4
     390     387     396     402      32     390     387    -396     402      33
     390     387     396     453      38     387     396     453     456       4
     384     387     396     399      32     384     387    -396     399      33
     375     384     387     390       8     375     384     387     393       8
     561     555     549     564       4     558     555     549     564       4
     555     549     564     567       5     555     549    -564     567       6
     555     549    -564     567       7     552     549     555     558       4
     552     549     555     561       4     552     549     564     567      42
     540     537     543     546      14     531     525     522     534      16
     528     525     522     534      16     522     534     537     540      14
     519     522     525     528      16     519     522     525     531      16
     513     510     507     546      20     513     510     516     519      21
     507     501     555     558       4     507     501     555     561       4
     504     501     507     510      13     504     501     507     546      13
     504     501     555     549       4     504     501     555     558       4
     504     501     555     561       4     501     507     510     513      20
     501     555     549     552       4     498     492     549     552       4
     498     501     555     558      32     498     501    -555     558      33
     498     501     555     561      32     498     501    -555     561      33
     495     492     498     501       8     495     492     549     552       4
     495     492     549     555       4     495     492     549     564       4
     492     498     501     504       8     492     549     555     558       4
     492     549     555     561       4     492     549     564     567       5
     492     549    -564     567       6     492     549    -564     567       7
     489     483     492     495       4     489     483     492     498      32
     489     483    -492     498      33     489     483     492     549      38
     486     483     492     495       4     486     483     492     498      32
     486     483    -492     498      33     486     483     492     549      38
     483     492     549     552       4     480     483     492     495      32
     480     483    -492     495      33     471     480     483     486       8
     471     480     483     489       8      57      66     -60     -63      64
      45      51     -48     -54      65      30      39     -33     -36      64
     153     162    -156    -159      64     141     147    -144    -150      65
     126     135    -129    -132      64     249     255    -252    -258      65
     237     249    -243    -246      65     222     231    -225    -228      64
     336     342    -339    -345      65     324     336    -330    -333      64
     321     330    -324    -327      64     435     447    -441    -444      65
     411     420    -414    -417      64     534     543    -537    -540      64
     522     528    -525    -531      65     507     516    -510    -513      64
%FLAG DIHEDRALS_WITHOUT_HYDROGEN                                                
%FORMAT(10I8)                                                                   
      87      90      99     102       1      87      90     -99     102       2
      87      90     -99     102       3      78      72      87      90       5
      78      72     -87      90       6      78      72     -87      90       7
      72      87      90      93       9      72      87      90      96       9
      72      87      90      99      10      72      87     -90      99      11
      72      87     -90      99      12      69      30      24      78      13
      57      45      42      69      15      57      60     -66      69      14
      48      45      42      69      15      48      45      57      60      17
      45      42      69      66      18      45      57     -60      66      14
      42      45      57      60      17      42      69     -66      60      19
      39      33     -30      69      20      39      42      45      48      15
      39      42      45      57      15      39      42      69      66      18
      33      30      24      78      13      33      30     -69      42      22
      33      30      69      66      22      33      39      42      45      23
      33      39     -42      69      23      30      24      78      72       4
      30      33     -39      42      21      30      69      42      45      18
      30      69     -42      39      18      30      69      66      60      19
      24      30      33      39      20      24      30      69      42      22
      24      30      69      66      22      24      78      72      87       4
      24      21     -15      72      24      24      21     -15      72      25
      21      15     -72      78      26      21      15      72      87      27
      21      15     -72      87      28      21      24      30      33      29
      21      24     -30      33      30      21      24     -30      33      31
      21      24      30      69      13      21      24     -78      72       4
      15      21      24      30      34      15      21     -24      30      35
      15      21     -24      78      24      15      21     -24      78      35
      15      72     -78      24      36      15      72     -78      24      37
      15      72      87      90       5      15      72     -87      90       6
      15      72     -87      90       7       6      15      21      24      24
       6      15     -21      24      35       6      15      72      78       4
       6      15      72      87       4       3       6      15      21       4
       3       6      15      72      39       3       6     -15      72      40
       3       6     -15      72      41     183     186     195     198       1
     183     186    -195     198       2     183     186    -195     198       3
     174     168     183     186       5     174     168    -183     186       6
     174     168    -183     186       7     168     183     186     189       9
     168     183     186     192       9     168     183     186     195      10
     168     183    -186     195      11     168     183    -186     195      12
     165     126     120     174      13     153     141     138     165      15
     153     156    -162     165      14     144     141     138     165      15
     144     141     153     156      17     141     138     165     162      18
     141     153    -156     162      14     138     141     153     156      17
     138     165    -162     156      19     135     129    -126     165      20
     135     138     141     144      15     135     138     141     153      15
     135     138     165     162      18     129     126     120     174      13
     129     126    -165     138      22     129     126     165     162      22
     129     135     138     141      23     129     135    -138     165      23
     126     120     174     168       4     126     129    -135     138      21
     126     165     138     141      18     126     165    -138     135      18
     126     165     162     156      19     120     117    -111     168      24
     120     117    -111     168      25     120     126     129     135      20
     120     126     165     138      22     120     126     165     162      22
     120     174     168     183       4     117     111    -168     174      26
     117     111     168     183      27     117     111    -168     183      28
     117     120     126     129      29     117     120    -126     129      30
     117     120    -126     129      31     117     120     126     165      13
     117     120    -174     168       4     111     117     120     126      34
     111     117    -120     126      35     111     117    -120     174      24
     111     117    -120     174      35     111     168    -174     120      36
     111     168    -174     120      37     111     168     183     186       5
     111     168    -183     186       6     111     168    -183     186       7
     102     111     117     120      24     102     111    -117     120      35
     102     111     168     174       4     102     111     168     183       4
      99     102     111     117       4      99     102     111     168      39
      99     102    -111     168      40      99     102    -111     168      41
      96      90      99     102       9      93      90      99     102       9
      90      99     102     111       8     282     285     294     297       1
     282     285    -294     297       2     282     285    -294     297       3
     273     267     282     285       5     273     267    -282     285       6
     273     267    -282     285       7     267     282     285     288       9
     267     282     285     291       9     267     282     285     294      10
     267     282    -285     294      11     267     282    -285     294      12
     264     222     216     273      13     252     249     261     264      17
     243     237     234     264      44     243     249    -261     264      17
     240     237     234     264      44     240     237     243     249      45
     237     234     264     261      18     237     243     249     252      43
     237     243    -249     261      43     234     237     243     249      45
     234     264    -261     249      19     231     225    -222     264      20
     231     234     237     240      44     231     234     237     243      44
     231     234     264     261      18     225     222     216     273      13
     225     222    -264     234      22     225     222     264     261      22
     225     231     234     237      23     225     231    -234     264      23
     222     216     273     267       4     222     225    -231     234      21
     222     264     234     237      18     222     264    -234     231      18
     222     264     261     249      19     216     213    -207     267      24
     216     213    -207     267      25     216     222     225     231      20
     216     222     264     234      22     216     222     264     261      22
     216     273     267     282       4     213     207    -267     273      26
     213     207     267     282      27     213     207    -267     282      28
     213     216     222     225      46     213     216    -222     225      47
     213     216    -222     225      48     213     216     222     264      13
     213     216    -273     267       4     207     213     216     222      34
     207     213    -216     222      35     207     213    -216     273      24
     207     213    -216     273      35     207     267    -273     216      36
     207     267    -273     216      37     207     267     282     285       5
     207     267    -282     285       6     207     267    -282     285       7
     198     207     213     216      24     198     207    -213     216      35
     198     207     267     273       4     198     207     267     282       4
     195     198     207     213       4     195     198     207     267      39
     195     198    -207     267      40     195     198    -207     267      41
     192     186     195     198       9     189     186     195     198       9
     186     195     198     207       8     372     375     384     387       1
     372     375    -384     387       2     372     375    -384     387       3
     363     357     372     375       5     363     357    -372     375       6
     363     357    -372     375       7     357     372     375     378       9
     357     372     375     381       9     357     372     375     384      10
     357     372    -375     384      11     357     372    -375     384      12
     351     321     315     363      13     339     336     348     351      17
     336     348     351     354      49     330     324     321     351      50
     330     336    -348     351      17     324     321     315     363      13
     324     321     351     348      52     324     321     351     354      52
     324     330     336     339      23     324     330    -336     348      23
     321     315     363     357       4     321     324     330     336      51
     321     351    -348     336      49     315     312    -306     357      24
     315     312    -306     357      25     315     321     324     330      50
     315     321     351     348      52     315     321     351     354      52
     315     363     357     372       4     312     306    -357     363      26
     312     306     357     372      27     312     306    -357     372      28
     312     315     321     324      53     312     315    -321     324      54
     312     315    -321     324      55     312     315     321     351      13
     312     315    -363     357       4     306     312     315     321      34
     306     312    -315     321      35     306     312    -315     363      24
     306     312    -315     363      35     306     357    -363     315      36
     306     357    -363     315      37     306     357     372     375       5
     306     357    -372     375       6     306     357    -372     375       7
     297     306     312     315      24     297     306    -312     315      35
     297     306     357     363       4     297     306     357     372       4
     294     297     306     312       4     294     297     306     357      39
     294     297    -306     357      40     294     297    -306     357      41
     291     285     294     297       9     288     285     294     297       9
     285     294     297     306       8     468     471     480     483       1
     468     471    -480     483       2     468     471    -480     483       3
     459     453     468     471       5     459     453    -468     471       6
     459     453    -468     471       7     453     468     471     474       9
     453     468     471     477       9     453     468     471     480      10
     453     468    -471     480      11     453     468    -471     480      12
     447     411     405     459      13     438     435     441     447      45
     435     441     447     450      45     423     420     435     438      56
     423     420     435     441      56     420     414     411     447      50
     420     435    -441     447      45     414     411     405     459      13
     414     411     447     441      52     414     411     447     450      52
     414     420     435     438      56     414     420    -435     438      59
     414     420    -435     441      56     411     405     459     453       4
     411     414     420     423      51     411     414     420     435      51
     411     447    -441     435      45     405     402    -396     453      24
     405     402    -396     453      25     405     411     414     420      50
     405     411     447     441      52     405     411     447     450      52
     405     459     453     468       4     402     396    -453     459      26
     402     396     453     468      27     402     396    -453     468      28
     402     405     411     414      60     402     405    -411     414      61
     402     405    -411     414      62     402     405     411     447      13
     402     405    -459     453       4     396     402     405     411      34
     396     402    -405     411      35     396     402    -405     459      24
     396     402    -405     459      35     396     453    -459     405      36
     396     453    -459     405      37     396     453     468     471       5
     396     453    -468     471       6     396     453    -468     471       7
     387     396     402     405      24     387     396    -402     405      35
     387     396     453     459       4     387     396     453     468       4
     384     387     396     402       4     384     387     396     453      39
     384     387    -396     453      40     384     387    -396     453      41
     381     375     384     387       9     378     375     384     387       9
     375     384     387     396       8     546     507     501     555      13
     534     522     519     546      15     534     537    -543     546      14
     525     522     519     546      15     525     522     534     537      17
     522     519     546     543      18     522     534    -537     543      14
     519     522     534     537      17     519     546    -543     537      19
     516     510    -507     546      20     516     519     522     525      15
     516     519     522     534      15     516     519     546     543      18
     510     507     501     555      13     510     507    -546     519      22
     510     507     546     543      22     510     516     519     522      23
     510     516    -519     546      23     507     501     555     549       4
     507     510    -516     519      21     507     546     519     522      18
     507     546    -519     516      18     507     546     543     537      19
     501     498    -492     549      24     501     498    -492     549      25
     501     507     510     516      20     501     507     546     519      22
     501     507     546     543      22     501     555     549     564       4
     498     492    -549     555      26     498     492     549     564      27
     498     492    -549     564      28     498     501     507     510      29
     498     501    -507     510      30     498     501    -507     510      31
     498     501     507     546      13     498     501    -555     549       4
     492     498     501     507      34     492     498    -501     507      35
     492     498    -501     555      24     492     498    -501     555      35
     492     549    -555     501      36     492     549    -555     501      37
     483     492     498     501      24     483     492    -498     501      35
     483     492     549     555       4     483     492     549     564       4
     480     483     492     498       4     480     483     492     549      39
     480     483    -492     549      40     480     483    -492     549      41
     477     471     480     483       9     474     471     480     483       9
     471     480     483     492       8      30      42     -69     -66      63
      42      48     -45     -57      64      39      45     -42     -69      63
      69      33     -30     -24      65     138     126    -165    -162      63
     138     144    -141    -153      64     141     165    -138    -135      63
     129     165    -126    -120      65     234     222    -264    -261      63
     252     243    -249    -261      64     234     243    -237    -240      66
     231     237    -234    -264      63     264     225    -222    -216      65
     321     348    -351    -354      66     330     339    -336    -348      64
     351     324    -321    -315      65     411     441    -447    -450      66
     420     441    -435    -438      66     435     414    -420    -423      64
     447     414    -411    -405      65     519     507    -546    -543      63
     519     525    -522    -534      64     522     546    -519    -516      63
     510     546    -507    -501      65
%FLAG EXCLUDED_ATOMS_LIST                                                       
%FORMAT(10I8)                                                                   
       2       3       4       5       6       3       4       5       6       7
       8      25       4       5       6       7       8       9      25      26
      27      30       5       6       7       8      25       6       7       8
      25       7       8       9      10      11      25      26      27      28
      29      30      31       8       9      25      26      27      30       9
      10      11      12      24      25      26      27      28      29      30
      10      11      12      13      14      15      23      24      25      26
      27      28      29      30      11      12      24      25      27      28
      29      12      13      14      15      16      21      23      24      25
      27      28      29      13      14      15      16      23      24      27
      14      15      24      15      16      17      20      23      24      16
      17      18      19      20      21      23      24      17      18      19
      20      21      22      23      24      18      19      20      21      24
      19      20      20      21      22      23      24      22      23      24
      23      24      24      27      26      27      28      29      30      31
      32      33      34      27      28      29      30      31      28      29
      30      31      29      30      30      31      32      33      34      35
      32      33      34      35      36      37      38      33      34      35
      34      35      35      36      37      38      39      40      57      36
      37      38      39      40      41      57      58      59      62      37
      38      39      40      57      38      39      40      57      39      40
      41      42      43      57      58      59      60      61      62      63
      40      41      57      58      59      62      41      42      43      44
      56      57      58      59      60      61      62      42      43      44
      45      46      47      55      56      57      58      59      60      61
      62      43      44      56      57      59      60      61      44      45
      46      47      48      53      55      56      57      59      60      61
      45      46      47      48      55      56      59      46      47      56
      47      48      49      52      55      56      48      49      50      51
      52      53      55      56      49      50      51      52      53      54
      55      56      50      51      52      53      56      51      52      52
      53      54      55      56      54      55      56      55      56      56
      59      58      59      60      61      62      63      64      65      66
      59      60      61      62      63      60      61      62      63      61
      62      62      63      64      65      66      67      64      65      66
      67      68      69      70      65      66      67      66      67      67
      68      69      70      71      72      90      68      69      70      71
      72      73      90      91      92      95      69      70      71      72
      90      70      71      72      90      71      72      73      74      75
      90      91      92      93      94      95      96      72      73      90
      91      92      95      73      74      75      76      89      90      91
      92      93      94      95      74      75      76      77      78      79
      88      89      90      91      92      93      94      95      75      76
      89      90      92      93      94      76      77      78      79      80
      84      88      89      90      92      93      94      77      78      79
      80      88      89      92      78      79      89      79      80      81
      82      88      89      80      81      82      83      84      88      89
      81      82      83      84      85      88      89      82      83      84
      89      83      84      85      86      87      88      89      84      85
      88      85      86      87      88      89      86      87      88      89
      87      88      88      89      92      91      92      93      94      95
      96      97      98      99      92      93      94      95      96      93
      94      95      96      94      95      95      96      97      98      99
     100      97      98      99     100     101     102     103      98      99
     100      99     100     100     101     102     103     104     105     120
     101     102     103     104     105     106     120     121     122     125
     102     103     104     105     120     103     104     105     120     104
     105     106     107     108     120     121     122     123     124     125
     126     105     106     120     121     122     125     106     107     108
     109     118     120     121     122     123     124     125     107     108
     109     110     111     117     118     119     120     121     122     123
     124     125     108     109     118     120     122     123     124     109
     110     111     112     113     117     118     119     120     122     123
     124     110     111     112     113     114     117     118     119     122
     111     112     113     118     112     113     114     115     116     117
     118     113     114     117     114     115     116     117     118     119
     115     116     117     118     116     117     117     118     119     119
     122       0     121     122     123     124     125     126     127     128
     129     122     123     124     125     126     123     124     125     126
     124     125     125     126     127     128     129     130     127     128
     129     130     131     132     133     128     129     130     129     130
     130     131     132     133     134     135     152     131     132     133
     134     135     136     152     153     154     157     132     133     134
     135     152     133     134     135     152     134     135     136     137
     138     152     153     154     155     156     157     158     135     136
     152     153     154     157     136     137     138     139     150     152
     153     154     155     156     157     137     138     139     140     141
     148     150     151     152     153     154     155     156     157     138
     139     150     152     154     155     156     139     140     141     142
     146     148     149     150     151     152     154     155     156     140
     141     142     143     144     145     146     147     148     150     151
     154     141     142     146     150     142     143     144     145     146
     147     148     149     150     143     144     145     146     147     148
     144     145     146     145     146     146     147     148     149     150
     151     148     149     150     149     150     151     150     151     151
     154       0     153     154     155     156     157     158     159     160
     161     154     155     156     157     158     155     156     157     158
     156     157     157     158     159     160     161     162     159     160
     161     162     163     164     165     160     161     162     161     162
     162     163     164     165     166     167     184     163     164     165
     166     167     168     184     185     186     189     164     165     166
     167     184     165     166     167     184     166     167     168     169
     170     184     185     186     187     188     189     190     167     168
     184     185     186     189     168     169     170     171     183     184
     185     186     187     188     189     169     170     171     172     173
     174     182     183     184     185     186     187     188     189     170
     171     183     184     186     187     188     171     172     173     174
     175     180     182     183     184     186     187     188     172     173
     174     175     182     183     186     173     174     183     174     175
     176     179     182     183     175     176     177     178     179     180
     182     183     176     177     178     179     180     181     182     183
     177     178     179     180     183     178     179     179     180     181
     182     183     181     182     183     182     183     183     186     185
     186     187     188     189     190     186     187     188     189     190
     187     188     189     190     188     189     189     190       0
%FLAG HBOND_ACOEF                                                               
%FORMAT(5E16.8)                                                                 

%FLAG HBOND_BCOEF                                                               
%FORMAT(5E16.8)                                                                 

%FLAG HBCUT                                                                     
%FORMAT(5E16.8)                                                                 

%FLAG AMBER_ATOM_TYPE                                                           
%FORMAT(20a4)                                                                   
HO  OH  CI  H1  H1  CT  H1  OS  CT  H2  N*  C1  H5  NB  CB  CA  N2  H   H   NC  
CQ  H5  NC  CB  CE  H1  CT  HC  HC  OS  P   O2  O2  OS  CI  H1  H1  CT  H1  OS  
CT  H2  N*  C1  H5  NB  CB  CA  N2  H   H   NC  CQ  H5  NC  CB  CE  H1  CT  HC  
HC  OS  P   O2  O2  OS  CI  H1  H1  CT  H1  OS  CT  H2  N*  CK  H5  NB  CB  C   
O   NA  H   CA  N2  H   H   NC  CB  CE  H1  CT  HC  HC  OS  P   O2  O2  OS  CI  
H1  H1  CT  H1  OS  CT  H2  N*  CM  H4  CM  HA  CA  N2  H   H   NC  C   O   CE  
H1  CT  HC  HC  OS  P   O2  O2  OS  CI  H1  H1  CT  H1  OS  CT  H2  N*  C2  H4  
C2  CT  HC  HC  HC  C   O   NA  H   C   O   CE  H1  CT  HC  HC  OS  P   O2  O2  
OS  CI  H1  H1  CT  H1  OS  CT  H2  N*  C1  H5  NB  CB  CA  N2  H   H   NC  CQ  
H5  NC  CB  CE  H1  CT  HC  HC  OH  HO  
%FLAG TREE_CHAIN_CLASSIFICATION                                                 
%FORMAT(20a4)                                                                   
M   M   M   E   E   M   E   S   3   E   B   S   E   E   B   B   B   E   E   S   
S   E   E   B   M   E   B   E   E   M   M   E   E   M   M   E   E   M   E   S   
3   E   B   S   E   E   B   B   B   E   E   S   S   E   E   B   M   E   B   E   
E   M   M   E   E   M   M   E   E   M   E   S   3   E   B   S   E   E   B   B   
E   B   E   S   B   E   E   E   B   M   E   B   E   E   M   M   E   E   M   M   
E   E   M   E   S   3   E   B   S   E   S   E   B   B   E   E   S   B   E   M   
E   B   E   E   M   M   E   E   M   M   E   E   M   E   S   3   E   B   S   E   
S   3   E   E   E   B   E   B   E   B   E   M   E   B   E   E   M   M   E   E   
M   M   E   E   M   E   S   3   E   B   S   E   E   B   B   B   E   E   S   S   
E   E   B   M   E   B   E   E   M   M   
%FLAG JOIN_ARRAY                                                                
%FORMAT(10I8)                                                                   
       0       0       0       0       0       0       0       0       0       0
       0       0       0       0       0       0       0       0       0       0
       0       0       0       0       0       0       0       0       0       0
       0       0       0       0       0       0       0       0       0       0
       0       0       0       0       0       0       0       0       0       0
       0       0       0       0       0       0       0       0       0       0
       0       0       0       0       0       0       0       0       0       0
       0       0       0       0       0       0       0       0       0       0
       0       0       0       0       0       0       0       0       0       0
       0       0       0       0       0       0       0       0       0       0
       0       0       0       0       0       0       0       0       0       0
       0       0       0       0       0       0       0       0       0       0
       0       0       0       0       0       0       0       0       0       0
       0       0       0       0       0       0       0       0       0       0
       0       0       0       0       0       0       0       0       0       0
       0       0       0       0       0       0       0       0       0       0
       0       0       0       0       0       0       0       0       0       0
       0       0       0       0       0       0       0       0       0       0
       0       0       0       0       0       0       0       0       0       0
%FLAG IROTAT                                                                    
%FORMAT(10I8)                                                                   
       0       0       0       0       0       0       0       0       0       0
       0       0       0       0       0       0       0       0       0       0
       0       0       0       0       0       0       0       0       0       0
       0       0       0       0       0       0       0       0       0       0
       0       0       0       0       0       0       0       0       0       0
       0       0       0       0       0       0       0       0       0       0
       0       0       0       0       0       0       0       0       0       0
       0       0       0       0       0       0       0       0       0       0
       0       0       0       0       0       0       0       0       0       0
       0       0       0       0       0       0       0       0       0       0
       0       0       0       0       0       0       0       0       0       0
       0       0       0       0       0       0       0       0       0       0
       0       0       0       0       0       0       0       0       0       0
       0       0       0       0       0       0       0       0       0       0
       0       0       0       0       0       0       0       0       0       0
       0       0       0       0       0       0       0       0       0       0
       0       0       0       0       0       0       0       0       0       0
       0       0       0       0       0       0       0       0       0       0
       0       0       0       0       0       0       0       0       0       0
%FLAG RADIUS_SET                                                                
%FORMAT(1a80)                                                                   
modified Bondi radii (mbondi)                                                   
%FLAG RADII                                                                     
%FORMAT(5E16.8)                                                                 
  8.00000000E-01  1.50000000E+00  1.70000000E+00  1.30000000E+00  1.30000000E+00
  1.70000000E+00  1.30000000E+00  1.50000000E+00  1.70000000E+00  1.30000000E+00
  1.55000000E+00  1.70000000E+00  1.30000000E+00  1.55000000E+00  1.70000000E+00
  1.70000000E+00  1.55000000E+00  1.30000000E+00  1.30000000E+00  1.55000000E+00
  1.70000000E+00  1.30000000E+00  1.55000000E+00  1.70000000E+00  1.70000000E+00
  1.30000000E+00  1.70000000E+00  1.30000000E+00  1.30000000E+00  1.50000000E+00
  1.85000000E+00  1.50000000E+00  1.50000000E+00  1.50000000E+00  1.70000000E+00
  1.30000000E+00  1.30000000E+00  1.70000000E+00  1.30000000E+00  1.50000000E+00
  1.70000000E+00  1.30000000E+00  1.55000000E+00  1.70000000E+00  1.30000000E+00
  1.55000000E+00  1.70000000E+00  1.70000000E+00  1.55000000E+00  1.30000000E+00
  1.30000000E+00  1.55000000E+00  1.70000000E+00  1.30000000E+00  1.55000000E+00
  1.70000000E+00  1.70000000E+00  1.30000000E+00  1.70000000E+00  1.30000000E+00
  1.30000000E+00  1.50000000E+00  1.85000000E+00  1.50000000E+00  1.50000000E+00
  1.50000000E+00  1.70000000E+00  1.30000000E+00  1.30000000E+00  1.70000000E+00
  1.30000000E+00  1.50000000E+00  1.70000000E+00  1.30000000E+00  1.55000000E+00
  1.70000000E+00  1.30000000E+00  1.55000000E+00  1.70000000E+00  1.70000000E+00
  1.50000000E+00  1.55000000E+00  1.30000000E+00  1.70000000E+00  1.55000000E+00
  1.30000000E+00  1.30000000E+00  1.55000000E+00  1.70000000E+00  1.70000000E+00
  1.30000000E+00  1.70000000E+00  1.30000000E+00  1.30000000E+00  1.50000000E+00
  1.85000000E+00  1.50000000E+00  1.50000000E+00  1.50000000E+00  1.70000000E+00
  1.30000000E+00  1.30000000E+00  1.70000000E+00  1.30000000E+00  1.50000000E+00
  1.70000000E+00  1.30000000E+00  1.55000000E+00  1.70000000E+00  1.30000000E+00
  1.70000000E+00  1.30000000E+00  1.70000000E+00  1.55000000E+00  1.30000000E+00
  1.30000000E+00  1.55000000E+00  1.70000000E+00  1.50000000E+00  1.70000000E+00
  1.30000000E+00  1.70000000E+00  1.30000000E+00  1.30000000E+00  1.50000000E+00
  1.85000000E+00  1.50000000E+00  1.50000000E+00  1.50000000E+00  1.70000000E+00
  1.30000000E+00  1.30000000E+00  1.70000000E+00  1.30000000E+00  1.50000000E+00
  1.70000000E+00  1.30000000E+00  1.55000000E+00  1.70000000E+00  1.30000000E+00
  1.70000000E+00  1.70000000E+00  1.30000000E+00  1.30000000E+00  1.30000000E+00
  1.70000000E+00  1.50000000E+00  1.55000000E+00  1.30000000E+00  1.70000000E+00
  1.50000000E+00  1.70000000E+00  1.30000000E+00  1.70000000E+00  1.30000000E+00
  1.30000000E+00  1.50000000E+00  1.85000000E+00  1.50000000E+00  1.50000000E+00
  1.50000000E+00  1.70000000E+00  1.30000000E+00  1.30000000E+00  1.70000000E+00
  1.30000000E+00  1.50000000E+00  1.70000000E+00  1.30000000E+00  1.55000000E+00
  1.70000000E+00  1.30000000E+00  1.55000000E+00  1.70000000E+00  1.70000000E+00
  1.55000000E+00  1.30000000E+00  1.30000000E+00  1.55000000E+00  1.70000000E+00
  1.30000000E+00  1.55000000E+00  1.70000000E+00  1.70000000E+00  1.30000000E+00
  1.70000000E+00  1.30000000E+00  1.30000000E+00  1.50000000E+00  8.00000000E-01
%FLAG SCREEN                                                                    
%FORMAT(5E16.8)                                                                 
  8.50000000E-01  8.50000000E-01  7.20000000E-01  8.50000000E-01  8.50000000E-01
  7.20000000E-01  8.50000000E-01  8.50000000E-01  7.20000000E-01  8.50000000E-01
  7.90000000E-01  7.20000000E-01  8.50000000E-01  7.90000000E-01  7.20000000E-01
  7.20000000E-01  7.90000000E-01  8.50000000E-01  8.50000000E-01  7.90000000E-01
  7.20000000E-01  8.50000000E-01  7.90000000E-01  7.20000000E-01  7.20000000E-01
  8.50000000E-01  7.20000000E-01  8.50000000E-01  8.50000000E-01  8.50000000E-01
  8.60000000E-01  8.50000000E-01  8.50000000E-01  8.50000000E-01  7.20000000E-01
  8.50000000E-01  8.50000000E-01  7.20000000E-01  8.50000000E-01  8.50000000E-01
  7.20000000E-01  8.50000000E-01  7.90000000E-01  7.20000000E-01  8.50000000E-01
  7.90000000E-01  7.20000000E-01  7.20000000E-01  7.90000000E-01  8.50000000E-01
  8.50000000E-01  7.90000000E-01  7.20000000E-01  8.50000000E-01  7.90000000E-01
  7.20000000E-01  7.20000000E-01  8.50000000E-01  7.20000000E-01  8.50000000E-01
  8.50000000E-01  8.50000000E-01  8.60000000E-01  8.50000000E-01  8.50000000E-01
  8.50000000E-01  7.20000000E-01  8.50000000E-01  8.50000000E-01  7.20000000E-01
  8.50000000E-01  8.50000000E-01  7.20000000E-01  8.50000000E-01  7.90000000E-01
  7.20000000E-01  8.50000000E-01  7.90000000E-01  7.20000000E-01  7.20000000E-01
  8.50000000E-01  7.90000000E-01  8.50000000E-01  7.20000000E-01  7.90000000E-01
  8.50000000E-01  8.50000000E-01  7.90000000E-01  7.20000000E-01  7.20000000E-01
  8.50000000E-01  7.20000000E-01  8.50000000E-01  8.50000000E-01  8.50000000E-01
  8.60000000E-01  8.50000000E-01  8.50000000E-01  8.50000000E-01  7.20000000E-01
  8.50000000E-01  8.50000000E-01  7.20000000E-01  8.50000000E-01  8.50000000E-01
  7.20000000E-01  8.50000000E-01  7.90000000E-01  7.20000000E-01  8.50000000E-01
  7.20000000E-01  8.50000000E-01  7.20000000E-01  7.90000000E-01  8.50000000E-01
  8.50000000E-01  7.90000000E-01  7.20000000E-01  8.50000000E-01  7.20000000E-01
  8.50000000E-01  7.20000000E-01  8.50000000E-01  8.50000000E-01  8.50000000E-01
  8.60000000E-01  8.50000000E-01  8.50000000E-01  8.50000000E-01  7.20000000E-01
  8.50000000E-01  8.50000000E-01  7.20000000E-01  8.50000000E-01  8.50000000E-01
  7.20000000E-01  8.50000000E-01  7.90000000E-01  7.20000000E-01  8.50000000E-01
  7.20000000E-01  7.20000000E-01  8.50000000E-01  8.50000000E-01  8.50000000E-01
  7.20000000E-01  8.50000000E-01  7.90000000E-01  8.50000000E-01  7.20000000E-01
  8.50000000E-01  7.20000000E-01  8.50000000E-01  7.20000000E-01  8.50000000E-01
  8.50000000E-01  8.50000000E-01  8.60000000E-01  8.50000000E-01  8.50000000E-01
  8.50000000E-01  7.20000000E-01  8.50000000E-01  8.50000000E-01  7.20000000E-01
  8.50000000E-01  8.50000000E-01  7.20000000E-01  8.50000000E-01  7.90000000E-01
  7.20000000E-01  8.50000000E-01  7.90000000E-01  7.20000000E-01  7.20000000E-01
  7.90000000E-01  8.50000000E-01  8.50000000E-01  7.90000000E-01  7.20000000E-01
  8.50000000E-01  7.90000000E-01  7.20000000E-01  7.20000000E-01  8.50000000E-01
  7.20000000E-01  8.50000000E-01  8.50000000E-01  8.50000000E-01  8.50000000E-01
%FLAG IPOL                                                                      
%FORMAT(1I8)                                                                    
       0
