DA5
   190
   3.1038509   1.3887714   0.6373297   2.9438513   1.8269247   1.4765889
   1.5560457   1.8261011   1.7270206   1.1976835   0.7992936   1.7984653
   1.0426555   2.3353698   0.9114663   1.2796123   2.5628351   3.0349185
   0.5577664   3.3640796   2.8755626   0.8301459   1.6518821   4.0132632
   1.9611651   0.9877051   4.5480165   1.8404202   0.8845375   5.6262616
   2.1060585  -0.3522000   3.9466460   1.4042869  -0.9091967   2.9081472
   0.7055297  -0.3499772   2.3038917   1.6500265  -2.1767424   2.7207705
   2.5716050  -2.4875052   3.7150482   3.2098193  -3.6836980   4.0820987
   3.0054796  -4.8504811   3.4563438   3.4838794  -5.6822178   3.7721216
   2.3624146  -4.9020858   2.6797834   4.0510918  -3.6405928   5.1251876
   4.2384042  -2.4923308   5.7597189   4.9262586  -2.5272438   6.5918310
   3.6967084  -1.3078504   5.5220476   2.8587358  -1.3792928   4.4636505
   2.5941896   3.0941553   3.5815889   3.2323712   3.4838305   2.7889496
   3.1837817   1.8574165   4.2455437   3.8368927   1.3346914   3.5462166
   3.7230344   2.1215734   5.1554828   2.3365448   4.0842852   4.5536087
   3.4765129   5.1484407   4.9537911   4.5341043   4.4402609   5.7091525
   2.8169765   6.3364334   5.5400856   4.0679157   5.5519231   3.5135939
   3.3235033   5.2903624   2.3448286   2.4202138   5.9003630   2.3467899
   3.0515743   4.2352948   2.3165303   4.1658553   5.6261462   1.1193353
   4.3390130   4.7264910   0.5286639   3.5428855   6.6283719   0.3486281
   3.7721438   7.8538986   1.0121846   3.7029645   8.6931806   0.3197440
   2.7752717   8.0086147   2.0897654   2.0245051   7.0364666   2.6997985
   2.2005949   5.9813712   2.5533694   1.0871167   7.4975972   3.4802577
   1.1978708   8.8775266   3.3516710   0.4584264   9.9431229   3.8900169
  -0.5784523   9.7744308   4.7219314  -1.0826438  10.5780654   5.0688274
  -0.8618704   8.8444223   4.9951387   0.8106810  11.1846849   3.5273384
   1.8232944  11.3515492   2.6888773   2.0504815  12.3767133   2.4354523
   2.5935522  10.4399356   2.1142866   2.2199350   9.1986012   2.5003198
   5.4790760   6.2432303   1.5742338   5.7685229   5.8854279   2.5624553
   5.1818284   7.7408004   1.5970291   5.1977796   8.1214520   2.6186002
   5.8996506   8.2744597   0.9740844   6.4826370   5.9494687   0.6278056
   7.7286203   6.9419640   0.4149868   7.3546264   8.2828994   0.9173155
   8.2141479   6.7805584  -0.9738868   8.8326196   6.3123650   1.4013988
   8.6558659   5.0325915   1.9704987   8.7454339   4.2585801   1.2084577
   7.6726050   4.9823796   2.4378934   9.7284676   4.8533268   3.0380873
   9.3270874   4.3694058   3.9284371  10.8267374   4.1512294   2.4987947
  11.4249018   5.0478103   1.5877840  12.4710994   4.7898843   1.4221114
  10.6848702   4.9710828   0.3143077  10.0316261   5.9627638  -0.3699984
   9.9553621   6.9772125  -0.0071877   9.4913150   5.5644415  -1.4882894
   9.8345444   4.2180801  -1.5666533   9.5402002   3.2618832  -2.5753822
   8.8940335   3.4172045  -3.6094497  10.1059039   2.0277006  -2.2851342
   9.9582473   1.2890540  -2.9579905  10.8591741   1.7442039  -1.1643936
  11.3519698   0.5018140  -1.0681901  11.1691613  -0.1732657  -1.7969876
  11.9217103   0.2457620  -0.2744833  11.1208019   2.6395216  -0.2055703
  10.5785083   3.8511910  -0.4750654  10.2735552   6.2444447   3.3250750
   9.4891780   6.9996786   3.2754147  11.3011217   6.4361616   2.2150119
  10.9412867   7.1500811   1.4741565  12.2537833   6.7587311   2.6352226
  10.9130651   6.2701406   4.5809489  12.4418151   6.7580997   4.7034108
  13.1608666   6.3471208   3.4767202  12.9515387   6.3510440   6.0318327
  12.2888348   8.3605271   4.6964142  11.0088023   8.9530925   4.7098460
  10.5081290   8.7224197   5.6503700  10.4218226   8.5606096   3.8792538
  11.1443282  10.4655876   4.5583712  10.5857868  10.8093891   3.6877859
  10.7026674  11.1050563   5.7342390  11.7294424  10.9300212   6.6871211
  11.6734592  11.6897989   7.4667104  11.6059584   9.5863048   7.2834741
  10.8470911   8.6228053   6.6837525  10.4305084   8.8124254   5.7061502
  10.6132271   7.4405594   7.2911672  10.0123385   6.6936956   6.7936305
  11.1775116   7.2599078   8.5956110  10.9539724   6.1207362   9.2646173
  11.3332230   5.9965609  10.1929525  10.3915487   5.3925071   8.8484090
  11.9122523   8.2187278   9.1744327  12.1488518   9.3980337   8.5424867
  12.7971935  10.2963607   9.0754813  12.6180677  10.8318232   4.4519326
  13.1970911  10.0352500   3.9840721  13.0380242  11.0418685   5.9038713
  13.7361208  10.2673937   6.2218659  13.4750448  12.0325241   6.0260766
  12.7619169  12.0385577   3.7357537  13.9931809  13.0296756   4.0393701
  14.2858279  12.9846265   5.4894763  13.7165138  14.3254378   3.3799429
  15.1967819  12.3151501   3.2478590  14.9353808  11.2283403   2.3897796
  14.3332373  11.5607939   1.5443958  14.3956684  10.4591529   2.9416728
  16.2548234  10.6515575   1.8899200  16.2873007   9.5762595   2.0656301
  16.4225923  10.9494380   0.5221277  16.8604806  12.2908738   0.4214824
  17.5390137  12.4006433  -0.4245107  15.7096390  13.1990046   0.2468259
  14.7602908  13.3532719   1.2178668  14.8886544  12.8419092   2.1606113
  13.6850322  14.1516901   1.0323969  12.6874524  14.3383099   2.1508554
  11.7114952  13.9687200   1.8360335  13.0224073  13.7987770   3.0366945
  12.5996182  15.4008736   2.3794642  13.4799882  14.8515097  -0.2151022
  12.5298277  15.5880654  -0.4692302  14.4721898  14.6246184  -1.1567239
  14.3727019  15.0880686  -2.0476861  15.5892316  13.8226392  -0.9823938
  16.4166672  13.6636417  -1.8775405  17.4055558  11.3650315   2.5810844
  17.1736585  11.6165776   3.6161308  17.5896177  12.6142955   1.7275683
  17.1137208  13.4689125   2.2085618  18.6482145  12.8098340   1.5545841
  18.5596607  10.5564842   2.5071861  20.0201848  11.2184259   2.3731654
  19.9767851  12.2269795   1.2908494  21.0182543  10.1268360   2.3268855
  20.1790392  11.9868468   3.7777306  19.2032896  11.8362562   4.7835529
  19.1992944  10.8013719   5.1254932  18.2218515  12.0932952   4.3856203
  19.5353518  12.7566749   5.9528645  18.8321223  13.5895376   5.9709148
  19.4943232  12.0369033   7.1636632  20.7229190  11.3505672   7.2815385
  20.9605324  11.1690056   8.3297402  20.6736232  10.0656859   6.5582307
  19.7943050   9.6456940   5.5928504  19.0640415  10.2976695   5.1376510
  19.9294377   8.3907807   5.2623437  20.9525791   7.9372839   6.0881430
  21.5495546   6.6778343   6.2612314  21.1881076   5.5889719   5.5694752
  21.6465524   4.7060894   5.7453005  20.4508447   5.6476764   4.8817670
  22.5182921   6.5738175   7.1825579  22.8656717   7.6447811   7.8816361
  23.6490702   7.4909292   8.6093499  22.3837994   8.8765185   7.8182843
  21.4121564   8.9526052   6.8806215  20.9664520  13.2639467   5.8186524
  21.2855768  13.2935107   4.7766948  21.7706163  12.2574706   6.6367141
  22.4270122  11.6735170   5.9912465  22.3467549  12.7775653   7.4017586
  21.0748662  14.5362017   6.4164313  20.7906414  14.4672330   7.3310979
