MOL
     8
  -0.7560000   0.0000000   0.0000000   0.7560000   0.0000000   0.0000000
  -1.1400000   0.6590000   0.7840000  -1.1400000   0.3500000  -0.9630000
  -1.1410000  -1.0090000   0.1780000   1.1400000  -0.3500000   0.9630000
   1.1410000   1.0090000  -0.1780000   1.1400000  -0.6590000  -0.7840000
