
29966  0.0000000e+00
 -18.4912455   2.4600758 -15.8587861 -18.0122685   2.4588829 -14.9695837
 -18.9813459   1.5851231 -15.9786165 -19.2117286   3.1673867 -15.8319676
 -17.5604117   2.7150983 -16.9765687 -16.9789720   1.8069708 -17.1357143
 -18.3065701   2.9832295 -18.2898390 -19.0979135   3.7185583 -18.1443512
 -17.6066315   3.3541909 -19.0385556 -18.8877428   1.6544379 -18.7923121
 -18.0883253   0.9137581 -18.7716794 -19.6737158   1.3179742 -18.1161928
 -19.5509243   1.6855316 -20.4762983 -19.4100893  -0.0826728 -20.8682799
 -20.0114846  -0.6686877 -20.1732922 -19.7563791  -0.2647548 -21.8856454
 -18.3706462  -0.4001980 -20.7856059 -16.5564108   3.7945685 -16.5804005
 -16.6569257   4.3112811 -15.4711533 -15.5367482   4.0669036 -17.4056387
 -15.4374135   3.5685754 -18.2785106 -14.4659042   5.0282717 -17.1037304
 -13.8457453   4.5975253 -16.3176262 -13.5589314   5.2600378 -18.3298171
 -14.1505504   5.7134354 -19.1251266 -12.7848959   5.9745383 -18.0497098
 -12.8876543   4.0032637 -18.8930500 -11.6377056   4.0095314 -18.9734626
 -13.6058307   3.0331504 -19.2307198 -14.9923325   6.3864386 -16.6049731
 -15.7964528   7.0336729 -17.2725701 -14.4860876   6.8534476 -15.4584742
 -13.8177884   6.2879217 -14.9548352 -14.7546399   8.2072932 -14.9709618
 -15.8313072   8.3728623 -15.0093317 -14.2862916   8.3438969 -13.5098445
 -13.2352686   8.0594206 -13.4596086 -14.3604493   9.3910807 -13.2165754
 -15.0612998   7.4924737 -12.4900544 -15.0267649   6.4429575 -12.7823281
 -14.3988049   7.6311451 -11.1184728 -14.4489443   8.6654055 -10.7780445
 -14.9055421   6.9868070 -10.4000413 -13.3546054   7.3256087 -11.1847746
 -16.5189743   7.9344100 -12.3653197 -17.0519090   7.7204835 -13.2917738
 -17.0076752   7.3734778 -11.5686870 -16.5762901   8.9999121 -12.1427894
 -14.0437841   9.2356521 -15.8756137 -12.8238332   9.1170847 -16.0483932
 -14.7388506  10.2599454 -16.4152563 -16.1801875  10.4700649 -16.3484645
 -16.4433908  10.8896196 -15.3774869 -16.7328477   9.5468503 -16.5226531
 -16.5138340  11.4686298 -17.4539900 -17.3478568  12.1116614 -17.1728945
 -16.7361557  10.9307051 -18.3755696 -15.2257800  12.2709167 -17.6209044
 -15.2086580  13.0908465 -16.9029057 -15.1272011  12.6579165 -18.6351109
 -14.1255331  11.2576938 -17.2934604 -13.8445175  10.7351279 -18.2078207
 -12.8869236  11.9341803 -16.6714346 -12.8379679  12.0800924 -15.4466069
 -11.8988669  12.3667264 -17.4825943 -11.9418228  12.3551595 -18.9425635
 -12.7087033  13.0471468 -19.2906260 -12.1314108  11.3543737 -19.3306160
 -10.5701149  12.8308713 -19.4187582 -10.6357586  13.4113193 -20.3390145
  -9.9095166  11.9734371 -19.5472753 -10.0800455  13.6724472 -18.2476318
 -10.5390608  14.6603370 -18.2860827  -8.9927220  13.7486863 -18.2442153
 -10.5901408  12.8722298 -17.0499146  -9.9334162  12.0121956 -16.9189358
 -10.5582380  13.6691749 -15.7379019  -9.9114102  13.2408190 -14.7819352
 -11.2968576  14.7831047 -15.6534421 -11.7380035  15.1185727 -16.4978051
 -11.3605189  15.6238425 -14.4479573 -10.3552020  15.9995449 -14.2574680
 -12.2898602  16.8384910 -14.6388555 -13.3196223  16.5217316 -14.4734669
 -12.0503807  17.5690329 -13.8661599 -12.2527766  17.5416350 -16.0019600
 -12.7284014  16.9004297 -16.7440772 -12.8441095  18.4536457 -15.9203410
 -10.8652258  17.9051447 -16.5119648 -10.4403412  17.3837912 -17.5268841
 -10.1475370  18.7808549 -15.8408785  -9.2477936  19.0555930 -16.2084341
 -10.4786503  19.1994154 -14.9834061 -11.8103230  14.8593330 -13.1888807
 -11.2869167  15.1123834 -12.1075118 -12.7863705  13.9482641 -13.3054638
 -13.0866849  13.6969876 -14.2364705 -13.2917047  13.1355655 -12.1921802
 -13.4702992  13.7869453 -11.3366628 -14.6214700  12.4430871 -12.5587749
 -14.5132625  11.8891037 -13.4912419 -14.8158586  11.7113268 -11.7746580
 -15.8556592  13.3610845 -12.6451588 -15.8596027  14.0436518 -11.7953444
 -15.9357524  14.1576648 -13.9497817 -15.9047377  13.4741616 -14.7982860
 -16.8689919  14.7199154 -13.9819944 -15.1103413  14.8664749 -14.0159774
 -17.1190751  12.5089085 -12.5700104 -17.1401334  11.9538212 -11.6321754
 -18.0055344  13.1419885 -12.6087260 -17.1428919  11.8066907 -13.4033310
 -12.2628057  12.0900440 -11.7416227 -12.0371723  11.9424975 -10.5414140
 -11.6127670  11.4012742 -12.6882303 -11.8481815  11.5827060 -13.6535108
 -10.5019403  10.4832208 -12.3884153 -10.8626246   9.7049129 -11.7159235
  -9.9741822   9.8002297 -13.6551607  -9.7796154  10.5354762 -14.4359660
  -9.0401006   9.3010885 -13.3973849 -10.8699882   8.8115132 -14.1227174
 -11.4553618   9.1690850 -14.7943521  -9.3566138  11.2047684 -11.6678262
  -8.9495575  10.7973349 -10.5793166  -8.8725275  12.3092413 -12.2461712
  -9.2578036  12.5877774 -13.1372845  -7.8820950  13.2021737 -11.6388440
  -6.9416094  12.6637030 -11.5220737  -7.6480114  14.3820500 -12.5955772
  -7.2111076  13.9931047 -13.5153258  -8.6100143  14.8209703 -12.8601539
  -6.7647219  15.4887497 -12.0478988  -5.3774983  15.4818904 -12.2831333
  -4.9346942  14.6971798 -12.8785753  -4.5616996  16.5036798 -11.7671406
  -3.4994048  16.4982498 -11.9618225  -5.1337123  17.5378144 -11.0076892
  -4.5076257  18.3239174 -10.6121385  -6.5211481  17.5529981 -10.7755291
  -6.9679147  18.3468199 -10.1953161  -7.3354214  16.5377831 -11.3029945
  -8.4014779  16.5639007 -11.1319911  -8.3116955  13.6824191 -10.2436149
  -7.5468510  13.5726285  -9.2884028  -9.5428610  14.1840446 -10.1109028
 -10.1146078  14.2651284 -10.9395373 -10.0943601  14.7099841  -8.8630038
  -9.4844502  15.5500221  -8.5306668 -11.1065185  15.0707054  -9.0460759
 -10.1492405  13.6802149  -7.7351755  -9.7661084  13.9957964  -6.6099530
 -10.5895793  12.4490380  -8.0203301 -10.9061170  12.2535324  -8.9593112
 -10.5984628  11.3576901  -7.0401812 -11.1175871  11.7211461  -6.1533278
 -11.4064634  10.1741040  -7.6063144 -12.2978175  10.5881119  -8.0776811
 -10.8327937   9.6689665  -8.3833855 -11.8737495   9.1558039  -6.5442508
 -12.2717714   9.6970272  -5.6859058 -13.0183947   8.3145076  -7.1151781
 -12.6902533   7.7917475  -8.0135894 -13.3585441   7.5906760  -6.3745934
 -13.8553321   8.9634639  -7.3730397 -10.7651627   8.2182276  -6.0556263
 -10.1551664   8.7228423  -5.3063816 -11.1896288   7.3316753  -5.5845082
 -10.1236475   7.9076010  -6.8802887  -9.1736430  10.9870934  -6.5969062
  -8.9132154  10.9043157  -5.3956372  -8.2319248  10.8556545  -7.5402135
  -8.4988487  10.9374070  -8.5108691  -6.8116558  10.6770444  -7.2189236
  -6.7171204   9.7652310  -6.6292137  -5.9794641  10.5166578  -8.5068667
  -6.2988770  11.2570691  -9.2402607  -4.9392259  10.7350242  -8.2653713
  -5.9935921   9.1324335  -9.1380548  -5.6135851   8.0207175  -8.3647424
  -5.3628463   8.1532836  -7.3226517  -5.5460382   6.7379874  -8.9297509
  -5.2539867   5.8923292  -8.3247977  -5.8590698   6.5577078 -10.2887750
  -5.7855862   5.3088307 -10.8136642  -5.8176231   4.6715572 -10.0964057
  -6.2359452   7.6647431 -11.0772419  -6.4719737   7.5156832 -12.1205401
  -6.3009298   8.9510959 -10.5018985  -6.5839583   9.7983092 -11.1089611
  -6.2668872  11.8111348  -6.3298333  -5.6731927  11.5388536  -5.2860439
  -6.5046370  13.0784655  -6.6823083  -6.9872802  13.2458365  -7.5535995
  -6.0709107  14.2425430  -5.8865756  -4.9977905  14.1502380  -5.7192647
  -6.2938726  15.5554783  -6.6662133  -7.3048854  15.5670333  -7.0734233
  -6.1076498  16.8179643  -5.8118808  -5.1241875  16.8113661  -5.3419244
  -6.2007403  17.7040958  -6.4397383  -6.8771583  16.8698442  -5.0416440
  -5.2861583  15.6472409  -7.8201753  -5.4081553  14.8051512  -8.5014254
  -5.4550940  16.5653443  -8.3828872  -4.2661604  15.6477177  -7.4358523
  -6.7124695  14.2696261  -4.4928402  -6.0248327  14.5723295  -3.5180315
  -7.9915082  13.9076567  -4.3597737  -8.5249573  13.7020624  -5.1924002
  -8.6539948  13.7582421  -3.0635411  -8.5566127  14.7037899  -2.5301036
 -10.1471198  13.4866762  -3.2896864 -10.2839041  12.5553811  -3.8393024
 -10.6543696  13.4090245  -2.3280378 -10.5883110  14.3039227  -3.8602644
  -7.9956096  12.6776743  -2.1851629  -7.6425505  12.9392493  -1.0327759
  -7.7885187  11.4762187  -2.7318648  -8.1037205  11.3180745  -3.6783016
  -7.0969260  10.3842032  -2.0488548  -7.6493794  10.1404095  -1.1414080
  -7.1167547   9.1563070  -2.9608861  -6.5948850   9.3781608  -3.8917634
  -6.6265434   8.3236533  -2.4564259  -8.1457347   8.8789266  -3.1897125
  -5.6685185  10.7723033  -1.6194776  -5.2836311  10.5347753  -0.4747935
  -4.9081191  11.4239275  -2.5055897  -5.2846903  11.5524185  -3.4339157
  -3.5989335  12.0225894  -2.2213924  -2.9055250  11.2323284  -1.9336915
  -3.0817387  12.6726604  -3.5138124  -2.8363815  11.8866909  -4.2280596
  -3.8869572  13.2552803  -3.9613342  -1.8851979  13.5895538  -3.3560821
  -0.5824848  13.0604339  -3.3195356  -0.4255176  11.9952118  -3.4035736
   0.5232470  13.9208817  -3.2038373   1.5251921  13.5177660  -3.2061711
   0.3292173  15.3089809  -3.1144783   1.1833227  15.9652603  -3.0357289
  -0.9712684  15.8407962  -3.1435785  -1.1208841  16.9087243  -3.0840203
  -2.0773326  14.9823582  -3.2674059  -3.0750260  15.3944981  -3.3013111
  -3.6327165  13.0346644  -1.0632646  -2.8081295  12.9481506  -0.1518167
  -4.5856717  13.9730930  -1.0802408  -5.2150971  13.9965570  -1.8697833
  -4.7164467  15.0384212  -0.0857261  -3.7836045  15.6020248  -0.0697285
  -5.8376461  15.9855640  -0.5281332  -6.7816186  15.4441297  -0.5903040
  -5.9390485  16.7973197   0.1921935  -5.6032526  16.4053071  -1.5063848
  -4.9468848  14.5159304   1.3430659  -4.3584433  15.0420380   2.2888841
  -5.7795906  13.4798694   1.5139206  -6.2688488  13.1241596   0.7050931
  -5.8830947  12.7594793   2.7893859  -5.9095764  13.4888828   3.5989353
  -7.1804422  11.9286001   2.8546634  -7.2785109  11.3157809   1.9585963
  -7.0680112  11.2535644   3.7030661  -8.4708977  12.7428293   3.0846888
  -8.2640690  13.5627925   3.7724254  -9.0688038  13.3077037   1.7969483
  -9.2579156  12.5038040   1.0855541 -10.0068319  13.8196659   2.0116504
  -8.3821315  14.0244424   1.3465421  -9.5388252  11.8510723   3.7240055
  -9.1775775  11.4617538   4.6758616 -10.4425740  12.4322450   3.9072487
  -9.7771412  11.0209179   3.0590624  -4.6535304  11.8703604   3.0561608
  -4.1762671  11.8063021   4.1870660  -4.1469011  11.1765754   2.0350540
  -4.5946842  11.2636876   1.1339404  -3.0644330  10.1973033   2.1405989
  -3.3694443   9.3960929   2.8137481  -2.8955418   9.7664917   1.1536962
  -1.7365517  10.7609427   2.6474842  -1.1880462  10.2489102   3.6224881
  -1.2338743  11.8294442   2.0237163  -1.7610495  12.2136235   1.2526150
   0.0612410  12.4452579   2.3436834   0.8406358  11.7271900   2.0886891
   0.2775565  13.6735880   1.4448638   0.4923585  13.3316112   0.4324348
  -0.6495911  14.2446768   1.3963263   1.3969570  14.5980310   1.8938123
   2.7126601  14.1135108   2.0280042   2.9354015  13.0783081   1.8155353
   3.7425771  14.9731421   2.4494174   4.7506928  14.5967972   2.5414363
   3.4611845  16.3188910   2.7435866   4.2556316  16.9816530   3.0534288
   2.1476185  16.8040955   2.6209706   1.9318165  17.8409481   2.8325522
   1.1177431  15.9439027   2.1999720   0.1122650  16.3239384   2.0951495
   0.2693900  12.7599990   3.8414019   1.2266158  12.2496676   4.4287384
  -0.6033309  13.5268795   4.5282924  -1.7856608  14.2207146   4.0347746
  -2.4054930  13.5887778   3.3987224  -1.4842613  15.1141763   3.4879789
  -2.5719461  14.6256959   5.2789801  -3.2176450  13.8059807   5.5940044
  -3.1567222  15.5296576   5.1087165  -1.4724329  14.8402154   6.3181770
  -1.8462762  14.7123826   7.3340517  -1.0493796  15.8367062   6.1911601
  -0.4099129  13.7990046   5.9513676   0.5775847  14.2342579   6.1046737
  -0.5048256  12.5301135   6.8133664   0.1266922  12.4638784   7.8699625
  -1.2745625  11.5237808   6.3861293  -1.7175148  11.6096127   5.4825091
  -1.4467651  10.2602351   7.1021020  -1.5073100  10.4870129   8.1665283
  -2.7867553   9.6274090   6.6981196  -2.8027594   9.4878900   5.6172037
  -2.8700212   8.6441267   7.1610689  -4.0050220  10.4735041   7.1208191
  -3.9296028  11.4814591   6.7128515  -5.2716923   9.8267543   6.5791816
  -5.3654873   8.8121736   6.9663858  -6.1449653  10.4221976   6.8455273
  -5.2062964   9.7826684   5.4920387  -4.1336462  10.5907118   8.6435896
  -3.3494264  11.2428510   9.0280533  -5.0964701  11.0341203   8.8974738
  -4.0482482   9.6042436   9.0993172  -0.2536867   9.2993045   6.9668621
   0.1623443   8.7320775   7.9802001   0.3520080   9.1493648   5.7836074
  -0.0426358   9.6043915   4.9728593   1.5929343   8.3743876   5.6375802
   1.4442030   7.4326098   6.1658168   1.8459950   7.9813576   4.1717672
   2.7230132   7.3359668   4.1226840   0.9867348   7.3987043   3.8396740
   2.0631357   9.1192567   3.1911477   2.8873438   9.9944860   3.3835492
   1.3527799   9.1129470   2.0912135   1.4921603   9.8422176   1.4064987
   0.7122456   8.3568108   1.8960959   2.7804863   9.0528250   6.3496798
   3.5213062   8.3908111   7.0812714   2.8834480  10.3859866   6.2784696
   2.3343824  10.8571458   5.5737406   3.7610236  11.1971116   7.1410316
   4.7890511  10.9050143   6.9266981   3.6268893  12.6965868   6.8012762
   2.5703335  12.9606211   6.7557204   4.2950854  13.6175370   7.8346103
   5.3406066  13.3356667   7.9592496   4.2411989  14.6494555   7.4877089
   3.7735987  13.5496688   8.7893581   4.2743510  12.9916298   5.4429364
   3.8260847  12.3698807   4.6679616   4.1089484  14.0345657   5.1727003
   5.3447062  12.7881920   5.4753792   3.5383695  10.9071410   8.6329693
   4.5087841  10.7745910   9.3811190   2.2861634  10.8024645   9.0979934
   1.5268612  10.9685946   8.4530395   1.9564299  10.3630888  10.4641008
   2.4779047  11.0175121  11.1625957   0.4370250  10.4797518  10.7213795
  -0.0931140  10.6126988   9.7783124   0.0820117   9.5467103  11.1589861
   0.0471516  11.6232753  11.6703558   0.6046872  11.5080583  12.5998604
   0.3442800  13.0080938  11.0927069  -0.3282695  13.2062459  10.2581334
   0.1955379  13.7695491  11.8583179   1.3687104  13.0455685  10.7222533
  -1.4475507  11.5442955  11.9854665  -1.6707048  10.5981767  12.4785805
  -1.7437455  12.3626912  12.6416636  -2.0235917  11.6069150  11.0622346
   2.4599065   8.9421916  10.7741940   3.0500039   8.7501186  11.8383157
   2.2556193   7.9675734   9.8807675   1.7457007   8.1905824   9.0379423
   2.7495301   6.5962672  10.0496650   2.3242071   6.1917788  10.9681368
   2.2646554   5.7206285   8.8860226   2.6545373   6.0876656   7.9366142
   2.6063213   4.6957731   9.0310615   1.1753695   5.7230902   8.8466698
   4.2798626   6.5482640  10.2040684   4.7792709   6.0387474  11.2100744
   5.0204533   7.1415770   9.2575461   4.5331341   7.5369531   8.4661520
   6.4853251   7.2927260   9.3149102   6.9303149   6.2979573   9.2921203
   7.0139802   8.0810994   8.0896294   6.4615595   9.0183449   8.0225277
   8.5133898   8.4197468   8.2400393   9.0995336   7.5033104   8.3084595
   8.8620567   8.9964944   7.3833638   8.6964869   9.0313113   9.1235346
   6.7776734   7.2814894   6.7888534   7.3952341   6.3833147   6.7901862
   5.7336116   6.9719416   6.7417961   7.0585954   8.0837828   5.5135673
   8.1187677   8.3221316   5.4279929   6.7803925   7.4892616   4.6433687
   6.4703083   9.0013981   5.5147779   6.9164485   7.9456520  10.6335866
   7.7461141   7.3960149  11.3630056   6.3533354   9.1190410  10.9545958
   5.6781787   9.5018035  10.3082514   6.6981500   9.9098551  12.1481240
   7.7744722  10.0816739  12.1375895   5.9920019  11.2753737  12.0448017
   6.3216788  11.7427337  11.1169064   4.9147516  11.1197782  11.9862914
   6.2832034  12.2423947  13.2037830   5.6347960  11.9982648  14.0452516
   7.3178571  12.1157265  13.5224485   6.0891050  13.7211394  12.8147519
   6.2685996  14.3264127  13.7033045   6.8519264  13.9825439  12.0813537
   4.7587496  14.0162241  12.2302592   4.4760999  13.4286797  11.4588964
   3.9354542  15.0081193  12.5427032   4.1828370  15.8414114  13.5148895
   5.0542247  15.7687557  14.0203571   3.5369962  16.5802944  13.7537289
   2.8278932  15.1708734  11.8794429   2.6076344  14.5929122  11.0809803
   2.1614058  15.8810508  12.1469295   6.4198160   9.1607839  13.4556484
   7.2245252   9.2539221  14.3768394   5.3300035   8.3953911  13.5333693
   4.7003338   8.3822554  12.7437818   5.0231808   7.5357801  14.6799862
   5.1033688   8.1179005  15.5980301   3.9974678   7.1787822  14.5874321
   5.9435105   6.3156050  14.8044610   6.4515018   6.0347229  15.8893013
   6.1748391   5.5903548  13.7066317   5.7278383   5.8563268  12.8408635
   6.9985384   4.3795988  13.7043691   6.6812992   3.7513399  14.5366848
   6.7211729   3.6076507  12.4098396   7.0287043   4.1992378  11.5475464
   7.2695011   2.6656869  12.4216926   5.6558412   3.3934301  12.3245263
   8.5010546   4.6607617  13.9128685   9.1852087   3.8658968  14.5562088
   9.0017134   5.8033860  13.4248257   8.3820993   6.3800144  12.8737521
  10.4023349   6.2469882  13.5764861  11.0457551   5.5531216  13.0355060
  10.6020200   7.6433003  12.9610872   9.8585296   8.3298421  13.3660352
  11.9901752   8.2334781  13.2032907  12.7558923   7.4911869  12.9779518
  12.1315515   9.0968835  12.5531805  12.0886648   8.5555273  14.2399597
  10.4390550   7.5748724  11.5655279   9.5071661   7.4261546  11.3892400
  10.8645487   6.2378514  15.0354064  11.8361807   5.5608302  15.3729844
  10.1489174   6.9436771  15.9176886   9.3608052   7.4844062  15.5912066
  10.4866242   7.0217139  17.3395681  11.4917004   7.4328488  17.4338508
   9.5194501   7.9992962  18.0150390   8.4929222   7.6463306  17.9162633
   9.7731328   8.0886912  19.0713310   9.6137518   8.9823866  17.5538003
  10.4821873   5.6396484  18.0244446  11.3340020   5.3566462  18.8660967
   9.5616841   4.7490954  17.6297188   8.9216393   5.0250167  16.8987536
   9.4278997   3.3981073  18.1942916   9.2544246   3.4963802  19.2659020
   8.2011688   2.7027288  17.5760233   7.4044603   3.4369323  17.4564338
   8.4564108   2.3292987  16.5843070   7.6404595   1.5620387  18.3950937
   6.4208215   1.5852316  19.0763640   6.2941396   0.3846486  19.6573675
   5.4480463   0.0825178  20.2567363   7.3593611  -0.3842474  19.3820274
   7.4972343  -1.3369349  19.6877766   8.2186693   0.3413544  18.5886538
   9.1768605   0.0224704  18.2057929  10.7015109   2.5505581  18.0330563
  10.9654486   1.6896062  18.8696206  11.5047300   2.7794731  16.9875920
  11.2444448   3.4968737  16.3260102  12.8098905   2.1335933  16.8348205
  12.7023637   1.0704509  17.0499122  13.2800055   2.2737853  15.3830099
  13.3419824   3.3267471  15.1081860  14.2605054   1.8132225  15.2621698
  12.5745356   1.7835677  14.7121179  13.8297153   2.6802829  17.8453696
  14.1660500   2.0083664  18.8179624  14.2570555   3.9307675  17.6545131
  13.8669300   4.4195428  16.8614173  15.3436589   4.5951647  18.4009349
  16.2385404   3.9766890  18.3318079  15.6836224   5.9442312  17.7434170
  16.1891389   6.5752435  18.4744275  16.3825464   5.7532722  16.9290829
  14.4827223   6.7152870  17.1728253  14.1694856   6.2480217  16.2392056
  13.6558962   6.6814369  17.8822708  14.8120415   8.1797343  16.8931007
  13.9744496   8.6246008  16.3558531  14.9090099   8.6827064  17.8552425
  16.0494196   8.3444864  16.1060846  16.2357891   7.6775920  15.3708160
  17.0343029   9.1781300  16.3686490  16.9453776  10.1567686  17.2139323
  16.0276747  10.4672039  17.4995255  17.7694440  10.7224548  17.3589277
  18.1704819   9.0561688  15.7623804  18.3267057   8.3393639  15.0681984
  18.8935757   9.7006667  16.0485041  15.1153660   4.7558635  19.9100935
  16.0696614   5.0191712  20.6372952  13.8775063   4.6273658  20.3949618
  13.1184673   4.5346895  19.7351348  13.5583639   4.6495965  21.8297911
  14.4265616   4.9880296  22.3952961  12.4205899   5.6655157  22.0908570
  11.6096222   5.4991210  21.3818121  12.0156610   5.4615915  23.0820918
  12.8213882   7.1570879  22.0877075  13.6230135   7.3071218  22.8108859
  13.2777405   7.7088791  20.7348728  12.5378942   7.4804974  19.9676907
  13.4027922   8.7900352  20.7945633  14.2432070   7.2816598  20.4638410
  11.6160393   7.9901260  22.5315285  11.2853813   7.6654375  23.5181093
  11.8971968   9.0415490  22.5911975  10.8009994   7.8756350  21.8168950
  13.2138121   3.2576221  22.4111772  12.9212022   3.1791776  23.6046219
  13.2284641   2.1589532  21.6285443  13.5609615   2.2504161  20.6792355
  12.7476776   0.8378451  22.1049953  13.2091200   0.6517208  23.0748057
  11.2180841   0.9028758  22.2957444  10.9223640   1.8374582  22.7724051
  10.7454550   0.8805379  21.3137960  10.6824243  -0.2471044  23.1584215
  11.2501645  -1.1600179  22.9785371  10.7738638   0.0139622  24.2127371
   9.2162722  -0.4912483  22.7967238   8.6493897   0.4120766  23.0220008
   9.1387212  -0.6734155  21.7248559   8.6276478  -1.6295838  23.5221386
   7.9135549  -1.4016522  24.1990542   8.8490957  -2.9138023  23.2968497
   9.8271668  -3.3783057  22.5766826  10.4459596  -2.7435988  22.0925903
  10.0128269  -4.3702421  22.5354910   8.0289888  -3.7910587  23.7822104
   7.2071874  -3.4834915  24.2823482   8.0033231  -4.6555698  23.2606101
  13.0885935  -0.3788115  21.2284970  13.4602714  -1.4228214  21.7658067
  12.7925146  -0.2967997  19.9279618  12.4912071   0.6102014  19.6013641
  12.7008641  -1.4117651  18.9674091  12.5312734  -0.9576874  17.9911149
  14.0385008  -2.1904872  18.9082837  14.7914946  -1.6660957  19.4965994
  13.8887787  -3.1522587  19.3988705  14.6815801  -2.4212377  17.5245249
  15.6129742  -2.9640064  17.6857913  13.8154352  -3.2685539  16.5877545
  12.9155278  -2.7311581  16.2886357  14.3924022  -3.4869862  15.6891453
  13.5755265  -4.2180121  17.0663691  15.0288165  -1.1072052  16.8247819
  15.5851054  -0.4653588  17.5079191  15.6675220  -1.3144524  15.9661770
  14.1330051  -0.5896503  16.4816248  11.4647365  -2.3024687  19.2608798
  10.7699037  -2.1113198  20.2607322  11.1751974  -3.2785407  18.3862484
  11.8333125  -3.3555198  17.6239753   9.9425453  -4.1086698  18.2348454
   9.9867183  -4.9398994  18.9385533   8.6214125  -3.3320481  18.4717143
   8.6665165  -2.3898458  17.9255283   7.3410976  -4.0670663  18.0618119
   7.2974575  -5.0429821  18.5453236   6.4726192  -3.4836003  18.3674455
   7.2920692  -4.1849667  16.9793177   8.4205860  -3.0581218  19.8338199
   9.2618757  -2.7159315  20.1448750   9.8836136  -4.6291062  16.7868507
   9.8819655  -3.7987873  15.8810639   9.7982359  -5.9488422  16.5189266
   9.6283871  -7.0279366  17.4812400   8.9335364  -6.7583203  18.2765949
  10.5979955  -7.2980344  17.8995788   9.0630037  -8.2012826  16.6855264
   7.9792035  -8.1103498  16.6133559   9.3360466  -9.1600806  17.1262705
   9.6868545  -8.0099833  15.3046715   9.0645963  -8.4535748  14.5274198
  10.6819201  -8.4546298  15.2893579   9.8294246  -6.4906937  15.1509392
  10.8022499  -6.2808490  14.7063303   8.7638980  -5.8869183  14.2191839
   9.0829533  -5.3892869  13.1413329   7.5057548  -5.8033311  14.6655142
   7.2756791  -6.2117815  15.5601263   6.4076936  -5.2616483  13.8504851
   6.6059697  -5.5347764  12.8140545   5.0842088  -5.9420592  14.2261994
   4.3176204  -5.6568229  13.5057259   5.2196050  -7.0220566  14.1681063
   4.6461996  -5.6033224  15.5300498   3.9990321  -6.2586409  15.8008730
   6.3138419  -3.7239930  13.8550031   5.3179693  -3.1670177  13.3791244
   7.3503923  -3.0110303  14.3280840   8.1381714  -3.5137889  14.7111511
   7.5803435  -1.6182567  13.9189291   6.6166294  -1.1090749  13.9283693
   8.4790283  -0.8580496  14.9209523   8.1397694   0.1769398  14.9633861
   8.3055449  -1.2816051  15.9101963   9.9977291  -0.8409277  14.6222913
  10.3115475  -1.8008973  14.2123210  10.4338598   0.2883901  13.6798716
  10.2220273   1.2607020  14.1246617  11.5027070   0.2017840  13.4845138
   9.9290586   0.2369629  12.7151811  10.7638168  -0.6117877  15.9166503
  10.5208313  -1.3998269  16.6294253  11.8331814  -0.6342576  15.7067597
  10.4885674   0.3560757  16.3356674   8.0992585  -1.5313557  12.4789786
   7.7293664  -0.6006184  11.7726052   8.9371967  -2.4773310  12.0325470
   9.1850293  -3.2482275  12.6362038   9.6367913  -2.3637491  10.7389510
  10.1480508  -1.4014915  10.7111251  10.7050157  -3.4599119  10.5520678
  10.2127004  -4.4265568  10.4456580  11.5350115  -3.1807759   9.2946750
  12.0691252  -2.2360173   9.3959379  12.2533512  -3.9867741   9.1448224
  10.8982563  -3.1282213   8.4115666  11.6679108  -3.5347697  11.7459965
  11.1431158  -3.8368708  12.6523209  12.4433064  -4.2740938  11.5453398
  12.1400893  -2.5660321  11.9093847   8.6259025  -2.3638190   9.5946342
   8.6434925  -1.4729513   8.7471265   7.6583892  -3.2857177   9.6645701
   7.7477115  -4.0100932  10.3627110   6.5175170  -3.3535811   8.7501317
   6.8928051  -3.5706526   7.7500623   5.5322510  -4.4720364   9.1555989
   4.8916662  -4.0579379   9.9342328   4.8988938  -4.7021741   8.2988638
   6.0639560  -5.7741541   9.7304565   7.3582584  -6.2369215   9.4347107
   7.9555917  -5.7285970   8.6922836   7.8988558  -7.3308611  10.1323581
   8.9100987  -7.6520777   9.9308431   7.1189660  -7.9971248  11.0994029
   7.6665258  -8.9571047  11.8821549   8.6227131  -8.8747495  11.9052374
   5.7754534  -7.6217008  11.2992287   5.1709348  -8.1877106  11.9924736
   5.2522713  -6.5041989  10.6221473   4.2319253  -6.1973542  10.7986152
   5.7639170  -2.0139532   8.7049949   5.4100424  -1.5477994   7.6320040
   5.5247480  -1.3900112   9.8672491   5.9417713  -1.7784014  10.7011211
   4.8148468  -0.1150114   9.9957526   3.8666999  -0.1865352   9.4628334
   4.5130414   0.1509166  11.4769995   5.4261327   0.1435809  12.0722365
   4.0635198   1.1390331  11.5752637   3.8242868  -0.6046993  11.8548346
   5.5806851   1.0595425   9.3761706   4.9985352   1.8489760   8.6375499
   6.8781126   1.1760027   9.6730351   7.2950625   0.4903394  10.2863228
   7.7350491   2.2113185   9.1015774   7.2697097   3.1734395   9.3157792
   9.1139978   2.1657087   9.7918600   8.9492524   2.2134018  10.8682823
   9.5836627   1.2031185   9.5895338  10.1149607   3.2874873   9.4420117
  10.8810639   3.2574990  10.2167940  10.8346999   3.0871335   8.1075680
  10.1657736   3.2677299   7.2661275  11.6650689   3.7895185   8.0351514
  11.2328100   2.0744020   8.0444562   9.4834924   4.6829399   9.4720250
   9.0171808   4.8590612  10.4413724  10.2494872   5.4414576   9.3107718
   8.7432867   4.7815245   8.6780000   7.8052962   2.0874353   7.5769019
   7.5880253   3.0749625   6.8763381   8.0608505   0.8791538   7.0610511
   8.2461637   0.1026686   7.6797867   8.1721365   0.6783330   5.6186086
   8.6401236   1.5872131   5.2404237   9.1892087  -0.4282080   5.2868187
   9.6142381  -0.1818196   4.3138120  10.0041425  -0.4006854   6.0101616
   8.7143183  -1.8647717   5.1728690   9.4482863  -2.6957735   4.6705273
   7.5208044  -2.2410968   5.5650181   7.2424763  -3.1585833   5.2474451
   6.8469471  -1.6010234   5.9603888   6.8243265   0.6264403   4.8727673
   6.7836487   0.9637734   3.6975935   5.7132691   0.3065638   5.5539459
   5.7880825   0.0055544   6.5151417   4.3696731   0.6195807   5.0555396
   4.2541409   0.1734887   4.0677372   3.2866311   0.0396998   5.9836864
   3.3381915  -1.0488164   5.9597373   3.4942713   0.3712139   7.0010769
   1.8586905   0.4912003   5.6108046   1.8198061   1.5785274   5.5451947
   1.4024810  -0.1257864   4.2894086   1.4423555  -1.2143312   4.3291494
   0.3864599   0.2001502   4.0667751   2.0333952   0.2364687   3.4777328
   0.8866802   0.0852179   6.7124712   1.2482722   0.4430480   7.6764774
  -0.0852174   0.5381289   6.5165502   0.7848126  -1.0000074   6.7146027
   4.2147100   2.1342048   4.9033511   3.8007262   2.6094794   3.8574192
   4.6210071   2.8998062   5.9199703   4.9231809   2.4535137   6.7741460
   4.6675083   4.3554595   5.8447540   3.6493233   4.7410613   5.7926887
   5.1488280   4.7445905   6.7419761   5.4336721   4.8563725   4.6171510
   4.9561873   5.7686353   3.9480585   6.5957266   4.2701551   4.2908227
   6.9610929   3.5387176   4.8837882   7.3263067   4.6480006   3.0775449
   7.2114044   5.7273060   2.9775688   8.8412392   4.4390413   3.2430345
   9.3533826   5.0723749   2.5186735   9.1427147   4.7532806   4.2422676
   9.3733114   2.7283874   2.9602677   9.0515745   2.6546103   1.6656862
   6.7624253   4.0672094   1.7629279   6.9680363   4.6984378   0.7305638
   6.0102963   2.9562587   1.7598566   5.9027308   2.4249186   2.6120368
   5.2788836   2.4917586   0.5655269   5.9333295   2.6181933  -0.2969204
   4.9295464   0.9959981   0.6275028   4.5048845   0.6937011  -0.3297740
   5.8466333   0.4283747   0.7851586   4.0090856   0.6617942   1.6470654
   3.1963426   1.1593050   1.5307127   4.0376264   3.3441117   0.2968551
   3.8317263   3.7762678  -0.8321150   3.2500851   3.6423203   1.3332652
   3.4752512   3.2400253   2.2319102   2.1615979   4.6214235   1.2998624
   1.4150620   4.2857203   0.5800791   1.4775315   4.7297564   2.6804990
   2.2252449   5.0274158   3.4156346   0.7362083   5.5266446   2.6212719
   0.7441524   3.4821811   3.2049355   0.3837381   2.5870964   2.4034497
   0.4714189   3.4622094   4.4282287   2.6769686   5.9964371   0.8259477
   2.0712058   6.6075653  -0.0503086   3.8128570   6.4804560   1.3540486
   4.2348233   5.9750980   2.1199866   4.4807363   7.7000940   0.8719292
   3.7624836   8.5171103   0.9404600   5.6726903   8.0520105   1.7808072
   5.3113627   8.1937164   2.7993661   6.3543683   7.2016156   1.7652875
   6.4758438   9.2989492   1.3533694   6.7863357   9.2015678   0.3130756
   5.6767070  10.5907762   1.5159225   5.3642797  10.7143354   2.5528517
   6.2821525  11.4432859   1.2080865   4.7900558  10.5505335   0.8832085
   7.7444357   9.4294655   2.1965939   8.3311433   8.5138750   2.1219762
   8.3437580  10.2588403   1.8210262   7.4816293   9.6184075   3.2374263
   4.9080414   7.6117647  -0.6020669   4.6545222   8.5494882  -1.3511033
   5.5500227   6.5204138  -1.0318827   5.7640034   5.7878971  -0.3702680
   5.9746861   6.3352007  -2.4260883   6.5997559   7.1866041  -2.6953474
   6.8281162   5.0560951  -2.5264910   7.6526147   5.1289111  -1.8172662
   6.2088281   4.2069337  -2.2375135   7.4135941   4.7773892  -3.9230406
   6.6009587   4.7101879  -4.6463680   8.3854771   5.8673543  -4.3806806
   9.1709286   6.0093075  -3.6383769   8.8356012   5.5817950  -5.3314406
   7.8464639   6.8025887  -4.5320097   8.1589639   3.4409705  -3.9120814
   7.4835163   2.6443613  -3.6001769   8.5145652   3.2127491  -4.9168515
   9.0067029   3.4873632  -3.2284987   4.7766253   6.3434964  -3.3917403
   4.8005739   7.0543432  -4.3943596   3.6909181   5.6594157  -3.0207959
   3.7481645   5.0944972  -2.1855155   2.4053659   5.7181185  -3.7168682
   2.5969476   5.4986644  -4.7672191   1.5072671   4.6017599  -3.1465268
   2.0583980   3.6636692  -3.2124084   1.3340482   4.8071676  -2.0901637
   0.1433497   4.3957725  -3.8321614  -0.4740301   5.2825975  -3.6890450
   0.2582216   4.1096154  -5.3285235   0.9551448   3.2906401  -5.5065060
  -0.7180905   3.8542253  -5.7404572   0.6187121   5.0027406  -5.8388877
  -0.5680929   3.1946811  -3.1997478  -0.6441375   3.3325514  -2.1211801
  -1.5709732   3.0999318  -3.6161050  -0.0032146   2.2842035  -3.3998558
   1.7801999   7.1291858  -3.6624232   1.1623233   7.5607276  -4.6278709
   1.9888707   7.9026580  -2.5872764   2.4250497   7.4778384  -1.7814355
   1.6802250   9.3490022  -2.5409034   0.6349768   9.4592249  -2.8297037
   1.8218450   9.9306172  -1.1134435   2.1915027   9.1471857  -0.4518652
   2.6983172  11.1719394  -0.9202687   2.3129508  12.0124376  -1.4974640
   2.7110815  11.4432752   0.1353417   3.7215906  10.9635878  -1.2326794
   0.5699368  10.3652608  -0.6301524   0.3114693  11.1247826  -1.1573359
   2.4971482  10.1611114  -3.5523656   1.9732751  11.1356103  -4.0807480
   3.7516752   9.7944522  -3.8358971   4.1321018   8.9936459  -3.3520696
   4.5974821  10.4673159  -4.8408338   4.4549283  11.5430880  -4.7383988
   6.0991800  10.1858675  -4.6091354   6.2682253   9.1105139  -4.5531353
   6.9957596  10.7445347  -5.7228291   6.8128824  11.8110085  -5.8543247
   8.0447984  10.5860102  -5.4728550   6.7944807  10.2296996  -6.6622603
   6.5688914  10.8207750  -3.2922187   5.9939384  10.4238117  -2.4555895
   7.6204562  10.5877066  -3.1249163   6.4400244  11.9024074  -3.3317634
   4.1550604  10.1257563  -6.2656760   4.1124484  11.0135972  -7.1161252
   3.7756991   8.8736528  -6.5410948   3.8574252   8.1601000  -5.8309764
   3.1962806   8.5067153  -7.8400981   3.7904412   8.9783859  -8.6227858
   3.2789183   6.9984955  -8.0651098   3.0410936   6.7867637  -9.1075635
   4.2922822   6.6554016  -7.8565913   2.3693664   6.3162410  -7.2341806
   1.6767083   5.9307498  -7.7756912   1.7515203   8.9855057  -8.0260193
   1.3110590   9.1079128  -9.1654611   1.0120087   9.2919320  -6.9534427
   1.3971755   9.0442687  -6.0532141  -0.4088603   9.6630800  -7.0030016
  -0.9273779   8.8024801  -7.4256206  -0.9470078   9.9044216  -5.5736089
  -0.1897295   9.6261448  -4.8406780  -1.1247079  10.9716046  -5.4407907
  -2.2466217   9.1780925  -5.1960123  -2.5235873   9.5037025  -4.1933316
  -3.3715469   9.5724905  -6.1404002  -3.2256073   9.1175073  -7.1200895
  -4.3204746   9.2519373  -5.7104230  -3.3935073  10.6560838  -6.2563503
  -2.1329443   7.6544720  -5.1657182  -1.3783844   7.3683006  -4.4330218
  -3.0868205   7.2192556  -4.8677161  -1.8430865   7.2646886  -6.1415005
  -0.7163464  10.8467472  -7.9481053  -1.5951973  10.6874228  -8.7949353
  -0.0114882  12.0001411  -7.8975534   0.9106071  12.4401712  -6.8632096
   1.9250514  12.1422696  -7.1282679   0.6481279  12.0526481  -5.8788180
   0.8042695  13.9610040  -6.8530589   1.7033584  14.4274378  -6.4503461
  -0.0773111  14.2651975  -6.2888050   0.6085159  14.2770994  -8.3339942
   1.5812635  14.3038452  -8.8250619   0.0866672  15.2233720  -8.4766191
  -0.2195439  13.0928886  -8.8526380  -1.2740317  13.3687425  -8.8449192
   0.1862056  12.7187729 -10.2843547  -0.4164460  13.1970859 -11.2430620
   1.1882576  11.8462348 -10.4357767   1.6089754  11.4566827  -9.6043050
   1.6011049  11.2924361 -11.7258430   1.7683236  12.1317887 -12.4008417
   2.9368493  10.5388868 -11.5382612   3.4429288  10.9111702 -10.6475365
   2.7280799   9.4840616 -11.3597751   3.9370859  10.6451166 -12.7023911
   4.7592032   9.9615312 -12.4904144   3.3332029  10.2494884 -14.0442502
   2.5617018  10.9551835 -14.3522775   4.1192260  10.2536309 -14.7993982
   2.9055983   9.2488235 -13.9816165   4.5270574  12.0519364 -12.8265166
   4.9690497  12.3514473 -11.8762350   5.3071272  12.0481646 -13.5878170
   3.7591198  12.7704489 -13.1130672   0.4844386  10.4180491 -12.3372853
   0.0974374  10.6108057 -13.4884787  -0.1212347   9.5282871 -11.5385914
   0.2462861   9.4156593 -10.6045961  -1.2876047   8.7277102 -11.9409907
  -1.0402251   8.2699811 -12.8987944  -1.5641101   7.6220375 -10.8998489
  -0.6331871   7.0983392 -10.6825411  -1.9051050   8.0857253  -9.9742049
  -2.6138854   6.5813845 -11.3442218  -2.7862939   5.8832920 -10.5250502
  -3.5501516   7.0929182 -11.5674651  -2.1751447   5.7973647 -12.5859952
  -2.0993762   6.5006542 -13.4152973  -1.1993718   5.3521568 -12.3916841
  -3.1183034   4.6698585 -13.0108476  -3.0383551   3.8576871 -12.2882926
  -4.1440123   5.0385529 -13.0202305  -2.7386835   4.1968876 -14.3639946
  -2.9048511   3.2205749 -14.5622540  -3.1548807   4.7776628 -15.0778508
  -1.7752086   4.4150567 -14.5742953  -2.5152740   9.6042055 -12.1972096
  -3.2633352   9.3376273 -13.1322336  -2.6986933  10.6724215 -11.4187396
  -2.0909865  10.7892549 -10.6205261  -3.7217644  11.6810942 -11.6690791
  -4.6866345  11.1740291 -11.6723764  -3.7440017  12.7093518 -10.5297542
  -2.8824416  13.3735812 -10.5976725  -4.6515867  13.3090580 -10.5986214
  -3.7316594  12.2048998  -9.5635897  -3.5603735  12.3433328 -13.0488384
  -4.5392483  12.4063981 -13.7868869  -2.3629935  12.8224230 -13.4224081
  -1.5934481  12.7724254 -12.7701771  -2.1433619  13.4665191 -14.7352576
  -2.9963949  14.1282272 -14.8855126  -0.9082364  14.3925905 -14.7434306
  -0.9433645  15.0062668 -13.8432825   0.4350394  13.6616659 -14.7652280
   0.5234338  13.0296266 -15.6488645   1.2525856  14.3825579 -14.7595572
   0.5131942  13.0487907 -13.8672459  -0.9382001  15.3429449 -15.9449089
  -1.8590845  15.9255111 -15.9186780  -0.0897561  16.0247219 -15.8863950
  -0.8838788  14.7828496 -16.8784201  -2.1790339  12.4783587 -15.9122634
  -2.7112576  12.8170347 -16.9662428  -1.7020850  11.2423146 -15.7363558
  -1.2122182  11.0320556 -14.8784935  -1.9398148  10.1335621 -16.6779196
  -1.5225257  10.3987217 -17.6493430  -1.2002007   8.8786519 -16.1783886
  -0.1380726   9.1076863 -16.0916245  -1.5652119   8.6466533 -15.1778662
  -1.3599223   7.6370275 -17.0749533  -2.0754695   7.8325790 -17.8736091
  -0.4026598   7.4172610 -17.5476611  -1.8228666   6.4260393 -16.2582934
  -3.0423218   6.1301643 -16.2184155  -0.9857678   5.7912040 -15.5748940
  -3.4469935   9.8922956 -16.8951488  -3.9231759   9.8680913 -18.0293274
  -4.2340940   9.7968024 -15.8193839  -3.8027987   9.7824454 -14.9062133
  -5.6887609   9.6574295 -15.8932197  -5.9048706   8.8382506 -16.5790367
  -6.2098974   9.2523742 -14.5140839  -6.0746729  10.0694788 -13.8054550
  -7.2676575   9.0018904 -14.5947075  -5.6643307   8.3755803 -14.1652429
  -6.4095348  10.9063482 -16.4486945  -7.4358815  10.7693911 -17.1147323
  -5.8586973  12.1092582 -16.2488472  -5.0708282  12.1569717 -15.6186974
  -6.2806213  13.3555090 -16.9076669  -7.3582220  13.4450400 -16.7703342
  -5.6014109  14.5437491 -16.1981213  -5.7312363  14.4192541 -15.1230657
  -4.5333669  14.5020092 -16.4117515  -6.0896677  15.9542012 -16.5748525
  -5.8167696  16.1676455 -17.6083267  -7.5951761  16.1340010 -16.3977540
  -7.9070240  15.8136439 -15.4036605  -7.8482163  17.1852255 -16.5355861
  -8.1281441  15.5676198 -17.1614659  -5.4073095  16.9766629 -15.6615520
  -4.3284407  16.8218970 -15.6478560  -5.6279665  17.9822469 -16.0196209
  -5.7891589  16.8846190 -14.6447837  -6.0051107  13.3288753 -18.4264982
  -6.7354995  13.9293170 -19.2077804  -5.0031137  12.5599802 -18.8571036
  -4.3890128  12.1554649 -18.1647515  -4.7672251  12.1753013 -20.2491689
  -5.1890057  12.9380822 -20.9036660  -3.2493886  12.1653724 -20.4723120
  -2.7915606  11.3610315 -19.8965263  -3.0312386  12.0222282 -21.5306211
  -2.8228879  13.1170714 -20.1553488  -5.4519165  10.8324373 -20.6226683
  -5.1627725  10.2456081 -21.6626525  -6.3610768  10.3217149 -19.7798860
  -6.5299779  10.8425188 -18.9311588  -7.2131997   9.1282666 -19.9790764
  -7.9556501   9.1394365 -19.1811156  -7.9989254   9.1910368 -21.2997961
  -7.3225284   9.1335660 -22.1526051  -8.6838478   8.3445859 -21.3498211
  -8.7567651  10.3813910 -21.3654113  -8.1480157  11.1100101 -21.5073299
  -6.4845562   7.7772653 -19.8551369  -7.1082377   6.7307353 -20.0648832
  -5.2031219   7.7811903 -19.4769859  -4.8040143   8.6628294 -19.1879678
  -4.2662209   6.6525394 -19.5719433  -3.8612470   6.4452761 -18.5814190
  -4.7835657   5.7564628 -19.9147260  -3.0838430   6.9064903 -20.5235028
  -2.1297264   6.1270505 -20.5401492  -3.1378302   7.9678279 -21.3390183
  -3.9357826   8.5850751 -21.2902474  -2.0043732   8.4068280 -22.1502471
  -1.5629478   7.5145441 -22.5941730  -2.4978900   9.2986834 -23.2971215
  -2.8747863  10.2434933 -22.9054809  -1.6784999   9.5037651 -23.9860654
  -3.2948706   8.7933457 -23.8426089  -0.8796892   9.0460759 -21.3168049
  -1.0469716   9.3643904 -20.1396561   0.2906672   9.2065609 -21.9358110
   0.3587834   8.9177811 -22.9012489   1.5243140   9.6359003 -21.2810802
   1.3726710   9.6449715 -20.2017188   2.6018819   8.5799968 -21.5563655
   2.1868458   7.5933439 -21.3505459   2.8819588   8.6027181 -22.6095247
   3.8206172   8.7347776 -20.7097769   5.0466633   9.1163498 -21.1307263
   5.2953130   9.3756008 -22.1492386   5.9133172   9.1585946 -20.0549102
   6.8660003   9.4881701 -20.1172066   5.2742934   8.8210177 -18.8833761
   5.6956446   8.7520671 -17.5527656   6.7158920   8.9974695 -17.2972870
   4.7809184   8.3633131 -16.5632570   5.0991243   8.2826340 -15.5343568
   3.4419900   8.1094861 -16.9078946   2.7291298   7.8442591 -16.1411572
   3.0188328   8.2107949 -18.2450819   1.9844618   8.0219984 -18.4917259
   3.9301997   8.5488701 -19.2687273   1.9526021  11.0541439 -21.7143059
   2.6466939  11.2020445 -22.7212906   1.5748705  12.1226382 -20.9807372
   0.6667618  12.1072435 -19.8388124   1.0873474  11.5565801 -18.9973986
  -0.2851846  11.6715157 -20.1421905   0.4294608  13.5674942 -19.4574821
   1.1624904  13.8811493 -18.7142527  -0.5845546  13.7262511 -19.0905094
   0.6771538  14.2957187 -20.7790828   0.8963631  15.3533471 -20.6325531
  -0.1958974  14.1844773 -21.4221263   1.8527243  13.5087585 -21.3772058
   1.8423381  13.6141348 -22.4620509   3.2280886  13.9709949 -20.8517075
   3.3622602  15.0400138 -20.2564955   4.2549387  13.1405997 -21.0526395
   4.0891778  12.3338556 -21.6372681   5.5695003  13.2138658 -20.4047632
   5.8457041  14.2599440 -20.2723551   5.4902399  12.5002265 -19.0337181
   4.9840906  11.5472996 -19.1881299   6.4984781  12.2734082 -18.6871505
   4.7561774  13.2405603 -17.9012239   3.7316588  13.4623969 -18.1999695
   4.6924651  12.3361707 -16.6721845   5.6974733  12.0945370 -16.3262486
   4.1408247  12.8349328 -15.8752978   4.1714090  11.4140272 -16.9295835
   5.4615718  14.5366609 -17.4951899   5.4361802  15.2451754 -18.3231163
   4.9410552  14.9865186 -16.6497374   6.4955485  14.3339562 -17.2160780
   6.6488141  12.5342250 -21.2758374   6.3193285  11.7027748 -22.1233368
   7.9471731  12.8337574 -21.0764432   8.4798211  13.8798940 -20.2159452
   7.9511815  13.9458060 -19.2649996   8.4301442  14.8359084 -20.7371640
   9.9362379  13.5069716 -19.9693465  10.0031567  12.8674519 -19.0892124
  10.5508959  14.4000173 -19.8563683  10.3318691  12.7172220 -21.2155747
  11.1231852  11.9992030 -21.0002398  10.6547058  13.4113073 -21.9915414
   9.0308845  12.0370984 -21.6548610   8.9608181  12.0792460 -22.7417898
   8.9555812  10.5625343 -21.2166286   8.6263800  10.2449679 -20.0711870
   9.2559266   9.6462226 -22.1408534   9.4964814   9.9654043 -23.0684066
   9.1082567   8.1991684 -21.9484615   8.0705392   7.9889882 -21.6894865
   9.4063538   7.5130302 -23.2849813  10.4308498   7.7148819 -23.5976553
   9.2860055   6.4355731 -23.1722784   8.7161505   7.8638685 -24.0522051
   9.9793732   7.6155055 -20.8163309   9.5616734   6.6657376 -20.1546502
  11.1492348   8.2105780 -20.5572724  11.3972747   9.0278131 -21.0964394
  12.1045339   7.8257012 -19.5036864  12.5157630   6.8432581 -19.7356272
  13.2559025   8.8382208 -19.4912839  13.9473486   8.5903484 -18.6859500
  13.7972796   8.7994552 -20.4365396  12.7482057  10.1463485 -19.2931592
  13.3632350  10.5631638 -18.6851847  11.4905286   7.7513355 -18.0991614
  11.9201934   6.9425821 -17.2772181  10.4542327   8.5496300 -17.8244627
  10.1838374   9.2205310 -18.5293591   9.7588015   8.5649121 -16.5367436
  10.4938149   8.4252506 -15.7440591   9.1045833   9.9458528 -16.3307750
   8.6975986  10.3012574 -17.2774279   8.2741004   9.8335129 -15.6337965
  10.0423741  11.0140049 -15.7390857  10.3313839  10.7134175 -14.7319996
  11.3036609  11.2685061 -16.5575373  11.0525501  11.4927447 -17.5942421
  11.8716776  12.0895934 -16.1201918  11.9466841  10.3888500 -16.5287673
   9.2894888  12.3401058 -15.6524861   8.3924836  12.2136843 -15.0462687
   9.9318445  13.0864429 -15.1850915   9.0073997  12.6803946 -16.6488445
   8.7392777   7.4219042 -16.3754249   8.3642638   7.1292335 -15.2448714
   8.2903761   6.7548341 -17.4463260   8.6824578   6.9732082 -18.3511388
   7.3327577   5.6403637 -17.3541272   6.4581364   6.0160148 -16.8230665
   6.8399632   5.2533853 -18.7557161   6.3850671   6.1362195 -19.2049074
   7.7035552   4.9769676 -19.3606150   5.6450737   3.8807142 -18.8450277
   7.8425854   4.4398418 -16.5191126   7.1014786   3.9860392 -15.6444788
   9.0950125   3.9505580 -16.6634893  10.0517893   4.2348167 -17.7277899
  10.2027583   5.3024441 -17.8873992   9.7135389   3.7780759 -18.6578834
  11.3689554   3.6017591 -17.2876060  11.9209623   4.2962986 -16.6543579
  11.9748831   3.2955956 -18.1403756  10.9042776   2.4088144 -16.4580965
  11.6612792   2.0895998 -15.7417524  10.6470120   1.5902884 -17.1303535
   9.6266311   2.9071322 -15.7800710   8.9157343   2.0826694 -15.7254267
   9.8809761   3.3864865 -14.3422878   9.6521872   2.6308873 -13.3974838
  10.3040957   4.6426505 -14.1528487  10.4816628   5.2114683 -14.9683344
  10.4016244   5.2829283 -12.8247917  11.0783160   4.6909562 -12.2085464
  10.9826720   6.7101091 -12.9274487  10.3141439   7.3283964 -13.5265243
  11.1305809   7.3693722 -11.5506268  11.7705202   6.7617750 -10.9107804
  11.5766728   8.3572608 -11.6654193  10.1553500   7.4891043 -11.0787284
  12.3606300   6.7069143 -13.6008132  12.2905231   6.3293654 -14.6209311
  12.7369797   7.7285159 -13.6536396  13.0594683   6.0933763 -13.0322206
   9.0377587   5.2781790 -12.1230829   8.9052194   4.8432741 -10.9809673
   8.0004418   5.7146430 -12.8341043   8.1861395   6.0814410 -13.7566435
   6.6053724   5.6738263 -12.4095225   6.5154183   6.2178594 -11.4692903
   5.7863849   6.4233780 -13.4610510   6.0704786   7.4753124 -13.4323132
   6.0581756   6.0450751 -14.4465029   4.2839363   6.3363934 -13.3251810
   3.6349797   6.8553400 -12.1893847   4.2130828   7.2648406 -11.3742125
   2.2304025   6.8718344 -12.1336889   1.7247830   7.2833872 -11.2726581
   1.4849976   6.3903081 -13.2232094   0.4079307   6.4695716 -13.2295763
   2.1293043   5.8258092 -14.3333435   1.5476252   5.4575527 -15.1654720
   3.5303649   5.7920450 -14.3797946   4.0267134   5.3905255 -15.2508974
   6.0859329   4.2495331 -12.1550190   5.3684860   4.0418142 -11.1787295
   6.4821857   3.2533261 -12.9553282   7.0048559   3.4857231 -13.7877417
   6.1317384   1.8497446 -12.7290881   5.0472456   1.7675497 -12.8013253
   6.7421389   0.9731606 -13.8329434   7.8233546   0.9016840 -13.7147808
   6.3215578  -0.0309162 -13.7777936   6.5254945   1.3924964 -14.8154521
   6.5401220   1.3667363 -11.3237274   5.6996745   0.8538255 -10.5779493
   7.8082907   1.5690172 -10.9383285   8.4401828   2.0018417 -11.5967214
   8.3050698   1.2348924  -9.5893008   7.8788298   0.2649337  -9.3331778
   9.8356110   1.0309652  -9.5857066  10.0763750   0.3268678 -10.3821862
  10.6343544   2.3122710  -9.8407978  10.4176247   3.0626914  -9.0805364
  11.7014813   2.0904279  -9.8295414  10.3834212   2.7100441 -10.8241129
  10.3242528   0.4072285  -8.2723719   9.7658223  -0.5057671  -8.0657476
  11.3815248   0.1560543  -8.3571553  10.1921642   1.1044170  -7.4449778
   7.8032124   2.1965952  -8.4989005   7.5950783   1.7708407  -7.3660165
   7.5299728   3.4659532  -8.8127345   7.7862340   3.8127676  -9.7260541
   6.9032919   4.3909168  -7.8632218   7.4397284   4.3169698  -6.9172472
   7.0651847   5.8267373  -8.3721447   6.4776009   5.9661895  -9.2795575
   6.7136085   6.5218979  -7.6097494   8.1150502   6.0327244  -8.5805976
   5.4260921   4.0614560  -7.5598872   4.9551755   4.3447837  -6.4644140
   4.6881196   3.4695950  -8.5060745   5.1149994   3.3451226  -9.4129288
   3.2433048   3.2356548  -8.3878052   2.8618371   3.8035828  -7.5392520
   2.5284794   3.7562123  -9.6489054   2.9259378   4.7374800  -9.9082112
   2.7242574   3.0997816 -10.4967678   1.0414568   3.8975468  -9.4524199
   0.4217485   4.9788779  -8.8232040  -0.8790071   4.6663290  -8.7502241
  -1.6312990   5.2932876  -8.2948321  -1.1048947   3.4607670  -9.3013799
  -1.9965938   2.9869795  -9.3236828   0.0977525   2.9568106  -9.7474051
   0.2794892   1.9933118 -10.2002227   2.8973919   1.7720675  -8.1034648
   2.3406442   1.4481495  -7.0564443   3.1924683   0.8690978  -9.0406984
   3.7644580   1.1533665  -9.8230803   2.7204680  -0.5173171  -8.9874882
   1.6628166  -0.4997890  -8.7244922   2.8205064  -1.1574939 -10.3785586
   3.8315073  -1.0436519 -10.7697332   2.6240730  -2.2256440 -10.2859831
   1.8201675  -0.5651681 -11.3561499   0.5527226  -1.1587685 -11.4946842
   0.3186028  -2.0569427 -10.9425330  -0.4165900  -0.5788220 -12.3296201
  -1.3914761  -1.0368629 -12.4083245  -0.1247838   0.6053520 -13.0306625
  -0.8675418   1.0672504 -13.6641943   1.1399658   1.2020484 -12.8958845
   1.3606805   2.1177639 -13.4242332   2.1135800   0.6143141 -12.0669055
   3.0807781   1.0831251 -11.9613421   3.4039244  -1.3492046  -7.8969270
   2.7255091  -2.1173541  -7.2144508   4.7127146  -1.1716829  -7.6772994
   5.2114898  -0.5078232  -8.2522905   5.4253972  -1.8417786  -6.5809721
   5.3163785  -2.9135549  -6.7468327   6.9349778  -1.5523340  -6.6329235
   7.3933536  -2.2212453  -7.3613119   7.0758015  -0.5376057  -7.0052010
   7.6771593  -1.6873886  -5.3100002   8.4197509  -0.6041834  -4.7988763
   8.4842902   0.3195686  -5.3546804   9.0823936  -0.7178427  -3.5629955
   9.6530491   0.1149906  -3.1794047   9.0058357  -1.9142990  -2.8290299
   9.5171934  -2.0013076  -1.8817477   8.2710689  -2.9988396  -3.3375591
   8.2137990  -3.9233473  -2.7822167   7.6154751  -2.8873298  -4.5759267
   7.0531869  -3.7263387  -4.9584112   4.7967795  -1.5809824  -5.1962829
   4.4009992  -2.5627369  -4.5620921   4.6314695  -0.3294807  -4.7143954
   5.1111549   0.9289827  -5.2750725   4.8548275   1.0424117  -6.3284141
   6.1921930   0.9935803  -5.1514441   4.4461411   2.0313029  -4.4500166
   3.4739584   2.2861120  -4.8719558   5.0751257   2.9182792  -4.3741906
   4.2625418   1.3805598  -3.0860528   3.4362593   1.8265899  -2.5325057
   5.1914012   1.4662252  -2.5221536   4.0008876  -0.0878690  -3.4179080
   4.4863400  -0.7021075  -2.6595238   2.5046146  -0.4260546  -3.4031469
   2.0177124  -0.8950621  -2.3748206   1.7831573  -0.2543440  -4.5209673
   2.2213760   0.1745518  -5.3235358   0.3716169  -0.6426153  -4.6371949
  -0.1774279  -0.1024958  -3.8658839  -0.1609243  -0.1958670  -6.0126024
   0.0264067   0.8715516  -6.1293292   0.4036472  -0.7247519  -6.7804825
  -1.6600201  -0.4449830  -6.2574863  -1.8937676  -1.4943063  -6.0775369
  -2.5423041   0.4278205  -5.3618515  -2.3350646   1.4824951  -5.5429959
  -3.5921937   0.2225631  -5.5708998  -2.3459412   0.2007111  -4.3140146
  -2.0004323  -0.1098646  -7.7112609  -1.3930525  -0.7213765  -8.3785260
  -3.0512151  -0.3284169  -7.9014999  -1.7978540   0.9428640  -7.9082990
   0.1496099  -2.1426837  -4.3631876  -0.7745323  -2.4921407  -3.6323503
   1.0075814  -3.0256486  -4.8917350   1.7172377  -2.6829559  -5.5234420
   1.0876793  -4.4201130  -4.4363329   0.0818230  -4.8400575  -4.4363585
   1.9579744  -5.2583331  -5.3912878   2.9103330  -4.7446531  -5.5226117
   2.1784937  -6.2069768  -4.9018544   1.3888772  -5.6008714  -6.7613202
   0.2866433  -6.4725673  -6.8823481  -0.2003607  -6.8489552  -5.9949023
  -0.1403364  -6.9034100  -8.1573027  -0.9635972  -7.5944132  -8.2629222
   0.5387633  -6.4759207  -9.3182319   0.1351683  -6.8873006 -10.5483198
   0.4212116  -7.7805370 -10.7530642   1.6272753  -5.5894548  -9.1963422
   2.1375313  -5.2548122 -10.0874388   2.0506687  -5.1605386  -7.9237467
   2.9100162  -4.5119876  -7.8382868   1.6178530  -4.5376706  -2.9886079
   0.9347471  -5.0683641  -2.1110389   2.8488266  -4.0811300  -2.7250940
   3.3431929  -3.5974851  -3.4611604   3.6039063  -4.3998694  -1.5053016
   3.6913705  -5.4844791  -1.4414825   5.0233245  -3.8328877  -1.6310555
   4.9906850  -2.7447641  -1.6860245   5.6138450  -4.1288072  -0.7639812
   5.5015320  -4.2227259  -2.5296345   2.9236796  -3.9356270  -0.2033928
   3.0268303  -4.6186042   0.8202865   2.1831281  -2.8217998  -0.2428124
   2.1502972  -2.2977212  -1.1055809   1.3375150  -2.3616974   0.8594399
   1.9689211  -2.0486243   1.6909516   0.7544294  -1.5014316   0.5307237
   0.3720439  -3.4437773   1.3550891   0.2803626  -3.6669317   2.5594369
  -0.2870844  -4.1828141   0.4526280  -0.1031500  -4.0168759  -0.5265230
  -1.1538003  -5.3177357   0.8047704  -2.0000736  -4.9561805   1.3888928
  -1.5367018  -5.7703364  -0.1099097  -0.4295677  -6.4046490   1.6113307
  -0.9281088  -6.8574232   2.6462972   0.7824522  -6.7713314   1.1821432
   1.1333352  -6.3355106   0.3412847   1.6659687  -7.6907575   1.9067669
   1.1756992  -8.6597669   2.0003463   2.5868878  -7.8244668   1.3392016
   2.0327620  -7.1893537   3.3080596   1.9486324  -7.9392618   4.2849326
   2.3889524  -5.9083605   3.4465951   2.4721548  -5.3319132   2.6214337
   2.6349497  -5.3161746   4.7640693   3.2588392  -6.0255909   5.3077501
   3.4347728  -4.0125078   4.6590784   2.9850164  -3.3672783   3.9044267
   3.3874983  -3.4919497   5.6155741   4.8980558  -4.2587736   4.3444127
   5.6787294  -5.0355870   5.2261192   5.2423126  -5.4368985   6.1288309
   7.0186830  -5.3243452   4.9246287   7.6103461  -5.9320557   5.5932271
   7.5872195  -4.8229381   3.7434679   8.6216122  -5.0361562   3.5177016
   6.8232501  -4.0219432   2.8743479   7.2632450  -3.6265528   1.9707593
   5.4769611  -3.7452418   3.1699306   4.8889461  -3.1501618   2.4869078
   1.3794476  -5.1746988   5.6302649   1.4839552  -5.3535271   6.8411052
   0.1933286  -4.9420893   5.0644481   0.1738754  -4.7350407   4.0760869
  -1.0858926  -4.9859434   5.7874578  -1.0214960  -4.2981023   6.6305631
  -2.2249053  -4.5260379   4.8463464  -1.9418177  -4.7193727   3.8116565
  -3.1125227  -5.1288807   5.0382221  -2.6324069  -3.0424291   4.9603903
  -3.3088431  -2.8183922   4.1355625  -3.3871067  -2.7924752   6.2644202
  -2.7780443  -3.0731025   7.1237153  -3.6683109  -1.7414647   6.3307631
  -4.2971835  -3.3922586   6.2536794  -1.4746660  -2.0526385   4.8988265
  -1.0406733  -2.0661740   3.8990435  -1.8403378  -1.0422403   5.0817961
  -0.7071468  -2.2953200   5.6337529  -1.3518250  -6.3738132   6.3977408
  -1.7701055  -6.4640182   7.5582314  -1.0475755  -7.4532270   5.6708723
  -0.7547226  -7.3135608   4.7144020  -1.0502922  -8.8183045   6.2036109
  -2.0443423  -9.0281385   6.5984964  -0.7844936  -9.7910994   5.0510246
   0.2542080  -9.7431982   4.7240633  -1.0121237 -10.8139372   5.3511679
  -1.4239757  -9.5210695   4.2106423  -0.0402834  -8.9973569   7.3540050
  -0.4183888  -9.3823797   8.4666121   1.2316627  -8.6563015   7.1107793
   1.4702512  -8.3645481   6.1737299   2.3129056  -8.7506878   8.0950558
   2.4099478  -9.7941911   8.3946949   3.6285666  -8.3236253   7.4326605
   3.5886297  -7.2674501   7.1662045   4.4557440  -8.4821880   8.1245679
   3.8030836  -8.9149386   6.5337759   2.0328188  -7.9312366   9.3685347
   2.3134916  -8.3819228  10.4772532   1.4510271  -6.7365682   9.2381781
   1.2997958  -6.3958347   8.2994902   0.9982177  -5.9004927  10.3510714
   1.8071435  -5.8455199  11.0795736   0.6826127  -4.4830716   9.8407698
   0.1135655  -4.5551181   8.9138961   0.0645459  -3.9515018  10.5643213
   1.9842356  -3.7018064   9.6076894   2.7393305  -4.3683189   9.1909277
   1.8099178  -2.5368389   8.6502153   1.1715103  -1.7676143   9.0847570
   2.7808967  -2.1024989   8.4122062   1.3705333  -2.9007933   7.7214640
   2.4758652  -3.1310827  10.9363747   2.6690680  -3.9326495  11.6492999
   3.4045669  -2.5844985  10.7725012   1.7282577  -2.4405313  11.3266575
  -0.1916330  -6.4943594  11.0978293  -0.1991133  -6.4555699  12.3260546
  -1.1695962  -7.0686519  10.4009521  -1.1173461  -7.0596600   9.3923432
  -2.3075587  -7.7415711  11.0390520  -2.8024521  -7.0248079  11.6943610
  -3.3371201  -8.1759334   9.9973726  -2.8960335  -8.8734812   9.2853546
  -4.1778389  -8.6548275  10.4993212  -3.7981856  -7.0228130   9.3256080
  -3.1594560  -6.7852086   8.6494547  -1.8437126  -8.9038014  11.9219184
  -2.1214008  -8.9069337  13.1231701  -1.0370661  -9.8230177  11.3788354
  -0.8246975  -9.7512084  10.3940272  -0.3454239 -10.8563888  12.1571589
  -1.0935211 -11.4832568  12.6424301   0.4553378 -11.7345095  11.1869121
   1.1992946 -11.1376786  10.6592536   0.9606815 -12.5286233  11.7365587
  -0.2165839 -12.1862364  10.4571414   0.5492506 -10.2577734  13.2663131
   0.4425745 -10.6246996  14.4376147   1.3766561  -9.2682439  12.9228544
   1.4353265  -9.0359157  11.9416893   2.3540704  -8.6224872  13.8039541
   2.9757541  -9.3905032  14.2641294   2.9993230  -7.9886550  13.1956732
   1.7554224  -7.7598327  14.9209511   2.4837519  -7.3583353  15.8314693
   0.4483281  -7.4669641  14.8783708  -0.0367534  -7.6891541  14.0207970
  -0.3480772  -7.0261151  16.0343015   0.3194249  -6.6429257  16.8061221
  -1.3283414  -5.9036201  15.6502235  -1.8154816  -6.1645854  14.7107065
  -2.1021838  -5.8653998  16.4169097  -0.7181780  -4.4859838  15.5740297
  -1.5249677  -3.7684110  15.7232952   0.0005680  -4.3511930  16.3823223
  -0.0497957  -4.1602135  14.2327523   0.7918730  -4.8345694  14.0748334
  -0.7733647  -4.3421656  13.4381187   0.3765513  -2.7463704  14.1353393
  -0.3331325  -2.0604396  13.9209771   1.6124982  -2.2863807  14.0645039
   2.6539159  -3.0310801  14.3160677   2.5259522  -3.9812863  14.6336007
   3.5877594  -2.7339482  14.0716231   1.8037969  -1.0504316  13.7073588
   1.0113426  -0.4917606  13.4245014   2.7392024  -0.7004393  13.5569704
  -1.0921157  -8.1915617  16.6963720  -1.0800868  -8.2526433  17.9207933
  -1.7124531  -9.1137379  15.9507668  -1.6953783  -9.0207106  14.9452019
  -2.4614666 -10.2460730  16.5238237  -3.2617012  -9.8368496  17.1404755
  -3.1288296 -11.1015964  15.4333258  -3.7214747 -10.4557633  14.7854280
  -2.3645768 -11.5779078  14.8192048  -4.0347788 -12.1672070  16.0333157
  -5.4007065 -11.8882394  16.2292206  -5.8229369 -10.9655643  15.8593607
  -6.2213731 -12.8078294  16.9076371  -7.2696280 -12.5901198  17.0496333
  -5.6732100 -13.9975357  17.4245393  -6.4171958 -14.7888088  18.2421052
  -7.3463374 -14.7889805  18.0006254  -4.3142235 -14.2970324  17.2016001
  -3.9011288 -15.2209163  17.5786841  -3.5038090 -13.3940029  16.4859593
  -2.4629124 -13.6309004  16.3222063  -1.6207288 -11.1269557  17.4570465
  -2.0460422 -11.4136207  18.5772324  -0.4207000 -11.5323102  17.0309758
  -0.1300427 -11.2852001  16.0957968   0.4870629 -12.3308730  17.8576386
  -0.0834014 -13.1591797  18.2778525   1.6137455 -12.9382110  16.9989872
   2.0574735 -12.1784902  16.3555360   2.3882362 -13.2807171  17.6852489
   1.1622715 -14.1538513  16.1548996   0.4802335 -14.7646761  16.7463529
   0.4717931 -13.7848449  14.8403537   1.1471355 -13.1947947  14.2207956
   0.2084738 -14.6954191  14.3021905  -0.4440073 -13.2236052  15.0258720
   2.3717937 -15.0084019  15.7949579   2.8607127 -15.3673005  16.7006350
   2.0542215 -15.8850527  15.2303934   3.0797562 -14.4362485  15.1953506
   1.0057835 -11.5265620  19.0638459   1.0355112 -12.0506859  20.1750565
   1.2774131 -10.2258360  18.8950014   1.2250879  -9.8560518  17.9565883
   1.5224031  -9.2823237  20.0010562   2.3923860  -9.6166676  20.5662513
   1.7415708  -8.2974929  19.5885360   0.3396475  -9.1428226  20.9774208
   0.5271239  -8.8464439  22.1602702  -0.8792547  -9.4027638  20.4990959
  -0.9569977  -9.5418519  19.5017433  -2.1245848  -9.4957882  21.2578797
  -2.0174599  -8.8870752  22.1557021  -3.2459265  -8.8649464  20.4271293
  -3.4211028  -9.4449461  19.5210326  -4.1630480  -8.8429409  21.0157752
  -2.9773873  -7.8434533  20.1577997  -2.4611880 -10.9358227  21.7200255
  -3.5858360 -11.2068927  22.1496320  -1.4960323 -11.8574429  21.6458964
  -0.6292515 -11.5913570  21.2009335  -1.5683475 -13.2246184  22.1558785
  -2.4432991 -13.3216953  22.7986360  -1.7504092 -14.1867149  20.9703732
  -0.9075322 -14.1135573  20.2831292  -1.8229990 -15.2118552  21.3335800
  -2.6579165 -13.9367735  20.4207754  -0.3445121 -13.5458219  23.0415273
  -0.4493425 -13.4603906  24.2668152   0.7913961 -13.8724387  22.4176836
   0.8010482 -13.7470400  21.4155459   2.0353518 -14.4063234  22.9925776
   1.8141925 -15.4179740  23.3328009   3.0851036 -14.5059097  21.8664289
   3.1063432 -13.5704017  21.3074374   4.0741801 -14.6193409  22.3102331
   2.8757983 -15.6614804  20.9014368   1.9281760 -15.5718350  19.8625278
   1.3528442 -14.6680903  19.7260177   1.7252198 -16.6601038  18.9945197
   0.9907176 -16.6082561  18.2044446   2.4870045 -17.8305221  19.1419518
   2.3304544 -18.6591804  18.4672534   3.4513423 -17.9174566  20.1605177
   4.0466338 -18.8126230  20.2640033   3.6400563 -16.8376660  21.0421062
   4.3832842 -16.9173872  21.8216300   2.6296806 -13.6172473  24.1851282
   2.3724876 -12.4150169  24.3282938   3.4679306 -14.2710626  25.0220704
   3.6590874 -15.7152379  25.0990200   4.3190026 -16.0427129  24.2956686
   2.7124703 -16.2539053  25.0559664   4.3239826 -15.9704685  26.4479637
   4.9179980 -16.8843532  26.4400887   3.5663095 -16.0075259  27.2306895
   5.1918596 -14.7287917  26.6265082   6.1323112 -14.8752189  26.0952735
   5.3821677 -14.5213497  27.6795292   4.3737346 -13.6100662  25.9657502
   3.7726358 -13.1070590  26.7232203   5.3035325 -12.5943220  25.2847552
   5.7458931 -12.7905130  24.1558814   5.6250387 -11.5013313  25.9821939
   5.2319932 -11.3959348  26.9065881   6.3461798 -10.3607345  25.3986311
   6.1410511 -10.3355801  24.3284011   5.7933927  -9.0554869  26.0075998
   6.0153025  -9.0498370  27.0747566   6.3218933  -8.2142323  25.5591822
   4.2796960  -8.8237494  25.8165121   3.7222382  -9.6020418  26.3376665
   3.8962388  -7.4737227  26.4238191   4.4095048  -6.6657478  25.9024429
   2.8191164  -7.3260182  26.3457775   4.1719636  -7.4526852  27.4781585
   3.8585201  -8.8149357  24.3444872   3.9838356  -9.8098528  23.9172435
   2.8061894  -8.5433388  24.2612147   4.4610155  -8.0999547  23.7842178
   7.8845835 -10.4268372  25.5095458   8.5602278  -9.5855975  24.9194264
   8.4646481 -11.3910699  26.2329912   7.8729206 -12.0908165  26.6576242
   9.9084586 -11.4146757  26.5407133  10.1467574 -10.5729115  27.1909022
  10.1462281 -12.3317873  27.0796680  10.8337462 -11.3371027  25.3158331
  11.8653142 -10.6706953  25.3578997  10.4278505 -11.9572079  24.2054486
   9.5692927 -12.4871230  24.2519975  11.2205613 -12.1064138  22.9771519
  12.1977782 -12.5012457  23.2551003  10.5399311 -13.1446898  22.0621681
   9.8013926 -12.6322603  21.4456630  11.2857866 -13.5605407  21.3847685
   9.8458743 -14.2842638  22.7948856   8.4385729 -14.3509150  22.8047800
   7.8530669 -13.6363494  22.2453308   7.7826869 -15.3473055  23.5495138
   6.7038465 -15.3956699  23.5623407   8.5292017 -16.2864316  24.2878723
   7.8778774 -17.2238827  25.0238013   8.4650171 -17.9039025  25.3620887
   9.9413085 -16.2301755  24.2711592  10.5176401 -16.9426107  24.8427176
  10.5963600 -15.2261364  23.5281038  11.6748297 -15.1687312  23.5312366
  11.4753938 -10.7931483  22.2097659  12.2816312 -10.7815766  21.2896776
  10.7755923  -9.7008294  22.5481868  10.1456463  -9.7874451  23.3328938
  10.9068656  -8.3826673  21.8981385  11.7703819  -8.4115350  21.2336063
   9.6738344  -8.1308961  21.0013580   9.7809267  -7.1630204  20.5116153
   9.6873230  -8.8861412  20.2155304   8.2907218  -8.1992507  21.6812658
   7.5320506  -8.2320333  20.8993173   8.1965321  -9.1193670  22.2579932
   7.9816264  -6.9949603  22.5632310   7.6183552  -5.9264165  22.1038032
   8.1116748  -7.0935470  23.8667321   7.9696161  -6.2823147  24.4513798
   8.4099770  -7.9722953  24.2653799  11.2182474  -7.2408807  22.8909516
  10.8021593  -6.0949075  22.6872993  11.9495344  -7.5552338  23.9639688
  12.3099935  -8.4975344  24.0113163  12.2604227  -6.6489041  25.0717020
  11.7925608  -5.6814605  24.8893332  11.6434038  -7.2203076  26.3593936
  12.0327830  -8.2174116  26.5649843  11.8758214  -6.5673584  27.2006655
  10.5607355  -7.2830409  26.2498665  13.7752414  -6.3772750  25.1685405
  14.2504787  -5.3970367  24.5985413  14.5277667  -7.2186518  25.8877230
  14.0564871  -7.9600590  26.3860321  15.9905159  -7.1178430  26.0694885
  16.2297010  -6.1138040  26.4199114  16.4350522  -8.1247616  27.1448898
  16.5727448  -9.1008729  26.6797566  17.4064326  -7.8168535  27.5318170
  15.4663646  -8.2845658  28.3022499  14.5958447  -9.3922889  28.3405280
  14.6463025 -10.1517951  27.5743651  13.6662126  -9.5221591  29.3867183
  13.0146039 -10.3824890  29.4272041  13.6041832  -8.5452479  30.3958964
  12.9041135  -8.6536717  31.2110925  14.4705677  -7.4382931  30.3583145
  14.4329536  -6.6969144  31.1427546  15.4008448  -7.3068291  29.3119407
  16.0691226  -6.4586890  29.2904091  16.7867339  -7.3662120  24.7747087
  17.8318179  -6.7601287  24.5446372  16.2306738  -8.2415813  23.9340520
  15.3370917  -8.6082447  24.2292976  16.6390800  -8.6741632  22.5903654
  17.3793304  -7.9945982  22.1680808  17.2356582 -10.0891078  22.7194118
  18.0055833 -10.0597548  23.4904194  16.4519167 -10.7668042  23.0579042
  17.8743851 -10.6705773  21.4461493  17.1448803 -10.7221544  20.6379032
  18.7087607 -10.0406027  21.1378503  18.3777833 -12.0899045  21.7486048
  18.9904141 -12.0691466  22.6499104  17.5179768 -12.7316177  21.9410586
  19.1395497 -12.6600242  20.6267715  18.6160672 -12.8710794  19.7891951
  20.4274440 -12.9669988  20.6059718  21.2494946 -12.7713668  21.5937853
  20.9553885 -12.3162878  22.4461293  22.2205281 -12.9583097  21.3882184
  20.9755635 -13.4866655  19.5627451  20.4861927 -13.3871686  18.6848414
  21.9841099 -13.5391366  19.5765090  15.3767705  -8.6553037  21.7190218
  14.2713284  -8.6964142  22.2722459  15.5090606  -8.5580707  20.3944612
  16.4378607  -8.5019189  20.0016713  14.3814313  -8.6196071  19.4433665
  13.5345030  -9.0809721  19.9512577  13.9720702  -7.2136873  18.9414310
  14.6781373  -6.8837953  18.1793666  12.9980850  -7.2990876  18.4596026
  13.8718581  -6.1254317  20.0280905  13.1469285  -5.3723419  19.7191668
  13.5251510  -6.5635735  20.9640002  15.2335775  -5.4440129  20.2177191
  16.0192108  -6.1775130  20.0364614  15.3586864  -4.6781242  19.4523036
  15.4169559  -4.8516080  21.5542865  14.6461320  -4.3451583  21.9659090
  16.5458930  -4.8673582  22.2424579  17.6531136  -5.3965187  21.8126154
  17.7168620  -5.7324630  20.8622503  18.4743488  -5.4421037  22.3987746
  16.5760672  -4.3928948  23.4473848  15.6916332  -4.2125395  23.9005375
  17.3966646  -4.5927387  24.0012598  14.7622371  -9.5229566  18.2620144
  15.9398901  -9.5595276  17.9228318  13.8004327 -10.2028048  17.6094413
  12.3962569 -10.2866662  17.9829562  11.9376612  -9.3023562  18.0774224
  12.3098421 -10.8421242  18.9168179  11.7119181 -11.0859036  16.8848491
  11.3961530 -10.4134607  16.0872197  10.8671999 -11.6603231  17.2651029
  12.8282809 -11.9873631  16.3719392  12.6574612 -12.2416019  15.3258610
  12.8914189 -12.8847516  16.9874156  14.0987515 -11.1504078  16.5380228
  14.9158156 -11.8063998  16.8383265  14.5032787 -10.4115939  15.2539420
  13.6675692  -9.9442875  14.4752908  15.8093166 -10.3004932  15.0432897
  16.4157677 -10.7880914  15.6871653  16.4693081  -9.5217484  14.0024245
  16.1452496  -8.4837258  14.0772295  17.9620433  -9.5835102  14.3247688
  18.1307411  -9.2341936  15.3434050  18.2894802 -10.6219566  14.2746186
  18.9244604  -8.5846722  13.1641400  20.1105547  -9.1053557  13.4912097
  16.1483026 -10.0040960  12.5770271  16.0723329  -9.1959459  11.6513157
  15.7968318 -11.2840426  12.3927546  15.8880568 -11.9256401  13.1674349
  15.2963448 -11.7746043  11.0986531  16.0369110 -11.4741063  10.3574622
  15.2698445 -13.3145463  11.0316253  15.0763929 -13.5808647   9.9925143
  16.2748682 -13.6672211  11.2632453  14.3226862 -14.1470170  11.8854702
  14.2613697 -15.5322921  11.6209948  14.8495257 -15.9553683  10.8200693
  13.4322965 -16.3707101  12.3891878  13.3393753 -17.4227548  12.1634316
  12.6724720 -15.8368766  13.4432495  11.9153869 -16.6510201  14.2193210
  11.4436913 -16.1419535  14.8826301  12.7151668 -14.4552386  13.6963689
  12.0897019 -14.0660512  14.4861305  13.5370231 -13.6079538  12.9262292
  13.5534000 -12.5509250  13.1471825  13.9938462 -11.0814905  10.6394053
  13.6837780 -11.0754895   9.4490302  13.2895708 -10.3823960  11.5420723
  13.6105907 -10.3839183  12.4996972  12.1881533  -9.4755656  11.2008512
  11.4440477 -10.0567710  10.6562352  11.5161538  -8.9652264  12.4751675
  11.2580442  -9.8120850  13.1110215  12.2019041  -8.3115900  13.0142474
  10.3374732  -8.2513279  12.1528196  10.5840719  -7.5194019  11.5826583
  12.5926507  -8.2782465  10.3174651  11.7203832  -7.7082294   9.6631974
  13.8677728  -7.8678674  10.2746618  14.5531988  -8.3154023  10.8662760
  14.3651474  -6.9719440   9.2178595  13.7025428  -6.1103684   9.1357386
  15.7736039  -6.4542764   9.5566791  16.4523304  -7.3030531   9.6403980
  16.1216867  -5.8522141   8.7173581  15.9092224  -5.6133461  10.7940519
  16.5260768  -5.9963208  11.9343817  16.9942153  -6.9581223  12.0833313
  16.5118253  -4.9659052  12.8527844  16.9779670  -5.0185895  13.7472332
  15.9030724  -3.8428184  12.3361325  15.6905842  -2.5531971  12.8438795
  16.0336983  -2.2953583  13.8349342  15.0724661  -1.5896781  12.0296884
  14.9323642  -0.5833237  12.3957813  14.6791613  -1.9286358  10.7219207
  14.2314589  -1.1781259  10.0873351  14.8993790  -3.2277548  10.2210164
  14.6264219  -3.4645259   9.2032576  15.5100048  -4.2228737  11.0159242
  14.3610334  -7.6795173   7.8525358  13.7903023  -7.1758085   6.8878925
  14.9358594  -8.8855058   7.7873194  15.3338099  -9.2621309   8.6357820
  15.0676179  -9.6799326   6.5605652  15.6741405  -9.1270590   5.8432364
  15.5877638 -10.6087661   6.7946905  13.7410963 -10.0362575   5.8827913
  13.6400390  -9.9572659   4.6607393  12.6897538 -10.3561294   6.6478169
  12.8325963 -10.4788685   7.6401043  11.3587511 -10.6220520   6.0592252
  11.4995408 -11.3579893   5.2675974  10.3525352 -11.2411940   7.0493865
   9.4627649 -11.5256274   6.4876872  10.9025824 -12.5162399   7.6966447
  11.7257595 -12.2853839   8.3727986  10.1125360 -13.0120671   8.2606328
  11.2597740 -13.1947553   6.9219637   9.9156809 -10.2600038   8.1402946
   9.3276447  -9.4512838   7.7063763   9.3020540 -10.7733727   8.8805747
  10.7990837  -9.8424780   8.6233759  10.7512212  -9.3860275   5.3839338
   9.9503142  -9.5349425   4.4666326  11.1287057  -8.1658596   5.7856756
  11.8369782  -8.0796707   6.5005338  10.7231593  -6.9565654   5.0635999
   9.6423501  -6.9845587   4.9251485  11.0632348  -5.7005447   5.8749795
  12.1432400  -5.5782908   5.9570915  10.6615651  -4.8283619   5.3591692
  10.3238118  -5.8118546   7.5268632  11.1750519  -6.6959059   8.0548239
  11.3425052  -6.9060671   3.6615089  10.6242812  -6.6732192   2.6927331
  12.6354420  -7.2294283   3.5372859  13.1642640  -7.4556452   4.3675107
  13.2896364  -7.3893851   2.2390997  13.1543899  -6.4649981   1.6775678
  14.7965932  -7.5963068   2.4393786  14.9885643  -8.5271621   2.9730031
  15.2873921  -7.6433247   1.4672640  15.2147949  -6.7614526   3.0017185
  12.6435757  -8.5147148   1.4093088  12.4293494  -8.3368242   0.2157772
  12.2550476  -9.6354496   2.0294349  12.5191784  -9.7663236   2.9954621
  11.4817798 -10.6848443   1.3583155  12.0632207 -11.0246122   0.5012364
  11.3156629 -11.8827987   2.2993949  10.6638145 -11.6244483   3.1339297
  10.8634961 -12.7076507   1.7487012  12.2884190 -12.2007704   2.6745495
  10.1288164 -10.1855218   0.8010593   9.7896785 -10.5114400  -0.3330125
   9.3720090  -9.3696189   1.5513590   9.6805060  -9.1685581   2.4918415
   8.1144869  -8.7534231   1.0741886   7.4868667  -9.5402610   0.6557651
   7.3371726  -8.0958754   2.2436930   8.0388761  -7.4543130   2.7767125
   6.1768615  -7.1995616   1.7637163   5.5271178  -7.7468473   1.0807727
   5.5942708  -6.8486208   2.6154962   6.5629894  -6.3246763   1.2406672
   6.8042392  -9.1292793   3.2650718   7.5905228  -9.8472935   3.4981227
   6.5631402  -8.6043763   4.1894358   5.5577111  -9.9147165   2.8318578
   5.7176411 -10.3684175   1.8537588   5.3569448 -10.6985736   3.5621741
   4.6894786  -9.2572266   2.7873632   8.3609092  -7.7569610  -0.0728599
   7.5560087  -7.6923358  -1.0012708   9.4585282  -6.9899422  -0.0433954
  10.0764394  -7.0500410   0.7532711   9.8600203  -6.1638963  -1.1906121
   9.0163898  -5.5353624  -1.4758004  11.0439122  -5.2416986  -0.8566955
  11.8582618  -5.8566874  -0.4736534  11.3873637  -4.7972170  -1.7908134
  10.8486259  -4.1094193   0.1092263  10.0166976  -4.0906656   1.1728259
   9.3593454  -4.9015844   1.4497705  10.1933730  -2.9267070   1.8931687
   9.7693384  -2.7629071   2.7950948  11.1173666  -2.0998132   1.2949120
  11.6124976  -0.8274285   1.6159664  11.2445176  -0.3013007   2.4844010
  12.5840151  -0.2441632   0.7854165  12.9692698   0.7396937   1.0090365
  13.0556679  -0.9437954  -0.3401353  13.8051546  -0.4940609  -0.9744934
  12.5541258  -2.2238724  -0.6493011  12.9201448  -2.7454123  -1.5213256
  11.5683615  -2.8356835   0.1573481  10.1934016  -7.0334125  -2.4113989
   9.6274239  -6.8266821  -3.4818655  11.0797012  -8.0207729  -2.2431831
  11.4926946  -8.1297088  -1.3279381  11.5406704  -8.9352638  -3.2880419
  12.0439410  -8.3509600  -4.0583718  12.5612390  -9.9056304  -2.6861864
  12.0846128 -10.5426764  -1.9411360  12.9711187 -10.5292928  -3.4806326
  13.3720899  -9.3496674  -2.2155227  10.3912628  -9.6906912  -3.9675802
  10.3379679  -9.7165573  -5.1920390   9.4460446 -10.2164507  -3.1773299
   9.6024626 -10.1649582  -2.1808435   8.1966978 -10.8544433  -3.6134633
   8.4207189 -11.8637598  -3.9587075   7.2753328 -10.9500599  -2.3740223
   7.5870782 -11.8128431  -1.7853628   7.4486238 -10.0664485  -1.7597759
   5.7541925 -11.0208523  -2.6073915   5.4266185 -10.1549077  -3.1826606
   5.3202736 -12.2881007  -3.3320010   5.4783750 -13.1518090  -2.6861608
   4.2652112 -12.2139215  -3.5955149   5.8866721 -12.4131155  -4.2548567
   5.0362551 -10.9866381  -1.2554502   5.2584660 -10.0462401  -0.7510957
   3.9592126 -11.0652685  -1.4034212   5.3698683 -11.8177521  -0.6341206
   7.5458437 -10.1171303  -4.7934318   7.1681643 -10.7447922  -5.7776946
   7.4305004  -8.7910402  -4.6997321   7.8023797  -8.3425492  -3.8747090
   6.9508737  -7.9499853  -5.8021307   6.2055492  -8.5077786  -6.3691038
   6.2602931  -6.6891748  -5.2487934   6.9831979  -6.1070877  -4.6772313
   5.7087702  -5.8101934  -6.3736337   5.0290173  -6.3867360  -7.0010364
   5.1724803  -4.9634898  -5.9451652   6.5288067  -5.4284191  -6.9818181
   5.0898397  -7.0465308  -4.3198931   5.4554409  -7.5749093  -3.4394091
   4.5937455  -6.1362565  -3.9831576   4.3756613  -7.6769072  -4.8496801
   8.0811119  -7.6120532  -6.7848760   7.9391038  -7.8158748  -7.9889512
   9.2014062  -7.0769632  -6.2891412   9.2874902  -7.0091659  -5.2851015
  10.2583504  -6.4738053  -7.1078885   9.7879958  -5.7386661  -7.7609104
  11.2835622  -5.7466942  -6.2185609  11.6142511  -6.4333743  -5.4393214
  12.1528852  -5.4958022  -6.8263698  10.7690632  -4.4489682  -5.5724901
   9.8609060  -4.6578586  -5.0070578  11.8286848  -3.9014763  -4.6173033
  12.6874959  -3.5451365  -5.1861298  11.4100933  -3.0715105  -4.0480605
  12.1500814  -4.6842885  -3.9302748  10.4802847  -3.3632329  -6.6135764
   9.6090066  -3.6342302  -7.2098440  10.2717948  -2.4197844  -6.1090600
  11.3419390  -3.2289806  -7.2675085  10.9868610  -7.4284017  -8.0592430
  11.3585699  -6.9751632  -9.1369945  11.2142467  -8.7031382  -7.7216107
  10.8835518  -9.0586954  -6.8359888  11.8968475  -9.6128792  -8.6507273
  12.6060140  -9.0324956  -9.2409295  12.7420831 -10.6458974  -7.8893417
  13.3750141 -11.1759579  -8.6010545  13.3869624 -10.1261663  -7.1807438
  11.7282498 -11.8528974  -6.9946927  11.2618101 -12.5080585  -8.0615085
  10.9394169 -10.2427304  -9.6745902  11.3468957 -10.4216123 -10.8184123
   9.6642536 -10.4924214  -9.3334472   9.3625355 -10.3084350  -8.3872890
   8.6729312 -10.9094810 -10.3380764   9.1133529 -11.7070723 -10.9363902
   7.3974770 -11.4735150  -9.6936733   7.6614875 -12.2522748  -8.9781803
   6.8717664 -10.6816924  -9.1600567   6.4927572 -12.0560527 -10.7524753
   5.5918390 -11.3281405 -11.5295947   5.2495676 -12.1447384 -12.5381672
   4.6241724 -11.8537450 -13.3691907   5.8737504 -13.3231568 -12.4402750
   5.9313279 -14.0187192 -13.1703389   6.6590530 -13.2877791 -11.3180709
   7.3713648 -14.0488756 -11.0356879   8.3611333  -9.7846168 -11.3310838
   8.4689146  -9.9843967 -12.5405359   8.0806071  -8.5704273 -10.8354509
   8.0085355  -8.4536010  -9.8348212   7.9657823  -7.3939878 -11.7002773
   7.2355443  -7.6185107 -12.4777365   7.4878508  -6.1515909 -10.9253812
   8.2038009  -5.9367466 -10.1320601   7.5055581  -5.3122509 -11.6205752
   6.0772896  -6.2287784 -10.3080273   6.0758156  -6.9207782  -9.4658667
   5.6852716  -4.8363248  -9.8030025   5.5902785  -4.1464481 -10.6415415
   4.7345465  -4.8949289  -9.2731100   6.4507633  -4.4633117  -9.1225743
   5.0027335  -6.6783905 -11.2981296   5.1857686  -7.7141082 -11.5842903
   4.0216529  -6.6334087 -10.8253121   5.0165337  -6.0453731 -12.1853721
   9.2781764  -7.1072912 -12.4385810   9.2413622  -6.8334281 -13.6293745
  10.4316974  -7.2106683 -11.7752218  10.4089129  -7.3972744 -10.7828701
  11.7478955  -7.0276982 -12.3924160  11.8394279  -5.9988385 -12.7405107
  12.5230074  -7.2117662 -11.6484952  11.9952452  -7.9552680 -13.5835993
  12.5862861  -7.5226229 -14.5704401  11.5271318  -9.2063487 -13.5198438
  11.1165273  -9.5297897 -12.6556134  11.4652705 -10.0975966 -14.6757567
  12.4279308 -10.0384879 -15.1835871  11.2869191 -11.5543020 -14.2135012
  12.0744169 -11.7663443 -13.4903240  10.3315592 -11.6836119 -13.7049067
  11.4011419 -12.5443971 -15.3920472  12.0039403 -12.0980203 -16.1829197
  12.1099305 -13.8137865 -14.9545968  11.5202844 -14.3045104 -14.1802549
  12.2130036 -14.4864762 -15.8060455  13.1015217 -13.5729694 -14.5713806
  10.0472760 -12.9745293 -15.9595454   9.5448911 -12.1316421 -16.4341497
  10.2033830 -13.7437963 -16.7158246   9.4159311 -13.3839715 -15.1709640
  10.4130733  -9.6485430 -15.6997728  10.7695913  -9.2996138 -16.8190682
   9.1228139  -9.6495777 -15.3526747   8.8787752  -9.9101508 -14.4078720
   8.0461949  -9.4920975 -16.3505483   8.2736129 -10.1642692 -17.1779335
   6.6863847  -9.9416071 -15.7790887   6.5368223  -9.4779605 -14.8040175
   5.4909414  -9.5762032 -16.6692150   5.6438696  -9.9511147 -17.6812208
   4.5739958 -10.0121951 -16.2727046   5.3641254  -8.4940833 -16.7013383
   6.6912383 -11.4660943 -15.6126535   7.4232829 -11.7626858 -14.8614919
   5.7112354 -11.8184781 -15.2909136   6.9317079 -11.9482088 -16.5601981
   8.0135775  -8.0946070 -16.9764960   7.8812861  -7.9727179 -18.1892991
   8.2144207  -7.0295459 -16.1999440   8.4068781  -7.1807438 -15.2200449
   8.4484899  -5.6862909 -16.7435944   7.6781684  -5.4872239 -17.4886286
   8.3170229  -4.6457544 -15.6216621   7.3956245  -4.8335171 -15.0704181
   9.1521931  -4.7704986 -14.9324393   8.3019900  -3.2009971 -16.0746861
   7.2853470  -2.7437338 -16.9319642   6.5283334  -3.4252891 -17.2908688
   7.2557139  -1.3998356 -17.3330724   6.4807999  -1.0588674 -18.0036294
   8.2186943  -0.4982420 -16.8532145   8.1847394   0.5360754 -17.1621406
   9.2310548  -0.9489194 -15.9874046   9.9800527  -0.2623149 -15.6213772
   9.2802793  -2.3015632 -15.6086433  10.0690949  -2.6482114 -14.9574852
   9.8039323  -5.5796045 -17.4617457   9.9159735  -4.9100539 -18.4843159
  10.8286273  -6.2868446 -16.9789910  10.6890571  -6.8429798 -16.1475265
  12.1586549  -6.2922090 -17.5860190  12.4555874  -5.2622879 -17.7839899
  12.8677404  -6.7327064 -16.8851209  12.2796655  -7.0636708 -18.8999009
  13.2913804  -6.9038630 -19.5752966  11.2900877  -7.8795701 -19.2718697
  10.5583096  -8.0286890 -18.5918939  11.2368536  -8.6918676 -20.4956341
  12.1246147  -8.5376012 -21.1089706  11.1516976 -10.1840997 -20.1249194
  10.4199374 -10.2835560 -19.3232119  10.7447386 -10.7069075 -20.9904575
  12.4313211 -10.9536386 -19.7495985  12.9824638 -11.1831236 -20.6615639
  13.4049082 -10.2604723 -18.7992382  12.8967083  -9.9825680 -17.8758740
  14.2309785 -10.9328246 -18.5676157  13.8030386  -9.3730283 -19.2912042
  12.0019782 -12.2655404 -19.0957344  11.5853524 -12.9282641 -19.8542321
  12.8390408 -12.7378881 -18.5816228  11.2239480 -12.0740354 -18.3567524
  10.0120294  -8.3171654 -21.3471699  10.1692343  -7.7965128 -22.4476147
   8.8127553  -8.5854560 -20.8235669   8.7899703  -8.9195865 -19.8707092
   7.5272048  -8.6452699 -21.5399408   7.6962990  -9.0683031 -22.5301695
   6.5451652  -9.5741040 -20.7890892   6.0418695  -8.9847660 -20.0226212
   5.7809269  -9.9031484 -21.4931989   7.1186095 -10.8148015 -20.0834560
   7.7837253 -10.4906535 -19.2830503   6.2950164 -11.3493514 -19.6101153
   7.8637695 -11.7908669 -20.9960890   7.3775244 -12.0745122 -22.1077156
   8.8866389 -12.3412383 -20.5286694   6.8440753  -7.2737372 -21.7220163
   5.7684666  -7.1821719 -22.3181725   7.4032933  -6.2033826 -21.1480522
   8.2653338  -6.3482666 -20.6420946   6.9021916  -4.8374194 -21.3060284
   5.8569759  -4.8354039 -20.9968114   7.6708663  -3.9141175 -20.3583121
   8.7330478  -3.9341438 -20.6021738   7.3042214  -2.8903902 -20.4334974
   7.5300163  -4.2577034 -19.3335164   6.9810724  -4.3306944 -22.7629709
   7.8487581  -4.7772479 -23.5125232   6.2110853  -3.2826471 -23.1356525
   5.1088798  -2.7165976 -22.3686957   5.4986012  -2.0007430 -21.6449785
   4.5262265  -3.4849843 -21.8605685   4.2236373  -1.9945069 -23.3768749
   3.6896014  -1.1639073 -22.9153442   3.5317472  -2.7005523 -23.8361025
   5.2378273  -1.5129851 -24.4080114   5.7083231  -0.6011501 -24.0401912
   4.7795203  -1.3423297 -25.3821421   6.2799209  -2.6338005 -24.4569778
   5.9861535  -3.3606076 -25.2143097   7.6560372  -2.0586987 -24.8520255
   7.8376734  -1.6249633 -25.9846592   8.6118972  -2.0482840 -23.9178538
   8.3669364  -2.4682045 -23.0325532  10.0383949  -1.9100276 -24.2031074
  10.2411199  -2.3654225 -25.1724458  10.3180015  -0.8574522 -24.2478657
  10.9225726  -2.6300779 -23.1874752  11.9218409  -2.0669667 -22.7389169
  10.5148101  -3.8323262 -22.7648735   9.7046673  -4.2309394 -23.2175112
  11.3469124  -4.7630650 -21.9949389  11.8437934  -4.2391157 -21.1784315
  10.7083833  -5.5326420 -21.5611982  12.4120641  -5.4319596 -22.8727913
  12.5673783  -5.0927055 -24.0402818  13.1590724  -6.3937235 -22.3357844
  13.0313492  -6.6029006 -21.3559723  14.2880285  -7.0446306 -23.0175567
  14.8787510  -6.2640727 -23.4970117  15.1934946  -7.7003503 -21.9622374
  15.4071295  -6.9634259 -21.1880255  14.6460664  -8.5209954 -21.4985967
  16.5088809  -8.2271540 -22.4517941  17.6339531  -7.4923271 -22.5959134
  17.7124453  -6.4429367 -22.3529696  18.6387134  -8.2776451 -23.1266332
  19.5353675  -7.9120970 -23.4138370  18.2082200  -9.5665985 -23.3525515
  18.8341069 -10.7069552 -23.8757372  19.8641717 -10.6646383 -24.1975689
  18.0958593 -11.8960416 -24.0005827  18.5591555 -12.7791893 -24.4150782
  16.7460227 -11.9275403 -23.6061788  16.1755478 -12.8365195 -23.7274909
  16.1278641 -10.7756317 -23.0811763  15.0819504 -10.7984626 -22.8129530
  16.8426383  -9.5653671 -22.9386139  13.8883889  -7.9934758 -24.1683769
  14.7597969  -8.5625720 -24.8175955  12.5956416  -8.1528401 -24.4755840
  11.8953609  -7.7155393 -23.8937974  12.1804333  -8.6346978 -25.8026409
  12.7499497  -9.5334083 -26.0394311  10.6869471  -9.0033406 -25.7943177
  10.1132524  -8.1244522 -25.5001569  10.3966129  -9.2638505 -26.8121290
  10.3107238 -10.1782477 -24.8686337  10.5433965  -9.9255586 -23.8341737
   8.8103557 -10.4386961 -24.9832225   8.5560429 -10.7556057 -25.9946537
   8.5178041 -11.2177885 -24.2792821   8.2590401  -9.5300895 -24.7411799
  11.0439456 -11.4776814 -25.2160335  12.1093011 -11.3705397 -25.0119781
  10.6529832 -12.2879052 -24.6005774  10.8942461 -11.7188108 -26.2684345
  12.5222194  -7.6402432 -26.9364429  12.6845479  -8.0587387 -28.0787969
  12.6848912  -6.3479871 -26.6305399  12.5439715  -6.0600054 -25.6727767
  13.2889807  -5.3556401 -27.5248241  13.1472480  -5.6613350 -28.5614347
  12.6069939  -3.9879674 -27.3386359  11.5719473  -4.0542158 -27.6738811
  12.6050806  -3.7179425 -26.2826157  13.3220541  -2.8910273 -28.1331158
  13.7611949  -3.1742632 -29.2687249  13.4750795  -1.7621748 -27.6087117
  14.7990620  -5.2259105 -27.2538543  15.2177799  -4.9232411 -26.1348343
  15.6308663  -5.3988159 -28.2845712  15.2223504  -5.6577700 -29.1712260
  17.0850003  -5.1451439 -28.2372785  17.3991716  -5.0159925 -27.2015595
  17.8490400  -6.3693720 -28.7836409  17.5263965  -6.5600365 -29.8071885
  18.9141083  -6.1392325 -28.8112974  17.6942658  -7.6490188 -27.9871154
  18.2122958  -8.8919151 -28.3613300  17.8117859  -9.7612417 -27.4203348
  18.0117035 -10.8223784 -27.4408722  17.1020603  -9.1308963 -26.4719152
  16.6072738  -9.5567918 -25.7012653  17.0349467  -7.8012246 -26.8012738
  16.5044975  -7.0422441 -26.2454200  17.4873781  -3.8346955 -28.9435935
  18.6721051  -3.5847449 -29.1483116  16.5148258  -2.9877153 -29.2946005
  15.5631983  -3.2500225 -29.0808105  16.6793644  -1.7559978 -30.0713873
  17.7407038  -1.6257450 -30.2827930  15.9859681  -1.9270690 -31.4380169
  16.3246477  -1.1332211 -32.1037507  16.2874520  -2.8799555 -31.8730068
  14.5711029  -1.8772270 -31.3702917  14.2599010  -2.4548092 -30.6694484
  16.2595105  -0.5027376 -29.2729354  16.8897045  -0.1757665 -28.2637501
  15.2832305   0.2769631 -29.7481155  14.7513628  -0.1018893 -30.5186296
  14.9960124   1.6550356 -29.3300271  15.4491127   1.8456154 -28.3571553
  15.6121123   2.6436526 -30.3542972  15.2135015   2.4211942 -31.3441062
  15.2898920   3.6514702 -30.0924253  17.1297705   2.7182236 -30.4683065
  17.6550388   3.3792126 -31.3442039  17.9098916   2.0905672 -29.6205544
  18.9020777   2.1766479 -29.7886348  17.5306869   1.4527094 -28.9353943
  13.4798491   1.8980694 -29.1366220  12.9300427   2.8763539 -29.6418428
  12.7928388   1.0217429 -28.3952713  13.2556093   0.1795957 -28.0842447
  11.3931000   1.2515771 -27.9723883  10.8877909   1.8260264 -28.7487721
  10.6267238  -0.0740207 -27.8359437   9.5971888   0.1500448 -27.5567436
  10.5825901  -0.9000041 -29.1202807  11.5877271  -1.1373325 -29.4688177
  10.0400758  -1.8267506 -28.9334154  10.0643027  -0.3374941 -29.8968506
  11.2056744  -0.8321153 -26.8070054  12.0436406  -1.1701609 -27.1312904
  11.3346124   2.1137309 -26.6909862  11.9969678   3.1485283 -26.6116643
  10.5385029   1.7578381 -25.6725502  10.0391889   0.8841423 -25.7588315
  10.4509687   2.4791737 -24.3906069  11.4627576   2.7180901 -24.0630341
   9.6895367   3.7970203 -24.5618391   8.8756001   3.6662576 -25.2749372
   9.2787677   4.1085172 -23.6014533  10.5731714   4.8003799 -25.0136375
  11.1025608   4.4224164 -25.7196879   9.7952014   1.6347197 -23.2963133
   8.6798823   1.1381189 -23.4473372  10.4878318   1.4917839 -22.1636748
  11.3722110   1.9748752 -22.0958924  10.1866090   0.5164066 -21.1119723
  10.0650382  -0.4584870 -21.5840983  11.4242005   0.4354942 -20.1905704
  12.2870207   0.1587790 -20.7964349  11.6081917   1.4291821 -19.7821188
  11.3268173  -0.5509747 -19.0121663  10.4772902  -0.2821361 -18.3843720
  11.1570847  -1.9953585 -19.4631314  11.9915175  -2.2868679 -20.1009727
  11.1270440  -2.6462772 -18.5893452  10.2188277  -2.1167304 -20.0044632
  12.6016676  -0.4856439 -18.1662714  12.7663600   0.5339951 -17.8179717
  12.4983311  -1.1408249 -17.3013091  13.4613955  -0.8020630 -18.7569046
   8.8697600   0.8422923 -20.3771019   8.8498032   1.6027208 -19.4134080
   7.7648968   0.2633243 -20.8606648   7.8683126  -0.2383318 -21.7311502
   6.4047211   0.4641377 -20.3380537   5.9497219  -0.5094014 -20.1555824
   6.4520961   0.9827517 -19.3805075   5.4512548   1.2610070 -21.2391090
   4.2660916   1.3455530 -20.9166360   5.9413809   1.8284848 -22.3477912
   6.9057649   1.6498098 -22.5889182   5.1837766   2.7047724 -23.2559586
   4.2977166   3.0709264 -22.7373767   6.0404909   3.9317191 -23.6555481
   7.0023012   3.5526574 -24.0009928   5.4319030   4.7413933 -24.8155236
   4.3801871   4.9473825 -24.6166182   5.9753478   5.6777275 -24.9421954
   5.5119443   4.1894469 -25.7520318   6.3189065   4.8772985 -22.4665880
   6.7060471   4.2985436 -21.6279793   7.0991313   5.5804080 -22.7581120
   5.1045090   5.6910187 -21.9988132   4.2754266   5.0260347 -21.7569113
   5.3734404   6.2636316 -21.1111832   4.7902650   6.3937825 -22.7704835
   4.6989965   1.9393747 -24.4924664   5.4727316   1.6768752 -25.4117799
   3.4086254   1.6078290 -24.5600581   2.8110909   1.8803254 -23.7927222
   2.7815533   1.3437399 -25.8560991   3.4116122   0.6514965 -26.4146042
   1.3825716   0.7229689 -25.7025194   0.7095895   1.4849512 -25.3093600
   1.0106126   0.4396814 -26.6871476   1.2561905  -0.4558948 -24.7621322
   1.2439621  -0.3137873 -23.5516262   1.0304670  -1.6349626 -25.2902818
   0.5668201  -2.2935642 -24.6808743   0.9811953  -1.7537901 -26.2920523
   2.6640269   2.6618478 -26.6461182   2.2820435   3.6882621 -26.0847545
   2.8768855   2.6316395 -27.9630589   3.2180685   1.7780793 -28.3815432
   2.4287216   3.7105402 -28.8666987   1.9905581   4.5244411 -28.2890511
   3.5987744   4.3547085 -29.6263313   4.1155916   3.6081424 -30.2293563
   3.1563333   5.5215210 -30.5130768   2.6041734   6.2524295 -29.9223208
   4.0368950   5.9982753 -30.9436774   2.5272527   5.1611304 -31.3270020
   4.4935715   4.9038640 -28.6857414   4.8975128   4.1764337 -28.2069135
   1.3378261   3.1656739 -29.7967672   1.6567859   2.6939997 -30.8841062
   0.0556639   3.1572768 -29.3725753  -0.4388715   3.6283800 -28.0853653
  -0.0802992   4.6306142 -27.8507328  -0.1338784   2.9277262 -27.3080850
  -1.9610910   3.6320719 -28.1979346  -2.2955725   4.5711184 -28.6388612
  -2.4382807   3.4677532 -27.2318149  -2.2216102   2.4789491 -29.1666842
  -3.1849137   2.5797266 -29.6666741  -2.1751298   1.5336066 -28.6260653
  -1.0440126   2.5645679 -30.1448727  -0.7737302   1.5586846 -30.4661918
  -1.4139099   3.3699802 -31.4012003  -2.0276763   2.8304699 -32.3151231
  -1.0264289   4.6472690 -31.4592028  -0.5568727   5.0354725 -30.6536508
  -1.1106540   5.5158675 -32.6392245  -0.7945038   4.9254254 -33.4991813
  -2.5588426   5.9846604 -32.9131293  -3.1917554   5.1030380 -33.0144310
  -3.1451070   6.8523717 -31.7961979  -2.5830472   7.7812660 -31.6995311
  -4.1840124   7.0919603 -32.0228529  -3.1150508   6.3123477 -30.8498526
  -2.6629373   6.7677313 -34.2278934  -2.2305351   6.1859345 -35.0419211
  -3.7128505   6.9513023 -34.4561124  -2.1525665   7.7274877 -34.1473365
  -0.1227053   6.6734916 -32.4760580   0.1314886   7.1413785 -31.3615203
   0.4966854   7.0976353 -33.5800099   0.2558918   6.6639984 -34.4598246
   1.4433956   8.2133281 -33.5973859   2.3202619   7.9098058 -33.0254769
   1.9016939   8.4844679 -35.0467968   2.3922455   9.4564772 -35.0983357
   2.6363203   7.7274764 -35.3213644   0.8046358   8.4463817 -36.1045790
   0.8877617   7.7140903 -37.0696759  -0.2774860   9.1685098 -35.9474492
  -0.9777831   9.0958720 -36.6716051  -0.4210859   9.6940464 -35.0969815
   0.8703628   9.4753200 -32.9182410  -0.2153025   9.9393767 -33.2613850
   1.6257598  10.0489616 -31.9793034   2.5034478   9.6102321 -31.7399740
   1.2465748  11.2589109 -31.2402225   2.1335377  11.8771040 -31.1015344
   0.5321600  11.8417740 -31.8215871   0.6293478  11.0154414 -29.8570466
   0.6752831  11.9230914 -29.0322995   0.1164542   9.8138165 -29.5563078
   0.0501378   9.1116005 -30.2792168  -0.4080265   9.4718909 -28.2204080
  -0.1395665  10.2606285 -27.5176120  -1.9425440   9.4449025 -28.2352781
  -2.3063861   9.2813379 -27.2208977  -2.3183267  10.4045677 -28.5901475
  -2.4259505   8.4175622 -29.0704346  -1.9882923   7.6111102 -28.7881255
   0.1959386   8.1711984 -27.6548672  -0.4402599   7.1134388 -27.7192760
   1.4103112   8.2226735 -27.0744634   2.3473728   9.3336803 -27.0950651
   2.1388264  10.0025439 -26.2600613   2.3225258   9.8818117 -28.0368900
   3.7146541   8.6869407 -26.9164705   4.4375870   9.3797749 -26.4858341
   4.0663618   8.3077812 -27.8759718   3.4196749   7.5162405 -25.9804368
   3.5344049   7.8401959 -24.9460340   4.0882999   6.6834813 -26.1985016
   1.9608477   7.1342611 -26.2678289   1.9384618   6.2131494 -26.8501973
   1.1584350   6.9404304 -24.9703121   0.5755108   7.8905541 -24.4429469
   1.1355128   5.7197702 -24.4322944   1.6384403   4.9823093 -24.9048638
   0.3661835   5.3401023 -23.2321501   0.1802190   6.2393016 -22.6448202
  -1.0162340   4.7418967 -23.6039448  -1.6193141   4.6986130 -22.6970172
  -1.7965457   5.5428511 -24.6631956  -1.3192067   5.4538530 -25.6390691
  -2.8168145   5.1659405 -24.7345400  -1.8380035   6.6018695 -24.4085240
  -0.9329967   3.3275539 -24.1701913  -0.4918602   2.6513857 -23.4378695
  -1.9304577   2.9690716 -24.4244790  -0.3181725   3.3501458 -25.0699568
   1.2035862   4.4005349 -22.3487425   1.9038694   3.5270882 -22.8583217
   1.1854378   4.6030733 -21.0279369   0.5211732   5.2629989 -20.6493187
   2.1037893   3.9499429 -20.0809312   2.9004523   3.4448230 -20.6270838
   2.7601314   5.0464886 -19.2207003   3.2654104   5.7607090 -19.8708403
   1.9578508   5.5812067 -18.7122488   3.9322883   4.5264393 -17.9318619
   1.3692053   2.8990415 -19.2272234   0.4346064   3.2388118 -18.5046351
   1.7515910   1.6165975 -19.3337822   2.4926977   1.4381798 -19.9963784
   1.4372128   0.5140386 -18.3911479   2.0777200  -0.3204847 -18.6764920
   1.8050429   0.8832321 -16.9349718   1.2190414   1.7512330 -16.6328526
   1.5186355   0.0651720 -16.2740266   3.3029717   1.1830212 -16.7328405
   3.6867622   1.7496133 -17.5812376   3.5320932   2.0092089 -15.4685974
   3.3468994   1.4019579 -14.5825684   4.5602483   2.3709743 -15.4575074
   2.8748965   2.8788024 -15.4685199   4.1149485  -0.1055768 -16.6139913
   4.0415609  -0.6802570 -17.5372779   5.1600635   0.1514716 -16.4414823
   3.7561443  -0.7082059 -15.7796073   0.0027350  -0.0486515 -18.4787571
  -0.1961308  -1.2588854 -18.3506334  -1.0060897   0.8043049 -18.6666846
  -0.7770475   1.7879900 -18.6697328  -2.4150258   0.4055415 -18.8057792
  -2.6911148  -0.1972061 -17.9405797  -3.3291638   1.6459051 -18.8498819
  -3.0218187   2.2943708 -19.6703279  -4.3479431   1.3145748 -19.0509021
  -3.3393851   2.4610355 -17.5461650  -2.3776421   2.9617408 -17.4346042
  -4.1104418   3.2282811 -17.6162159  -3.6060414   1.5861587 -16.3175261
  -4.5674407   0.7908709 -16.3151753  -2.8095636   1.6175352 -15.3522933
  -2.6633269  -0.4966913 -20.0214553  -3.2256392  -1.5798457 -19.8728669
  -2.1972416  -0.0882911 -21.2064075  -1.6984314   0.7889413 -21.2482476
  -2.4281695  -0.8047209 -22.4667645  -3.3830479  -1.3263440 -22.4018264
  -2.5372556   0.2198578 -23.5994601  -1.5526405   0.6449359 -23.7942433
  -2.8856415  -0.2761544 -24.5053840  -3.2431790   1.0064755 -23.3329916
  -1.3621204  -1.8757236 -22.7742624  -1.3415608  -2.4412082 -23.8678813
  -0.4839556  -2.1829626 -21.8149877  -0.5393701  -1.6757862 -20.9433222
   0.3845851  -3.3583772 -21.8760228   1.0447572  -3.2695666 -22.7388000
   1.2350504  -3.3663914 -20.5989766   1.7490689  -2.4072267 -20.5366158
   0.5587357  -3.4233630 -19.7460699   2.2758672  -4.4263104 -20.3978634
   2.7333561  -5.3312045 -21.2968683   2.4204496  -5.4259419 -22.3261952
   3.6971247  -6.1244535 -20.7095861   4.2513081  -6.7923385 -21.2262297
   3.9219037  -5.7675236 -19.3994367   4.7925600  -6.2435675 -18.4116638
   5.4518837  -7.0703793 -18.6309242   4.7888047  -5.6357723 -17.1446264
   5.4482442  -5.9998673 -16.3706923   3.9351055  -4.5463273 -16.8911433
   3.9492127  -4.0727326 -15.9206235   3.0736253  -4.0664506 -17.8980434
   2.4257304  -3.2252279 -17.7006197   3.0414140  -4.6690911 -19.1760027
  -0.5000833  -4.6082512 -22.0407319  -1.5453322  -4.7125125 -21.3928366
  -0.1278270  -5.5104935 -22.9464126   0.7246344  -5.3560251 -23.4655905
  -0.9550463  -6.6351157 -23.3992887  -1.7876656  -6.2130386 -23.9620447
  -0.1287724  -7.4550104 -24.3944979   0.1424234  -6.8294090 -25.2448964
   0.7876602  -7.7916080 -23.9097810  -0.9259587  -8.6587715 -24.8756218
  -0.7932992  -9.7166795 -24.2251825  -1.7740744  -8.4628892 -25.7685828
  -1.5192410  -7.5195771 -22.2522950  -0.8082975  -7.7700323 -21.2709808
  -2.7887827  -7.9844379 -22.3203182  -3.7997690  -7.6275826 -23.3106780
  -3.6398923  -8.2010216 -24.2237520  -3.8011220  -6.5594184 -23.5277557
  -5.1420283  -8.0269790 -22.7033520  -5.8799678  -8.2600653 -23.4709549
  -5.5008608  -7.2352546 -22.0456958  -4.7700277  -9.2556107 -21.8806767
  -4.6937671 -10.1218450 -22.5378871  -5.4886693  -9.4423389 -21.0826874
  -3.3917516  -8.8795865 -21.3279748  -3.5450318  -8.3193403 -20.4056263
  -2.5695238 -10.1278722 -20.9887743  -2.4992579 -10.4801536 -19.8121870
  -1.9577880 -10.7794750 -21.9810534  -1.9420186 -10.3631890 -22.9011440
  -1.1327489 -11.9697618 -21.8124390  -1.5397055 -12.5423932 -20.9790230
  -1.2394246 -12.8419018 -23.0689955  -0.8345608 -12.3124790 -23.9314914
  -0.6760862 -13.7635410 -22.9229426  -2.2834499 -13.0895054 -23.2608390
   0.3254579 -11.6416645 -21.4504719   0.8316391 -12.2135079 -20.4876304
   0.9971886 -10.7101834 -22.1424842   0.5550911 -10.3060162 -22.9556942
   2.3900560 -10.3258359 -21.8149233   3.0136570 -11.2180459 -21.8713522
   2.9527554  -9.2989391 -22.8023696   2.4539576  -8.3421808 -22.6477289
   4.0176553  -9.1601747 -22.6157355   2.7679282  -9.7102946 -24.1397572
   3.3416682 -10.4591525 -24.3176246   2.5372097  -9.7646570 -20.3948069
   3.4832039 -10.0926447 -19.6837842   1.5772498  -8.9531416 -19.9395812
   0.8297919  -8.6866212 -20.5643845   1.5019897  -8.5235196 -18.5412538
   2.5092816  -8.3329749 -18.1709075   0.7115002  -7.2183520 -18.4862447
  -0.3389487  -7.4430752 -18.6710525   0.8296795  -6.7543745 -17.5070322
   1.0614013  -6.5341860 -19.2592800   0.8447535  -9.5755434 -17.6253843
   0.9180887  -9.4563776 -16.4009559   0.1735546 -10.5713320 -18.2107127
   0.2360477 -10.6338251 -19.2168391  -0.6136337 -11.6269052 -17.5711918
  -1.6012466 -11.2366140 -17.3254418  -0.7489879 -12.4364293 -18.2884443
   0.0034873 -12.2242630 -16.3086998  -0.6187673 -12.1006262 -15.2523136
   1.2305686 -12.7835989 -16.3374114   2.0766267 -13.0154145 -17.5022233
   2.1233031 -12.1545744 -18.1692123   1.7152141 -13.8885033 -18.0455434
   3.4702504 -13.2901156 -16.9460630   3.9866981 -12.3427320 -16.7916417
   4.0487984 -13.9374006 -17.6051569   3.1882411 -13.9553499 -15.5991983
   3.9946753 -13.7766075 -14.8879921   3.0613458 -15.0273168 -15.7504785
   1.8549845 -13.3468807 -15.1424372   1.2258074 -14.1547120 -14.7687459
   2.0108174 -12.3232639 -14.0086591   1.7327829 -12.6567960 -12.8593147
   2.3917422 -11.0700560 -14.2844760   2.5356749 -10.8147681 -15.2510226
   2.4697223 -10.0151527 -13.2605779   3.0042201 -10.4023409 -12.3931110
   3.2774112  -8.8387585 -13.8178492   2.8511342  -8.4909797 -14.7588265
   3.2650641  -8.0182868 -13.1003714   4.3105805  -9.1486806 -13.9747202
   1.0886611  -9.5528537 -12.7579784   0.8990327  -9.2958522 -11.5640926
   0.1109291  -9.4459397 -13.6650074   0.3483793  -9.6650326 -14.6219409
  -1.2815353  -9.0782094 -13.3644414  -1.2849838  -8.1685138 -12.7639902
  -2.0249853  -8.8060743 -14.6879995  -1.8194510  -9.6036738 -15.4019260
  -3.0996770  -8.7963670 -14.5062268  -1.6271748  -7.4483562 -15.2913046
  -1.7885812  -6.6693699 -14.5461679  -0.5693441  -7.4571693 -15.5540133
  -2.4562919  -7.1256328 -16.5416658  -2.2419994  -7.8817832 -17.2969258
  -3.5149714  -7.1852893 -16.2891984  -2.1617137  -5.7684749 -17.0571399
  -1.8795665  -5.0691849 -16.3852167  -2.2395204  -5.3642398 -18.3145618
  -2.5642669  -6.1630696 -19.2822969  -2.6203182  -7.1581978 -19.1189778
  -2.3934783  -5.8375233 -20.2230191  -1.9774421  -4.1364300 -18.6556327
  -1.6530365  -3.4231809 -18.0183494  -2.0587301  -3.9015093 -19.6345651
  -1.9864513 -10.1347148 -12.5057471  -2.7080297  -9.7704679 -11.5777051
  -1.7125025 -11.4128351 -12.7546418  -1.1489332 -11.5986216 -13.5719395
  -2.3376772 -12.5696325 -12.1135950  -3.3544779 -12.3088539 -11.8199766
  -2.4218205 -13.6810076 -13.1740093  -2.9232830 -13.2735860 -14.0518725
  -1.4119118 -13.9443719 -13.4883726  -3.1411210 -14.9599063 -12.7869809
  -4.5245188 -15.0885487 -13.0159402  -5.0889051 -14.2575264 -13.4125125
  -5.1657122 -16.3208032 -12.7945685  -6.2199843 -16.4317453 -13.0009711
  -4.4286144 -17.4305677 -12.3510981  -4.9170780 -18.3853364 -12.2237360
  -3.0503604 -17.3040521 -12.1112180  -2.4846910 -18.1679118 -11.7947292
  -2.4080485 -16.0703313 -12.3275638  -1.3401534 -15.9876990 -12.1891022
  -1.5909284 -13.0156088 -10.8441615  -2.1826878 -13.0171061  -9.7661650
  -0.2975874 -13.3597291 -10.9324622   0.1717730 -13.2514453 -11.8202007
   0.4445833 -14.0221357  -9.8417819  -0.0880210 -14.9453950  -9.6136951
   1.8570176 -14.4328129 -10.2682233   2.3003502 -15.0311971  -9.4723004
   1.8119992 -15.0295877 -11.1792302   2.6708844 -13.3054328 -10.4805696
   2.5328198 -13.0214572 -11.3871634   0.4886845 -13.2199681  -8.5363418
   0.0473424 -13.7325406  -7.5081325   0.9532823 -11.9613206  -8.5425341
   1.3945402 -11.6293132  -9.3882078   0.9365301 -11.1012387  -7.3486465
   1.4691932 -11.6165280  -6.5493679   1.6221428  -9.7421199  -7.6040441
   1.1287213  -9.2598099  -8.4478521   1.4317356  -9.1251147  -6.7258924
   3.1452602  -9.6906626  -7.8367150   3.4670049  -8.6772346  -7.5968307
   3.9266321 -10.6433272  -6.9337016   3.6977005 -11.6788411  -7.1854997
   4.9935693 -10.4890275  -7.0947498   3.6954835 -10.4489982  -5.8863693
   3.5281095  -9.9354452  -9.2906505   2.9808572  -9.2574590  -9.9455923
   4.5937946  -9.7480953  -9.4222385   3.3277094 -10.9680319  -9.5764899
  -0.4953637 -10.8702445  -6.8379861  -0.7380199 -10.8607435  -5.6317168
  -1.4662722 -10.7578766  -7.7425605  -1.2294837 -10.8377540  -8.7211573
  -2.8792790 -10.5961800  -7.3845619  -2.9518184  -9.8332310  -6.6094834
  -3.6764655 -10.1019597  -8.5847688  -3.6544511 -10.8577144  -9.3699127
  -4.7076970  -9.9379689  -8.2720923  -3.1435674  -8.8891184  -9.0839994
  -2.9772669  -9.0563393 -10.0145900  -3.5222742 -11.8659973  -6.8055999
  -4.6643525 -11.8080628  -6.3564050  -2.7855900 -12.9806817  -6.7403173
  -1.8985462 -12.9768419  -7.2232676  -3.1145251 -14.1719532  -5.9574634
  -4.1029412 -14.0513957  -5.5140710  -3.1781086 -15.3982246  -6.8869132
  -2.2141668 -15.5161941  -7.3818874  -3.3630055 -16.2829542  -6.2776804
  -4.2788005 -15.3273761  -7.9654521  -4.1333884 -14.4452572  -8.5890061
  -4.1994858 -16.5612900  -8.8579768  -4.3859276 -17.4652719  -8.2781869
  -4.9394131 -16.4851773  -9.6547294  -3.2128417 -16.6142642  -9.3182230
  -5.6867629 -15.2849317  -7.3665309  -5.8403927 -14.3375862  -6.8497777
  -6.4266193 -15.3564429  -8.1637752  -5.8292556 -16.1121225  -6.6711539
  -2.1499754 -14.3391955  -4.7672310  -2.5701737 -14.1726911  -3.6238798
  -0.8666570 -14.6198547  -5.0223970  -0.5944031 -14.6351731  -5.9948921
   0.1944662 -14.8705423  -4.0302426  -0.0329342 -15.7969058  -3.5027590
   1.5210187 -15.0473058  -4.8192537   1.3202693 -15.6824982  -5.6819999
   1.8050896 -14.0771568  -5.2269495   2.7705520 -15.6294751  -4.1167650
   3.6237329 -15.4151523  -4.7603863   3.0860609 -15.0491405  -2.7385950
   2.3584177 -15.3915393  -2.0027980   4.0782622 -15.3750920  -2.4265184
   3.0691972 -13.9600384  -2.7794638   2.6896998 -17.1466005  -3.9746484
   2.5443959 -17.6035106  -4.9535358   3.6186555 -17.5284827  -3.5512003
   1.8591134 -17.4139082  -3.3213717   0.2888921 -13.7462449  -2.9786327
   0.1410510 -13.9832914  -1.7800175   0.5356493 -12.5163102  -3.4388587
   0.5431548 -12.3893499  -4.4408193   0.7075749 -11.3236117  -2.6042122
   1.3072282 -11.6057658  -1.7388186   1.5472873 -10.2971399  -3.4127051
   2.5870714 -10.6180263  -3.3496237   1.2961432 -10.3839004  -4.4698218
   1.5235935  -8.7885416  -3.1004751   2.1938650  -8.3300149  -3.8275167
   0.1555164  -8.1370836  -3.3183217  -0.4723006  -8.2305020  -2.4321969
   0.2874152  -7.0730948  -3.5148588  -0.3451480  -8.5885739  -4.1748217
   2.0848519  -8.4449804  -1.7217976   3.1168386  -8.7891495  -1.6536038
   2.0689780  -7.3637944  -1.5843841   1.4914134  -8.9161539  -0.9382638
  -0.6236302 -10.8190060  -2.0165645  -0.6037529 -10.2768254  -0.9164563
  -1.7647736 -10.9989786  -2.6980418  -1.6871907 -11.4212716  -3.6122358
  -3.0534074 -10.3868210  -2.3192248  -2.8506091  -9.5509934  -1.6496252
  -3.7100926  -9.7766155  -3.5647184  -3.1062979  -8.9383477  -3.9123371
  -3.7153354 -10.5298901  -4.3525314  -5.1328886  -9.3003416  -3.3311424
  -5.3831220  -8.1711692  -2.5289741  -4.5586455  -7.5973696  -2.1322471
  -6.7065465  -7.7966750  -2.2351818  -6.9005823  -6.9334078  -1.6158916
  -7.7813464  -8.5443312  -2.7508110  -8.7978154  -8.2605410  -2.5213465
  -7.5354868  -9.6560097  -3.5710126  -8.3576989 -10.2314126  -3.9701110
  -6.2136036 -10.0306249  -3.8587037  -6.0307550 -10.8942699  -4.4808614
  -4.0357023 -11.3001966  -1.5506510  -4.5797893 -10.8799827  -0.5254677
  -4.2821738 -12.5418210  -1.9876319  -3.7757596 -12.8998959  -2.7847710
  -5.2196890 -13.4376490  -1.2856449  -6.1038250 -12.8489280  -1.0410841
  -5.7057655 -14.5830286  -2.1853510  -4.9013847 -14.9206460  -2.8388694
  -5.9811383 -15.4311562  -1.5584928  -6.9189662 -14.2067409  -3.0154005
  -8.2134837 -14.5328856  -2.5666502  -8.3457184 -15.0680327  -1.6379245
  -9.3391478 -14.1696465  -3.3289993 -10.3303277 -14.4311273  -2.9890135
  -9.1749263 -13.4756601  -4.5408830 -10.0374973 -13.2048178  -5.1316595
  -7.8849703 -13.1390083  -4.9852505  -7.7500600 -12.6047599  -5.9141093
  -6.7633772 -13.5015142  -4.2198318  -5.7749957 -13.2257998  -4.5567015
  -4.6891829 -13.9510226   0.0616947  -5.4865003 -14.1986227   0.9685732
  -3.3658364 -14.0568793   0.2386772  -2.7628979 -13.8739753  -0.5506977
  -2.7504593 -14.3227565   1.5458623  -3.1566662 -15.2744579   1.8884416
  -1.2275672 -14.5210004   1.3535653  -1.1025519 -15.3150511   0.6173898
  -0.7907008 -13.6314738   0.8997042  -0.3705811 -14.9102807   2.5763464
   0.6334396 -15.1190495   2.2069444  -0.2233986 -13.8199115   3.6412549
  -1.1491070 -13.6924779   4.2024347   0.5643342 -14.1089737   4.3369702
   0.0622086 -12.8805375   3.1678569  -0.8830099 -16.1829734   3.2465595
  -0.8565663 -17.0008361   2.5264889  -0.2377722 -16.4399827   4.0866262
  -1.9015053 -16.0467207   3.6101544  -3.1844795 -13.2792652   2.6067001
  -3.7213159 -13.6872768   3.6423883  -3.0577198 -11.9544506   2.3635086
  -2.1464705 -11.3420808   1.4070250  -2.3822293 -11.6561115   0.3902164
  -1.1156765 -11.6146195   1.6334879  -2.2823761  -9.8241085   1.5378204
  -2.4013448  -9.3397683   0.5686145  -1.3993865  -9.4238615   2.0360471
  -3.5296509  -9.6050453   2.3794179  -4.3721175  -9.4335580   1.7093869
  -3.4063300  -8.7577426   3.0539325  -3.7174359 -10.9143758   3.1479648
  -3.1967473 -10.8412254   4.1027585  -5.1944447 -11.1740315   3.4513929
  -5.5592555 -11.1496294   4.6262106  -6.0472298 -11.4244771   2.4480838
  -5.6916589 -11.4231634   1.5027419  -7.4802387 -11.7017412   2.6630208
  -7.9520601 -10.8185267   3.0936220  -8.1825387 -12.0391369   1.3289069
  -7.4715143 -12.4941814   0.6393585  -8.9603889 -12.7776349   1.5229960
  -8.8667774 -10.8446717   0.6486244  -9.6379209 -10.4581618   1.3149936
  -7.8968328  -9.7175789   0.3262152  -7.1233588 -10.0697458  -0.3562923
  -8.4472680  -8.9000070  -0.1392910  -7.4330384  -9.3457019   1.2398338
  -9.5273519 -11.2912142  -0.6553476 -10.2469170 -12.0853519  -0.4561736
 -10.0507617 -10.4505503  -1.1107881  -8.7733942 -11.6573703  -1.3521825
  -7.6873177 -12.8373933   3.6721456  -8.3699375 -12.6474905   4.6784106
  -7.0627892 -13.9919257   3.4361589  -6.4942652 -14.0678918   2.6048258
  -7.1828765 -15.1590669   4.3008465  -8.2323498 -15.4515135   4.3352333
  -6.3889825 -16.3082254   3.6729193  -5.3346896 -16.0421968   3.5967904
  -6.4922649 -17.2033119   4.2863148  -6.7731166 -16.5175915   2.6745668
  -6.7437249 -14.8737144   5.7473344  -7.5044107 -15.1219940   6.6877627
  -5.5285996 -14.3462670   5.9518820  -4.9444035 -14.1426015   5.1535451
  -5.0068468 -14.1361535   7.3108518  -5.3245771 -15.0084198   7.8820783
  -3.4641498 -14.1703606   7.4009907  -3.2423753 -14.3455374   8.4537154
  -2.9047906 -15.3822172   6.6319281  -3.0275041 -15.2424121   5.5579191
  -1.8428043 -15.5154347   6.8381709  -3.4289965 -16.2898564   6.9310933
  -2.7584943 -12.8487396   7.0278382  -2.8624585 -12.6560867   5.9600478
  -3.2206768 -12.0241082   7.5704896  -1.2701367 -12.8655016   7.4090135
  -0.7120983 -13.5169768   6.7365015  -0.8601636 -11.8579292   7.3395872
  -1.1497483 -13.2151747   8.4343600  -5.6523353 -12.9483080   8.0368215
  -5.7952416 -13.0148292   9.2569733  -6.0782623 -11.8862140   7.3388731
  -5.9427857 -11.8852401   6.3379979  -6.8726462 -10.7894981   7.9367673
  -6.3680750 -10.4657185   8.8470823  -6.9938058  -9.5378345   7.0534658
  -7.6527333  -8.8325500   7.5599116  -5.6490576  -8.8459963   6.8529010
  -4.9040911  -9.5348340   6.4546216  -5.7725847  -8.0087513   6.1659795
  -5.3041035  -8.4653491   7.8142607  -7.5593990  -9.8150820   5.8009458
  -6.9043863 -10.2975881   5.2912802  -8.2568300 -11.2657630   8.3668196
  -8.6165243 -11.0754740   9.5308286  -8.9968127 -11.9512749   7.4862367
  -8.6612689 -12.0481455   6.5385383 -10.2686810 -12.5879884   7.8230172
 -10.9772515 -11.8089104   8.1042045 -10.8230484 -13.3125556   6.5900874
 -10.1383853 -14.0992355   6.2731141 -11.7908883 -13.7545764   6.8267381
 -10.9509003 -12.6063859   5.7696730 -10.1221585 -13.5304809   9.0273112
 -10.8369470 -13.3637393  10.0210512  -9.1511422 -14.4582593   8.9973623
  -8.6069977 -14.5753300   8.1545657  -8.8674212 -15.3083825  10.1537907
  -9.7696215 -15.8827853  10.3640163  -7.7283043 -16.3163650   9.9242246
  -8.0732781 -17.1138668   9.2661327  -6.8897760 -15.8121741   9.4438469
  -7.2699153 -16.8994224  11.2576103  -6.0686666 -16.4563441  11.8466973
  -5.3981006 -15.8210182  11.2871408  -5.7678711 -16.7903364  13.1805062
  -4.8556572 -16.4354706  13.6369455  -6.6590172 -17.5757802  13.9298975
  -6.4201349 -17.8414488  14.9490917  -7.8586483 -18.0188537  13.3490765
  -8.5378659 -18.6303771  13.9244914  -8.1588048 -17.6899111  12.0133543
  -9.0911913 -18.0130589  11.5744567  -8.5741568 -14.4952011  11.4151788
  -9.2289567 -14.7220290  12.4263597  -7.6055384 -13.5745752  11.4133024
  -7.0891654 -13.3905280  10.5650151  -7.2017378 -12.9266059  12.6628852
  -7.1846700 -13.7048960  13.4258235  -5.7538307 -12.4172437  12.5846982
  -5.4241103 -12.1617091  13.5917163  -5.1121622 -13.2139432  12.2083580
  -5.5592269 -10.9560585  11.5381896  -5.7871550 -11.5908813  10.3849554
  -8.2401490 -11.9093192  13.1752396  -8.1673676 -11.5211558  14.3397713
  -9.2678505 -11.5706456  12.3848534  -9.2271334 -11.8421817  11.4128888
 -10.4706109 -10.8737612  12.8495836 -10.1783562 -10.1639092  13.6234033
 -11.0726535 -10.0728798  11.6884470 -10.2819991  -9.5020521  11.2014949
 -11.4853156 -10.7541358  10.9443355 -12.1381068  -9.0981042  12.1413136
 -11.7450130  -7.9354560  12.8265607 -10.6958914  -7.7616024  13.0150175
 -12.7032673  -6.9970846  13.2460570 -12.4002242  -6.0947329  13.7562776
 -14.0676224  -7.2342068  12.9911244 -14.9891913  -6.3159734  13.3767140
 -15.8724940  -6.6174555  13.1520212 -14.4691348  -8.4157073  12.3304081
 -15.5159819  -8.6050749  12.1442640 -13.5027385  -9.3461096  11.9003642
 -13.8083982 -10.2421713  11.3807023 -11.5041757 -11.8316209  13.4772253
 -11.8703341 -11.6623640  14.6413517 -11.9139051 -12.8913343  12.7681601
 -11.5626132 -12.9852355  11.8258846 -12.7500665 -13.9995193  13.2937717
 -13.7362933 -13.6081934  13.5434115 -12.9209673 -15.0746047  12.1949041
 -11.9370401 -15.3335452  11.8038344 -13.5676324 -16.3700688  12.6988971
 -14.5433712 -16.1516488  13.1328619 -13.6985576 -17.0615458  11.8665397
 -12.9331052 -16.8506849  13.4435308 -13.7777877 -14.5414734  11.0377955
 -13.3311987 -13.6453331  10.6069911 -13.8488209 -15.2928436  10.2513504
 -14.7813034 -14.2954433  11.3849604 -12.1658945 -14.5942473  14.5884991
 -12.8485954 -14.8032558  15.5905378 -10.8582985 -14.8309827  14.5780504
 -10.3824389 -14.6507776  13.7055910 -10.0282764 -15.2960980  15.6827641
 -10.5358064 -16.1119401  16.1974633  -9.0927100 -15.6815791  15.2775228
  -9.6882826 -14.2208898  16.7166889  -9.0536666 -14.5488167  17.7191734
 -10.0711417 -12.9516423  16.5211463 -10.5444479 -12.7129579  15.6614292
 -10.2188766 -12.0357776  17.6516318  -9.3862861 -12.1949470  18.3368742
 -10.1769435 -10.5616283  17.2352695 -10.7442760 -10.3900898  16.3204980
 -10.6201792  -9.9640369  18.0318415  -8.4544319 -10.0381422  17.0227993
  -8.2615739 -10.6663358  15.8595800 -11.4671803 -12.3575699  18.4698951
 -11.3117063 -12.5872457  19.6612811 -12.6570928 -12.4565601  17.8623676
 -12.7053654 -12.3142731  16.8636060 -13.9080036 -12.7764738  18.5779655
 -14.0940619 -12.0038712  19.3239987 -15.0852454 -12.7840626  17.5878239
 -14.7734714 -13.3115304  16.6863406 -15.9123921 -13.3425987  18.0259609
 -15.6131482 -11.3928950  17.1947098 -14.7939658 -10.7929003  16.7984200
 -16.6751385 -11.5420389  16.1056638 -17.5009751 -12.1472800  16.4795339
 -17.0504224 -10.5622768  15.8101511 -16.2400639 -12.0305336  15.2337790
 -16.2484574 -10.6510687  18.3749068 -15.4921949 -10.3827000  19.1125679
 -16.7301250  -9.7366905  18.0284846 -16.9938326 -11.2877500  18.8515139
 -13.8072515 -14.0948725  19.3661320 -13.9647424 -14.1054702  20.5908203
 -13.3268476 -15.1594806  18.7072778 -13.2307673 -15.0705349  17.7057981
 -13.0912483 -16.4781690  19.3326247 -14.0003824 -16.7644310  19.8614264
 -12.8225362 -17.5380182  18.2503927 -11.9652593 -17.2477078  17.6430237
 -12.5890410 -18.4805763  18.7455344 -14.0514410 -17.7530825  17.3549175
 -14.9266315 -17.8349030  17.9994690 -14.1875315 -16.9066048  16.6818249
 -13.9538038 -19.0466547  16.5471601 -13.6317682 -19.8312473  17.2318542
 -14.9453986 -19.3018687  16.1733866 -13.0064726 -18.9585459  15.4219079
 -12.6580071 -18.0412710  15.1825917 -12.5360632 -19.9931943  14.7436166
 -12.9561603 -21.2080550  14.9021757 -13.6494100 -21.4442229  15.5976856
 -12.4383187 -21.9898486  14.5270228 -11.5879989 -19.8389590  13.8702357
 -11.2135386 -20.6977987  13.4930325 -11.1908412 -18.9370728  13.6489749
 -11.9874299 -16.4961052  20.4041529 -11.8489563 -17.4835408  21.1184001
 -11.2295949 -15.4075670  20.5532598 -11.4325202 -14.6195018  19.9550331
 -10.2586138 -15.1909792  21.6298246 -10.2984846 -16.0273957  22.3276210
  -8.8582647 -15.1709890  21.0030079  -8.7627381 -14.3024135  20.3514314
  -8.1064075 -15.1267684  21.7909503  -8.7032497 -16.0795116  20.4210639
 -10.5675364 -13.9139605  22.4508858  -9.6649218 -13.3247995  23.0516386
 -11.8414593 -13.4986615  22.4782681 -12.4931943 -13.9922249  21.8851924
 -12.3527431 -12.2900844  23.1350040 -11.5982485 -11.9189644  23.8286233
 -12.5868571 -11.2093449  22.0622706 -11.6280627 -11.0298777  21.5758514
 -13.2706332 -11.6036248  21.3105464 -13.1131709  -9.8317307  22.4938703
 -13.0110645  -9.1898751  21.6188312 -14.5863271  -9.7766119  22.8993368
 -14.7438407 -10.2057350  23.8888526 -14.9152792  -8.7378663  22.9292941
 -15.1944494 -10.3120315  22.1702194 -12.2465062  -9.2453885  23.6008358
 -11.1967349  -9.3110198  23.3148789 -12.5119865  -8.1986195  23.7488031
 -12.4089670  -9.7897547  24.5310903 -13.6166179 -12.5784874  23.9514136
 -13.6693132 -12.1959662  25.1174664 -14.6030903 -13.2775676  23.3790421
 -14.4982040 -13.5471845  22.4113584 -15.9511626 -13.4279764  23.9454603
 -16.4051890 -12.4398255  24.0197349 -16.7807651 -14.2442608  22.9511285
 -16.3733387 -15.2490234  22.8390741 -17.8140736 -14.3081808  23.2921362
 -16.7727983 -13.7478650  21.9807529 -15.9981883 -14.0473604  25.3588605
 -16.9287527 -13.7962139  26.1193800 -14.9788404 -14.8339307  25.7368946
 -14.2671323 -15.0089276  25.0419497 -14.7754765 -15.3487563  27.1091652
 -15.4416454 -14.8093069  27.7824497 -15.1642346 -16.8431067  27.1872926
 -14.4307935 -17.4362159  26.6410446 -15.1426315 -17.1498024  28.2330322
 -16.5667999 -17.1317744  26.6136384 -17.2860837 -16.4186800  27.0164132
 -16.5336967 -17.0037079  25.5316925 -17.0577192 -18.5581470  26.8999863
 -17.8260922 -18.7995481  26.1655259 -16.2360501 -19.2596257  26.7554593
 -17.6627970 -18.6783636  28.2447028 -18.4588540 -18.0811656  28.4171772
 -17.3439825 -19.5171070  29.2161942 -16.3343251 -20.3375888  29.1334915
 -15.7771325 -20.3414583  28.2911038 -16.1279309 -20.9788060  29.8860455
 -18.0503619 -19.5486176  30.3104305 -18.8619578 -18.9558792  30.4107833
 -17.8246129 -20.2027941  31.0460854 -13.3583522 -15.0553596  27.6392889
 -12.8046000 -15.8244979  28.4184790 -12.7475512 -13.9602900  27.1787572
 -13.2892382 -13.3457172  26.5880108 -11.4207685 -13.4928358  27.6058626
 -10.7398498 -14.3439400  27.6143742 -10.8799601 -12.4588621  26.6070080
 -10.7495308 -12.9396415  25.6375027 -11.5957761 -11.6430271  26.5063953
  -9.6368808 -11.9188106  27.0266676  -9.7995508 -11.3397956  27.7749276
 -11.4353967 -12.8625965  29.0001988 -12.3020053 -12.0513189  29.3113875
 -10.3727341 -13.1107259  29.7718048  -9.7275555 -13.8229644  29.4610691
  -9.9728113 -12.2523844  30.8910131 -10.8580458 -11.9391060  31.4444733
  -9.3322974 -12.8216708  31.5646267  -9.2276257 -10.9933293  30.4128838
  -9.5167518 -10.4419661  29.3482637  -8.2153428 -10.5621719  31.1745167
  -8.0338085 -11.0841310  32.0199180  -7.5277758  -9.2601985  31.0588288
  -8.2455200  -8.4869450  31.3327312  -6.4090335  -9.2470044  32.1240807
  -6.8829769  -9.4585842  33.0825758  -5.7075387 -10.0581598  31.9290614
  -5.6299913  -7.9185694  32.2550631  -6.2552941  -7.0891786  31.9245982
  -5.2477479  -7.6721811  33.7153101  -4.6294937  -8.4872627  34.0914798
  -4.6971303  -6.7355919  33.8031840  -6.1471540  -7.5948989  34.3262100
  -4.3271768  -7.9351628  31.4475417  -4.5337832  -8.0881053  30.3882861
  -3.8201857  -6.9772583  31.5636396  -3.6713699  -8.7272340  31.8089819
  -7.0205146  -8.8842034  29.6456718  -6.9312769  -7.7050459  29.3127918
  -6.7353988  -9.8553348  28.7710977  -6.9039679 -10.8083260  29.0600467
  -6.2614942  -9.5974851  27.3951292  -5.5553985  -8.7691092  27.4527645
  -5.4577994 -10.8058143  26.8733764  -4.7318727 -11.0896683  27.6353192
  -6.3117683 -12.0274901  26.5391493  -7.0318967 -11.7972040  25.7539845
  -5.6680465 -12.8405821  26.2035823  -6.8514109 -12.3581398  27.4265933
  -4.7456595 -10.4659760  25.7027459  -5.4218030 -10.2466238  25.0575137
  -7.3669189  -9.1396838  26.4124441  -7.0950162  -9.0130025  25.2169347
  -8.5783154  -8.8346386  26.8991089  -8.7174839  -8.9885443  27.8875685
  -9.7685772  -8.4215420  26.1308932 -10.1137149  -9.2684543  25.5378318
 -10.8668840  -8.0740160  27.1571350 -11.0562670  -8.9542818  27.7714372
 -10.5044842  -7.2894990  27.8214407 -12.1868575  -7.6174897  26.5850711
 -12.4158633  -6.4135087  25.9078693 -13.7364388  -6.3912022  25.6550980
 -14.2529833  -5.5890542  25.1489925 -14.3305004  -7.4997056  26.1284328
 -15.3182089  -7.7051622  26.0802412 -13.3703136  -8.2806939  26.7281914
 -13.5227227  -9.2219919  27.2352719  -9.5101732  -7.2646892  25.1441216
  -9.4288188  -7.4760413  23.9310074  -9.2832202  -6.0350829  25.6328654
  -9.4245344  -5.8892953  26.6222477  -9.0878099  -4.8707494  24.7441530
  -9.8746759  -4.9264619  23.9919305  -9.2599624  -3.5468191  25.5159736
  -9.9100238  -3.7027055  26.3769150  -8.2872528  -3.2277957  25.8903551
  -9.8648280  -2.4161509  24.6567607  -9.6726602  -1.4680213  25.1589775
  -9.3754321  -2.3887476  23.6831880 -11.3865829  -2.5580204  24.4684815
 -11.6042924  -3.5205427  24.0056062 -11.8631279  -2.5506485  25.4487610
 -11.9492602  -1.4476731  23.6644745 -12.0250595  -0.5476245  24.1164303
 -12.4091148  -1.4938237  22.4216962 -12.4449921  -2.5976673  21.7400885
 -12.2558498  -3.4849799  22.1839237 -12.8447986  -2.6181787  20.8128071
 -12.8487670  -0.4207971  21.8380332 -12.9513490   0.4628027  22.3163843
 -13.1892574  -0.4918054  20.8898044  -7.7696586  -4.9469602  23.9596319
  -7.7007890  -4.4513592  22.8371978  -6.7533660  -5.6338912  24.5074606
  -6.9213474  -6.0138285  25.4280734  -5.5197418  -6.0365349  23.7974358
  -5.0116271  -5.1368308  23.4503722  -4.5720658  -6.7730522  24.7759819
  -4.1604477  -6.0312086  25.4603362  -5.1463777  -7.4799860  25.3747392
  -3.4082106  -7.5447345  24.1224909  -3.8137296  -8.3787572  23.5497236
  -2.8641534  -6.8788213  23.4526682  -2.4407452  -8.0994642  25.1848030
  -2.0264556  -7.2604305  25.7438087  -2.9909739  -8.7175274  25.8942723
  -1.3191229  -8.8640881  24.5942330  -0.6372310  -8.3446324  24.0601063
  -1.0147177 -10.1435983  24.7560477  -1.8038534 -11.0197353  25.3071880
  -2.7536893 -10.7706439  25.5435491  -1.5044615 -11.9842803  25.3181052
   0.1297515 -10.5740035  24.3194628   0.7065374  -9.9747592  23.7464666
   0.4388489 -11.5216720  24.4822216  -5.8463842  -6.8262005  22.5222206
  -5.3543651  -6.4645004  21.4550805  -6.7143595  -7.8430194  22.6065898
  -7.0922714  -8.0742270  23.5142398  -7.2237420  -8.5843545  21.4412069
  -6.3666338  -8.9461976  20.8732867  -8.0484390  -9.7992426  21.9124031
  -7.5068599 -10.3237462  22.6996064  -8.9860141  -9.4487441  22.3439169
  -8.3869946 -10.7970250  20.7907081  -9.0766543 -11.5395653  21.1920834
  -8.9141548 -10.2672088  19.9972987  -7.1824139 -11.5384781  20.1829147
  -7.5546622 -12.1903253  19.3925822  -6.4919364 -10.8264828  19.7308064
  -6.4502448 -12.4096870  21.2095976  -5.9972841 -11.7664981  21.9640756
  -7.1833491 -13.0466807  21.7044735  -5.4051954 -13.2386065  20.5589628
  -4.7021103 -12.6513517  20.1336360  -4.9516523 -13.8320017  21.2388754
  -5.8045715 -13.8270211  19.8417652  -7.9991949  -7.6703680  20.4852343
  -7.7086997  -7.6565295  19.2939782  -8.9137614  -6.8350446  20.9821296
  -9.1468835  -6.9060898  21.9622874  -9.6937287  -5.9411663  20.1109457
 -10.0565255  -6.5526450  19.2847669 -10.9349155  -5.3969431  20.8348012
 -10.6273973  -4.9651980  21.7872334 -11.3677514  -4.6062344  20.2219915
 -12.0224559  -6.4641839  21.0707331 -11.5841925  -7.2912872  21.6292357
 -13.1667662  -5.8753473  21.8943167 -13.6680627  -5.0916713  21.3262868
 -13.8962173  -6.6569924  22.1065235 -12.7946079  -5.4899037  22.8435421
 -12.6128733  -7.0005441  19.7612464 -11.8986213  -7.6485336  19.2532587
 -13.5085011  -7.5874043  19.9650764 -12.8882301  -6.1704922  19.1106367
  -8.8840318  -4.8380113  19.3999469  -9.2547530  -4.4604856  18.2912338
  -7.7450573  -4.3549716  19.9242008  -7.4910951  -4.6157837  20.8663177
  -6.8567556  -3.4732527  19.1268039  -7.5186616  -2.7692342  18.6224842
  -5.9107119  -2.6264891  20.0046587  -6.1393225  -2.8307775  21.0506535
  -4.8719013  -2.9132324  19.8410976  -6.0767078  -1.0991067  19.7896743
  -7.1251947  -0.8623274  19.6088099  -5.8146989  -0.6243015  20.7351971
  -5.2071953  -0.4119679  18.7113631  -5.3781176   0.6616756  18.7899518
  -4.1597000  -0.5981410  18.9484167  -5.4693621  -0.8575816  17.3249686
  -5.7015032  -1.8327649  17.2015619  -5.2868098  -0.1929556  16.1904168
  -5.0017303   1.0788313  16.1441565  -4.9867350   1.6214156  16.9959009
  -4.8696020   1.5584265  15.2651572  -5.3754538  -0.8361433  15.0664973
  -5.5946392  -1.8220469  15.0596964  -5.2373630  -0.3642624  14.1842473
  -6.1489224  -4.2212677  17.9866719  -5.8785528  -3.5995957  16.9567561
  -5.9083909  -5.5308110  18.1125987  -6.1647606  -5.9897161  18.9750266
  -5.5888486  -6.3740075  16.9563997  -4.7977841  -5.8811796  16.3912117
  -5.0171572  -7.7246475  17.3928905  -5.7481343  -8.2970470  17.9639685
  -4.7517991  -8.2929003  16.5013885  -4.1219229  -7.5630218  17.9933333
  -6.7852122  -6.5140486  15.9949934  -6.6029894  -6.3202685  14.7984934
  -8.0077118  -6.7399138  16.4935255  -8.0910248  -6.9742250  17.4724329
  -9.2228276  -6.7709112  15.6624925  -9.1273218  -7.6048326  14.9671113
 -10.4621971  -7.0218861  16.5313077 -10.7503653  -6.1157840  17.0642591
 -11.2942660  -7.3229522  15.8948171 -10.2648544  -7.8123999  17.2553539
  -9.3952537  -5.4858112  14.8312259  -9.6954274  -5.5420065  13.6438274
  -9.1462511  -4.3255690  15.4409814  -9.0224659  -4.3513036  16.4430380
  -9.1288471  -3.0166605  14.7832954 -10.1336741  -2.7915138  14.4259000
  -8.7274945  -1.9496055  15.8090138  -8.2515150  -2.4147050  16.6722763
  -7.9897398  -1.2873824  15.3559387  -9.8318595  -1.0708836  16.2823021
 -10.5994332  -1.2529600  17.3803675 -10.5317903  -2.0838358  18.0670071
 -11.5053773  -0.2151939  17.4821115 -12.2335911  -0.1894772  18.1815088
 -11.3904071   0.6674953  16.4290667 -12.0900285   1.8232632  16.0589182
 -12.8831267   2.2159667  16.6779339 -11.7443359   2.4702698  14.8615050
 -12.2766221   3.3617112  14.5641792 -10.7129169   1.9648658  14.0518117
 -10.4575527   2.4733208  13.1338441 -10.0140631   0.8053722  14.4335306
  -9.2283106   0.4242417  13.7981308 -10.3372276   0.1307580  15.6311727
  -8.2083619  -2.9500672  13.5555124  -8.6168301  -2.3959033  12.5389540
  -6.9861162  -3.5020739  13.6272538  -6.7613840  -4.0680796  14.4330049
  -6.1142403  -3.5892385  12.4392104  -6.2693214  -2.6799512  11.8584812
  -4.6039757  -3.5982171  12.7493525  -4.3518764  -2.6343384  13.1914866
  -4.1669065  -4.6598503  13.7511492  -4.4028789  -5.6580734  13.3824110
  -3.0891114  -4.5742095  13.8894248  -4.6568868  -4.4838181  14.7087657
  -3.7486780  -3.7600937  11.4857626  -4.0546066  -3.0259836  10.7403827
  -2.6940632  -3.6163399  11.7207563  -3.8755864  -4.7553173  11.0597050
  -6.5415561  -4.7179446  11.5066004  -6.6328537  -4.4660348  10.3216219
  -6.8513519  -5.9191543  11.9967747  -6.7736751  -6.0718626  12.9921377
  -7.2721976  -7.0533770  11.1673987  -6.4586872  -7.3073256  10.4878318
  -7.5177181  -8.2465523  12.0962703  -8.3179438  -8.0222398  12.8015506
  -7.8022408  -9.1130555  11.4993453  -6.6079497  -8.4748042  12.6515388
  -8.5102051  -6.7495602  10.2976191  -8.4853995  -6.9250304   9.0828949
  -9.5845628  -6.2473661  10.9122646  -9.5356685  -6.1009830  11.9104040
 -10.8024275  -5.8238977  10.2186894 -11.1576366  -6.6363186   9.5847344
 -11.5787768  -5.5955589  10.9489250 -10.5832636  -4.5902640   9.3436974
 -11.0835958  -4.5315996   8.2279187  -9.8227745  -3.6032081   9.8279107
  -9.4286853  -3.6940429  10.7534063  -9.4240338  -2.4419452   9.0282351
 -10.3150392  -1.9172075   8.6834759  -8.8584965  -1.7625064   9.6659088
  -8.5696477  -2.7990344   7.8017437  -8.7082911  -2.1872179   6.7465585
  -7.6957440  -3.7960914   7.9299337  -7.5824684  -4.2221585   8.8386339
  -6.9233924  -4.3730107   6.8420142  -6.4397216  -3.5536119   6.3102752
  -5.8340710  -5.2909076   7.4077922  -6.2828213  -6.1229312   7.9504329
  -5.2276307  -5.6826377   6.5911663  -5.1902455  -4.7311214   8.0861938
  -7.8266400  -5.0929129   5.8398789  -7.7210325  -4.8340893   4.6493411
  -8.7662780  -5.9214258   6.3045859  -8.7772006  -6.1454070   7.2893780
  -9.7961867  -6.5070623   5.4433352  -9.2942250  -7.1183705   4.6933764
 -10.6715226  -7.4444693   6.2942797  -9.9956018  -8.1430095   6.7875081
 -11.1819696  -6.8782151   7.0733166 -11.7029405  -8.2543528   5.4840481
 -11.3173795  -8.4475428   4.4829887 -11.9499850  -9.6011585   6.1657441
 -12.3202527  -9.4497561   7.1796864 -12.6778007 -10.1753700   5.5924499
 -11.0151231 -10.1609409   6.1935979 -13.0521321  -7.5396550   5.3846216
 -12.9487813  -6.6053045   4.8328915 -13.7573266  -8.1733114   4.8467734
 -13.4478986  -7.3322833   6.3788384 -10.5727255  -5.4188281   4.6737123
 -10.7626033  -5.5489904   3.4696978 -10.9438753  -4.3131369   5.3317559
 -10.8067584  -4.2954677   6.3322496 -11.5019011  -3.1169969   4.6842501
 -12.4072802  -3.4129512   4.1543442 -11.8821216  -2.0636401   5.7470179
 -11.2801456  -2.2145171   6.6430986 -11.6414809  -1.0753777   5.3551888
 -13.3684981  -2.0391259   6.1409879 -13.9566886  -1.7531270   5.2690160
 -13.9128947  -3.3668050   6.6593194 -13.3757031  -3.6741072   7.5565863
 -14.9722385  -3.2496271   6.8877035 -13.8103664  -4.1367626   5.8946276
 -13.5787117  -0.9921302   7.2382480 -13.2557547  -0.0162930   6.8755627
 -14.6365833  -0.9337517   7.4943739 -13.0032814  -1.2588839   8.1247133
 -10.5754530  -2.5212872   3.6055171 -11.0204172  -2.3780087   2.4740076
  -9.3129331  -2.1775894   3.8994747  -8.9829350  -2.3026843   4.8458126
  -8.4155619  -1.5701602   2.8836966  -8.9640850  -0.7490917   2.4221033
  -7.1470362  -0.9527571   3.5109869  -7.4219823  -0.4754972   4.4515860
  -6.0180318  -1.9376697   3.7845883  -5.5426884  -2.2457479   2.8533325
  -5.2796412  -1.4598371   4.4284472  -6.4079195  -2.8171134   4.2970926
  -6.5965182   0.0234470   2.6585397  -5.6740957   0.1392379   2.8980076
  -8.0888474  -2.5288075   1.7332605  -7.9642355  -2.1136747   0.5827143
  -8.0209845  -3.8318774   2.0152916  -8.1219059  -4.1197139   2.9781353
  -7.9091114  -4.8738828   1.0020556  -7.0759505  -4.6193931   0.3469390
  -7.5891083  -6.2221593   1.6695403  -8.3478266  -6.4207262   2.4265197
  -7.6584613  -7.0057148   0.9150014  -6.1863351  -6.2773132   2.3134360
  -5.9765285  -5.3443676   2.8365925  -6.1008400  -7.4118900   3.3352056
  -6.2155384  -8.3767349   2.8412244  -5.1380265  -7.3695105   3.8444141
  -6.8934065  -7.3026723   4.0754822  -5.0859982  -6.4873028   1.2711523
  -5.0628984  -5.6417418   0.5836990  -4.1163659  -6.5560168   1.7642964
  -5.2700764  -7.4005926   0.7053638  -9.1492009  -4.9310341   0.0972386
  -8.9861095  -4.8890680  -1.1126558 -10.3723085  -4.9939549   0.6345333
 -10.4581416  -5.0344199   1.6400675 -11.6050839  -5.0671947  -0.1731627
 -11.4316225  -5.7606918  -0.9960075 -12.7605808  -5.6330699   0.6775242
 -12.6672006  -5.2873188   1.7070077 -13.6962318  -5.2326924   0.2871966
 -12.8819418  -7.1698302   0.6413797 -13.0753565  -7.4779987  -0.3861040
 -11.6457331  -7.9239190   1.1384498 -11.4178503  -7.6337254   2.1640988
 -11.8308496  -8.9973986   1.1000747 -10.7914507  -7.7016234   0.4990075
 -14.0728009  -7.5986153   1.5006754 -14.9823511  -7.1312624   1.1233144
 -14.1929030  -8.6809427   1.4533088 -13.9133763  -7.2933251   2.5348324
 -12.0080733  -3.7422159  -0.8532399 -12.6587629  -3.7805438  -1.8933506
 -11.6427386  -2.5873008  -0.2894782 -11.1760712  -2.6352465   0.6049633
 -11.9926631  -1.2553532  -0.8079783 -12.9548573  -1.3129854  -1.3168608
 -12.1251833  -0.2968665   0.4001054 -12.6461744  -0.8418847   1.1872659
 -11.1336553  -0.0569066   0.7840215 -12.9135501   1.0094550   0.1846371
 -13.9104939   0.7565911  -0.1762811 -13.0562818   1.7417747   1.5230021
 -12.0746231   2.0516711   1.8813471 -13.6880028   2.6206014   1.3938053
 -13.5208821   1.0877199   2.2608756 -12.2713578   1.9949274  -0.7873876
 -11.2312233   2.1783753  -0.5180063 -12.3269761   1.6002034  -1.8018804
 -12.8212082   2.9360771  -0.7880402 -10.9526098  -0.7636811  -1.8266767
 -11.2971532  -0.3194996  -2.9220930  -9.6764010  -0.8181562  -1.4447320
  -9.4597220  -1.2259877  -0.5464977  -8.5869557  -0.1514074  -2.1444418
  -9.0165770   0.6739079  -2.7122268  -7.5988877   0.4705486  -1.1358719
  -6.9402909  -0.2960177  -0.7275512  -6.9884306   1.2056701  -1.6603127
  -8.4495932   1.2679800   0.2635763  -7.5886643   0.8735409   1.2059784
  -7.9308861  -1.0825235  -3.1752527  -8.2526863  -1.0359419  -4.3597388
  -6.9498175  -1.8860599  -2.7517787  -6.7636454  -1.9286622  -1.7599998
  -6.1221343  -2.6967722  -3.6657497  -5.8481902  -2.0612422  -4.5078638
  -4.7979805  -3.1391519  -3.0094683  -4.1883224  -3.6243778  -3.7716839
  -4.0159816  -1.9264500  -2.4863596  -4.5242238  -1.4684463  -1.6378182
  -3.0216897  -2.2451858  -2.1734841  -3.9089885  -1.1925223  -3.2851097
  -4.9864155  -4.1219893  -1.8488586  -5.4618341  -5.0337803  -2.2104023
  -4.0109956  -4.3884060  -1.4418222  -5.5942702  -3.6700305  -1.0650567
  -6.8701178  -3.8854742  -4.2803869  -6.5720803  -4.2780438  -5.4015744
  -7.8677636  -4.4480321  -3.5985699  -8.0952823  -4.0954104  -2.6798779
  -8.5746557  -5.6552422  -4.0323585  -7.8298515  -6.4385504  -4.1730481
  -9.2795068  -5.9762263  -3.2653823  -9.3334764  -5.5390787  -5.3476518
  -9.1767275  -6.4300114  -6.1770147 -10.0998390  -4.4655842  -5.6046289
 -10.6610465  -3.5536963  -4.6212935  -9.9476564  -2.7602875  -4.3984145
 -10.9381878  -4.0772021  -3.7062886 -11.8956196  -2.9584882  -5.2927560
 -12.1363699  -1.9718781  -4.8968527 -12.7417803  -3.6355612  -5.1757723
 -11.4660323  -2.9074574  -6.7609447 -10.8045638  -2.0544645  -6.9124746
 -12.3212099  -2.8616211  -7.4352378 -10.6821752  -4.2132655  -6.9190830
 -11.3824427  -5.0174588  -7.1449155  -9.6253979  -4.1657794  -8.0329317
  -9.8243254  -4.7619617  -9.0881282  -8.4754962  -3.5243365  -7.7897286
  -8.3624268  -3.0805424  -6.8895274  -7.2954190  -3.6012742  -8.6609244
  -7.5913799  -3.2662278  -9.6550328  -6.2218708  -2.6182818  -8.1513679
  -6.4279765  -1.6396493  -8.5848397  -6.3176024  -2.4881047  -7.0734119
  -4.7766668  -2.9668227  -8.4591275  -4.2661318  -2.7424628  -9.7498560
  -4.9196595  -2.3735963 -10.5265391  -2.9068699  -2.9814520 -10.0229657
  -2.4989158  -2.7974054 -11.0058689  -2.0552836  -3.4547722  -9.0037924
  -0.7349662  -3.6174411  -9.2650324  -0.2901155  -4.1690850  -8.6174220
  -2.5712669  -3.7154433  -7.7174115  -1.9197986  -4.0702233  -6.9324785
  -3.9318901  -3.4706318  -7.4481297  -4.3191829  -3.6571154  -6.4573568
  -6.7734438  -5.0408119  -8.8477504  -6.6136152  -5.4825729  -9.9860567
  -6.5416902  -5.7998109  -7.7746385  -6.6655618  -5.3850234  -6.8621081
  -5.9818035  -7.1510935  -7.8584391  -5.1118052  -7.1181631  -8.5142738
  -5.5244720  -7.6003468  -6.4559752  -6.3025624  -7.3943925  -5.7209527
  -5.3453261  -8.6755091  -6.4615846  -4.2371055  -6.9277245  -6.0156316
  -4.1580525  -6.2521809  -5.0052011  -3.1737265  -7.0844573  -6.7675167
  -2.3483108  -6.5698564  -6.4955473  -3.2137528  -7.6434535  -7.6077706
  -6.9477940  -8.1555665  -8.5077512  -6.5784919  -8.8072371  -9.4807762
  -8.1958485  -8.2375187  -8.0445927  -8.4577930  -7.6376754  -7.2753876
  -9.2309421  -9.1025406  -8.6124176  -8.8975430 -10.1371825  -8.5320216
 -10.5140984  -8.9444852  -7.7880543 -10.8758080  -7.9180586  -7.8490031
 -11.2809813  -9.6160102  -8.1741184 -10.3169286  -9.1931266  -6.7452687
  -9.4702107  -8.8164109 -10.1044846  -9.5344681  -9.7476488 -10.9062791
  -9.5288301  -7.5354654 -10.4891932  -9.4975919  -6.8145990  -9.7824550
  -9.5386022  -7.1171415 -11.8941593 -10.4527295  -7.4800408 -12.3640275
  -9.5310169  -5.5938864 -11.9837308 -10.4680538  -5.1973450 -11.5928137
  -8.6997229  -5.1909631 -11.4051950  -9.3748361  -5.2079505 -13.3255827
 -10.1776946  -4.7441587 -13.5744452  -8.3566356  -7.6797056 -12.6869285
  -8.5487354  -8.2536000 -13.7558591  -7.1273053  -7.5457364 -12.1844685
  -7.0166337  -7.1025217 -11.2836838  -5.9339887  -8.0026722 -12.8987861
  -6.0542160  -7.7320033 -13.9477777  -4.7124374  -7.2151589 -12.3898065
  -4.7132987  -7.1772915 -11.3004649  -3.7985742  -7.7206504 -12.7019417
  -4.6698183  -5.8069825 -12.9705083  -4.1139349  -5.5417705 -14.0282631
  -5.2549338  -4.8364288 -12.3171794  -5.3050798  -3.9234665 -12.7462196
  -5.7348883  -5.0526196 -11.4551997  -5.7815540  -9.5445371 -12.9221892
  -5.2117795 -10.0607264 -13.8798046  -6.3840634 -10.2911806 -11.9824815
  -6.7723781  -9.8144269 -11.1812198  -6.6244239 -11.7479420 -12.1252978
  -5.6827956 -12.2276914 -12.3922729  -7.1375626 -12.3978972 -10.8178580
  -8.0418557 -11.8825746 -10.4941380  -7.4747896 -13.8882720 -10.9662843
  -6.5817881 -14.4462121 -11.2479770  -7.8467327 -14.2779744 -10.0187135
  -8.2496434 -14.0424359 -11.7172408  -6.1048949 -12.2897542  -9.6983194
  -5.9480917 -11.2359130  -9.4682604  -6.4713281 -12.7792060  -8.7959540
  -5.1637381 -12.7464581 -10.0044990  -7.6086956 -12.0292056 -13.2650852
  -7.2914648 -12.7635694 -14.2011964  -8.8063943 -11.4381814 -13.2019579
  -9.0050220 -10.8339810 -12.4173605  -9.8710042 -11.6410983 -14.1860259
 -10.1200688 -12.7019739 -14.2107344 -11.1128175 -10.8730638 -13.7219501
 -10.8872485  -9.8092622 -13.6474955 -11.9231915 -11.0210848 -14.4357324
 -11.4296603 -11.2379861 -12.7449429  -9.4447106 -11.2460697 -15.6117129
  -9.7833717 -11.9372833 -16.5652430  -8.6298019 -10.1969981 -15.7488930
  -8.4188122  -9.6745628 -14.9106526  -8.0654722  -9.7119743 -17.0180273
  -8.8843679  -9.4827187 -17.6999009  -7.2602189  -8.4269887 -16.7931056
  -6.4340776  -8.6296672 -16.1115539  -6.8500549  -8.0925006 -17.7459872
  -8.0695963  -7.3941231 -16.2649322  -8.3307695  -7.6335275 -15.3726947
  -7.1556568 -10.7211697 -17.7297318  -6.8706131 -10.5218220 -18.9066088
  -6.7097235 -11.7793310 -17.0431626  -6.9590926 -11.8514800 -16.0670936
  -5.9569603 -12.8960562 -17.6231062  -5.6827676 -12.6533973 -18.6497688
  -4.6595883 -13.0647433 -16.8131924  -4.1765970 -12.0909357 -16.7324543
  -4.9188721 -13.3780611 -15.8019042  -3.6287349 -14.0237689 -17.3852146
  -3.1141382 -13.8276851 -18.6830807  -3.4791777 -13.0172276 -19.2965186
  -2.1119693 -14.6805143 -19.1837764  -1.7266096 -14.5459235 -20.1836681
  -1.5980387 -15.7120371 -18.3822656  -0.8241759 -16.3621545 -18.7629056
  -2.1023799 -15.9051144 -17.0871246  -1.7164810 -16.7062938 -16.4742672
  -3.1240183 -15.0751138 -16.5954244  -3.5139665 -15.2554333 -15.6045532
  -6.8039131 -14.1832685 -17.6829779  -6.8426180 -14.8388135 -18.7191308
  -7.5365496 -14.5156050 -16.6081774  -7.4464953 -13.9391375 -15.7837534
  -8.3934963 -15.7128024 -16.5209842  -7.7857715 -16.5706992 -16.8087053
  -8.8189393 -15.8881378 -15.0501943  -7.9205382 -15.9362209 -14.4348395
  -9.3809152 -15.0035810 -14.7504568  -9.6840554 -17.1318185 -14.7594774
 -10.5973864 -17.0935094 -15.3531611  -8.9457679 -18.4388697 -15.0553083
  -8.0035758 -18.4754705 -14.5084667  -9.5659852 -19.2871976 -14.7658801
  -8.7444574 -18.5178733 -16.1236393 -10.0819039 -17.1342671 -13.2816303
 -10.6298935 -16.2219369 -13.0461311 -10.7283974 -17.9888093 -13.0818737
  -9.1927803 -17.2007334 -12.6546204  -9.6133608 -15.7009387 -17.4685431
  -9.9460274 -16.7219687 -18.0640042 -10.2691627 -14.5475292 -17.6194632
  -9.9196029 -13.7439239 -17.1173406 -11.3607454 -14.3007112 -18.5682416
 -11.3950253 -15.1033545 -19.3049157 -12.7219164 -14.2765033 -17.8413427
 -12.6652324 -13.5595894 -17.0222437 -13.4694934 -13.8994873 -18.5392594
 -13.2438838 -15.6075144 -17.3096752 -13.6070371 -16.6389394 -18.2029212
 -13.4444237 -16.5148878 -19.2633784 -14.1683650 -17.8415358 -17.7204919
 -14.4373631 -18.6382520 -18.3981979 -14.3676972 -18.0217421 -16.3353491
 -14.9341953 -19.1610813 -15.8531034 -15.0762999 -19.8293185 -16.5275574
 -13.9966536 -16.9938815 -15.4417956 -14.1375613 -17.1512389 -14.3826532
 -13.4396446 -15.7918572 -15.9255338 -13.1600070 -15.0119388 -15.2327633
 -11.0675728 -12.9740584 -19.3061376 -11.6392851 -11.9298756 -18.9766729
 -10.1654875 -12.9759896 -20.3072333  -9.5243490 -14.1569591 -20.8757567
 -10.2558124 -14.8287749 -21.3248944  -8.9641213 -14.6823084 -20.1022887
  -8.5565811 -13.6450863 -21.9404697  -9.0752053 -13.5416305 -22.8935838
  -7.6877910 -14.2955732 -22.0413160  -8.1746703 -12.2681499 -21.4036655
  -7.8116155 -11.6064286 -22.1900606  -7.4075943 -12.3939300 -20.6395483
  -9.4725490 -11.7660820 -20.7523370  -9.2039394 -11.1614466 -19.8861003
 -10.3393459 -10.9028804 -21.6842699 -10.2732015 -10.9987605 -22.9061151
 -11.1842620 -10.0516164 -21.0925698 -11.3101351 -10.1802623 -20.0987339
 -12.0759094  -9.1126859 -21.7979646 -11.4879453  -8.6198312 -22.5722337
 -13.2032740  -9.8846865 -22.5205064 -13.9097106  -9.1813815 -22.9614258
 -12.7738369 -10.4581082 -23.3420110 -13.9671218 -10.8304822 -21.6162491
 -14.8999691 -10.4509723 -20.9311056 -13.6096394 -12.0921290 -21.5977645
 -14.0814376 -12.6861298 -20.9309340 -12.8147376 -12.3917627 -22.1440673
 -12.5972092  -7.9732198 -20.8871055 -13.6685812  -7.4021894 -21.1100817
 -11.8119419  -7.5847054 -19.8763180 -10.9233856  -8.0488932 -19.7534478
 -12.1146321  -6.4516991 -18.9965641 -13.1923831  -6.3870430 -18.8469934
 -11.4652121  -6.6651869 -17.6117074 -10.4669869  -7.0875496 -17.7268493
 -11.3467288  -5.6873333 -17.1449482 -12.3003519  -7.5348800 -16.6508865
 -13.3168149  -7.1426922 -16.6178226 -12.3604250  -9.0108854 -17.0499754
 -11.3557076  -9.4226938 -17.1451330 -12.9049885  -9.5775890 -16.2947285
 -12.8921020  -9.1308540 -17.9939175 -11.7187667  -7.4436951 -15.2413213
 -11.6962194  -6.4045948 -14.9128973 -12.3381972  -8.0149323 -14.5498765
 -10.7041442  -7.8419626 -15.2365935 -11.6719115  -5.1366806 -19.6657062
 -10.5519879  -4.6671417 -19.4802260 -12.5747991  -4.5442948 -20.4553890
 -13.4261501  -5.0526661 -20.6473780 -12.3865080  -3.2273769 -21.0813618
 -11.5669572  -3.2979745 -21.7965221 -13.2946694  -2.9534119 -21.6182828
 -12.0660818  -2.1100523 -20.0747418 -12.4537802  -2.2022618 -18.9109826
 -11.3943017  -1.0480157 -20.5479169 -11.1970961  -1.0574640 -21.5384316
 -10.6477129  -0.0409527 -19.7646153  -9.6101207  -0.3660011 -19.6881568
 -10.6594098   0.9034360 -20.3087616 -11.1503947   0.2431050 -18.3453345
 -10.4156697  -0.0112247 -17.3886657 -12.4043298   0.6858694 -18.2050002
 -12.8511071   1.0691281 -19.0257359 -13.1500018   0.8438408 -16.9470155
 -12.9577279   1.8394913 -16.5472519 -14.6514499   0.7122908 -17.2415304
 -14.9612832   1.5064701 -17.9207802 -14.8472953  -0.2399381 -17.7344859
 -15.4236186   0.7865402 -16.0532832 -15.6228530  -0.1015006 -15.7478356
 -12.7956676  -0.1897669 -15.8839309 -12.4201226   0.1484320 -14.7642052
 -12.9313469  -1.4654599 -16.2287199 -13.1211042  -1.6801175 -17.1972334
 -12.9494381  -2.5745517 -15.2844822 -13.4895587  -2.2441891 -14.3972230
 -13.7685990  -3.7161794 -15.9009933 -13.1731462  -4.1935855 -16.6792095
 -13.9869678  -4.4588530 -15.1336277 -15.0617266  -3.2373002 -16.5085053
 -15.4386806  -3.3977309 -17.7992713 -14.8711121  -3.9288008 -18.5490930
 -16.6469538  -2.7607366 -18.0135155 -17.2406042  -2.8857294 -18.8210237
 -17.0869446  -2.1185590 -16.8846345 -18.2145262  -1.3301073 -16.6294420
 -18.9211714  -1.1389057 -17.4234784 -18.4332681  -0.8471917 -15.3324330
 -19.3304408  -0.2869564 -15.1142156 -17.4993014  -1.1329554 -14.3199396
 -17.6696742  -0.7648552 -13.3190012 -16.3605392  -1.9191760 -14.5925307
 -15.6726027  -2.1517634 -13.7931263 -16.1249578  -2.4434736 -15.8847952
 -11.5559077  -2.9577222 -14.7768009 -11.4598823  -3.6709630 -13.7812006
 -10.4850566  -2.4058807 -15.3708768 -10.6626010  -1.8819140 -16.2158859
  -9.1725874  -2.2306783 -14.7205019  -9.0871835  -2.9284912 -13.8875186
  -8.0396724  -2.5773874 -15.7104337  -8.0959445  -3.6393899 -15.9493589
  -8.1671900  -2.0069687 -16.6304684  -6.6572797  -2.2629839 -15.1171577
  -6.5829676  -1.1783046 -15.0393879  -6.5809333  -2.6920587 -14.1180754
  -5.4684430  -2.7548730 -15.9541845  -5.2434701  -3.7919024 -15.7050705
  -5.7345581  -2.7051851 -17.0100331  -4.3128234  -1.8653178 -15.7308507
  -4.4705302  -0.9001592 -15.9832549  -3.1075904  -2.1059272 -15.2593827
  -2.7047136  -3.2876730 -14.8763371  -3.3791098  -4.0369692 -14.8142695
  -1.8158901  -3.3807063 -14.4057739  -2.2660767  -1.1216939 -15.1355469
  -2.5860372  -0.1793486 -15.3079534  -1.3001084  -1.2581326 -14.8740458
  -9.0342033  -0.8530640 -14.0609920  -8.7233782  -0.7786331 -12.8718853
  -9.2599946   0.2359271 -14.8016870  -9.5683485   0.0890197 -15.7521808
  -8.9742821   1.6194059 -14.3728566  -7.9126704   1.6874619 -14.1352630
  -9.2547047   2.5952807 -15.5279887 -10.2309978   2.3775510 -15.9610546
  -9.2715997   3.6112466 -15.1334906  -8.1599528   2.5060812 -16.6105640
  -7.2286046   2.9070273 -16.2106454  -7.9909325   1.4614792 -16.8719816
  -8.5207671   3.2564157 -17.9003370  -7.7051532   3.1360567 -18.6133504
  -9.4130474   2.7948689 -18.3233154  -8.7769300   4.7528327 -17.6753783
  -9.5119846   4.8604766 -16.8777514  -7.8504622   5.2372789 -17.3670423
  -9.3100321   5.3871948 -18.9019167 -10.1179421   4.8657930 -19.2110002
  -9.6168834   6.3317317 -18.7180936  -8.6082518   5.4294044 -19.6270561
  -9.6970785   2.0342465 -13.0872166  -9.0472943   2.5745708 -12.1985865
 -10.9883845   1.7310636 -12.9253292 -11.4663196   1.2560043 -13.6776602
 -11.7330754   1.9941445 -11.6809332 -11.6720593   3.0594295 -11.4583492
 -13.2264042   1.6347599 -11.8395221 -13.3340681   0.7491583 -12.4657953
 -13.6160934   1.3766144 -10.8548379 -14.1117358   2.7772468 -12.3797202
 -14.0772223   3.6044410 -11.6707349 -13.6923921   3.3082259 -13.7500358
 -13.7270904   2.5013918 -14.4820964 -14.3865120   4.0918985 -14.0536058
 -12.6885355   3.7306315 -13.7059319 -15.5600166   2.2967787 -12.4884856
 -15.9134841   1.9542822 -11.5159345 -16.1965704   3.1171718 -12.8199303
 -15.6309521   1.4805542 -13.2074046 -11.1062670   1.2708816 -10.4759276
 -11.0495162   1.8449010  -9.3898380 -10.5706584   0.0605606 -10.6746960
 -10.6105196  -0.3283704 -11.6059554  -9.7758722  -0.6585177  -9.6754205
 -10.3958333  -0.8571086  -8.8011730  -9.4557148  -1.6136989 -10.0916278
  -8.5305339   0.1150977  -9.2277217  -8.2867211   0.2597085  -8.0323941
  -7.7553296   0.6619930 -10.1708722  -8.0145901   0.5285484 -11.1378670
  -6.6066217   1.5253980  -9.8569590  -5.9956700   1.0264104  -9.1047287
  -5.7336688   1.7729513 -11.0981798  -6.3534904   2.0865057 -11.9381833
  -5.0742340   2.6072070 -10.8588827  -4.8365590   0.5947250 -11.5080321
  -4.4257951   0.1096926 -10.6225288  -5.5657136  -0.4350027 -12.3654413
  -6.0020328   0.0638314 -13.2308269  -4.8654580  -1.1972481 -12.7070892
  -6.3535297  -0.9164690 -11.7861021  -3.6822531   1.1445590 -12.3365617
  -3.0193201   1.7418243 -11.7105472  -3.1101987   0.3252573 -12.7719867
  -4.0780279   1.7522417 -13.1503081  -7.0091313   2.8772014  -9.2474037
  -6.1999911   3.4795019  -8.5431123  -8.2062495   3.3867830  -9.5455056
  -8.7632990   2.8996241 -10.2328730  -8.7358564   4.6391287  -8.9859295
  -7.9445279   5.3887272  -8.9869964  -9.8773593   5.1893836  -9.8751146
 -10.5800509   4.3792489 -10.0700617 -10.6472898   6.3277704  -9.1922122
  -9.9727738   7.1625620  -9.0018106 -11.4596236   6.6717213  -9.8324537
 -11.0863221   5.9874707  -8.2543713  -9.3120867   5.7101405 -11.2195754
  -8.8233918   6.6707867 -11.0569823  -8.5539353   5.0222605 -11.5939105
 -10.3616738   5.8774394 -12.3259902 -11.0806727   6.6524339 -12.0604253
  -9.8632210   6.1713094 -13.2497239 -10.8838487   4.9353978 -12.4932933
  -9.1121191   4.4361562  -7.5111550  -8.6014116   5.1518530  -6.6524965
  -9.9189365   3.4185526  -7.1812844 -10.2993631   2.8419065  -7.9180747
 -10.2195847   3.0758417  -5.7736248 -10.5421543   3.9939913  -5.2826560
 -11.4035273   2.1010853  -5.6733662 -12.2104931   2.4857825  -6.2969965
 -11.1041582   0.6713703  -6.1028236 -10.3584778   0.2172055  -5.4502946
 -12.0248532   0.0892183  -6.0638350 -10.7328534   0.6676074  -7.1276236
 -11.8744016   2.0370838  -4.3531922 -11.5850627   1.2056649  -3.9702576
  -8.9789975   2.6029837  -4.9982065  -8.8546002   2.8627095  -3.8009098
  -7.9803336   2.0462768  -5.6958699  -8.1713879   1.7606002  -6.6456014
  -6.6516143   1.7388259  -5.1570892  -6.7275727   0.9165917  -4.4455707
  -6.0060316   1.4185095  -5.9748417  -5.9721732   2.9128966  -4.4442102
  -5.2411914   2.6944432  -3.4790212  -6.2371403   4.1549698  -4.8606145
  -6.8872255   4.2806464  -5.6233054  -5.6795043   5.3577530  -4.2427471
  -4.5929837   5.3000766  -4.3079162  -6.1450195   6.5607148  -5.0608695
  -7.2113729   6.7302215  -4.9116716  -5.5887848   7.4464840  -4.7540867
  -5.9639603   6.3674521  -6.1182082  -6.0404700   5.5240160  -2.7525857
  -5.2197254   6.0130692  -1.9728252  -7.2283763   5.0719470  -2.3259242
  -7.8553081   4.6453851  -2.9930863  -7.6733887   5.1556361  -0.9258085
  -7.6012433   6.1981273  -0.6157967  -9.1439480   4.7361156  -0.8089519
  -9.2175913   3.6793604  -1.0657488  -9.4547170   4.8427701   0.2303499
 -10.1239252   5.4881465  -1.6600402 -10.9633529   4.9204621  -2.5541851
 -11.0059571   3.8629889  -2.7694508 -11.7629385   5.8870214  -3.1279430
 -12.4721241   5.6755275  -3.8152754 -11.4899623   7.1376431  -2.6171479
 -12.0352137   8.4078950  -2.8548536 -12.8317654   8.5318023  -3.5735691
 -11.5287495   9.5135611  -2.1510407 -11.9299006  10.5000150  -2.3310082
 -10.4993689   9.3322337  -1.2099535 -10.1162410  10.1852298  -0.6695724
  -9.9658102   8.0491543  -0.9724989  -9.1792792   7.9206514  -0.2436270
 -10.4398227   6.9178134  -1.6743498  -6.7915744   4.3499520   0.0467890
  -6.7974114   4.6198627   1.2496100  -5.9899706   3.4119961  -0.4745655
  -6.0422838   3.2751891  -1.4738898  -4.9504718   2.6699591   0.2517736
  -5.4233265   1.9392934   0.9080023  -4.0966785   1.9168130  -0.7828809
  -4.7496226   1.2962534  -1.3966154  -3.6016229   2.6403284  -1.4306045
  -3.1180644   1.0790347  -0.2101067  -2.5522545   0.7645052  -0.9190034
  -4.1010633   3.6071491   1.1228782  -4.0190631   3.4330311   2.3370266
  -3.5691437   4.6813306   0.5277449  -3.7782946   4.8279959  -0.4494177
  -2.6293713   5.6176937   1.1718401  -1.7680460   5.0451785   1.5160000
  -2.1362793   6.6597843   0.1459942  -2.9666209   7.3074669  -0.1353254
  -1.0179897   7.5217021   0.7282776  -0.1944774   6.8757623   1.0327227
  -0.6656032   8.2208997  -0.0300401  -1.3673200   8.0855662   1.5932189
  -1.5713944   6.0131204  -1.1250638  -2.3495369   5.4727417  -1.6641231
  -1.1792381   6.7831129  -1.7894623  -0.7637130   5.3311247  -0.8592949
  -3.2139465   6.3286877   2.4029481  -2.4975167   6.6001737   3.3649346
  -4.5143676   6.6414130   2.3901582  -5.0569093   6.3442385   1.5917620
  -5.2254009   7.2376841   3.5364440  -4.5169023   7.8811228   4.0580913
  -6.3900107   8.1746125   3.1094676  -5.9620154   9.1749299   3.0440119
  -7.0224094   7.8959006   1.7396925  -7.5403160   6.9369185   1.7546649
  -7.7439594   8.6800933   1.5105481  -6.2672770   7.9085875   0.9537440
  -7.5482965   8.2471758   4.1173115  -7.1724170   8.4852123   5.1123756
  -8.2521182   9.0235811   3.8174310  -8.0763215   7.2942734   4.1529012
  -5.6104022   6.1870402   4.5809838  -5.4300678   6.4155710   5.7781547
  -6.1635756   5.0463009   4.1637471  -6.2588084   4.8854470   3.1711939
  -6.6876078   4.0392601   5.0888032  -7.2137874   4.5840606   5.8726567
  -7.7329373   3.2027355   4.3305153  -8.4299713   3.8865688   3.8461429
  -7.2247088   2.6429194   3.5453972  -8.5460514   2.2193345   5.1913714
  -7.8842986   1.4436555   5.5767339  -9.2679888   2.8862327   6.3677973
  -9.9084789   3.6895096   6.0036296  -9.8783368   2.1470042   6.8865615
  -8.5432994   3.2939678   7.0725501  -9.6259284   1.5739463   4.3226209
  -9.1758823   1.1937226   3.4055674 -10.0951302   0.7505394   4.8610908
 -10.3811181   2.3096919   4.0460950  -5.5988091   3.2089445   5.8053440
  -5.7432830   2.9104844   6.9956928  -4.4966996   2.8711432   5.1263922
  -4.4288489   3.1532526   4.1589642  -3.4096992   2.0323229   5.6557387
  -3.8352799   1.0571158   5.8922815  -2.3474926   1.8065228   4.5631176
  -2.0304614   2.7600342   4.1407391  -1.4617263   1.3390782   4.9932459
  -2.7851424   0.9715208   3.3817875  -3.8610041   0.3825362   3.3486211
  -1.9423072   0.9136550   2.3829554  -2.3268686   0.6345864   1.4917029
  -1.1057936   1.4787214   2.4154842  -2.7802458   2.5559020   6.9718832
  -2.6578593   1.7664018   7.9251093  -2.4570420   3.8615611   7.1176213
  -2.2733596   4.8524520   6.0611951  -3.2322276   5.2971351   5.7948732
  -1.7928618   4.4457728   5.1713467  -1.3520461   5.9159654   6.6411656
  -1.5071705   6.8798387   6.1564142  -0.3142362   5.5960065   6.5480125
  -1.7697933   5.9250355   8.1073445  -2.6820189   6.5127027   8.2102627
  -0.9914254   6.3290322   8.7546694  -2.0446908   4.4420511   8.3946943
  -1.1132322   3.9633924   8.6969668  -3.0949315   4.2752895   9.4995123
  -2.7905753   3.8341892  10.6113386  -4.3441829   4.6319538   9.1934562
  -4.5336452   4.9034798   8.2392651  -5.4393131   4.7148374  10.1616418
  -5.1256335   5.3621620  10.9805894  -6.6700166   5.3421038   9.4782996
  -6.9636881   4.7095948   8.6405706  -7.4976134   5.3607124  10.1874101
  -6.4283937   6.7723745   8.9560449  -5.5638134   6.7822587   8.2923424
  -7.6437557   7.2663569   8.1746262  -8.5176516   7.3269248   8.8232666
  -7.4468428   8.2549334   7.7598482  -7.8444856   6.5884823   7.3449916
  -6.1565971   7.7448225  10.1034224  -5.1842672   7.5345546  10.5489123
  -6.1371094   8.7616444   9.7112578  -6.9386685   7.6577473  10.8576643
  -5.7662410   3.3613968  10.8031797  -6.0503358   3.3023781  11.9993401
  -5.6917787   2.2724891  10.0331068  -5.5139422   2.4042359   9.0476513
  -5.9573120   0.9160358  10.5376184  -6.7322510   1.0054164  11.2989199
  -6.5574175  -0.0023532   9.4532198  -6.8684781  -0.9234380   9.9461126
  -7.8048801   0.6564429   8.8467985  -7.5357711   1.5816166   8.3371586
  -8.2636809   0.0011522   8.1063968  -8.5318959   0.8762343   9.6286172
  -5.5946380  -0.3962355   8.3300900  -4.8220405  -1.0604100   8.7174702
  -6.1349261  -0.9343416   7.5512242  -5.1409459   0.4903320   7.8870773
  -4.7498119   0.3057549  11.2581623  -4.9063516  -0.2489786  12.3505056
  -3.5375744   0.4034456  10.6957519  -3.4533244   0.9085784   9.8252070
  -2.3398408  -0.2825428  11.2343419  -2.6540431  -1.2743242  11.5595257
  -1.2625432  -0.5061566  10.1629078  -0.4431634  -1.0555507  10.6264627
  -1.7650594  -1.3262670   8.9798546  -2.5577500  -0.7957153   8.4523559
  -0.9521402  -1.5019420   8.2752985  -2.1382436  -2.2893609   9.3281120
  -0.7517838   0.7092782   9.6808904  -1.3450097   1.0271778   8.9963186
  -1.7246783   0.3713951  12.4800289  -0.9877817  -0.2957069  13.2199359
  -2.0748456   1.6280679  12.7609432  -2.6116204   2.1191375  12.0603514
  -1.7403556   2.3803458  13.9736283  -1.7713724   1.7138465  14.8355544
  -0.7365229   2.7974725  13.8935184  -2.7746400   3.4858084  14.1828692
  -3.9277592   3.1633160  14.4609654  -2.4516641   4.7825274  14.1365409
  -3.2330158   5.3678936  13.8778234  -1.3366990   5.4890263  14.8122263
  -0.8608110   4.8150051  15.5244946  -0.2547254   5.9638840  13.8094294
  -0.7081802   6.6537911  13.0977345   0.5157236   6.5155458  14.3481112
   0.4317485   4.8441884  13.0569291  -0.0070611   4.5183346  11.7639971
  -0.7316904   5.1430851  11.2629974   0.4252678   3.3289841  11.1561739
   0.0398620   3.0471292  10.1874542   1.2973112   2.4617256  11.8385577
   1.5267467   1.2223694  11.3341939   0.9822500   1.0909347  10.5545413
   1.8360859   2.8473976  13.0861461   2.5374374   2.1973155  13.5880399
   1.4094028   4.0483895  13.6916339   1.7775694   4.3216127  14.6694899
  -1.8877482   6.6904879  15.6253564  -1.1680351   7.6430672  15.9132195
  -3.1849101   6.6583759  15.9615862  -3.7038931   5.8262098  15.7202268
  -3.9361629   7.7412164  16.6086674  -3.5892540   8.6906034  16.2007225
  -5.4352039   7.5821936  16.2495244  -5.7732636   6.6010499  16.5829515
  -6.0016948   8.3176512  16.8207395  -5.8744639   7.7855432  14.7810638
  -6.9643939   7.7972776  14.7848904  -5.3975159   9.1183108  14.2021346
  -4.3151706   9.1201407  14.0731966  -5.8690149   9.2787331  13.2325709
  -5.6837279   9.9359983  14.8636258  -5.4445255   6.6604966  13.8370883
  -5.6296068   5.6867051  14.2904925  -6.0404187   6.7227089  12.9265165
  -4.3952003   6.7689002  13.5627449  -3.6739966   7.8298497  18.1350207
  -2.8108129   7.1395838  18.6777627  -4.4111764   8.6916196  18.8417792
  -5.1679516   9.1725338  18.3768916  -4.1454655   9.1244143  20.2175069
  -4.9978638   9.6993685  20.5793715  -4.0220106   8.2480943  20.8538413
  -2.8909066   9.9937332  20.3343320  -2.1066909   9.8246896  21.2755466
  -2.6640636  10.8940351  19.3644094  -3.4339929  11.0696030  18.7347305
  -1.3911623  11.6133130  19.1424632  -0.7886180  11.5862417  20.0503755
  -0.6048685  10.9353709  17.9928446  -1.2493090  10.9121668  17.1140623
   0.2514049  11.5632081  17.7464414  -0.0408658   9.5170748  18.1933355
  -0.8471331   8.8265848  18.4408343   0.3811078   9.2060953  17.2376525
   1.0836168   9.3980640  19.2323983   1.5829693   8.4401459  19.0869975
   1.8052420  10.1998425  19.0758407   0.5392712   9.4482106  20.5933189
  -0.4672202   9.3981522  20.6609416   1.1581613   9.6075243  21.7409921
   2.4573192   9.6507454  21.8407035   3.0099168   9.5270455  21.0043836
   2.9034185   9.7735459  22.7384830   0.4345471   9.7359413  22.8133464
  -0.5691256   9.7330177  22.7004886   0.8543184   9.8599654  23.7235689
  -1.5200996  13.1087041  18.8111365  -0.4946793  13.7814832  18.8969052
  -2.6987967  13.6443222  18.4711230  -3.5044634  13.0355263  18.4517014
  -2.8761864  14.9900019  17.8786051  -2.6652679  14.9297822  16.8109035
  -3.9199525  15.2869058  17.9810774  -2.0072815  16.1230576  18.4634185
  -1.1021340  16.5992308  17.7700377  -2.1498170  16.4856052  19.7525811
  -3.1883001  16.0391271  20.6669760  -3.2660109  14.9524379  20.7011628
  -4.1396710  16.4776754  20.3658628  -2.7808994  16.5775645  22.0369005
  -2.0893185  15.8828270  22.5135112  -3.6468786  16.7565858  22.6741862
  -2.0513827  17.8756881  21.6925025  -1.3404621  18.1580591  22.4690056
  -2.7830383  18.6702895  21.5462494  -1.3662644  17.5668311  20.3564858
  -1.4313579  18.4523594  19.7242653   0.1247050  17.2306311  20.5237722
   0.9509849  18.1365144  20.5471659   0.5022407  15.9480584  20.5731344
  -0.2123547  15.2434218  20.4593754   1.9035228  15.5225956  20.4678607
   2.5033829  16.0619676  21.2009001   1.9772692  14.4555140  20.6776190
   2.4913672  15.7840407  19.0763700   3.6002606  16.2948215  18.9483523
   1.7301264  15.4997206  18.0146277   0.8131193  15.1117563  18.1839967
   2.1230201  15.7779336  16.6248405   3.1086063  15.3431320  16.4585042
   1.1309187  15.1165402  15.6514299   0.1297943  15.4814494  15.8809733
   1.3627337  15.4274142  14.6327448   1.1307656  13.5792887  15.7079911
   1.2221182  13.2491148  16.7427564  -0.1836009  13.0488276  15.1427031
  -0.3438812  13.4548879  14.1439414  -0.1612922  11.9602537  15.0916362
  -1.0106906  13.3547509  15.7833529   2.2828080  12.9725003  14.9056053
   3.2365030  13.3549559  15.2693272   2.2751953  11.8886602  15.0210810
   2.1643278  13.2115209  13.8487566   2.2657952  17.2832894  16.3372445
   2.9786697  17.6505804  15.4014158   1.6242519  18.1436622  17.1416891
   1.0037185  17.7470076  17.8328526   1.8220511  19.6033657  17.1580553
   1.7014188  19.9831641  16.1435103   0.7595371  20.2610445  18.0585837
  -0.2000888  19.7701132  17.8967094   1.0377638  20.1125860  19.1019666
   0.6063821  21.7751837  17.8128123   1.4456628  22.3069191  18.2611036
   0.6140233  21.9704628  16.7404759  -0.7041985  22.3316002  18.3840919
  -0.7725754  23.3924794  18.1433439  -1.5342772  21.8199778  17.8969455
  -0.8028363  22.1555400  19.9044919  -0.4004412  21.1800003  20.1774383
  -0.1987162  22.9247928  20.3855252  -2.2108564  22.2352815  20.3540349
  -2.7342486  21.4736938  19.9464071  -2.2799769  22.1422458  21.3573623
  -2.6321349  23.1056786  20.0624323   3.2153133  20.0382733  17.6166117
   3.6277518  21.1331248  17.2587240   3.9381507  19.2408812  18.4114647
   3.5566613  18.3369505  18.6512113   5.0806159  19.7318077  19.2123675
   4.6802130  20.4714990  19.9056447   5.6784856  18.6164510  20.0846028
   4.8616165  18.0563271  20.5396724   6.5908247  17.6391113  19.3399656
   7.5073671  18.1322277  19.0161026   6.8541569  16.8222332  20.0118780
   6.0702121  17.2261333  18.4759569   6.4371216  19.1907072  21.1184168
   7.0919079  19.7850776  20.7448101   6.1803555  20.4505277  18.4203374
   6.7859066  21.3764620  18.9471471   6.4237624  20.0782442  17.1577024
   5.8923084  19.3090379  16.7756367   7.3737586  20.7890201  16.2786162
   8.2718235  21.0039544  16.8577385   7.8171343  19.9294150  15.0771046
   8.4704405  20.5351520  14.4491136   8.6295283  18.7192297  15.5549598
   8.0162209  18.0558848  16.1648190   9.0121377  18.1699359  14.6947348
   9.4795460  19.0612030  16.1454046   6.6570115  19.4220889  14.2050338
   6.1212760  20.2645731  13.7676454   7.0572013  18.8256848  13.3851242
   5.9671569  18.8111448  14.7872245   6.8456531  22.1550012  15.8233964
   7.5975001  23.1229258  15.8242047   5.5541223  22.2552681  15.4915893
   4.9675435  21.4452195  15.6324601   4.8736507  23.5233784  15.2185321
   5.4383826  24.0750289  14.4669604   3.4824067  23.2149982  14.6416473
   3.5890594  22.6029205  13.7460530   2.8818300  22.6759553  15.3743410
   2.6258507  24.7506547  14.2006207   1.5472940  24.1768742  13.6598921
   4.8126829  24.4209576  16.4664292   5.0563747  25.6141043  16.3648534
   4.5902115  23.8553596  17.6565552   4.3564186  22.8732300  17.6858819
   4.6889701  24.6020389  18.9128649   4.0294793  25.4674530  18.8478148
   4.1927090  23.7145805  20.0608563   4.8439917  22.8485441  20.1788020
   4.1991094  24.2905998  20.9862018   3.1735572  23.3854175  19.8581707
   6.1113977  25.1462698  19.1648269   6.2783557  26.3186955  19.4868708
   7.1382529  24.3019772  19.0054500   6.9390047  23.3346319  18.7941527
   8.5391468  24.6767902  19.2040694   8.6358613  25.1182699  20.1959562
   9.3953103  23.4043479  19.1667712   9.3160444  22.9251170  18.1909859
  10.4376328  23.6630511  19.3531442   9.0618652  22.7114820  19.9393344
   9.0522873  25.7281232  18.2022619   9.7135210  26.6816902  18.6055827
   8.7702405  25.5545616  16.9012666   8.2381809  24.7363114  16.6414869
   9.3206602  26.3937545  15.8181775  10.0680363  27.0667934  16.2383556
  10.0192273  25.5122256  14.7583640   9.3213969  24.7436786  14.4259989
  10.2729177  26.1169386  13.8876951  11.3099241  24.8330331  15.2515817
  11.0908568  24.2824984  16.1664701  11.6350973  24.1098666  14.5036542
  12.4698532  25.8039236  15.5313885  12.1175706  26.6166043  16.1666393
  13.2284725  25.2602839  16.0944629  13.0925930  26.3441682  14.2992890
  12.5647855  26.3195515  13.4385288  14.3243349  26.8236852  14.2132282
  15.0184047  27.1041989  15.2724719  14.4660175  27.3934531  16.0670221
  15.9758842  27.4204826  15.2150977  14.8549616  27.0294690  13.0428278
  14.2343867  27.0953083  12.2486937  15.8310580  27.2609496  12.9255319
   8.3072746  27.3311210  15.1596963   8.7150443  28.0989861  14.3063343
   7.0428067  27.3587918  15.5672264   6.7356688  26.6789246  16.2480712
   6.0265774  28.2815886  15.0270891   6.5384036  29.1761899  14.6723723
   5.3119606  27.6936483  13.7902558   4.7513095  26.8044639  14.0785575
   4.3646607  28.6682177  13.0895126   4.8590764  29.6266627  12.9312778
   4.0687159  28.2600474  12.1231198   3.4603110  28.8169146  13.6795449
   6.2578142  27.3209405  12.8156924   6.7811036  28.1005716  12.6157939
   5.1086795  28.7816691  16.1507487   5.5470240  29.6438909  16.9121504
   3.8556045  28.3167601  16.2621880   3.6106762  27.4837327  15.7462656
   2.8299329  28.9096165  17.1351719   3.3220181  29.2683196  18.0392098
   2.1925013  30.1235938  16.4262354   1.5175928  29.7443819  15.6589043
   1.6197941  30.6334639  17.2009206   3.0583629  31.2184906  15.7774889
   3.7681735  31.6020036  16.5104187   3.6116338  30.8022690  14.9356163
   2.2236007  32.3920870  15.2531159   2.7401933  33.4385991  14.9004161
   0.9105946  32.3159575  15.2082646   0.4099258  33.1366444  14.8985934
   0.4071578  31.5559840  15.6431234   1.7366624  27.8973556  17.6017094
   2.0249511  26.7260647  17.8452086   0.4734760  28.3414125  17.7167630
   0.2869224  29.2931533  17.4348116  -0.7294015  27.5850630  18.0820751
  -1.5830877  28.0378819  17.5778174  -0.6275918  26.5610981  17.7225947
  -1.0353966  27.5389123  19.5849288  -0.8996005  26.4782476  20.2027822
  -1.5327631  28.6454773  20.1576734  -1.6615041  29.4734287  19.5937300
  -1.8494485  28.7683249  21.5881705  -2.1603124  27.7972746  21.9735551
  -0.9426675  29.0657687  22.1148348  -2.9706737  29.7694659  21.9157386
  -4.0391842  29.7448301  21.3078856  -2.7527753  30.5916691  22.9548383
  -1.8631569  30.5097222  23.4259677  -3.6752465  31.6204548  23.4764743
  -4.1026223  32.1686935  22.6368999  -4.7951230  30.9856081  24.3431115
  -4.3848985  30.1310182  24.8811579  -5.0878531  31.7034221  25.1093698
  -6.0953766  30.5445313  23.6459422  -5.9020102  29.6487999  23.0557108
  -6.8045408  30.2617431  24.4238997  -6.7678833  31.5949917  22.7421403
  -6.1871642  31.6719723  21.8229342  -7.7591723  31.2369990  22.4641323
  -6.8850011  33.0018115  23.3510518  -5.8844012  33.3532000  23.6029029
  -7.2802782  33.6785197  22.5934744  -7.7372152  33.0631685  24.5659328
  -7.4540114  32.4083686  25.2808714  -7.6056367  33.9556479  25.0201011
  -8.7170863  32.9197645  24.3674707  -2.9262286  32.6155901  24.3692613
  -2.2232732  32.2058940  25.2863145  -3.1625608  33.9119554  24.1756654
  -3.6954096  34.1870403  23.3629537  -3.1701127  34.8886538  25.2757573
  -2.2614466  34.7809100  25.8680558  -3.2138219  36.3052416  24.6880388
  -3.3445287  37.0308113  25.4908895  -2.2724892  36.5098500  24.1780114
  -4.2805123  36.4149666  23.7601042  -4.2956969  37.3013496  23.3917332
  -4.3877161  34.6359253  26.1816740  -5.4661071  34.2978883  25.6849122
  -4.2507631  34.7642159  27.5049233  -3.3645692  35.0405860  27.9028940
  -5.3121436  34.3848777  28.4463596  -6.2593913  34.7285199  28.0307508
  -5.3467959  32.8422236  28.5778809  -5.2612656  32.3914433  27.5891542
  -4.4842559  32.5163507  29.1592002  -6.6253179  32.2881484  29.2306137
  -6.5639663  31.2001443  29.2546916  -6.6940933  32.6267910  30.2643871
  -7.8848231  32.6767135  28.4591985  -7.9956156  32.4699616  27.2536969
  -8.8531452  33.2920551  29.0983129  -9.7049671  33.5011673  28.5975480
  -8.7756819  33.5093260  30.0816274  -5.1498163  35.0483274  29.8214459
  -4.0303248  35.3056979  30.2577233  -6.2828153  35.2617908  30.4966021
  -7.1523720  35.0264263  30.0399017  -6.4300567  35.4431653  31.9459486
  -5.5230969  35.1092577  32.4499631  -6.6755670  36.9343638  32.2619343
  -5.9124601  37.5073099  31.7351508  -7.6439428  37.2383332  31.8645024
  -6.5727758  37.3113322  33.7567759  -6.0092914  36.5480208  34.2933798
  -5.9966123  38.2343388  33.8215494  -7.9080850  37.5675797  34.4821930
  -7.6807576  37.9614496  35.4727936  -8.4817111  38.3141470  33.9329314
  -8.7278086  36.2838912  34.6334958  -9.0238476  35.9373307  33.6433649
  -8.0789375  35.5152082  35.0532532  -9.9242985  36.4377189  35.4870319
 -10.5522132  37.1240497  35.0936174 -10.3978753  35.5468583  35.5338693
  -9.6533185  36.7100668  36.4211082  -7.5557888  34.5223546  32.4119854
  -8.5131735  34.3645334  31.6233397  -7.4696785  34.0260196  33.5501599
 -10.4049945  49.5331860   8.7288827 -10.7862139  48.6082363   8.5901862
  -9.7501677  49.5119953   9.4975555  -9.8007417  49.7906590   7.9616201
 -11.4425099  50.5567932   8.9398479 -11.9482124  50.3066206   9.8724675
 -10.8397675  51.9645691   9.1215527 -10.1023686  51.9210052   9.9230796
 -10.3165865  52.2531700   8.2099110 -11.8783963  53.0524635   9.4646329
 -12.5817311  53.1537437   8.6380970 -12.6627839  52.7190018  10.7371902
 -11.9792700  52.5611973  11.5714610 -13.3246458  53.5498667  10.9815300
 -13.2818365  51.8339539  10.5903339 -11.1755371  54.3938351   9.6650481
 -10.6237042  54.6633816   8.7645346 -11.9114411  55.1723480   9.8661983
 -10.4797530  54.3366718  10.5021369 -12.5095439  50.4490995   7.8564298
 -13.4310627  49.6686411   8.0541086 -12.3770285  51.1218023   6.7002457
 -11.5575218  51.6993332   6.5778887 -13.4518242  51.2712336   5.6864882
 -14.3291867  51.6598845   6.2034875 -12.9999626  52.3247004   4.6432817
 -12.7425909  53.2437468   5.1697958 -12.0942295  51.9612026   4.1578794
 -14.0122175  52.6864767   3.5336316 -13.5410380  53.4024382   2.8602099
 -14.2133892  51.7961931   2.9377943 -15.3276420  53.3071041   4.0464801
 -15.5683351  52.9367018   5.0429577 -15.1923513  54.3855906   4.1281521
 -16.5374196  53.0235481   3.1436706 -17.3779523  53.6047649   3.5228729
 -16.3296711  53.3379745   2.1208911 -16.9018209  51.5913963   3.1881005
 -16.3319886  51.0072803   2.5929490 -16.8060482  51.2464619   4.1325355
 -17.8839898  51.4150524   3.0320513 -13.9508629  49.9596357   5.0432271
 -14.9973917  49.9413109   4.4099995 -13.2468176  48.8426065   5.2218783
 -12.3697412  48.9081812   5.7183981 -13.7421918  47.5168085   4.8279145
 -14.0511405  47.5650644   3.7837294 -12.6125681  46.4717197   4.9337542
 -12.4883318  46.2070227   5.9838027 -12.9444242  45.5761862   4.4084015
 -11.2309265  46.8804502   4.3815124 -10.8392799  47.6965237   4.9887535
 -10.2677679  45.6999016   4.4989705 -10.6090569  44.8729229   3.8762930
  -9.2737597  46.0041332   4.1711065 -10.2054441  45.3687525   5.5355775
 -11.2579226  47.3333168   2.9208955 -11.9356000  48.1770706   2.7907926
 -10.2576971  47.6459503   2.6210517 -11.5742981  46.5118551   2.2780819
 -14.9840748  47.0670700   5.6361061 -15.8237767  46.3474369   5.1038128
 -15.1009858  47.4832106   6.9039863 -14.4347787  48.1617737   7.2443062
 -16.0553157  46.9391346   7.8805304 -15.9586251  45.8535719   7.8631485
 -15.6326652  47.4340248   9.2790616 -14.6229267  47.0762157   9.4803077
 -15.6053901  48.5234737   9.2577541 -16.5503395  47.0142317  10.4458356
 -17.5516117  47.4164629  10.2916789 -16.6396630  45.4964924  10.6090438
 -15.6432617  45.0633669  10.6967247 -17.2267199  45.2570438  11.4956844
 -17.1531570  45.0706863   9.7470033 -16.0010529  47.5979090  11.7488682
 -15.9527206  48.6840105  11.6704905 -16.6698635  47.3434830  12.5710964
 -15.0067902  47.2005177  11.9528902 -17.5386870  47.2366810   7.6016492
 -18.3626020  46.3328695   7.7061844 -17.8995371  48.4828901   7.2801906
 -17.1884990  49.1855717   7.1360809 -19.3087626  48.9103365   7.1790791
 -19.7996557  48.7196779   8.1334239 -19.3871176  50.4197264   6.9067371
 -20.4265332  50.7048082   6.7441261 -19.0296459  50.9529161   7.7876604
 -18.5405695  50.8334017   5.7029819 -19.0667570  50.8659220   4.5708716
 -17.3209846  51.0565424   5.8767915 -20.0900865  48.1162977   6.1189336
 -21.2303233  47.7110720   6.3414705 -19.4447219  47.8251171   4.9883303
 -18.5290635  48.2344723   4.8695984 -19.9938190  47.0162010   3.9018890
 -20.8998585  47.5086641   3.5488015 -18.9861059  46.9530821   2.7271235
 -18.3517051  46.0747719   2.8463322 -19.5301902  46.8312359   1.7905198
 -18.0780327  48.1680679   2.6067671 -18.3733737  49.1672182   1.9640309
 -16.9455099  48.1234217   3.2634276 -16.3155901  48.9113283   3.2133380
 -16.7019558  47.3051739   3.8031080 -20.4020047  45.6099987   4.3947822
 -21.4610004  45.1067257   4.0241587 -19.5934868  44.9846697   5.2621251
 -18.7863302  45.4781389   5.6158054 -19.8461556  43.6358309   5.7867563
 -19.9742174  42.9567671   4.9438018 -18.6499274  43.1490326   6.6169780
 -18.5978234  43.7418509   7.5301886 -18.8460171  42.1198034   6.9175375
 -17.2950852  43.1779623   5.9733307 -17.0304787  43.1631708   4.6460596
 -17.7738917  43.1390285   3.8630161 -15.6653988  43.1837988   4.4443214
 -15.2471960  43.1751728   3.5250106 -14.9746442  43.2094860   5.6358880
 -13.6096811  43.2452059   5.9563899 -12.8721201  43.2653570   5.1677221
 -13.2226253  43.2555676   7.3076421 -12.1763957  43.2951975   7.5726593
 -14.2004573  43.2027197   8.3169407 -13.9008451  43.1991339   9.3545431
 -15.5680013  43.1545401   7.9817933 -16.3169765  43.1097317   8.7585998
 -15.9919643  43.1780052   6.6345197 -21.1248779  43.5404539   6.6247970
 -21.8240285  42.5292492   6.5342307 -21.4576674  44.5690489   7.4139035
 -20.8493328  45.3742504   7.4549687 -22.7130198  44.5861721   8.1795472
 -22.9984879  43.5469341   8.3426148 -22.5368452  45.2040339   9.5726031
 -21.5973949  44.8554134  10.0015581 -22.4962378  46.2899446   9.4874799
 -23.6790872  44.7785378  10.5113101 -24.1369748  43.6168718  10.3895545
 -24.0863323  45.6093359  11.3500714 -23.8858509  45.2242756   7.4217415
 -25.0283337  44.8098993   7.6033360 -23.6318278  46.1268091   6.4662558
 -22.6986790  46.5021324   6.3742161 -24.6616125  46.5045500   5.4882354
 -25.5097651  46.9093180   6.0404146 -24.1722918  47.6037741   4.5437670
 -23.8036895  48.4486675   5.1254791 -23.3632016  47.2181177   3.9234933
 -25.2504802  48.0294657   3.7268093 -24.9292994  48.1152725   2.8261998
 -25.1685119  45.2743530   4.7193336 -26.3677406  45.1636362   4.4528958
 -24.3055964  44.2858887   4.4439676 -23.3215356  44.4517040   4.5996395
 -24.7510862  42.9300594   4.0820611 -25.5312920  43.0215549   3.3264092
 -23.6242533  42.0826006   3.4551966 -22.7683663  42.0491743   4.1293186
 -24.0798879  40.6437445   3.1739387 -24.9851012  40.6511545   2.5667870
 -23.2935524  40.1032066   2.6470658 -24.2776012  40.1144981   4.1060925
 -23.1749463  42.6892328   2.1237195 -22.7420211  43.6745644   2.2963159
 -22.4078536  42.0640707   1.6667277 -24.0229607  42.7872372   1.4459519
 -25.3989697  42.2220707   5.2773404 -26.5918446  41.9472980   5.2210635
 -24.6557784  41.9201803   6.3467973 -23.6935043  42.2269821   6.3484687
 -25.0780869  40.9904385   7.4212748 -25.2959466  40.0329208   6.9482064
 -23.9333725  40.7230473   8.4130657 -23.6604834  41.6433668   8.9294326
 -24.2799830  39.6586871   9.4538140 -24.6293139  38.7521553   8.9595795
 -23.3917236  39.4313979  10.0432527 -25.0523615  40.0340080  10.1251280
 -22.8111887  40.2429342   7.7073103 -22.3915672  40.9997225   7.2916132
 -26.3632226  41.4040184   8.1553191 -27.2899032  40.5971289   8.2966948
 -26.4711285  42.6574898   8.5965931 -25.6748772  43.2741261   8.5201037
 -27.6750040  43.1980705   9.2369294 -27.9932404  42.4794626   9.9921960
 -27.3403549  44.4794607  10.0049591 -26.4623666  44.3037844  10.6265485
 -27.1232963  45.2875757   9.3064326 -28.4103608  44.8459768  10.8601236
 -28.0755091  45.5717230  11.3918853 -28.8546371  43.3918142   8.2656604
 -29.9997401  43.4059334   8.7143481 -28.6288500  43.4211111   6.9420284
 -27.6713967  43.3745146   6.6238928 -29.7149634  43.2461596   5.9505433
 -30.5948377  43.7804604   6.3089359 -29.3898225  43.8136864   4.5574501
 -28.5392308  43.2826662   4.1301194 -30.5849385  43.6825228   3.6094856
 -31.4804077  44.0866041   4.0816671 -30.3991699  44.2283344   2.6844561
 -30.7509065  42.6348305   3.3587033 -29.0755463  45.1841068   4.6125382
 -28.1829548  45.2442122   4.9607933 -30.1096654  41.7711592   5.8340436
 -31.2426138  41.4192486   6.1516011 -29.1669345  40.9194803   5.4034597
 -28.2543850  41.3106966   5.2182484 -29.2781878  39.4613266   5.2386004
 -29.7879410  39.2343426   4.3022606 -27.8553843  38.8543439   5.1886338
 -27.4597669  38.9631057   4.1788033 -27.2029710  39.4202042   5.8536583
 -27.7738070  37.3952770   5.6104153 -27.4979734  37.0514250   6.9500285
 -27.2583389  37.8218508   7.6679558 -27.6028061  35.7145548   7.3728114
 -27.4527574  35.4648328   8.4127742 -27.9321289  34.7083044   6.4487708
 -28.0332994  33.6819315   6.7692733 -28.1541491  35.0417709   5.1027852
 -28.4371471  34.2853618   4.3857348 -28.0752969  36.3816261   4.6887836
 -28.2863855  36.6329837   3.6598715 -30.0999212  38.8169909   6.3544124
 -31.0919523  38.1471729   6.0903311 -29.7177291  39.0825558   7.6061761
 -28.8985038  39.6603107   7.7293319 -30.3650045  38.5194111   8.7925100
 -30.1909590  37.4434161   8.7858802 -29.7333980  39.0637422  10.0790656
 -30.3757572  38.8321710  10.9286821 -28.7747550  38.5687923  10.2344036
 -29.5084167  40.4609537  10.0075853 -28.7266827  40.5797052   9.4631571
 -31.8830562  38.7011051   8.7842101 -32.5779152  37.7484536   9.1072273
 -32.4164414  39.8389387   8.3186400 -31.7949820  40.5307198   7.9245239
 -33.8692141  40.0918770   8.2743776 -34.2986608  39.7559786   9.2182255
 -34.1633511  41.5990162   8.1465417 -33.9514327  41.9186115   7.1262228
 -35.2253103  41.7577124   8.3340514 -33.3542180  42.4919081   9.1057271
 -32.3197937  42.4910593   8.7621242 -33.7273526  43.5137749   9.0374601
 -33.4044290  42.0334435  10.5739331 -34.4263291  42.1190548  10.9433770
 -33.1109118  40.9859753  10.6429005 -32.4647474  42.8097105  11.4969909
 -32.7003360  43.8722754  11.4373708 -32.6506877  42.4646330  12.5140703
 -31.0462356  42.5657177  11.1417139 -30.8458781  42.9014444  10.2104509
 -30.4026222  43.0289364  11.7672455 -30.8433127  41.5764904  11.1227441
 -34.5929551  39.2831612   7.1942866 -35.7210732  38.8487053   7.4183989
 -33.9541507  39.0499210   6.0427314 -32.9970789  39.3630552   5.9648597
 -34.4618583  38.1138086   5.0299853 -35.5128884  38.3379889   4.8478359
 -33.7151337  38.2811236   3.6970529 -32.6473999  38.1333494   3.8589412
 -34.0458369  37.4914575   3.0223939 -33.9819789  39.6579862   3.0511990
 -34.6764565  40.2323627   3.6643013 -32.6904154  40.4635620   2.9213098
 -31.9739676  39.9165154   2.3084927 -32.9008865  41.4314556   2.4663565
 -32.2670627  40.6173277   3.9138955 -34.6039987  39.5207071   1.6621143
 -35.5437279  38.9731550   1.7341867 -34.7918749  40.5069304   1.2376548
 -33.9304519  38.9669919   1.0080250 -34.4245934  36.6729426   5.5507398
 -35.4630542  36.0215974   5.5710822 -33.2918644  36.2310004   6.1111104
 -32.4641681  36.7888403   5.9567046 -33.1420469  34.9646735   6.8525010
 -33.3014798  34.1528106   6.1428827 -31.6824031  34.8725867   7.3600417
 -31.0737062  34.4173503   6.5787935 -31.3002825  35.8837271   7.5003093
 -31.4387655  34.1359258   8.6891133 -30.3887105  34.2563891   8.9555258
 -32.0208359  34.6240473   9.4707990 -31.7551589  32.6320076   8.6714572
 -32.6872158  32.4404597   8.1397825 -30.9666395  32.1170664   8.1226659
 -31.8337798  32.0998240  10.0487089 -30.9749651  31.7846084  10.4767001
 -32.8931856  32.0604634  10.8386111 -32.7409816  31.6460347  12.0605016
 -31.8051004  31.4099932  12.3580241 -33.5204554  31.6296101  12.7025616
 -34.0911794  32.4143577  10.4704332 -34.2443776  32.7480435   9.5295334
 -34.8718309  32.3994589  11.1110997 -34.2032886  34.7897243   7.9478228
 -34.7361803  33.6923146   8.1043768 -34.4810510  35.8117962   8.7521064
 -33.9372468  36.6547418   8.6345339 -35.5156946  35.8105636   9.7959876
 -35.3177452  34.9910593  10.4868782 -35.4732418  37.1157312  10.6165755
 -35.4193187  37.9537868   9.9216998 -36.3983130  37.2119427  11.1849868
 -34.2894173  37.1742344  11.6086590 -34.5971489  36.7003989  12.5407970
 -33.4591556  36.5834975  11.2216246 -33.8045645  38.6114287  11.8951631
 -32.5753355  38.8151693  12.0501554 -34.6575165  39.5239758  11.9676912
 -36.9066548  35.5389452   9.2032480 -37.5483561  34.5735741   9.6132433
 -37.3245478  36.3219047   8.2012367 -36.7180157  37.0795107   7.9214978
 -38.5694861  36.1504149   7.4309993 -39.4077015  36.1804533   8.1271255
 -38.7002778  37.3669720   6.4903235 -39.0889692  38.1947899   7.0833981
 -37.7080941  37.6646805   6.1511475 -39.5977306  37.1991634   5.2501190
 -40.3458738  36.4207172   5.3997952 -40.1314163  38.1348801   5.0836444
 -38.7700272  36.9096422   4.0006003 -38.6696362  35.7955575   3.5149223
 -38.1011677  37.8996372   3.4464267 -37.5202107  37.6539707   2.6576066
 -38.1269383  38.8262033   3.8475570 -38.6739516  34.7913718   6.7057937
 -39.7359300  34.1752052   6.7027044 -37.5753140  34.2977715   6.1373991
 -36.7679071  34.9031281   6.0956860 -37.4570155  32.9910231   5.4812229
 -38.2626891  32.8994751   4.7527927 -36.1072421  33.0095911   4.7356328
 -36.1196995  33.8338375   4.0224943 -35.3233719  33.2154489   5.4645145
 -35.7146239  31.7296386   3.9855659 -35.6757331  30.8945680   4.6850258
 -36.6936016  31.4116621   2.8603670 -36.7065501  32.2259164   2.1358509
 -36.3681507  30.4914403   2.3752169 -37.6951027  31.2498069   3.2589915
 -34.3225908  31.9008994   3.3775851 -33.5920930  32.1054125   4.1603044
 -34.0344453  30.9900165   2.8528321 -34.3191957  32.7287030   2.6684782
 -37.5833178  31.8113112   6.4702040 -37.9357100  30.6922293   6.0860401
 -37.2905540  32.0652413   7.7505308 -37.0325613  33.0161619   7.9725546
 -37.3466182  31.1065626   8.8533753 -36.5639353  30.3644085   8.6961710
 -37.1434355  31.6333222   9.7857594 -38.6798167  30.3611135   9.0092450
 -38.6548471  29.1285658   8.9948386 -39.8334241  31.0416198   9.1772592
 -40.0005341  32.4617672   9.4448191 -39.3590283  33.0781484   8.8150239
 -39.7836518  32.6597118  10.4945242 -41.4686346  32.7726078   9.1551423
 -41.6050482  32.9793882   8.0936652 -41.8313408  33.6069417   9.7554982
 -42.1714354  31.4650202   9.5128244 -43.1027317  31.3428736   8.9597714
 -42.3655224  31.4408374  10.5851328 -41.1389399  30.3877902   9.1597360
 -41.1701679  29.6141982   9.9269909 -41.4090776  29.7135901   7.8116488
 -41.6294909  28.5102296   7.8082997 -41.3007927  30.4372311   6.6891080
 -41.0974836  31.4217591   6.7864072 -41.6054487  29.9576139   5.3202826
 -42.6866627  29.8539186   5.2290410 -41.1609554  30.9936452   4.2661771
 -40.0836611  31.1366296   4.3503812 -41.4687538  30.5491471   2.8304854
 -42.5431633  30.4096198   2.7109772 -41.1205435  31.3045263   2.1260346
 -40.9681702  29.6087790   2.5997907 -41.8391228  32.3518372   4.4885445
 -41.6105270  32.7453446   5.4789954 -41.4754820  33.0703163   3.7539363
 -42.9191113  32.2419953   4.3902305 -40.9962606  28.5840273   5.0115573
 -41.6708755  27.6640105   4.5514277 -39.7047949  28.4079742   5.2989584
 -39.1886163  29.1887784   5.6784421 -39.0053296  27.1462345   4.9954873
 -39.2411351  26.8765020   3.9660496 -37.4800420  27.3133564   5.0903827
 -37.1837378  27.3133206   6.1393368 -36.7370129  26.2034130   4.3421167
 -35.6765819  26.4460301   4.2733976 -36.8523550  25.2548599   4.8665619
 -37.1329355  26.1092806   3.3309367 -37.0466399  28.5216093   4.5085672
 -37.3662567  29.2542243   5.0402886 -39.4757795  25.9764528   5.8794361
 -39.3667889  24.8200250   5.4845160 -40.0281572  26.2530136   7.0650059
 -40.1818752  27.2250915   7.2920310 -40.6415606  25.2605963   7.9620141
 -40.1782084  24.2916608   7.7760834 -40.3450203  25.6248689   9.4250137
 -40.6289864  26.6628933   9.5981258 -40.9374809  24.9908972  10.0846863
 -38.8532734  25.4152894   9.7539431 -38.6387110  24.3471098   9.7864628
 -38.2402635  25.8624458   8.9714032 -38.4423542  26.0515761  11.0762978
 -38.0696559  25.3969312  12.0349240 -38.4819698  27.3590875  11.1902273
 -38.2676005  27.7366853  12.1021247 -38.7343955  27.9228377  10.3911209
 -42.1452904  25.0537443   7.6921451 -42.6368284  23.9477420   7.8671890
 -42.8576708  26.0754514   7.2168684 -42.4013376  26.9758892   7.1840614
 -44.1742229  26.0073209   6.5537125 -44.9105597  25.6317520   7.2642434
 -44.5787621  27.4547529   6.1763805 -45.1933908  27.8515387   6.9843978
 -43.6707830  28.0576658   6.1634916 -45.2941990  27.7213621   4.8381934
 -44.8361874  27.1205449   4.0524822 -46.3399792  27.4267650   4.9257067
 -45.1873779  29.2058635   4.4282922 -45.1793146  30.0767279   5.3309166
 -45.0716877  29.4704723   3.2096216 -44.1610241  25.0049925   5.3823161
 -45.0664186  24.1780162   5.2454555 -43.0989504  25.0188327   4.5702586
 -42.4562979  25.7943583   4.6455178 -42.8130007  23.9458776   3.6153531
 -43.6680365  23.8717723   2.9433990 -41.5923262  24.3445802   2.7656558
 -41.8652964  25.2150989   2.1691814 -40.8004141  24.6621966   3.4439558
 -41.0050106  23.2978392   1.8284178 -39.6240973  23.3306980   1.5455993
 -39.0018916  24.0910244   1.9941081 -39.0452051  22.3584676   0.7091498
 -37.9856920  22.3755383   0.5004809 -39.8420143  21.3359952   0.1671013
 -39.3977284  20.5807042  -0.4642058 -41.2211561  21.3071156   0.4330379
 -41.8369436  20.5238628   0.0162364 -41.8061733  22.2989678   1.2373904
 -42.8706980  22.2657251   1.4165057 -42.6828194  22.5647044   4.2984605
 -43.3580399  21.6276932   3.8715911 -41.8820190  22.4154139   5.3675431
 -41.3636732  23.2150102   5.7023025 -41.7550516  21.1250710   6.0767204
 -41.4462471  20.3872752   5.3361833 -40.6755114  21.1345100   7.1681136
 -39.7185683  21.3988447   6.7181265 -40.9213924  21.9055581   7.8982693
 -40.5325842  19.8221684   7.8984338 -40.4788399  18.5950506   7.3214400
 -40.5070162  18.4075737   6.2582093 -40.5481052  17.6097381   8.2892573
 -40.7238388  16.6348875   8.0920285 -40.6547403  18.1556153   9.5457631
 -40.8440924  17.5843441  10.8103311 -40.9429169  16.5126526  10.9003949
 -40.9555578  18.4247291  11.9289970 -41.1430597  17.9994380  12.9038656
 -40.8610916  19.8196685  11.7692161 -40.9650517  20.4658437  12.6283133
 -40.6919718  20.3835917  10.4879677 -40.6778097  21.4569116  10.3688610
 -40.5984688  19.5670795   9.3381333 -43.0735779  20.6052351   6.6634625
 -43.3946609  19.4424450   6.4510548 -43.8553715  21.4559555   7.3336506
 -43.5115480  22.3961449   7.4675578 -45.1897907  21.1452913   7.8714728
 -45.0915384  20.4913807   8.7379867 -45.8440828  22.4690223   8.3258826
 -45.3688526  22.7972388   9.2502922 -45.6579161  23.2347059   7.5727755
 -47.3579311  22.3756242   8.5457349 -48.1202650  23.1018400   7.8676724
 -47.8253222  21.5209031   9.3257606 -46.0510063  20.4004383   6.8367970
 -46.6526318  19.3674111   7.1236002 -46.0843611  20.9049869   5.6040800
 -45.5354071  21.7327189   5.4207498 -46.8900394  20.3343725   4.5270017
 -47.7617836  19.8656070   4.9835303 -47.4260855  21.4937472   3.6750242
 -46.6042089  22.0869040   3.2740429 -48.0276871  21.1043739   2.8537062
 -48.3143806  22.3480606   4.5667267 -49.4148684  21.9478273   4.9264401
 -47.8259182  23.4537530   5.0739253 -48.2335281  23.7405300   5.9523988
 -46.8675375  23.7212515   4.9005541 -46.2089205  19.1761351   3.7757060
 -46.8970680  18.2600272   3.3278203 -44.8753834  19.1544867   3.7042102
 -44.3691206  19.9457133   4.0753791 -44.0918636  18.0042565   3.2367176
 -44.4780922  17.7094316   2.2610128 -42.6303482  18.4643829   3.0807650
 -42.6076889  19.3198335   2.4056411 -42.2835684  18.8017917   4.0574950
 -41.6366100  17.4064469   2.5716460 -41.6315031  16.5508902   3.2469949
 -41.9741392  16.9288898   1.1583421 -42.0625067  17.7807426   0.4840730
 -41.1942339  16.2576878   0.7987144 -42.9122019  16.3741112   1.1772036
 -40.2327347  18.0175698   2.5563979 -39.9579978  18.3263695   3.5649922
 -39.5092297  17.2811508   2.2066446 -40.2094269  18.8860798   1.8981828
 -44.2326546  16.7679954   4.1434491 -44.3631315  15.6407416   3.6618316
 -44.2436600  16.9675326   5.4601490 -44.1019058  17.9061699   5.8050716
 -44.3733311  15.8947575   6.4472389 -43.6350822  15.1329207   6.1968583
 -44.0299177  16.4256251   7.8494793 -43.1383562  17.0490849   7.7822775
 -44.8477316  17.0562410   8.1982005 -43.7697601  15.3215921   8.8898134
 -43.5614061  15.7991242   9.8472339 -44.6755934  14.7292292   9.0189075
 -42.5867224  14.4026053   8.5333866 -41.4836836  14.9281049   8.2529938
 -42.7762842  13.1617570   8.5761184 -45.7583427  15.2266932   6.4027828
 -45.8664513  14.0421128   6.6961199 -46.8141651  15.9447324   5.9895098
 -46.6540337  16.9177186   5.7709771 -48.1814146  15.3999043   5.8511686
 -48.4391451  14.9016929   6.7857599 -49.1917610  16.5381002   5.6219155
 -48.8401365  17.1683824   4.8050886 -50.1598215  16.1211383   5.3442508
 -49.3611002  17.3708057   6.9044048 -49.9446964  16.8032408   7.6292402
 -48.3776236  17.5441325   7.3412460 -50.0348520  18.7293029   6.6606426
 -49.6393013  19.1696167   5.7453489 -51.1124277  18.6035550   6.5551752
 -49.7075462  19.6472442   7.8446037 -50.2654505  19.3390918   8.7288481
 -48.6502647  19.5300174   8.0823410 -49.9385548  21.0771179   7.5433338
 -50.9045649  21.3619947   7.6192987 -49.3691492  21.6323900   8.1658798
 -49.5888376  21.3293839   6.6300076 -48.2851458  14.3038094   4.7852966
 -48.7857771  13.2242131   5.0892091 -47.7652264  14.5284867   3.5751709
 -47.3643351  15.4331577   3.3727872 -47.6193333  13.4360468   2.5928393
 -48.5711002  12.9124320   2.5030386 -47.2444963  13.9448977   1.1924850
 -46.3918018  14.6207500   1.2575376 -46.9585466  13.0811250   0.5922946
 -48.4283352  14.6344626   0.5013328 -49.3251133  14.0356410   0.6603951
 -48.5876513  15.6045854   0.9720564 -48.2427645  14.8316181  -1.0136446
 -49.2100859  15.2911270  -1.6565663 -47.1141338  14.6999955  -1.5492684
 -46.6099405  12.3830950   3.0634892 -46.8402243  11.1934364   2.8760204
 -45.5355120  12.7816153   3.7543041 -45.3807592  13.7716818   3.8804841
 -44.5781612  11.8166471   4.3261364 -44.2256308  11.1867845   3.5093760
 -43.3438873  12.5102806   4.9259326 -43.6264992  13.0333722   5.8394998
 -42.2091722  11.5332353   5.2409840 -41.8083429  11.1225092   4.3143004
 -41.4232159  12.0649624   5.7773048 -42.5686216  10.7148743   5.8648247
 -42.7866793  13.4202373   4.0026367 -43.4080648  14.1369462   3.8549176
 -45.2432013  10.8815789   5.3529280 -44.9043131   9.7022712   5.4005271
 -46.2162495  11.3557577   6.1393911 -46.3893414  12.3506188   6.1194962
 -47.0687485  10.5438924   7.0219290 -46.4171982   9.8833686   7.5940192
 -47.8006935  11.4448917   8.0361807 -47.0888615  12.1503377   8.4648359
 -48.5647106  12.0198858   7.5129646 -48.4702682  10.6744730   9.1892320
 -49.0546131  11.3794911   9.7804964 -49.1617775   9.9337262   8.7877256
 -47.4346066   9.9968457  10.0965428 -47.1114922   8.8101816   9.8772091
 -46.8284559  10.6927419  10.9410274 -48.0525112   9.6502644   6.2422216
 -48.2523727   8.4880656   6.5962321 -48.6525345  10.1497734   5.1564193
 -48.4861183  11.1172616   4.9189818 -49.4344425   9.3324536   4.2148262
 -50.3208637   8.9367861   4.7106126 -49.7585297   9.9586171   3.3835700
 -48.6231422   8.1590497   3.6510473 -48.9952612   6.9952005   3.8049752
 -47.4425220   8.4566301   3.1010452 -47.2200155   9.4371051   3.0047852
 -46.4572144   7.4870521   2.6168987 -46.9007254   6.9298536   1.7917129
 -45.2327871   8.2722080   2.1103570 -45.5326033   8.9406800   1.3032922
 -44.8691225   8.8993353   2.9243347 -44.0658665   7.4053210   1.6166884
 -43.7593317   6.7072755   2.3957054 -44.4448185   6.6123205   0.3649122
 -44.7866774   7.2900569  -0.4173311 -43.5895348   6.0349852   0.0138080
 -45.2487183   5.9150720   0.6008999 -42.8785276   8.3186162   1.3206106
 -42.5823689   8.8311052   2.2358947 -42.0336723   7.7321625   0.9595147
 -43.1609392   9.0724576   0.5857177 -46.0436153   6.4854330   3.7032154
 -45.9548140   5.2839619   3.4550020 -45.7665110   6.9851142   4.9099210
 -45.8269215   7.9881793   5.0114864 -45.3839350   6.2037545   6.0920769
 -44.5071888   5.6047308   5.8459401 -45.0025225   7.2194827   7.1787530
 -44.1549730   7.7884793   6.7966509 -45.8413172   7.8986233   7.3313493
 -44.6083641   6.6704983   8.5465938 -45.5038691   6.4414704   9.1242731
 -44.0374899   5.7539308   8.3979124 -43.7292099   7.6807505   9.3067455
 -43.4827948   7.2497702  10.2771246 -42.7966070   7.8140658   8.7585020
 -44.3900108   8.9846390   9.5296830 -45.3106260   8.9582282   9.9442744
 -43.9502144  10.1959229   9.2279083 -44.5026445  11.2674057   9.6899843
 -45.3339005  11.1925006  10.2587676 -44.1336536  12.1578300   9.3881667
 -42.9364443  10.4214728   8.4540617 -42.5769758   9.6831179   7.8660977
 -42.7049923  11.3942933   8.3120632 -46.4744902   5.2103090   6.4997500
 -46.1501265   4.0584412   6.7860401 -47.7456856   5.6082791   6.4482629
 -47.9274797   6.5773326   6.2291980 -48.8939238   4.7109985   6.6179055
 -48.7368488   4.1263130   7.5243104 -50.1812363   5.5249304   6.8127173
 -50.2658367   6.2514228   6.0045397 -51.0424137   4.8589057   6.7589957
 -50.2119398   6.2465888   8.1717891 -50.4205799   5.5260867   8.9626408
 -49.2452621   6.7067581   8.3764362 -51.2655258   7.3449129   8.1946272
 -52.3200941   7.2231501   8.7970787 -51.0279512   8.4406549   7.5129843
 -51.7345524   9.1622448   7.5237912 -50.1293373   8.5469079   7.0643073
 -49.0308857   3.6973709   5.4680562 -49.0784216   2.4978419   5.7368481
 -49.0390110   4.1364342   4.2034572 -49.0227604   5.1340038   4.0463027
 -49.0924263   3.2607400   3.0151209 -50.0499773   2.7399805   3.0180690
 -48.9700937   4.0935090   1.7184581 -48.3583927   4.9765700   1.9031794
 -48.4575462   3.5029852   0.9590664 -50.3237057   4.5232189   1.1381947
 -50.8586216   5.1186097   1.8781091 -50.1440477   5.1439953   0.2604353
 -51.1570024   3.3011660   0.7347299 -50.7746315   2.5633052  -0.2075287
 -52.1342468   2.9600841   1.4418767 -48.0118942   2.1690172   3.0291304
 -48.2968903   0.9857685   2.8389561 -46.7606068   2.5525811   3.2772872
 -46.5861273   3.5394725   3.4026137 -45.6283569   1.6283770   3.3532226
 -45.7039833   0.9364861   2.5143746 -44.3145752   2.4081266   3.2102439
 -44.2555666   3.1035879   4.0474728 -43.4709978   1.7216685   3.2827008
 -44.1977835   3.2185674   1.9024019 -45.1747227   3.6041194   1.6107845
 -43.5787678   4.0887794   2.1206854 -43.4517765   2.4035946   0.4581146
 -44.7051477   1.1578087   0.0394515 -45.6982565   1.6069561   0.0493204
 -44.5050383   0.7536817  -0.9528878 -44.6645737   0.3355328   0.7538153
 -45.6515169   0.7567322   4.6199393 -45.1877213  -0.3822762   4.5820063
 -46.2239552   1.2329625   5.7340354 -46.5595245   2.1855256   5.7449096
 -46.4923906   0.3783012   6.9006401 -45.5817604  -0.1791007   7.1200758
 -46.8190432   1.2045188   8.1457412 -46.0695696   1.9862936   8.2691222
 -47.8015089   1.6648626   8.0411327 -46.7882013   0.3696157   9.2908281
 -47.3533535  -0.3924738   9.1444296 -47.5997496  -0.6501472   6.6336155
 -47.4864769  -1.7875393   7.0797271 -48.6447239  -0.2975577   5.8732951
 -48.7123013   0.6680960   5.5851072 -49.6419430  -1.2492724   5.3523540
 -50.0736523  -1.8049149   6.1848134 -50.7636881  -0.4661308   4.6466061
 -51.2676048   0.1665043   5.3773189 -50.3073931   0.2048847   3.9188480
 -51.8222904  -1.3404676   3.9428002 -51.3749027  -2.2363488   3.5122868
 -52.5607061  -1.6550560   4.6802804 -52.5255251  -0.5820353   2.8077510
 -53.3904600  -1.1595429   2.4814531 -52.8684616   0.3833383   3.1799755
 -51.5784359  -0.3744731   1.6145216 -50.6791544   0.1337490   1.9625223
 -51.2801981  -1.3393514   1.2044412 -52.2073460   0.4658281   0.5754789
 -52.5220966   1.3296559   0.9936232 -51.5156221   0.8709948  -0.0389070
 -52.9620886   0.0299097   0.0651507 -48.9769220  -2.2839004   4.4400004
 -49.2563963  -3.4707293   4.5739064 -48.0745411  -1.8567272   3.5564363
 -47.9516935  -0.8606413   3.4431890 -47.2719145  -2.7603480   2.7197888
 -47.9748011  -3.3614033   2.1429177 -46.4295530  -1.9364744   1.7236698
 -46.9919062  -1.0483230   1.4354937 -45.5090952  -1.6106212   2.2081107
 -46.0862064  -2.6899067   0.4328838 -45.2987576  -2.1686840  -0.3852523
 -46.5972137  -3.8067448   0.2103563 -46.4215612  -3.7414262   3.5630286
 -46.3416004  -4.9300474   3.2650769 -45.8462715  -3.2840699   4.6818918
 -45.8867931  -2.2898526   4.8550761 -45.1687193  -4.1395622   5.6691539
 -44.4357014  -4.7387698   5.1290256 -44.4097137  -3.2305056   6.6542298
 -43.6800718  -2.6450735   6.0947704 -45.1212740  -2.5324062   7.0951778
 -43.6983442  -3.9554098   7.8101063 -44.4153357  -4.5409554   8.3855653
 -42.5784302  -4.8779124   7.3210371 -41.8773508  -4.3132669   6.7064095
 -42.0550251  -5.3109366   8.1734663 -43.0000544  -5.6862891   6.7236602
 -43.0938005  -2.9222158   8.7548733 -43.8880205  -2.2882278   9.1490430
 -42.5999784  -3.4210330   9.5887935 -42.3828506  -2.3036203   8.2071573
 -46.1054850  -5.1401699   6.3869774 -45.6602907  -6.2212485   6.7914015
 -47.3828030  -4.8120493   6.5841484 -47.6889563  -3.8929427   6.2984639
 -48.3968592  -5.7736146   7.0437133 -47.9576778  -6.3853055   7.8317803
 -49.6207142  -5.0617731   7.6566911 -50.1042318  -4.4378623   6.9049966
 -50.3343534  -5.8320069   7.9491979 -49.3194389  -4.2030022   8.9050239
 -48.9514971  -3.2287717   8.5831666 -50.2504253  -4.0337127   9.4460493
 -48.2906103  -4.8512110   9.8437375 -47.2095442  -4.2704436  10.0967526
 -48.4621382  -6.0382092  10.2068555 -48.7762928  -6.7963272   5.9606719
 -48.7992525  -7.9893982   6.2522149 -48.9791536  -6.3650966   4.7135276
 -48.9464235  -5.3675514   4.5588100 -49.1382551  -7.2231245   3.5230353
 -50.0509501  -7.8100896   3.6257920 -49.3167543  -6.3022375   2.2975662
 -50.3281498  -5.8960003   2.3100688 -48.6427879  -5.4531831   2.4114729
 -49.0297699  -6.8866265   0.9078766 -48.9746332  -6.0488653   0.2127374
 -48.0517578  -7.3677242   0.8958659 -50.0902271  -7.8603500   0.3902727
 -50.2034140  -7.9862189  -0.8486219 -50.7938242  -8.5459542   1.1685500
 -47.9889965  -8.2422054   3.3770213 -48.2397556  -9.4511622   3.3692396
 -46.7258787  -7.7802581   3.3542821 -46.5978527  -6.7786646   3.3313486
 -45.5250168  -8.6456674   3.3783355 -45.4621124  -9.1816515   2.4313061
 -44.2180872  -7.8353590   3.5688365 -44.3403101  -7.1635789   4.4184676
 -42.9874420  -8.7203586   3.8391960 -42.8895712  -9.4614953   3.0459502
 -42.0864820  -8.1075823   3.8687304 -43.0800533  -9.2293841   4.7985792
 -43.8683558  -6.9973350   2.3394974 -44.6973038  -6.3308525   2.1012825
 -42.9879284  -6.3857758   2.5368258 -43.6750698  -7.6483887   1.4869311
 -45.6357956  -9.6907711   4.4861555 -45.4834032 -10.8837843   4.2461944
 -45.8893728  -9.2510217   5.7220280 -46.0778952  -8.2644546   5.8280843
 -45.9159279 -10.1080108   6.9162816 -44.9768829 -10.6591594   6.9665712
 -46.0108662  -9.1763741   8.1253088 -45.2433634  -8.4145123   7.9888982
 -46.9913578  -8.7002844   8.1341469 -45.7510042  -9.8335224   9.4833672
 -46.4121389 -10.6918573   9.6027845 -44.7193193 -10.1837099   9.5164382
 -45.9947205  -8.8661790  10.6573129 -47.0614672  -8.6532283  10.7266581
 -45.7123995  -9.3861377  11.5727580 -45.2211142  -7.5335038  10.6108153
 -45.2307367  -7.1192908  11.6190004 -44.1854811  -7.7100897  10.3203285
 -45.8653736  -6.5495700   9.7100037 -46.8639708  -6.5565079   9.8612219
 -45.6878567  -5.5828011   9.9422818 -45.7065630  -6.6906762   8.7225968
 -47.0342493 -11.1563456   6.8660170 -46.7855930 -12.3262250   7.1603841
 -48.2365417 -10.7532036   6.4569104 -48.3562899  -9.7771198   6.2266368
 -49.3779850 -11.6364169   6.2427396 -49.5929003 -12.1572256   7.1758360
 -50.5980682 -10.7806861   5.8783382 -50.4125118 -10.2318907   4.9550322
 -51.4696503 -11.4211547   5.7432806 -50.8015776 -10.0670469   6.6767126
 -49.0906811 -12.7072728   5.1787096 -49.3189812 -13.8906217   5.4252362
 -48.5575676 -12.3139226   4.0145817 -48.4118080 -11.3254356   3.8670850
 -48.2222891 -13.2367516   2.9167569 -49.0384579 -13.9522743   2.8167903
 -48.1204844 -12.4504423   1.6026098 -47.5008297 -11.5634060   1.7341383
 -47.6456547 -13.0864906   0.8555612 -49.5272493 -12.0507348   1.1129553
 -50.1704359 -12.9305661   1.1306079 -49.9540138 -11.2891018   1.7655574
 -49.4640541 -11.5265179  -0.3218194 -49.0148306 -10.5334246  -0.3296516
 -48.8223743 -12.2012484  -0.8884612 -50.8254719 -11.5112269  -1.0263414
 -50.6367779 -11.6185200  -2.0945090 -51.4148855 -12.3684144  -0.7008787
 -51.5787649 -10.2566433  -0.8205608 -51.0323954  -9.4644600  -1.1272076
 -52.4349022 -10.2329195  -1.3558869 -51.7010641 -10.0095928   0.1510950
 -46.9912291 -14.1101646   3.1874773 -46.9467258 -15.2516603   2.7294493
 -46.0242510 -13.6210608   3.9666584 -46.0770798 -12.6411915   4.2057607
 -44.9331951 -14.4203103   4.5500362 -44.3858004 -14.8817301   3.7281191
 -43.9356470 -13.5393190   5.3360856 -44.4843245 -12.7809763   5.8946246
 -43.0483437 -14.3006420   6.3345301 -42.5238276 -15.1120317   5.8299237
 -42.3224449 -13.6164641   6.7739266 -43.6537218 -14.7062123   7.1451682
 -42.9837847 -12.8485262   4.3562001 -43.5535145 -12.3241162   3.5890621
 -42.3692942 -12.1212983   4.8869020 -42.3450756 -13.5858035   3.8698092
 -45.4511166 -15.5787075   5.3987801 -44.9827147 -16.6958869   5.2052391
 -46.3631487 -15.3432238   6.3504672 -46.7212582 -14.4042885   6.4517713
 -46.6999531 -16.3280559   7.3918378 -45.7819080 -16.4672577   7.9627311
 -47.7134371 -15.7329619   8.3875132 -47.2882271 -14.8242700   8.8136309
 -48.6255407 -15.4502106   7.8619450 -48.0889082 -16.6811037   9.5409745
 -48.8157606 -16.1771464  10.1780081 -48.5704565 -17.5749338   9.1443878
 -46.8988180 -17.0828390  10.4127574 -46.4446735 -16.3424528  11.2686670
 -46.3400984 -18.2584262  10.2308214 -45.6010866 -18.5261452  10.8650756
 -46.6267872 -18.8520110   9.4655955 -47.0669174 -17.7460253   6.8771482
 -46.5261745 -18.7091911   7.4244422 -47.9025459 -17.9348350   5.8347034
 -48.8193798 -16.9645607   5.2603316 -48.2969570 -16.3523853   4.5252022
 -49.2723370 -16.3353658   6.0265189 -49.9101067 -17.7821803   4.5750049
 -50.3522682 -17.2425115   3.7375373 -50.6725740 -18.0587626   5.3031856
 -49.1573048 -19.0289688   4.1176555 -48.6499929 -18.8139153   3.1771812
 -49.8236322 -19.8839951   4.0034780 -48.1363916 -19.2545164   5.2401245
 -48.5819674 -19.8995590   5.9974116 -46.8632460 -19.9365163   4.7156492
 -46.6467381 -21.1174965   4.9709731 -46.0063696 -19.2051744   3.9930370
 -46.1889982 -18.2184255   3.8786951 -44.7438335 -19.7485077   3.4770426
 -44.9615812 -20.7318068   3.0601430 -44.2182302 -18.8708150   2.3365958
 -45.0003719 -18.7693310   1.5842302 -44.0012741 -17.8776562   2.7298728
 -42.9805136 -19.4315529   1.6565129 -41.7999315 -18.6649477   1.5747651
 -41.7602777 -17.6801455   2.0163465 -40.6699944 -19.1757011   0.9058481
 -39.7763610 -18.5745573   0.8255368 -40.7066298 -20.4717922   0.3438945
 -39.6190214 -20.9590626  -0.3103453 -38.9057493 -20.3165889  -0.3184231
 -41.8754292 -21.2505388   0.4587873 -41.9110060 -22.2470093   0.0438367
 -43.0102253 -20.7282996   1.1029647 -43.8942814 -21.3442612   1.1767200
 -43.6758995 -19.9626148   4.5625436 -42.8573799 -20.8709097   4.4590983
 -43.6851692 -19.1466010   5.6193507 -44.3530798 -18.3889771   5.6178635
 -42.8926945 -19.3650150   6.8286288 -41.8421936 -19.4224489   6.5435916
 -43.0849934 -18.1548524   7.7655500 -42.6671886 -17.2734153   7.2791249
 -44.1552639 -17.9889083   7.8883213 -42.4839449 -18.2836139   9.1770905
 -42.9315376 -19.1319501   9.6948618 -40.9666061 -18.4522390   9.1506058
 -40.5154991 -17.5933623   8.6536860 -40.5874491 -18.5298765  10.1695812
 -40.7093239 -19.3665540   8.6158788 -42.7839041 -17.0136726   9.9770004
 -43.8615179 -16.8604553  10.0350857 -42.3952341 -17.1139336  10.9904015
 -42.3303938 -16.1471117   9.4958568 -43.2487297 -20.7072210   7.4866235
 -42.3428392 -21.4496303   7.8570396 -44.5415926 -21.0206962   7.6095074
 -45.2379417 -20.3663421   7.2823656 -45.0106907 -22.3033309   8.1475198
 -44.4802141 -22.4686241   9.0852696 -46.5130520 -22.2185159   8.4714234
 -46.7277336 -21.2252235   8.8656121 -47.0908880 -22.3432541   7.5556469
 -46.9803143 -23.2334399   9.5264709 -48.2138014 -23.4111118   9.6258569
 -46.1257076 -23.7698269  10.2685082 -44.6591854 -23.4906673   7.2283417
 -43.9984798 -24.4238210   7.6870221 -44.9850559 -23.4188056   5.9213156
 -45.5417442 -22.6329255   5.6170303 -44.5153761 -24.3768167   4.8922509
 -45.0286007 -25.3287411   5.0284272 -44.8103285 -23.8681054   3.4582132
 -45.8896637 -23.8649106   3.3061334 -44.4646215 -22.8371167   3.3830708
 -44.1455507 -24.6733999   2.3113132 -44.0427160 -24.1211247   1.1899912
 -43.7333679 -25.8343577   2.5219664 -43.0186796 -24.6429968   5.0509346
 -42.6053619 -25.7564306   5.3745061 -42.1874857 -23.6072826   4.9124572
 -42.5650024 -22.6937771   4.7048664 -40.7494450 -23.8083315   4.8985034
 -40.5778933 -24.6229911   4.1949409 -40.0022650 -22.5963068   4.3301964
 -40.6550503 -22.0634675   3.6387807 -39.7405481 -21.9099092   5.1354671
 -38.7585878 -23.0165434   3.5643935 -38.8397145 -23.2276750   2.1743941
 -39.7729397 -23.0502582   1.6605704 -37.7143717 -23.6697936   1.4552514
 -37.7840900 -23.8108206   0.3867707 -36.5055394 -23.9221764   2.1280873
 -35.6437469 -24.2724109   1.5794082 -36.4208794 -23.7192130   3.5175386
 -35.4957008 -23.9180875   4.0380156 -37.5438070 -23.2628560   4.2331585
 -37.4810481 -23.1226611   5.3021795 -40.2000856 -24.2906928   6.2467009
 -39.1748929 -24.9603629   6.2472928 -40.8406019 -24.0224028   7.3922169
 -41.6896009 -23.4768343   7.3514289 -40.4749918 -24.6513486   8.6725777
 -39.3870378 -24.6934628   8.7243241 -40.9548569 -23.8025641   9.8625290
 -42.0154762 -23.5831714   9.7398239 -40.8352089 -24.3786335  10.7800949
 -40.1776028 -22.4799490  10.0206637 -40.2258635 -21.9063735   9.0950388
 -40.6524563 -21.8890285  10.8038807 -38.7106299 -22.6811981  10.3896117
 -38.3223796 -22.7079988  11.5452921 -37.8268671 -22.8425217   9.4274765
 -36.8851566 -23.0571556   9.7227842 -38.1275916 -22.8635359   8.4635156
 -40.9079647 -26.1244273   8.7818915 -40.0710392 -26.9672966   9.1243762
 -42.1555662 -26.4712811   8.4331483 -42.7877855 -25.7369947   8.1481391
 -42.6367807 -27.8664565   8.3386350 -42.5356865 -28.3361006   9.3170601
 -44.1283321 -27.8540301   7.9323608 -44.7212029 -27.4661136   8.7606877
 -44.2556953 -27.1696949   7.0935732 -44.6945477 -29.2199779   7.4951047
 -45.7194185 -29.0737844   7.1539760 -44.1296339 -29.5760131   6.6335869
 -44.7052908 -30.2966523   8.5961074 -43.8826609 -30.1530170   9.2966455
 -45.6383038 -30.2050972   9.1521668 -44.6136141 -31.7041969   7.9868406
 -45.0720358 -32.4205804   8.6685622 -45.1703024 -31.7233920   7.0499146
 -43.2054615 -32.0986414   7.7489960 -42.7227020 -32.2808433   8.6172414
 -43.1319237 -32.9156899   7.1598148 -42.6828194 -31.3673830   7.2883385
 -41.7935705 -28.6891222   7.3591059 -41.4954090 -29.8576522   7.6148838
 -41.4193821 -28.0890679   6.2350202 -41.8189573 -27.1778655   6.0613549
 -40.5472136 -28.6510611   5.2064312 -40.8884048 -29.6594954   4.9724442
 -40.7142019 -27.7850342   3.9555845 -41.7813683 -27.6624441   3.7705788
 -40.2826405 -26.7998290   4.1323033 -40.0879002 -28.3929086   2.7030972
 -39.0019011 -28.3882499   2.7963105 -40.4406881 -29.4162941   2.5753289
 -40.5280828 -27.5478053   1.5019019 -41.6168499 -27.5388050   1.4508463
 -40.1946783 -26.5175676   1.6266136 -39.9946308 -28.1150365   0.1899141
 -40.3004694 -29.1569996   0.0956881 -40.4619408 -27.5598621  -0.6234159
 -38.5207033 -27.9946017   0.0874749 -38.0412483 -28.7343645   0.5804105
 -38.2486033 -28.0651879  -0.8826172 -38.1974411 -27.1123552   0.4579290
 -39.1041422 -28.7710285   5.6901908 -38.5533261 -29.8593402   5.6436443
 -38.5021710 -27.7065253   6.2249577 -39.0057683 -26.8310809   6.2344521
 -37.1293426 -27.7116251   6.7600977 -36.4465308 -27.9670668   5.9497792
 -36.7721987 -26.3024902   7.2483510 -36.7036223 -25.6407285   6.3849455
 -37.5854611 -25.9521794   7.8839487 -35.5218506 -26.1525106   8.0494452
 -34.2640281 -26.3272047   7.5914532 -34.0117908 -26.5990520   6.5771168
 -33.3716846 -26.1411047   8.6272198 -32.3751211 -26.2722421   8.5284257
 -34.0120769 -25.8314300   9.8077923 -33.5581708 -25.5868840  11.1127138
 -32.5019956 -25.6074834  11.3373756 -34.4987965 -25.3327060  12.1263063
 -34.1695404 -25.1365304  13.1360126 -35.8715725 -25.3195691  11.8213999
 -36.5952897 -25.1045728  12.5936759 -36.3151145 -25.5815983  10.5113721
 -37.3738718 -25.5880046  10.2983177 -35.3974009 -25.8402967   9.4701385
 -36.9055772 -28.7612128   7.8580201 -35.8611560 -29.4090867   7.8678936
 -37.8880143 -28.9741898   8.7395382 -38.6904097 -28.3616257   8.7073702
 -37.9523182 -30.1366663   9.6347070 -37.1578550 -30.0640416  10.3774381
 -39.3110490 -30.0848198  10.3644705 -39.2982173 -29.2628479  11.0802221
 -40.0677538 -29.8378038   9.6198344 -39.7819805 -31.3650107  11.0815454
 -39.4540048 -32.2607923  10.5541861 -39.3620729 -31.3971186  12.0869052
 -41.3070297 -31.4141178  11.1415386 -41.9810677 -31.9686937  10.2850580
 -41.9228172 -30.7964396  12.1255577 -42.9318714 -30.8400249  12.1273077
 -41.3957453 -30.2998376  12.8296018 -37.7311087 -31.4536977   8.8667029
 -36.7754388 -32.1725821   9.1336811 -38.5969329 -31.7534971   7.9014969
 -39.3126249 -31.0759282   7.6806146 -38.6000872 -33.0000782   7.1242380
 -38.6723495 -33.8400221   7.8151608 -39.8673725 -32.9724145   6.2650341
 -40.6830072 -32.6680350   6.9209242 -39.7723174 -32.2174430   5.4845965
 -40.2371979 -34.3107748   5.6226104 -39.5428085 -34.5288706   4.8112169
 -40.1587725 -35.1005769   6.3697147 -41.6826820 -34.2413759   5.1132250
 -42.5802326 -33.9880371   5.9577042 -41.8772411 -34.3695927   3.8884678
 -37.3224378 -33.2108355   6.2923503 -36.7177796 -34.2825508   6.3286167
 -36.8746090 -32.1575546   5.6020015 -37.4485445 -31.3266754   5.6205112
 -35.5678725 -32.0639396   4.9385950 -35.5355215 -32.7628875   4.1028181
 -35.3544116 -30.6326604   4.3985176 -35.3747964 -29.9537611   5.2510309
 -34.3593001 -30.5511236   3.9612472 -36.3981104 -30.1207972   3.3823395
 -37.3818493 -30.5306816   3.6111459 -36.4588308 -29.0377426   3.4891319
 -36.1080933 -30.4366016   1.9134724 -35.2581644 -31.3109112   1.6233768
 -36.7962408 -29.8371649   1.0526161 -34.4313025 -32.4464464   5.9051067
 -33.6090350 -33.3086872   5.5991721 -34.3885565 -31.8461490   7.1025014
 -35.1134300 -31.1837101   7.3387963 -33.4079528 -32.2143650   8.1257629
 -32.4128032 -32.0997357   7.6960671 -33.5026217 -31.3218498   9.3624705
 -34.5418549 -31.2373161   9.6801919 -32.9446554 -31.8088245  10.1622367
 -32.8948474 -29.9334049   9.1908413 -31.8888354 -30.0436521   8.7860179
 -33.4832644 -29.3526435   8.4805024 -32.7906322 -29.0437198  10.7687449
 -34.5668221 -28.8175035  11.0898519 -35.0470018 -29.7736740  11.2978590
 -34.7071910 -28.1526256  11.9421041 -35.0432158 -28.3800459  10.2124798
 -33.5141420 -33.6694789   8.5845280 -32.4694467 -34.2840290   8.7728566
 -34.7090268 -34.2236781   8.8018847 -35.5393982 -33.6667776   8.6588842
 -34.8545909 -35.6287074   9.2167813 -34.2529035 -35.7831860  10.1124418
 -36.3147759 -35.9802985   9.5669562 -36.9195795 -35.9316945   8.6614454
 -36.3195038 -37.0188713   9.8977840 -37.0185375 -35.1469159  10.6633759
 -37.4986148 -34.2916799  10.1877749 -37.8233886 -35.7506895  11.0826313
 -36.1216640 -34.6514010  11.8118370 -36.3185263 -33.5144472  12.3160827
 -35.2082515 -35.3960252  12.2441781 -34.2708087 -36.5985537   8.1733316
 -33.5102010 -37.5044441   8.5288912 -34.5382881 -36.3620758   6.8816638
 -35.1688337 -35.6036973   6.6639912 -33.8619304 -37.0382810   5.7663959
 -34.0868855 -38.1034589   5.8201957 -34.4336939 -36.4867544   4.4401991
 -35.4711580 -36.8083549   4.3488732 -34.4397616 -35.3979969   4.4918701
 -33.6680460 -36.8837309   3.1613937 -32.6258993 -36.5760469   3.2471704
 -33.7127018 -38.3913541   2.9097360 -34.7467589 -38.7257147   2.8258976
 -33.1860733 -38.6202216   1.9832478 -33.2232785 -38.9229751   3.7257898
 -34.2664146 -36.1655354   1.9511133 -34.2263103 -35.0878549   2.1095310
 -33.6864495 -36.4062214   1.0601527 -35.3023672 -36.4712572   1.8047094
 -32.3309493 -36.8957710   5.8589637 -31.6037297 -37.8909898   5.8459753
 -31.8255806 -35.6660008   5.9712785 -32.4670100 -34.8864269   5.9405828
 -30.3860950 -35.3870130   5.9737593 -29.9471784 -35.8906364   5.1124710
 -30.1725650 -33.8761926   5.7941461 -30.6004429 -33.3718324   6.6605419
 -29.1013980 -33.6746836   5.8036649 -30.7562351 -33.2461047   4.5310032
 -31.1222959 -31.8848801   4.5569837 -30.9865880 -31.3099027   5.4610771
 -31.7352605 -31.2871552   3.4387377 -32.0453811 -30.2529740   3.4650823
 -31.9881368 -32.0494223   2.2801214 -32.6328111 -31.4887190   1.2247916
 -33.5677338 -31.3716412   1.4087312 -31.5780568 -33.3968878   2.2287422
 -31.7608595 -33.9773321   1.3365148 -30.9667468 -33.9925361   3.3484823
 -30.7015944 -35.0376940   3.2873249 -29.6372867 -35.9512353   7.1986854
 -28.5132694 -36.4357066   7.0457399 -30.2550888 -35.9442139   8.3907038
 -31.1731529 -35.5242348   8.4204239 -29.7650290 -36.6107488   9.6176767
 -28.7586164 -36.2688637   9.8592323 -30.7022429 -36.3112044  10.8024287
 -31.7194939 -36.5594649  10.4996598 -30.4369330 -36.9618940  11.6356838
 -30.6645823 -34.8607683  11.3083875 -29.7341561 -34.6782041  11.8460476
 -30.7177043 -34.1681933  10.4683781 -31.8520045 -34.6246839  12.2500324
 -32.7293444 -35.1125789  11.8253744 -31.6413021 -35.0825381  13.2165098
 -32.1662402 -33.1931305  12.4170148 -31.6328073 -32.5347209  11.8674314
 -33.2682657 -32.7486396  12.9960775 -33.6696911 -31.5210295  12.8546333
 -33.2028627 -30.8913541  12.2177052 -34.6187615 -31.3402057  13.1490242
 -34.0382099 -33.5049653  13.7054503 -33.9486980 -34.4909120  13.5054410
 -35.0221539 -33.3165121  13.5771883 -29.6777034 -38.1257653   9.4312549
 -28.6333346 -38.7161827   9.6831763 -30.7615805 -38.7455058   8.9620340
 -31.5877128 -38.1939292   8.7793612 -30.8280873 -40.1855183   8.6967629
 -30.6369901 -40.7185125   9.6281618 -32.2608113 -40.5042791   8.2424647
 -32.9358816 -40.2049589   9.0442038 -32.4957538 -39.9134707   7.3571140
 -32.5132442 -41.9858408   7.9238403 -31.9436955 -42.2640657   7.0371026
 -32.1720815 -42.5913143   8.7635481 -33.9861274 -42.3168039   7.6674110
 -34.3780732 -43.4679270   7.6306009 -34.8705053 -41.3558626   7.4929452
 -35.8208990 -41.6579485   7.3329723 -34.6036339 -40.3834009   7.5494844
 -29.7577405 -40.6428719   7.6893055 -29.0927935 -41.6562700   7.8970104
 -29.5711493 -39.8732471   6.6099238 -30.2022314 -39.0944862   6.4859486
 -28.6258912 -40.1698923   5.5256712 -28.7872338 -41.1973238   5.1993942
 -28.9480543 -39.2238092   4.3603423 -30.0183320 -39.2653465   4.1581550
 -28.7006235 -38.2069707   4.6651667 -28.2112813 -39.5893216   3.0606526
 -27.1408224 -39.6936512   3.2376751 -28.5959625 -40.5420351   2.6967078
 -28.4183764 -38.5233235   1.9812724 -28.0753517 -38.9163113   1.0241947
 -29.4797444 -38.2911110   1.8936791 -27.6214790 -37.2576165   2.3188770
 -27.9000759 -36.9100523   3.3137053 -26.5599918 -37.5052834   2.3162505
 -27.9048705 -36.2043548   1.3283403 -28.8929272 -35.9969044   1.2997769
 -27.3738861 -35.3519726   1.4360149 -27.8264308 -36.5664673   0.3887481
 -27.1475434 -40.0714350   5.9254152 -26.3391399 -40.8454609   5.4166037
 -26.7572355 -39.1079330   6.7704272 -27.4567533 -38.5074949   7.1830440
 -25.3229141 -38.8195419   6.9822097 -24.8669910 -38.7832737   5.9928060
 -25.0711417 -37.4312901   7.6121378 -25.5197430 -36.6882706   6.9527620
 -25.6683111 -37.2388577   9.0079767 -25.3148937 -38.0063462   9.6965688
 -25.4012632 -36.2561202   9.3965775 -26.7551589 -37.2882700   8.9415044
 -23.5714626 -37.1126366   7.7084225 -23.1056094 -37.2441125   6.7317986
 -23.4267092 -36.0824895   8.0339044 -23.0904961 -37.7730513   8.4299648
 -24.5719266 -39.9329281   7.7169138 -23.4260392 -40.2004433   7.3724151
 -25.1624560 -40.5777454   8.7207431 -26.1053133 -40.3219652   8.9770567
 -24.4161081 -41.4919710   9.6016079 -23.5528541 -40.9128523   9.9294966
 -25.2338004 -41.8396091  10.8609045 -26.0577226 -41.1338663  10.9666467
 -25.6580400 -42.8383684  10.7579207 -24.3960261 -41.7638922  12.1493983
 -25.0338602 -42.0288086  12.9926598 -23.6024356 -42.5091124  12.0950007
 -23.7730217 -40.3712273  12.4004948 -22.7786875 -40.2786493  13.1554580
 -24.2311311 -39.3776250  11.7914271 -23.7931871 -42.7372932   8.9279652
 -22.6078486 -42.9859400   9.1655058 -24.4928885 -43.5086775   8.0658382
 -25.9122133 -43.4398890   7.7339149 -26.2501550 -42.4251080   7.5239021
 -26.4983940 -43.8655519   8.5483497 -26.0820007 -44.2858744   6.4742041
 -25.8757496 -43.6785793   5.5928659 -27.0799875 -44.7200823   6.4143193
 -25.0004649 -45.3544903   6.6256529 -24.6884918 -45.7565212   5.6617308
 -25.3751779 -46.1565781   7.2615385 -23.8632870 -44.6240234   7.3494810
 -23.4123158 -45.3076077   8.0688095 -22.7505589 -44.1616774   6.3937533
 -21.6781616 -44.7637939   6.3616192 -22.9563093 -43.0550337   5.6684256
 -23.8479471 -42.5871468   5.7469380 -21.9211173 -42.4460888   4.8219383
 -21.5495420 -43.2093716   4.1382495 -22.5744462 -41.3239622   3.9916989
 -23.3505988 -41.7653513   3.3665067 -23.0556440 -40.6253958   4.6762094
 -21.6070604 -40.5280209   3.0939159 -20.8399725 -40.0636196   3.7135956
 -20.9341645 -41.3917732   2.0273973 -21.6822195 -41.8937731   1.4137961
 -20.2999139 -40.7761097   1.3896011 -20.3058338 -42.1507359   2.4935266
 -22.3750496 -39.4094920   2.3865403 -22.8407025 -38.7581801   3.1261745
 -21.6864848 -38.8231635   1.7781018 -23.1435275 -39.8380685   1.7432195
 -20.7124996 -41.9569302   5.6459391 -19.5649624 -42.1131182   5.2354288
 -20.9519935 -41.3951588   6.8375582 -21.9184899 -41.2744904   7.1048206
 -19.9068832 -40.9935665   7.7917254 -19.2281044 -40.3027344   7.2916138
 -20.5572629 -40.2850771   8.9907342 -21.2333322 -39.5161247   8.6169112
 -21.1414242 -41.0075569   9.5607096 -19.5457530 -39.6157575   9.9325067
 -18.7341571 -40.3071833  10.1590967 -19.1257191 -38.7347507   9.4472224
 -20.2048874 -39.2137790  11.2583184 -20.5785108 -40.1137781  11.7466879
 -19.4469905 -38.7706423  11.9043255 -21.3278723 -38.2754588  11.0745239
 -21.7628741 -38.2319999  10.1640403 -21.9680214 -37.6480055  12.0410764
 -23.0443573 -36.9769359  11.7905903 -23.7065411 -37.6171923  11.3762259
 -23.4358573 -36.5246415  12.6043797 -21.6461515 -37.7703452  13.2889628
 -21.6250396 -38.7607789  13.4857035 -22.2234511 -37.2522688  13.9358175
 -19.0632164 -42.1914911   8.2286525 -17.8464854 -42.0535469   8.2974958
 -19.6876419 -43.3376932   8.5047066 -20.6961012 -43.3532429   8.4511471
 -18.9900684 -44.5886278   8.8052630 -18.3171725 -44.4081688   9.6435636
 -20.0098038 -45.6414223   9.2529058 -20.6781864 -45.8958149   8.4303194
 -19.4829917 -46.5410376   9.5711190 -20.5982256 -45.2608681  10.0877929
 -18.1147182 -45.0752211   7.6325864 -16.9323647 -45.3416204   7.8372872
 -18.6591423 -45.1344252   6.4093006 -19.6430576 -44.9288464   6.3105398
 -17.9003978 -45.4752588   5.1897568 -17.5512338 -46.5040731   5.2776337
 -18.8209319 -45.3888798   3.9534843 -19.6466768 -46.0888481   4.0811270
 -19.2301726 -44.3815708   3.8763139 -18.0700421 -45.7277918   2.6563710
 -17.2638643 -45.0100565   2.5045937 -17.6207089 -46.7147112   2.7667752
 -18.9691913 -45.7014132   1.4148320 -18.9346302 -46.6827297   0.6416976
 -19.6439195 -44.6786690   1.1505529 -16.6491055 -44.5937967   5.0228012
 -15.5238760 -45.0954533   4.9429256 -16.8428659 -43.2695675   5.0295466
 -17.7955449 -42.9378653   5.0793749 -15.7599747 -42.2859192   4.9377343
 -15.2073693 -42.4689245   4.0161937 -16.3633716 -40.8691788   4.8884013
 -16.9699895 -40.7316160   5.7834947 -15.5516970 -40.1426744   4.9268129
 -17.2291934 -40.5610228   3.6481094 -17.9580748 -41.3548851   3.4849790
 -17.9779482 -39.2457581   3.8730642 -17.2691822 -38.4391069   4.0603173
 -18.5788369 -39.0124536   2.9940867 -18.6412680 -39.3540478   4.7311899
 -16.3968420 -40.4184484   2.3759791 -15.8869207 -41.3580990   2.1635234
 -17.0540655 -40.1937008   1.5359518 -15.6663096 -39.6178508   2.4920066
 -14.7485185 -42.4180412   6.0919261 -13.5432255 -42.2828388   5.8701044
 -15.2209187 -42.6886511   7.3140246 -16.2177014 -42.8096199   7.4230820
 -14.3745506 -42.8928947   8.4880894 -13.7055194 -42.0354462   8.5607171
 -15.2223325 -42.9149055   9.7733927 -15.7679152 -41.9749498   9.8565781
 -15.9317803 -43.7416935   9.7386628 -14.3335354 -43.0663300  11.0130775
 -13.8062799 -44.0186357  10.9563982 -13.5913599 -42.2680664  11.0199177
 -15.1111782 -43.0258751  12.3223341 -14.8960698 -42.1805429  13.1788433
 -15.9461021 -43.9925814  12.6053119 -16.5424836 -43.9118385  13.4164238
 -15.9828424 -44.7907305  11.9874752 -13.4707141 -44.1242981   8.3580863
 -12.2530651 -43.9985704   8.5033792 -14.0350842 -45.3057289   8.1093502
 -15.0359035 -45.3616190   7.9854780 -13.2389903 -46.5365553   8.0573100
 -12.5309777 -46.5138388   8.8857430 -14.1128254 -47.7849293   8.2538813
 -14.7500825 -47.9137897   7.3790109 -13.4436738 -48.6443806   8.2949227
 -14.9969983 -47.8149033   9.5201916 -15.9660447 -47.3953056   9.2500222
 -15.1621830 -48.8527822   9.8093671 -14.4466186 -47.0326996  10.7292807
 -13.2472062 -47.1633768  11.0712862 -15.2152109 -46.2608767  11.3449109
 -12.3623383 -46.6088009   6.7988110 -11.2138975 -47.0454121   6.8868315
 -12.8261089 -46.0796404   5.6584167 -13.7826490 -45.7574320   5.6220978
 -11.9818759 -45.8568239   4.4779411 -11.6229832 -46.8156862   4.1039273
 -12.5770295 -45.3798866   3.6992091 -10.7669091 -44.9672604   4.7782725
  -9.6387303 -45.2874279   4.3958178 -10.9644735 -43.8686562   5.5143559
 -11.9056618 -43.6133289   5.7771796  -9.8592514 -43.0416870   5.9907091
  -9.2455924 -42.7731991   5.1308042 -10.4164016 -41.7504311   6.5833539
 -11.0370600 -41.9812965   7.4491382  -9.5858687 -41.1167574   6.8944347
 -11.0112333 -41.2240458   5.8368987  -8.9369589 -43.7739229   6.9842476
  -7.7200681 -43.5959148   6.9121325  -9.4706643 -44.6065187   7.8961957
 -10.4761815 -44.6972656   7.9245913  -8.6434168 -45.4360437   8.7993431
  -7.9064006 -44.7885513   9.2743826  -9.4704419 -46.1132383   9.9054271
 -10.3052437 -46.6675711   9.4765705  -8.8254577 -46.8233871  10.4229045
  -9.9894500 -45.0988102  10.9296894  -9.2004454 -44.3806887  11.1530054
 -10.8443046 -44.5668507  10.5121517 -10.4045177 -45.7759476  12.2393000
 -11.1336505 -46.5578032  12.0267916  -9.5308411 -46.2491083  12.6875281
 -10.9451580 -44.7773123  13.1808662 -10.3164768 -44.0594530  13.5118270
 -12.2137618 -44.5910692  13.4904027 -12.5319302 -43.5030031  14.1315675
 -11.7973697 -42.8317976  14.3047857 -13.4998846 -43.2176161  14.1730666
 -13.1585383 -45.4120874  13.1572354 -12.9866695 -46.1468792  12.4859250
 -14.1403246 -45.1955128  13.2536018  -7.8119963 -46.4737654   8.0486399
  -6.6353101 -46.6221476   8.3754480  -8.3756387 -47.1270037   7.0287365
  -9.3602377 -46.9835854   6.8552411  -7.6295990 -47.9983330   6.1172950
  -7.2206688 -48.8251877   6.6979736  -8.5672820 -48.5925531   5.0447726
  -9.3395567 -49.1639090   5.5597967  -9.0659940 -47.7942848   4.4950914
  -7.8656238 -49.5380211   4.0452516  -7.2298545 -50.2270365   4.6012640
  -8.6284918 -50.1313972   3.5412312  -7.0400858 -48.8428402   2.9547706
  -7.3765534 -47.7831697   2.4499677  -5.9222150 -49.4147396   2.5659418
  -5.3404802 -48.9243746   1.9016832  -5.6152165 -50.2887869   2.9682884
  -6.4427125 -47.2448540   5.5130988  -5.3014350 -47.6708889   5.6845170
  -6.6907907 -46.1014891   4.8602775  -7.6547492 -45.8411121   4.7083083
  -5.6394202 -45.3787231   4.1316655  -5.1120937 -46.1396837   3.5563752
  -6.2813634 -44.3696260   3.1565654  -7.2193253 -44.7914171   2.7954260
  -6.5229321 -43.4511328   3.6914665  -5.4345524 -44.0315294   1.9112672
  -6.0491830 -43.4327316   1.2391280  -4.5693764 -43.4380865   2.2068976
  -4.9542809 -45.2916098   1.1698538  -4.0598592 -45.6521034   1.6779421
  -5.7226312 -46.0617447   1.2379274  -4.6278566 -45.0824499  -0.3146545
  -5.5451638 -44.8088360  -0.8359861  -3.9073196 -44.2705965  -0.4137811
  -4.0656576 -46.3306952  -0.8882581  -4.5603105 -47.1448374  -0.5527031
  -3.9749071 -46.3442993  -1.8940799  -3.1616455 -46.5167379  -0.4780633
  -4.5887402 -44.7679043   5.0616091  -3.4052315 -44.7850990   4.7366968
  -4.9955964 -44.3011808   6.2452352  -5.9892577 -44.2866278   6.4255917
  -4.0920871 -43.8947868   7.3255587  -3.4630525 -43.0890465   6.9471490
  -4.9318439 -43.3576345   8.5023111  -5.5540574 -42.5363636   8.1466931
  -5.5985904 -44.1527414   8.8360089  -4.1194159 -42.8736162   9.7184604
  -3.4893480 -43.6831808  10.0868547  -3.2390624 -41.6689968   9.3858433
  -3.8454118 -40.8432722   9.0135294  -2.6968759 -41.3505459  10.2761936
  -2.5071695 -41.9471931   8.6275315  -5.0758773 -42.4660206  10.8414102
  -5.6886351 -43.3218336  11.1246276  -4.5011550 -42.1425343  11.7092538
  -5.7193214 -41.6519213  10.5077600  -3.1538141 -45.0323200   7.7659279
  -1.9418775 -44.8327494   7.8206664  -3.6945841 -46.2151623   8.0801249
  -4.6944019 -46.3363171   8.0040330  -2.8901961 -47.3598146   8.5237193
  -2.2298728 -47.0119190   9.3181014  -3.7922060 -48.4479141   9.1214651
  -4.5825231 -47.9705095   9.7007596  -4.2625913 -49.0198421   8.3216298
  -3.0474353 -49.3866682  10.0430143  -1.8289495 -49.9873877   9.8058748
  -1.2549663 -49.8671913   8.9835602  -1.4720140 -50.6668472  10.9083521
  -0.5544816 -51.2253809  11.0204840  -2.4047272 -50.5247402  11.8652153
  -3.4048685 -49.7125864  11.3236308  -4.2955509 -49.3799019  11.8358886
  -2.0018937 -47.9313374   7.4048805  -0.8682062 -48.3360052   7.6515377
  -2.4910647 -47.9432392   6.1667347  -3.4554288 -47.6752186   6.0315651
  -1.7154878 -48.3086824   4.9797675  -1.3306941 -49.3205690   5.1067173
  -2.6633993 -48.2984304   3.7737790  -3.5160130 -48.9450502   3.9812151
  -3.0338526 -47.2804976   3.6526313  -2.0220159 -48.7512732   2.4580681
  -0.9561895 -48.5230350   2.4535151  -2.1305028 -49.8308086   2.3534812
  -2.6830900 -48.0342293   1.2833707  -3.8864627 -48.2503653   1.0166536
  -2.0078006 -47.2060871   0.6254688  -0.5028567 -47.3832417   4.7813287
   0.6029387 -47.8555632   4.5306674  -0.6845774 -46.0664320   4.9233502
  -1.6211651 -45.7256603   5.0870061   0.4115338 -45.0939751   4.8713824
   1.0274945 -45.3292656   4.0034357  -0.1711862 -43.6848259   4.6777236
  -0.9287324 -43.5324526   5.4464924   0.6163616 -42.9459047   4.8255956
  -0.8056041 -43.4653330   3.2875958  -1.4445466 -44.3092775   3.0275768
  -1.6675675 -42.2029018   3.2976621  -1.0572845 -41.3352394   3.5482946
  -2.1265590 -42.0607042   2.3192936  -2.4580856 -42.3147154   4.0397397
   0.2519624 -43.3066368   2.1915388   0.8531442 -44.2128086   2.1171403
  -0.2384729 -43.1449175   1.2316332   0.9008190 -42.4593306   2.4132493
   1.3631243 -45.1814222   6.0805136   2.5677326 -45.0177813   5.8983344
   0.8636375 -45.4818058   7.2879499  -0.1398782 -45.5498648   7.3797500
   1.6980025 -45.8416080   8.4500659   2.3615479 -45.0067663   8.6755669
   0.8245621 -46.1282682   9.6886683  -0.0005710 -46.7707872   9.3813848
   1.3935594 -46.7049789  10.4178762   0.2225569 -44.8814678  10.3677404
   0.0244623 -44.1150331   9.6184522  -0.7351788 -45.1726007  10.7991147
   1.0505353 -44.2665339  11.5026259   0.5813835 -43.3984423  12.2238946
   2.2802155 -44.6745300  11.7387295   2.7588663 -44.2448378  12.5174248
   2.7029380 -45.4172564  11.2004387   2.5978538 -47.0562792   8.1599730
   3.7797320 -47.0356369   8.5043448   2.0533128 -48.1001997   7.5299442
   1.0627220 -48.0889225   7.3332059   2.8166875 -49.2815351   7.1152413
   3.3896241 -49.6293831   7.9748040   1.8591961 -50.4130459   6.6992193
   1.1885159 -50.6275749   7.5312454   1.2476130 -50.0829840   5.8595026
   2.5825977 -51.7100334   6.2956035   1.8332595 -52.4827385   6.1237985
   3.0973426 -51.5390491   5.3501379   3.5855532 -52.1983576   7.3547363
   3.2781601 -52.0371771   8.5583377   4.6532753 -52.7067900   6.9489676
   3.8343754 -48.9459229   6.0164768   5.0290650 -49.1316795   6.2115854
   3.4000227 -48.3601475   4.8914149   2.4052103 -48.2091951   4.8038507
   4.2691225 -48.0229521   3.7429392   4.7407037 -48.9397097   3.3890051
   3.4193555 -47.4287939   2.6078162   2.7687314 -46.6546345   3.0145919
   4.0801901 -46.9679403   1.8736413   2.5785974 -48.4981394   1.8902645
   3.2483360 -49.1828871   1.3700013   1.9935903 -49.0664721   2.6133612
   1.6269092 -47.8482866   0.8789284   0.8968870 -47.2447443   1.4182867
   2.1966636 -47.1973610   0.2157747   0.8973785 -48.9148903   0.0531369
   1.6235787 -49.5118904  -0.4985185   0.3597334 -49.5715427   0.7371278
  -0.0615417 -48.2937050  -0.8856916   0.3650037 -47.8330803  -1.6768898
  -0.6518029 -48.9577007  -1.3661142  -0.6992006 -47.6671600  -0.4156530
   5.4301631 -47.0865440   4.1080952   6.5053689 -47.1861744   3.5205573
   5.2285057 -46.1937237   5.0791037   4.2991441 -46.1393309   5.4708058
   6.2843335 -45.3993320   5.7151115   6.7778093 -44.7906685   4.9574128
   5.5997902 -44.4714355   6.7391974   5.0197518 -43.7229490   6.1993617
   4.8972327 -45.0752115   7.3136240   6.5186185 -43.7673712   7.7557355
   7.1412301 -44.4921112   8.2803380   7.4117935 -42.7175617   7.1012783
   6.7969090 -41.9607210   6.6142368   8.0411756 -42.2484350   7.8575158
   8.0540234 -43.2016802   6.3655668   5.6514913 -43.0695391   8.7956816
   5.0660712 -43.8176632   9.3301827   6.2790704 -42.5367022   9.5100564
   4.9770623 -42.3760080   8.2934266   7.3700565 -46.2555504   6.3925833
   8.5447949 -45.8985519   6.3411981   6.9837046 -47.3237419   7.0895386
   6.0352421 -47.6526451   6.9784236   7.8077704 -47.9844713   8.1095040
   8.1677014 -47.1939421   8.7679970   6.9510114 -48.8904285   9.0031511
   6.3895136 -49.6140528   8.4122294   7.6003176 -49.4257927   9.6958917
   6.0562086 -48.0786085   9.7475117   5.2871680 -47.8821373   9.2075223
   9.0868992 -48.6625528   7.5828862  10.1508307 -48.3513069   8.1243980
   9.0711385 -49.4949675   6.5169835   7.9070306 -50.1083708   5.8946329
   7.4677461 -49.4184971   5.1740760   7.1647984 -50.4153347   6.6314942
   8.4308767 -51.3481426   5.1751113   7.8059262 -51.6139030   4.3225214
   8.4952736 -52.1785498   5.8782309   9.8340201 -50.9228563   4.7468171
   9.7685671 -50.3530931   3.8198939  10.4946244 -51.7801237   4.6172321
  10.2952349 -50.0244236   5.9016711  10.8157384 -50.6363297   6.6383815
  11.2474334 -48.9202547   5.4232401  12.4295354 -48.9183617   5.7652503
  10.7179689 -47.9099512   4.7227612   9.7326118 -47.9497385   4.5046154
  11.4808059 -46.7359114   4.2816916  12.3481727 -47.1118116   3.7390384
  10.6107509 -45.9528971   3.2802755  10.2840507 -46.6510344   2.5095806
   9.7218996 -45.5920887   3.7978280  11.2858963 -44.7575712   2.5816867
  11.4666235 -43.9716959   3.3150581  12.6119089 -45.1030922   1.9020370
  12.4920356 -45.9737968   1.2573609  12.9626906 -44.2586374   1.3087848
  13.3682334 -45.3195810   2.6564947  10.3469944 -44.2080069   1.5049882
   9.3763340 -43.9762878   1.9434208  10.7695210 -43.2998610   1.0750578
  10.2114713 -44.9492455   0.7173961  12.0149779 -45.9031296   5.4718429
  13.0501008 -45.2405834   5.3769004  11.3469529 -45.9908581   6.6240603
  10.4680836 -46.4880323   6.6016042  11.8008900 -45.5238485   7.9313630
  11.9123995 -44.4400692   7.8982961  11.0341048 -45.7660294   8.6672223
  13.1222296 -46.1408758   8.4099853  13.8896286 -45.4281044   9.0634614
  13.4078932 -47.4070072   8.0867279  12.7168858 -47.9279280   7.5659025
  14.7176087 -48.0581474   8.2836372  15.2060592 -47.6102304   9.1490185
  14.5402765 -49.5468330   8.6298245  14.0920568 -49.6088171   9.6214682
  13.8383663 -49.9930191   7.9253113  15.8246839 -50.4033422   8.6195791
  15.5927896 -51.3659954   9.0752375  16.0810935 -50.5987930   7.5783515
  17.0599926 -49.8048258   9.3222821  16.9384551 -49.0316963  10.3011096
  18.1955671 -50.1377249   8.9108074  15.6614780 -47.8480721   7.0869946
  16.8206298 -47.4990034   7.2808236  15.1980543 -47.9772615   5.8419567
  14.2550588 -48.3159161   5.7147664  16.0367894 -47.7446985   4.6476972
  16.8504488 -48.4699917   4.6495652  15.2250719 -47.9460573   3.3606562
  14.4069195 -47.2258663   3.3675778  15.8586276 -47.7267456   2.5012308
  14.6571755 -49.3671942   3.2066441  15.4561234 -50.0275421   2.8694203
  14.3103015 -49.7430277   4.1692066  13.4935963 -49.4234800   2.2095352
  12.5733626 -50.2570820   2.3776172  13.5191154 -48.7093973   1.1795960
  16.6865671 -46.3474131   4.6647617  17.8997087 -46.1998367   4.5133191
  15.9086168 -45.3023529   4.9663639  14.9180937 -45.4622269   5.0821739
  16.4268422 -43.9386034   5.1293695  17.2015774 -43.8071823   4.3739802
  15.3154659 -42.9194117   4.8219460  14.6222913 -43.3352709   4.0907344
  14.7618008 -42.7068996   5.7364905  15.8772123 -41.6154623   4.2407891
  15.0792634 -40.8736372   4.2079625  16.6706848 -41.2350321   4.8840427
  16.5182543 -41.8072319   2.5579849  17.2324765 -40.1665258   2.2763488
  18.0412471 -39.9903822   2.9855484  17.6325393 -40.1196289   1.2635057
  16.4631701 -39.4030857   2.3922187  17.1067822 -43.7054873   6.4987218
  17.5677669 -42.5980043   6.7923111  17.1515632 -44.7216177   7.3739189
  16.7471540 -45.5943012   7.0657253  18.0419183 -44.8115206   8.5493785
  18.2155073 -43.8118839   8.9477468  17.4228704 -45.7189369   9.6338367
  16.3585532 -45.8379173   9.4309378  17.8601980 -46.7152452   9.5689499
  17.5652289 -45.2340984  11.0858941  17.0352197 -45.9454823  11.7192352
  18.6175454 -45.2554607  11.3692224  17.0011222 -43.8272762  11.3599527
  16.7684662 -43.7467098  12.4217820  17.7825427 -43.1012583  11.1354959
  15.7843566 -43.5530663  10.5661523  15.0775075 -44.2744875  10.5701482
  15.6873953 -42.7033472   9.5614344  14.7265220 -42.8384066   8.7062305
  14.1880059 -43.6917543   8.7498170  14.6327746 -42.2127581   7.9189116
  16.5534985 -41.7550802   9.3417752  17.3166752 -41.6476631   9.9945509
  16.6725588 -41.4482784   8.3868957  19.4068515 -45.3391457   8.1412148
  20.4043102 -44.7445583   8.5323709  19.4577909 -46.3673306   7.3011374
  18.5989428 -46.8510723   7.0809531  20.6904864 -46.8272257   6.6653603
  21.3779569 -47.1294641   7.4553823  20.4223251 -48.0412626   5.7747430
  19.8089564 -48.7714911   6.3026154  19.9006534 -47.7412987   4.8659080
  21.7671752 -48.6566687   5.4243195  22.3961687 -49.1812420   6.3729972
  22.1911120 -48.4776306   4.2601237  21.3878608 -45.7178593   5.8703291
  22.5746775 -45.4537153   6.0517150  20.6279325 -44.9627066   5.0734872
  19.6788299 -45.2646780   4.9057886  21.1520243 -43.7729216   4.3827236
  22.0569873 -44.0598297   3.8471615  20.1336432 -43.2845402   3.3418831
  19.2165923 -42.9840660   3.8486680  20.5365086 -42.4064970   2.8370690
  19.7961891 -44.3493366   2.2749542  19.3440878 -45.2315044   2.7282506
  19.0495074 -43.9234352   1.6047493  21.0100436 -44.7771215   1.4376345
  20.6571627 -45.0973558   0.4573138  21.6412711 -43.8981581   1.3069905
  21.7924929 -45.8803034   2.0420422  21.3222599 -46.5054131   2.6809657
  23.0498195 -46.1848068   1.7714019  23.5989523 -47.2238731   2.3253949
  23.0751157 -47.7571297   3.0046189  24.5540237 -47.4873495   2.1291636
  23.8012147 -45.4851770   0.9694010  23.4632945 -44.6172571   0.5787075
  24.7526479 -45.7535791   0.7624588  21.6294551 -42.6769590   5.3460544
  22.5836968 -41.9666862   5.0426865  21.0646105 -42.5886679   6.5543389
  20.3178382 -43.2309437   6.7777473  21.6300583 -41.7628288   7.6253986
  21.8821764 -40.7973814   7.1867049  20.5656219 -41.4837694   8.6952454
  20.3421211 -42.3878622   9.2616016  20.9432077 -40.7271338   9.3830210
  19.6576488 -41.1111164   8.2210970  22.9479361 -42.3238087   8.2164890
  23.7997723 -41.5299606   8.6149466  23.1661630 -43.6521435   8.2361031
  22.4318886 -44.2539358   7.8914404  24.4858336 -44.2630005   8.5308009
  24.8591232 -43.8635063   9.4737536  24.4317627 -45.8070087   8.6377227
  24.2496634 -46.2391615   7.6537579  25.4110050 -46.1618900   8.9590347
  23.3784056 -46.3494825   9.6135420  23.6416054 -46.0567331  10.6299686
  22.4079704 -45.9175682   9.3689942  23.2459307 -47.8784084   9.5334685
  23.1339765 -48.1710672   8.4894770  24.1559553 -48.3419132   9.9144167
  22.0841694 -48.3297634  10.3250885  22.0713997 -48.0700254  11.3010311
  20.9948516 -48.9427423   9.8864329  19.9593163 -49.0449905  10.6632257
  19.9133468 -48.6822748  11.6047192  19.1193366 -49.4145060  10.2413130
  20.8508492 -49.4508600   8.7024999  21.5692306 -49.4244146   7.9930371
  19.9452221 -49.8451042   8.4914947  25.5030084 -43.8531733   7.4650007
  26.5422440 -43.2945633   7.7989691  25.1532245 -44.0314245   6.1886382
  24.2846322 -44.5126104   6.0039395  25.9697151 -43.6034346   5.0515467
  26.9090462 -44.1554785   5.0832862  25.2488708 -43.9738369   3.7509611
  24.3226266 -43.4075594   3.6534703  25.8891869 -43.7409782   2.9001546
  25.0230980 -45.0401926   3.7476832  26.3268447 -42.1059370   5.1138812
  27.4773765 -41.7405319   4.8941281  25.3761029 -41.2393618   5.4777056
  24.4247437 -41.5739822   5.5329162  25.6315231 -39.8181367   5.7295007
  26.0631776 -39.3911362   4.8242697  24.2948151 -39.1116333   5.9902561
  23.6729741 -39.1790628   5.0975823  23.7752485 -39.6179152   6.8037850
  24.4572520 -37.6632714   6.3643962  24.9578977 -36.6701484   5.5576438
  25.2198768 -36.7662311   4.5869559  25.1054764 -35.5670094   6.3045186
  25.4819131 -34.6229291   5.9392697  24.7070432 -35.7906628   7.5667512
  24.3119478 -37.1304226   7.6167178  23.9983010 -37.6683593   8.4991306
  26.6441202 -39.5528555   6.8661422  27.4818993 -38.6608362   6.7375666
  26.6112924 -40.3170204   7.9652220  25.9224391 -41.0536623   8.0194771
  27.6003766 -40.2060747   9.0586901  27.7091026 -39.1508698   9.3093294
  27.1042418 -40.9292603  10.3288126  26.7462587 -41.9248438  10.0665832
  28.1838870 -41.0804081  11.4104235  28.6197639 -40.1091576  11.6444981
  27.7488947 -41.5147829  12.3105335  28.9656138 -41.7529154  11.0572469
  25.9469557 -40.1389694  10.9581900  25.1437902 -40.0125217  10.2322149
  25.5519104 -40.6845999  11.8151188  26.2927198 -39.1558290  11.2775254
  28.9940023 -40.6802225   8.6236435  29.9953723 -40.0505781   8.9690787
  29.0802264 -41.7444944   7.8296751  28.2469511 -42.2909546   7.6649475
  30.3255248 -42.1772194   7.1857446  31.0902381 -42.2609568   7.9579514
  30.1466870 -43.5748625   6.5707529  29.1793609 -43.6480427   6.0737389
  30.9257627 -43.7279558   5.8239573  30.2713871 -44.6639395   7.6407456
  31.1799335 -45.5086231   7.4972552  29.6784997 -44.5457935   8.7343341
  30.8654475 -41.1473799   6.1763775  32.0646000 -40.8532476   6.1678410
  29.9908686 -40.5404091   5.3712338  29.0364671 -40.8708763   5.3752339
  30.3206158 -39.4256496   4.4854867  31.1114144 -39.7508049   3.8094592
  29.0916204 -39.0823555   3.6408597  28.3081603 -38.6515236   4.2642945
  29.3768239 -38.3642554   2.8720361  28.7091994 -39.9830174   3.1605861
  30.8493567 -38.2025790   5.2559626  31.8786645 -37.6478624   4.8814338
  30.2008033 -37.8156257   6.3629109  29.3300438 -38.2800031   6.5779412
  30.6951594 -36.8087578   7.3126245  30.7665062 -35.8506060   6.7978859
  29.6758246 -36.6704059   8.4646529  28.7951183 -36.1480451   8.0910283
  29.3499184 -37.6701951   8.7515378  30.1829076 -35.9743071   9.7447735
  31.0804510 -36.4726853  10.1110184  30.5028892 -34.4976091   9.5226723
  29.6097851 -33.9694691   9.1887122  30.8562016 -34.0508437  10.4520118
  31.2822199 -34.3954468   8.7674874  29.1239071 -36.0934830  10.8405364
  28.9728832 -37.1452928  11.0834074  29.4540048 -35.5681419  11.7367244
  28.1810570 -35.6730604  10.4907167  32.1059132 -37.1514106   7.8169966
  33.0073905 -36.3195491   7.7168411  32.3117542 -38.3732867   8.3340937
  31.5206790 -38.9992428   8.3839107  33.6239696 -38.8484740   8.8140243
  33.9368987 -38.2268167   9.6529025  33.5168028 -40.3145838   9.2732871
  32.6304293 -40.4347324   9.8961890  33.4021664 -40.9528446   8.3971703
  34.7475386 -40.7740498  10.0799549  35.6567907 -40.3508091   9.6530753
  34.6556473 -40.4088211  11.1028254  34.9186397 -42.3005915  10.0924838
  35.1927209 -42.6195955   9.0868920  35.7492733 -42.5513506  10.7522321
  33.7035513 -43.0016232  10.5555642  33.3788610 -42.7898312  11.4882028
  32.9479814 -43.8324308   9.8548985  31.8360281 -44.2749786  10.3563452
  31.4789176 -43.9594889  11.2468648  31.1782646 -44.7129583   9.7273487
  33.2533121 -44.2267656   8.6552644  34.0854907 -43.9063835   8.1809992
  32.6129627 -44.8493910   8.1836641  34.6975732 -38.7015748   7.7343833
  35.8049083 -38.2638407   8.0281389  34.3550038 -39.0714836   6.5033120
  33.4247351 -39.4423962   6.3724434  35.2494121 -39.0195799   5.3430343
  36.1987233 -39.4699717   5.6329554  34.6939731 -39.8537016   4.1788718
  33.8120246 -39.3711495   3.7576696  35.7440090 -40.0549984   3.0899915
  36.6229272 -40.5484629   3.5048375  35.3269506 -40.6796551   2.3000777
  36.0375857 -39.0939450   2.6677477  34.3428063 -41.1415100   4.6407855
  33.5100102 -41.0736799   5.1135010  35.5591822 -37.5794530   4.9258909
  36.7258143 -37.2021413   4.8858726  34.5395112 -36.7445731   4.6912408
  33.6014366 -37.1115184   4.7652024  34.6810007 -35.3477168   4.2528334
  35.2570677 -35.3484154   3.3274972  33.2925963 -34.7538567   3.9469644
  32.6902604 -35.5149460   3.4509450  32.7932215 -34.4992137   4.8817807
  33.3087707 -33.5363507   3.0444428  34.1576624 -32.4517679   3.1215400
  34.9198484 -32.3433256   3.7753123  33.8850403 -31.6188908   2.1013758
  34.4046783 -30.6956172   1.8917452  32.8867865 -32.1214557   1.3576186
  32.5194716 -33.3344340   1.9429408  31.7589712 -34.0052915   1.5714705
  35.4396868 -34.4697428   5.2670318  36.0967183 -33.5021329   4.8765087
  35.3960443 -34.8013544   6.5631115  34.7963881 -35.5638361   6.8444270
  36.1991358 -34.1259074   7.5877213  35.9651089 -33.0621839   7.5450337
  35.8246732 -34.6475983   8.9870113  35.7482409 -35.7339740   8.9417779
  36.6257668 -34.4054532   9.6853787  34.5108080 -34.0606976   9.5376027
  33.7346220 -34.0995908   8.7733233  34.0529466 -34.8755288  10.7489789
  34.8282266 -34.8743677  11.5151644  33.1364560 -34.4499922  11.1577129
  33.8530898 -35.9002995  10.4359233  34.6714687 -32.6042747   9.9858671
  34.9362230 -31.9760108   9.1354036  33.7290406 -32.2406530  10.3953886
  35.4503179 -32.5281978  10.7446194  37.7162600 -34.2259550   7.3425919
  38.4306240 -33.2921648   7.7044737  38.2219315 -35.3004813   6.7222708
  37.5959277 -36.0245347   6.3998276  39.6400142 -35.4002166   6.3649291
  40.2080727 -35.1471400   7.2601169  40.0093555 -36.8555450   6.0425049
  39.3411684 -37.2826362   5.2946949  41.0374212 -36.9033027   5.6834793
  39.9251246 -37.4557137   6.9484878  40.0684214 -34.3436623   5.3142673
  40.9357071 -33.5317016   5.6420255  39.4400835 -34.2330956   4.1209128
  38.6151433 -35.2265596   3.4500155  37.6050258 -35.1966763   3.8585058
  39.0335226 -36.2300754   3.5275421  38.5721350 -34.8266578   1.9785930
  37.6434946 -35.1428771   1.5034801  39.4340611 -35.2438188   1.4578630
  38.6911464 -33.3086371   2.0406049  37.7095890 -32.8769684   2.2363336
  39.1132402 -32.9051018   1.1202286  39.6277618 -33.0847573   3.2327634
  40.6580114 -33.0953050   2.8769830  39.3661380 -31.7342019   3.9102668
  40.1514149 -30.8082414   3.7263408  38.3088231 -31.6114736   4.7223333
  37.6768970 -32.3932600   4.8202226  37.9639959 -30.3491426   5.3875816
  37.9012871 -29.5879388   4.6099347  36.5774775 -30.4376364   6.0330248
  35.8832312 -30.8946395   5.3278524  36.6334033 -31.0709286   6.9184136
  36.0243154 -29.0789890   6.4133239  35.5116582 -28.2438326   5.4030794
  35.4979277 -28.5781932   4.3762314  35.0406504 -26.9586158   5.7199138
  34.6589804 -26.3307214   4.9284109  35.0813770 -26.5024900   7.0543820
  34.6305394 -25.2571034   7.3582000  34.3355036 -24.8072147   6.5631193
  35.5918026 -27.3393917   8.0696732  35.6225300 -26.9793105   9.0874135
  36.0651469 -28.6276555   7.7481151  36.4783001 -29.2615819   8.5187280
  39.0232277 -29.8685741   6.3969082  39.2126751 -28.6662865   6.5616691
  39.7540903 -30.7825017   7.0453149  39.5171142 -31.7559767   6.9176763
  40.9324884 -30.4570556   7.8673029  40.6210518 -29.8160577   8.6920607
  41.5107632 -31.7492986   8.4525651  40.7323599 -32.2788286   9.0019196
  41.8623018 -32.3853445   7.6401824  42.5954294 -31.4811492   9.3199766
  43.0758142 -32.3020458   9.4502032  42.0118761 -29.7058964   7.0728403
  42.6428652 -28.7727094   7.5778198  42.2075701 -30.0841498   5.8076781
  41.6432285 -30.8387804   5.4441506  43.0494356 -29.3542480   4.8606896
  43.9528227 -29.0294099   5.3768945  43.5014296 -30.2650595   3.7148312
  42.6312494 -30.6881356   3.2129404  44.0302992 -29.6486568   2.9878905
  44.4435740 -31.4014506   4.1254404  44.9051046 -31.4424825   5.2888829
  44.7997952 -32.1721363   3.2084695  42.3969936 -28.0653453   4.3504286
  43.0539227 -27.0260286   4.3853572  41.1212301 -28.0937910   3.9383432
  40.6437922 -28.9835644   3.9167950  40.3888321 -26.8879175   3.5161582
  40.8557749 -26.5086079   2.6072091  38.8975477 -27.1464610   3.2432491
  38.4117174 -27.5084376   4.1493624  38.4580684 -26.1748958   3.0173662
  38.5607505 -28.0915904   2.0870355  39.3098307 -27.9982138   1.3007414
  38.5749650 -29.1235757   2.4376190  37.1783924 -27.7284217   1.5292421
  36.2010908 -28.3933401   1.9372150  37.1038318 -26.7406392   0.7552036
  40.4644537 -25.7687044   4.5557252  40.8728266 -24.6521592   4.2449698
  40.0883865 -26.0699964   5.8003646  39.7686839 -27.0113850   5.9783602
  40.0943375 -25.1276231   6.9133925  39.4660354 -24.2798567   6.6402143
  39.4778371 -25.8323860   8.1364816  38.4663486 -26.1477351   7.8804654
  40.0616503 -26.7294383   8.3427858  39.4261456 -24.9904251   9.4238698
  40.4362679 -24.7045875   9.7172081  38.5765719 -23.7267828   9.2682111
  37.5766397 -23.9908504   8.9239669  38.5133314 -23.2099867  10.2258217
  39.0428352 -23.0565906   8.5460323  38.8229227 -25.8262491  10.5539727
  39.4209218 -26.7261243  10.6979215  38.8238573 -25.2533293  11.4812601
  37.8028464 -26.1147237  10.3003418  41.5012264 -24.5824313   7.1906978
  41.6452122 -23.4043169   7.5064403  42.5390244 -25.4177070   7.0580822
  42.3392010 -26.3602757   6.7551947  43.9401007 -25.0305319   7.2732931
  43.9883327 -24.4340777   8.1843466  44.7701883 -26.3048124   7.4813336
  44.2858648 -26.8973660   8.2574868  44.7852659 -26.8852949   6.5588832
  46.2063169 -26.0176134   7.9370314  46.7626715 -25.5280447   7.1377242
  46.1732578 -25.3489280   8.7971872  46.9279051 -27.3071933   8.3568043
  47.8545237 -27.0269465   8.8577491  46.3172293 -27.8492379   9.0788591
  47.2664356 -28.1703544   7.2086722  48.1108284 -27.9397893   6.7047441
  46.6255045 -29.2500615   6.7904580  47.1024418 -29.9562383   5.8114988
  47.9502487 -29.7161603   5.3178620  46.5199947 -30.7190776   5.4969513
  45.5020571 -29.6802497   7.2828746  44.9249029 -29.1214085   7.8949869
  45.0753021 -30.4560685   6.7969757  44.4757175 -24.1302466   6.1569792
  44.9766445 -23.0482292   6.4536911  44.3528843 -24.5496941   4.8963988
  43.8851118 -25.4299188   4.7336179  44.7550917 -23.7612867   3.7232736
  45.8040285 -23.4860277   3.8330886  44.6251297 -24.6071219   2.4369045
  43.6254501 -25.0393152   2.3927309  44.7622061 -23.9590716   1.5712583
  45.6749296 -25.7360554   2.3722325  46.6641140 -25.2904677   2.2670145
  45.6548071 -26.3016081   3.3038142  45.4644585 -26.7286110   1.2244764
  45.0910997 -27.8776002   1.4264616  45.7143354 -26.3747787  -0.0155905
  45.5567837 -27.0459819  -0.7536657  46.0087013 -25.4492855  -0.2929408
  43.9724255 -22.4382019   3.6457464  44.5748281 -21.3667488   3.5699773
  42.6389790 -22.4811912   3.7839001  42.1868420 -23.3806658   3.8652661
  41.7958403 -21.2771130   3.7019134  42.2077751 -20.6803966   2.8880715
  40.3449154 -21.6291261   3.3158630  39.9018288 -22.2524667   4.0925351
  39.7610784 -20.7095671   3.2752800  40.2439499 -22.3549747   1.9541436
  41.2132454 -22.3618484   1.4556304  39.9574518 -23.3910966   2.1343376
  39.2232370 -21.7104220   1.0024069  38.2578707 -21.6264772   1.5015292
  39.5601892 -20.7026124   0.7597454  39.0741467 -22.4698400  -0.2557572
  39.6690321 -22.1862960  -1.0211478  38.3243299 -23.5435462  -0.4409093
  38.1881094 -24.0878987  -1.6125560  38.6012411 -23.6598539  -2.4287711
  37.6304197 -24.9259710  -1.6944738  37.7013326 -24.1173172   0.5472442
  37.8513241 -23.7700224   1.4837150  37.3286080 -25.0503778   0.4443240
  41.8982649 -20.3534603   4.9169207  41.6446781 -19.1543591   4.7705165
  42.2966480 -20.8498406   6.0922623  42.4009943 -21.8500948   6.1855704
  42.7861691 -19.9894643   7.1751666  42.0561934 -19.1935480   7.3226750
  42.8873110 -20.7788038   8.4931427  41.8904591 -21.1273885   8.7630945
  43.5189438 -21.6510892   8.3250356  43.4727478 -19.9883401   9.6809226
  44.4921875 -19.6783340   9.4512683  42.6432943 -18.7506676  10.0348258
  41.6072750 -19.0344238  10.2198708  43.0579233 -18.2727909  10.9224164
  42.6838255 -18.0305338   9.2175967  43.5182524 -20.8898187  10.9152043
  44.1274309 -21.7677784  10.7002783  43.9677525 -20.3502774  11.7488396
  42.5115347 -21.2089276  11.1849928  44.1110611 -19.3062282   6.8057519
  44.2102861 -18.0948555   6.9740081  45.0992775 -20.0421119   6.2814170
  44.9505758 -21.0313439   6.1421055  46.4228725 -19.5056367   5.9408301
  46.8825102 -19.1493332   6.8627191  47.3125744 -20.6277180   5.3923631
  46.9317436 -20.9863091   4.4360793  48.3225870 -20.2466249   5.2415454
  47.3482943 -21.4552116   6.1009359  46.3518238 -18.2943356   4.9929079
  46.9067383 -17.2452879   5.3124899  45.5534649 -18.3689904   3.9225578
  45.1551533 -19.2666912   3.6867952  45.3204107 -17.2461689   3.0012020
  46.2779856 -16.9428253   2.5779518  44.4401741 -17.7559030   1.8552375
  43.4828949 -18.1087291   2.2389400  44.2708778 -16.9558895   1.1345305
  44.9407721 -18.5795426   1.3462007  44.7089958 -15.9911573   3.6749265
  44.7787619 -14.8862720   3.1397554  44.1120481 -16.1344087   4.8681808
  44.1169310 -17.0596647   5.2731258  43.5919333 -15.0309074   5.6996429
  43.5997915 -14.1101348   5.1163626  42.1344042 -15.3336871   6.0973173
  41.9675064 -16.4101470   6.1358148  41.9386387 -14.9416661   7.0953631
  41.1219215 -14.6745276   5.1456714  40.1193142 -14.9370873   5.4832119
  41.2368584 -13.5939336   5.2305645  41.2478018 -15.0430119   3.6619669
  40.4910851 -14.4898832   3.1056157  42.2274208 -14.7444844   3.2887021
  41.0568953 -16.4800489   3.4440389  41.1955881 -17.1029329   4.2269060
  40.7645655 -17.0772970   2.3086527  40.5571842 -18.3466208   2.3271033
  40.8548498 -18.8575566   3.1459051  40.6220055 -18.8110530   1.4325567
  40.6888866 -16.4897394   1.1549759  40.9704828 -15.5273485   1.0341381
  40.5747080 -17.0972586   0.3562296  44.4709873 -14.6918988   6.9129229
  44.1817427 -13.7097859   7.5906062  45.5667830 -15.4192185   7.1405512
  45.7125521 -16.2280202   6.5534472  46.7334223 -14.9177456   7.8783494
  46.3953972 -14.2979312   8.7088114  47.5656176 -16.0853577   8.4457630
  48.0242252 -16.6237509   7.6163584  48.3740997 -15.6629765   9.0424645
  46.7884159 -17.0981407   9.3081284  46.0266447 -17.5872517   8.7010229
  47.7378702 -18.1810510   9.8212612  48.5015488 -17.7377915  10.4603350
  47.1781015 -18.9280736  10.3840387  48.2230806 -18.6692846   8.9761001
  46.1074066 -16.4495873  10.5158591  45.3446293 -15.7505512  10.1729059
  45.6253719 -17.2170198  11.1214888  46.8450451 -15.9171355  11.1162639
  47.5851202 -14.0155590   6.9705284  47.9467821 -12.9104018   7.3654813
  47.7970791 -14.4384634   5.7208610  47.5329971 -15.3850281   5.4876679
  48.5247517 -13.6806774   4.6883604  49.4908190 -13.3872974   5.0991350
  48.7699938 -14.5834875   3.4635940  47.8044415 -14.9477947   3.1127480
  49.2054892 -13.9926422   2.6577747  49.6824455 -15.8036518   3.7204048
  49.3037605 -16.3713443   4.5703602  49.6213961 -16.4543605   2.8480795
  51.1556005 -15.4398632   3.9774752  51.4352846 -14.5831478   4.8453003
  52.0543957 -15.9662628   3.2889211  47.8336334 -12.3532915   4.3186340
  48.4861326 -11.3641322   3.9959419  46.5222836 -12.2452819   4.5560163
  46.0214090 -13.0930161   4.7808909  45.7871342 -10.9772849   4.5115060
  45.8950424 -10.5747628   3.5043174  44.3026304 -11.2695312   4.7583833
  44.1594267 -11.6294491   5.7772315  43.7252426 -10.3559673   4.6165296
  43.9574385 -12.0232737   4.0507025  46.3220882  -9.8808503   5.4680264
  45.9607267  -8.7133634   5.3165680  47.1649599 -10.2331579   6.4498401
  47.3876953 -11.2139571   6.5421665  47.9010677  -9.3022138   7.3174691
  47.4779654  -8.3057654   7.1902841  47.6430845  -9.7484547   8.7733608
  46.5675879  -9.8749173   8.8975418  48.1079340 -10.7239783   8.9160758
  48.1433153  -8.8123780   9.8920822  49.2326975  -8.7761033   9.8981977
  47.5864935  -7.3919654   9.7616667  46.5005112  -7.4257118   9.6744370
  47.8734875  -6.7995310  10.6304324  48.0085278  -6.9157529   8.8766766
  47.6891851  -9.3632209  11.2467074  48.0803871 -10.3728485  11.3720524
  48.0818701  -8.7350130  12.0462406  46.6005993  -9.3875146  11.2966943
  49.4090462  -9.1921604   6.9673228  50.1205969  -8.4017289   7.5844216
  49.8933458  -9.9292225   5.9571087  49.2384338 -10.5005622   5.4425555
  51.3079882 -10.0447226   5.5497217  51.9344091  -9.5720810   6.3062328
  51.6554260 -11.5429151   5.5004114  51.1507702 -12.0306373   6.3344079
  51.2421179 -11.9756770   4.5893735  53.1447744 -11.9122100   5.6437188
  53.5398960 -11.4315093   6.5386522  53.2005596 -12.9862225   5.8211523
  54.0831709 -11.5989470   4.4668487  54.3316317 -10.5380642   4.4967985
  55.0079775 -12.1584606   4.6074879  53.5268068 -11.9067311   3.0720776
  52.7365923 -11.1874175   2.8570154  54.2944765 -11.7460740   2.3151268
  52.9400301 -13.2579899   2.9029286  52.3082113 -13.5180390   3.6467624
  52.3655176 -13.2165873   2.0732692  53.5923719 -14.0208673   2.7908501
  51.5713358  -9.3036264   4.2333058  52.4056530  -8.4059042   4.2113551
  50.7600355  -9.5424664   3.2018977  50.2070427 -10.3874063   3.2214686
  50.6269121  -8.6957878   1.9935882  51.6110039  -8.4756464   1.5798296
  49.8012877  -9.4267702   0.9151708  48.9330101  -9.8901159   1.3836810
  49.4303131  -8.6801183   0.2130399  50.5505323 -10.4689825   0.0660217
  49.8535728 -10.8749020  -0.6671770  51.3392019  -9.9529755  -0.4815534
  51.1605072 -11.6314828   0.8576737  50.6209230 -12.0191443   1.9169393
  52.2439718 -12.1228123   0.4759081  49.9680090  -7.3342961   2.3169479
  49.8313856  -6.4580888   1.4732297  49.5690298  -7.1261370   3.5737491
  49.6529627  -7.9071462   4.2086345  49.2606974  -5.8110547   4.1289726
  48.6201334  -5.2792317   3.4254482  48.4980583  -6.0676134   5.4405850
  47.7644205  -6.8576086   5.2800244  49.1989040  -6.3932401   6.2092727
  47.7538252  -4.8569939   5.9533709  48.1313324  -4.2231673   6.9304037
  46.6607571  -4.5100433   5.3169411  46.1121941  -3.7519479   5.6970209
  46.3537407  -5.0601214   4.5274779  50.5181456  -4.9394128   4.3740892
  50.3799438  -3.7550336   4.6902648  51.7180872  -5.5338204   4.3335116
  51.7539024  -6.4746940   3.9680296  52.9609632  -5.0439411   4.9371117
  52.9091978  -5.1863754   6.0165250  53.7821484  -5.6547463   4.5620528
  53.3040714  -3.5813758   4.6569300  53.2370806  -2.7621341   5.5827808
  53.6323023  -3.2491812   3.4091023  53.5568810  -3.9498338   2.6855633
  53.8620424  -1.8813179   2.9383719  54.2318630  -1.2592743   3.7534755
  54.6204376  -1.8954538   2.1555969  52.5977707  -1.2401287   2.3622516
  52.4350691  -0.0245303   2.4756715  51.6473675  -2.0414181   1.8715866
  51.9106674  -3.0046147   1.7198178  50.3438902  -1.6158444   1.3632724
  50.4859352  -1.1428286   0.3915844  49.4847393  -2.8789222   1.1931693
  49.3756056  -3.4022501   2.1430723  48.4938383  -2.6245955   0.8169712
  49.9601650  -3.5638329   0.4910516  49.6582317  -0.6048124   2.2961693
  49.4487476   0.5611491   1.9593954  49.4007778  -1.0285094   3.5378200
  49.6660376  -1.9801371   3.7479314  48.7719059  -0.2256788   4.5994428
  48.0022573   0.3899793   4.1339254  48.0209494  -1.2088934   5.5245149
  47.1812105  -1.5906514   4.9438277  48.6607361  -2.0710112   5.7129866
  47.4463558  -0.7049745   6.8633908  47.2847748   0.3723513   6.8265063
  46.4646673  -1.1584137   7.0004362  48.2985020  -1.0870388   8.0902499
  47.8923988  -0.5797949   8.9653987  48.2101727  -2.1583766   8.2706207
  49.7132683  -0.7087671   7.9317808  49.8853207   0.2857071   7.8927934
  50.6998014  -1.4914466   7.5239438  51.8473101  -0.9765497   7.2078127
  51.9756174   0.0252537   7.2033536  52.5206232  -1.5740879   6.7498767
  50.5856609  -2.7739781   7.3535359  49.6725035  -3.2030246   7.4000931
  51.2737131  -3.2323307   6.7733639  49.7317171   0.8055115   5.2303720
  49.3518877   1.5165427   6.1534375  50.9883595   0.9001340   4.7836220
  51.2472296   0.3125406   4.0039918  51.8609858   2.0497391   5.0689763
  51.5570831   2.4950540   6.0163069  53.3267689   1.5899388   5.2156103
  53.3999348   0.8527319   6.0151547  53.6442327   1.1091689   4.2903128
  54.3197489   2.7284211   5.5042601  54.2731571   3.4512371   4.6897271
  54.0238047   3.4300745   6.8328124  54.0120983   2.7106658   7.6516002
  54.7942972   4.1782296   7.0191103  53.0692911   3.9529428   6.7727423
  55.7393694   2.1655712   5.5656320  55.9819365   1.6803068   4.6202326
  56.4452744   2.9806709   5.7250416  55.8293772   1.4429699   6.3767087
  51.6828632   3.1460315   4.0041590  51.4377689   4.2974043   4.3580541
  51.7336178   2.7931392   2.7175137  51.9286251   1.8302086   2.4833304
  51.4701366   3.7171409   1.6124545  52.1717310   4.5470086   1.6972221
  51.7753410   2.9911038   0.2998061  51.0390282   2.2083999   0.1172915
  51.7573309   3.7078035  -0.5212397  52.7679920   2.5426278   0.3400639
  50.0437593   4.3154857   1.6729999  49.8678255   5.5248821   1.5171246
  49.0503788   3.5013333   2.0530696  49.2556858   2.5125858   2.0712969
  47.6797915   3.9145765   2.4152520  47.1678686   4.2077652   1.4986932
  46.9459724   2.6937467   3.0183044  47.3290396   1.8031839   2.5200516
  47.1932793   2.5953841   4.0753117  45.4219389   2.6229146   2.8180054
  45.1997232   2.8080538   1.7670798  45.1041460   1.6053225   3.0451965
  44.5977592   3.5765576   3.6842635  45.0360298   3.9638296   4.7887424
  43.5185242   4.0156835   3.2279578  47.6645803   5.1338601   3.3650276
  46.8890381   6.0754967   3.1665376  48.5336685   5.1274031   4.3880078
  49.1468048   4.3289635   4.4696110  48.7573481   6.2393683   5.3220308
  47.7887297   6.6804522   5.5572379  49.3576384   5.7234657   6.6450453
  50.3624678   5.3509331   6.4459485  49.4627047   6.5755010   7.3166835
  48.5970640   4.6405533   7.4037349  47.2537231   4.3294591   7.1072179
  46.7263460   4.8440844   6.3176394  46.5825558   3.3104125   7.8022683
  45.5683851   3.0668968   7.5219864  47.2456026   2.6059514   8.8265878
  46.5900421   1.6236274   9.4986743  45.6909657   1.5470767   9.1709590
  48.5797644   2.9276234   9.1526812  49.0775776   2.3883861   9.9450207
  49.2524385   3.9409751   8.4385431  50.2787066   4.1794407   8.6758357
  49.6206379   7.3795712   4.7486684  49.3253899   8.5445297   5.0197226
  50.6590796   7.0929074   3.9516497  50.8640623   6.1208606   3.7694117
  51.5058804   8.1164736   3.3084446  51.9710875   8.7240076   4.0847087
  52.6209688   7.4728680   2.4736165  52.1775007   6.7987603   1.7408028
  53.1184483   8.2678097   1.9180232  53.6994219   6.7356050   3.2265034
  54.7643805   6.0955191   2.6373702  54.9179316   6.0007495   1.6436194
  55.5926895   5.6784678   3.6081505  56.5222740   5.1529771   3.4464797
  55.1106167   6.0196108   4.8137662  53.9033699   6.6864473   4.5805544
  53.2714844   7.1279287   5.3370023  50.7060003   9.0759242   2.4151617
  50.9409618  10.2897954   2.4420108  49.7109604   8.5547990   1.6895945
  49.6194744   7.5494879   1.6566357  48.7369633   9.3647498   0.9625373
  49.2554474   9.8930800   0.1624471  47.6995707   8.4292483   0.3281545
  47.1671343   7.8738421   1.1002517  46.9841957   9.0128177  -0.2513106
  48.1919098   7.7203834  -0.3375889  48.0783367  10.4237294   1.8716827
  48.0137014  11.5947461   1.4995362  47.6425648  10.0290024   3.0797419
  47.8065920   9.0654045   3.3340576  46.9763756  10.9050810   4.0690550
  46.2095022  11.4745235   3.5439438  46.2404537  10.1057768   5.1582748
  46.9430590   9.7899693   5.9294492  45.4970121  10.7593727   5.6145746
  45.5506659   8.8640177   4.5940793  45.0708628   9.1167349   3.6485493
  46.3246346   8.1169307   4.4182181  44.4968081   8.2745332   5.5372089
  44.8766470   8.2738543   6.5588844  43.6093521   8.9063972   5.5015057
  44.1136551   6.8347174   5.1648283  44.8267031   6.1471349   5.6196845
  43.1328154   6.6031075   5.5800480  44.1168594   6.5817058   3.7066609
  45.0675249   6.5371293   3.3684915  43.7610149   5.6508625   3.5422918
  43.5676575   7.2444791   3.1782615  47.9319954  11.9038141   4.7234899
  47.5750637  13.0611134   4.9356619  49.1534758  11.4676857   5.0334150
  49.3587971  10.4914427   4.8756355  50.2122307  12.3353946   5.5485070
  49.8698282  12.7867067   6.4797318  51.4487267  11.4798927   5.8524418
  51.8308449  11.0279942   4.9370870  52.2268629  12.1070790   6.2874609
  51.1907101  10.6921220   6.5602165  50.5202723  13.4837914   4.5708013
  50.5444908  14.6480310   4.9656245  50.6876230  13.1505978   3.2874161
  50.6791925  12.1686828   3.0510378  50.8571720  14.1203320   2.1930669
  51.7131042  14.7554767   2.4212652  51.1327505  13.4069812   0.8611956
  50.2293777  12.9037702   0.5165330  51.5972900  14.3943739  -0.2057967
  52.5771379  14.7936499   0.0560877  51.6605568  13.8736653  -1.1612840
  50.8900118  15.2169156  -0.3120013  52.1558380  12.4494553   1.0124091
  51.7889404  11.6725481   1.4406738  49.6330404  15.0279284   2.0457073
  49.7514343  16.2518835   2.0219165  48.4435320  14.4233406   1.9791248
  48.4283733  13.4134614   1.9749476  47.1437454  15.0889051   1.8570055
  47.0590258  15.5065632   0.8537713  46.0355902  14.0377605   2.0334782
  45.9702396  13.4317148   1.1298522  46.3273811  13.3922160   2.8618640
  44.6518946  14.5969653   2.3686647  44.7111988  15.2139354   3.2652867
  44.3256760  15.2156031   1.5326205  43.6262989  13.5036981   2.6584178
  43.9090729  12.6405215   3.5234457  42.5537300  13.5740829   2.0172870
  46.9639015  16.2641501   2.8157440  46.4655209  17.3202205   2.4119839
  47.3056746  16.0785258   4.0912533  47.7064133  15.1912940   4.3602014
  46.9902229  17.0553124   5.1280689  45.9278679  17.2773242   5.0270635
  47.1314812  16.4288795   6.5212798  48.0289125  15.8122039   6.5705442
  47.2151995  17.2225976   7.2636425  45.9081364  15.5965805   6.8429005
  45.4845095  14.4755006   6.1644292  46.0144711  13.9558399   5.4794484
  44.2354631  14.1827786   6.5555137  43.6462355  13.3692849   6.1587316
  43.8200235  15.0637221   7.4837554  44.8729420  15.9695482   7.6597518
  44.8422766  16.8602908   8.2697010  47.6855087  18.4124482   4.9362856
  47.1027231  19.4289219   5.3157806  48.8482571  18.4628439   4.2715821
  49.2362404  17.5954473   3.9292437  49.5059872  19.7157490   3.8763034
  49.7354317  20.2708483   4.7858751  50.8321905  19.3724298   3.1684422
  51.4534473  18.7940502   3.8522691  50.6115055  18.7408066   2.3079474
  51.6386843  20.5867672   2.6691794  51.0432005  21.1523366   1.9524968
  52.0576572  21.5181065   3.8090378  52.6175451  20.9612179   4.5603719
  52.6818657  22.3203850   3.4155750  51.1761475  21.9668579   4.2669231
  52.9039621  20.1013541   1.9619666  52.6311970  19.4520736   1.1300214
  53.4597683  20.9532666   1.5702766  53.5342503  19.5456481   2.6562464
  48.5886383  20.6161904   3.0234995  48.3022404  21.7509842   3.4103838
  48.0779839  20.1017261   1.8985017  48.3566904  19.1719949   1.6191760
  47.0728588  20.8082771   1.0893762  47.4477243  21.8064189   0.8629028
  46.8040323  20.0989985  -0.2409572  46.5884638  19.0450263  -0.0655393
  45.9394932  20.5610943  -0.7175521  47.9136229  20.2282524  -1.1021766
  47.5764227  20.3068638  -1.9975697  45.7504654  20.9743643   1.8353878
  45.1713228  22.0573974   1.8215880  45.2716780  19.9195850   2.5013715
  45.8241606  19.0742743   2.4836357  43.9204931  19.8553193   3.0938834
  43.2007551  20.0498700   2.2987545  43.6099434  18.4424162   3.6037067
  44.3101215  18.1917608   4.4005862  42.1956110  18.2196176   4.1302130
  41.4731312  18.4507072   3.3474457  42.0837450  17.1719086   4.4093066
  42.0234776  18.8298059   5.0168580  43.7520933  17.5418842   2.5405362
  44.6918583  17.4134362   2.3923635  43.7007713  20.8986282   4.1966084
  42.5838995  21.3953018   4.3608016  44.7450447  21.2888217   4.9360028
  45.6305552  20.8212066   4.8044223  44.7012711  22.4505591   5.8337826
  43.8888788  22.3072362   6.5462244  46.0298061  22.5424957   6.6116965
  46.8519831  22.4537110   5.9015924  46.1057138  23.5218358   7.0841712
  46.1851168  21.4584446   7.6978886  45.8761740  20.4887223   7.3076439
  47.6454544  21.3613367   8.1385726  47.9852247  22.3151278   8.5422277
  47.7522182  20.5846524   8.8958460  48.2635498  21.0918140   7.2821760
  45.3324652  21.7693448   8.9309794  44.2761326  21.7899251   8.6629510
  45.4823685  20.9927344   9.6809828  45.6188965  22.7328134   9.3526208
  44.3811131  23.7526178   5.0741959  43.3760786  24.4055080   5.3614950
  45.2006912  24.1056728   4.0785116  45.9668779  23.4845829   3.8610041
  45.0450850  25.3186131   3.2556120  45.0663996  26.1877799   3.9130279
  46.2423420  25.4255056   2.3085052  47.1646929  25.3668737   2.8863734
  46.2177372  24.6001792   1.5969341  46.2176657  26.6515017   1.6126406
  46.8882895  26.6254473   0.9262135  43.7155151  25.3517389   2.4839273
  43.0149508  26.3654065   2.4408953  43.3152866  24.1847467   1.9759677
  43.9703798  23.4189463   2.0430830  42.0693874  23.9027905   1.2534419
  42.0205832  24.5145941   0.3526549  42.1405458  22.4222016   0.8430237
  42.9947138  22.2714186   0.1829027  42.3403311  21.8830657   1.7690441
  40.9155941  21.7693830   0.1917782  40.0068521  22.2760010   0.5167760
  40.9809828  21.8536139  -0.8929938  40.8315372  20.3022170   0.6298412
  40.2402163  20.0664353   1.7082302  41.4390326  19.4271731  -0.0208386
  40.8170938  24.2099547   2.0918062  39.8198318  24.6664882   1.5420237
  40.8621311  24.0032554   3.4182709  41.7338848  23.6563039   3.7921396
  39.8241162  24.4727802   4.3617511  38.8594937  24.4580960   3.8544160
  39.7746158  23.5395217   5.5868906  40.6587887  22.9021096   5.5932313
  39.8159170  24.1268826   6.5041709  38.4900117  22.6895332   5.6293160
  37.7351952  23.2503152   6.1805642  38.0973458  22.5209475   4.6265739
  38.7240815  21.3356018   6.3274926  39.4701672  21.4570689   7.1127975
  37.7936339  21.0342550   6.8086964  39.1510248  20.1936364   5.3836685
  39.7030759  19.4448185   5.9516585  38.2478952  19.7108686   5.0103176
  39.9536991  20.6538653   4.2257243  40.8921719  20.9332848   4.4733015
  40.0483704  19.9664855   3.4917927  39.5224309  21.4235449   3.7340915
  40.0098705  25.9320664   4.7955093  39.0195155  26.6380358   4.9807647
  41.2547064  26.3854933   4.9555069  42.0175505  25.7381606   4.8171744
  41.5828085  27.7364254   5.4102743  41.0969305  27.8887773   6.3740230
  43.0967808  27.8400230   5.6314403  43.6221170  27.7563691   4.6800596
  43.3351517  28.8042283   6.0804290  43.4299326  27.0470595   6.3010061
  41.0630226  28.8434148   4.4752568  40.4011011  29.7662306   4.9463287
  41.3196468  28.7607932   3.1593090  41.8703556  27.9788589   2.8346395
  40.8464289  29.7671771   2.1831925  41.2370777  30.7321501   2.5061762
  41.4427137  29.4888783   0.7896601  42.5086021  29.7152901   0.8165194
  41.3510942  28.4256268   0.5678473  40.7958460  30.2683020  -0.3722698
  41.2765074  29.9327040  -1.2912001  39.7452569  29.9868655  -0.4441032
  40.8985519  31.8029475  -0.3207652  40.3407526  32.1951962   0.5295864
  41.9450092  32.0949125  -0.2324969  40.3116179  32.3621678  -1.6244973
  40.9344959  32.0263886  -2.4535808  39.3143845  31.9472194  -1.7709467
  40.2204895  33.8399577  -1.6390124  41.0742855  34.2815709  -1.3290015
  40.0140190  34.1679096  -2.5717083  39.4643927  34.1817093  -1.0631380
  39.3132138  29.9511695   2.1831273  38.8955212  31.1026478   2.2591409
  38.4696579  28.9002657   2.1302463  38.8255429  27.5384927   1.7667347
  39.4481850  27.0894098   2.5405151  39.3549728  27.5094557   0.8143908
  37.5263453  26.7510939   1.6387093  37.6144266  25.7885051   2.1424592
  37.2787714  26.6045976   0.5873552  36.4643955  27.6034093   2.3185731
  36.3493443  27.2619271   3.3472875  35.5152845  27.5324488   1.7872965
  37.0180035  29.0318561   2.2838293  36.6260147  29.5376205   1.4014187
  36.5927434  29.8413134   3.5203859  35.8569765  30.8168244   3.3912647
  37.0806050  29.4693780   4.7098681  37.6953721  28.6694241   4.7571278
  36.7706037  30.1714754   5.9591067  35.6872177  30.2210236   6.0682738
  37.3341894  29.3478036   7.1231067  38.4182906  29.2722130   7.0387775
  37.0802355  29.8319769   8.0660719  36.9011021  28.3476019   7.1116054
  37.2890067  31.6242719   5.9806961  36.5975571  32.5305319   6.4425874
  38.4966493  31.8561792   5.4556066  39.0335178  31.0642505   5.1319981
  39.0816760  33.1886530   5.2962089  39.0667319  33.6786199   6.2697637
  40.5475473  33.0269384   4.8527879  41.0752964  32.4479222   5.6106281
  40.5591774  32.4544096   3.9253312  41.3142920  34.3399143   4.6077257
  40.8273983  34.9107981   3.8170773  41.4114428  35.2056932   5.8655274
  41.8475342  34.6334600   6.6843528  42.0283365  36.0816455   5.6649131
  40.4177904  35.5503154   6.1518651  42.7346945  34.0109730   4.1438404
  42.6945162  33.4128237   3.2335109  43.2764435  34.9336028   3.9355996
  43.2605410  33.4524012   4.9181700  38.2733488  34.0747833   4.3341291
  38.1921268  35.2824402   4.5440090  37.6739645  33.4999824   3.2893103
  37.7993131  32.5097752   3.1347677  36.7912197  34.2403865   2.3878449
  37.3032856  35.1704884   2.1412751  36.5672326  33.4784174   1.0753635
  37.5119424  33.0493641   0.7413919  35.8638477  32.6630020   1.2440353
  36.0222101  34.4019485  -0.0276670  35.7993126  33.7984657  -0.9075674
  35.0817394  34.8448229   0.3001706  37.0170045  35.5080128  -0.4141254
  36.5899634  36.6687107  -0.5967647  38.2396746  35.2338529  -0.5111425
  35.4658794  34.6370411   3.0509129  35.0300503  35.7711577   2.8820109
  34.8425889  33.7658477   3.8531274  35.2108502  32.8309941   3.9557672
  33.6826253  34.1752386   4.6617788  32.9502034  34.6079326   3.9802828
  33.0152249  32.9801297   5.3533047  32.8411627  32.1952748   4.6172309
  33.6782146  32.5874376   6.1242384  31.6646433  33.3796573   5.9662265
  31.3581276  32.8801894   7.0709366  30.9405470  34.1713476   5.3167588
  34.0482664  35.2780175   5.6712443  33.3746171  36.3029122   5.7513398
  35.1939011  35.1557970   6.3503993  35.7017398  34.2868376   6.2660509
  35.7417989  36.2119508   7.2132611  35.0014567  36.4197326   7.9858017
  37.0134473  35.6622100   7.8871858  36.7512703  34.7515321   8.4257293
  37.7224135  35.3916287   7.1047187  37.7241182  36.6230798   8.8572949
  38.0347013  37.5225687   8.3257335  36.8387866  37.0180845  10.0412583
  36.4801264  36.1262631  10.5551803  37.4057555  37.6378131  10.7359374
  35.9871817  37.5976253   9.6848875  38.9782739  35.9436679   9.4116002
  39.6410632  35.6734633   8.5895294  39.5049000  36.6285586  10.0761974
  38.7034822  35.0437474   9.9618119  35.9822392  37.5407410   6.4586371
  35.8773279  38.6172390   7.0464963  36.2766004  37.4727082   5.1535505
  36.3856721  36.5459776   4.7670591  36.4070392  38.6137128   4.2299449
  36.8525290  39.4479656   4.7718513  37.3755836  38.1807184   3.1076008
  38.3213162  37.8984213   3.5701987  36.9723773  37.2985888   2.6102406
  37.6615262  39.2252159   2.0200366  36.7525458  39.4155192   1.4493881
  37.9977274  40.1514053   2.4861272  38.7427306  38.7107325   1.0589096
  39.6539950  38.5230017   1.6267623  38.4243560  37.7589035   0.6337471
  39.0315652  39.6923804  -0.0077094  39.6105552  40.4762268   0.2577183
  38.5720062  39.6742272  -1.2489691  38.8665628  40.6357861  -2.0763114
  39.4653630  41.3966894  -1.7889793  38.5108638  40.5649614  -3.0189452
  37.8168392  38.7418103  -1.7334151  37.5093532  37.9762745  -1.1507307
  37.3810315  38.8199949  -2.6411900  35.0646901  39.1368604   3.6851567
  35.0365853  40.2663040   3.1949747  33.9725924  38.3649540   3.7463963
  34.0828943  37.4486637   4.1567004  32.7522516  38.6328077   2.9687876
  32.8019810  39.6574140   2.6002622  32.7509141  37.7195621   1.7304046
  33.6687398  37.9024124   1.1716020  32.7363253  36.6737437   2.0372482
  31.5429974  37.9828668   0.8189413  30.7235241  37.3203135   1.0974841
  31.2074161  39.0129924   0.9386408  31.8738389  37.8004003  -0.6497120
  31.9974446  38.7667084  -1.3869326  32.0187569  36.5887022  -1.1310752
  32.1417570  36.4643168  -2.1258104  31.9795585  35.7888508  -0.5156052
  31.4085412  38.5400033   3.7161806  30.5364609  39.3631387   3.4410053
  31.1960936  37.5859642   4.6266919  31.9629693  36.9729424   4.8637825
  29.8766279  37.1865487   5.1502264  29.3078136  36.7117929   4.3507528
  30.0265408  36.4381337   5.9283662  29.0264821  38.3153081   5.7465923
  27.7985978  38.2992053   5.6507599  29.6657038  39.3433571   6.3114858
  30.6734419  39.2909265   6.3541317  28.9934278  40.5489302   6.8046451
  28.2486916  40.2272844   7.5326663  30.0371289  41.4166546   7.5338447
  30.4928160  40.8213997   8.3251244  30.8185244  41.6815233   6.8215472
  29.4867945  42.7169991   8.1507349  29.0658188  43.3408499   7.3622620
  28.4150958  42.4595785   9.2136395  28.8100100  41.8063641   9.9917459
  28.1040692  43.4052706   9.6575141  27.5409484  41.9943190   8.7581187
  30.6258965  43.4960413   8.8076007  31.3935471  43.7189054   8.0665559
  30.2472520  44.4355440   9.2101759  31.0667396  42.9091644   9.6134120
  28.2349777  41.3304853   5.7072842  27.1905136  41.9139290   5.9904695
  28.7252998  41.3513422   4.4626066  29.5327878  40.7787275   4.2621633
  28.0928087  42.0619440   3.3420011  28.0040789  43.1043530   3.6479524
  29.0339375  42.0336485   2.1187507  29.9573231  42.5470495   2.3868616
  29.2932343  40.9996605   1.8912940  28.4670591  42.6683760   0.8350446
  27.5772119  42.1219492   0.5224866  28.1092739  44.1447401   1.0151855
  28.9768815  44.7024965   1.3676986  27.7735305  44.5609283   0.0653614
  27.2958446  44.2488909   1.7332283  29.5074439  42.5683451  -0.2821258
  29.7951436  41.5269136  -0.4261813  29.0868306  42.9518461  -1.2117024
  30.3939295  43.1457567  -0.0197559  26.6466022  41.5963554   3.0457199
  25.7467413  42.4364662   3.1065342  26.3617754  40.3019190   2.7792636
  27.2966838  39.2076969   2.5576955  28.0642533  39.1585326   3.3300400
  27.7627134  39.3206668   1.5788420  26.4631844  37.9297829   2.5772205
  26.3455057  37.5751734   3.6011851  26.9051671  37.1556401   1.9499597
  25.1124382  38.3976173   2.0414409  24.2982578  37.7602458   2.3863573
  25.1422405  38.4133792   0.9519622  24.9903774  39.8320293   2.5657395
  24.5200777  40.4382324   1.7915063  24.1168284  39.9207020   3.8284963
  22.9020190  40.0855446   3.7125942  24.7070575  39.8592281   5.0286722
  25.7006478  39.6812606   5.0633776  24.0133500  40.1408672   6.2998343
  23.1259012  39.5102715   6.3535577  24.9108076  39.7744823   7.5020117
  25.8934808  40.2278709   7.3720586  24.3463063  40.2554607   8.8424128
  23.3266473  39.8901320   8.9645994  24.9660468  39.8842907   9.6586561
  24.3505621  41.3447809   8.8806432  25.0911379  38.2553935   7.5999171
  25.4685044  37.8526402   6.6599780  25.8098006  38.0148864   8.3833581
  24.1392183  37.7759528   7.8281379  23.5056305  41.5902424   6.3562071
  22.3151016  41.8159389   6.5778553  24.3794632  42.5786400   6.1311567
  25.3431392  42.3352528   5.9517187  24.0012240  43.9981937   6.0747588
  23.4944105  44.2583895   7.0040262  25.2591586  44.8748732   5.9285980
  25.8326149  44.5127821   5.0752884  24.9476838  45.8953619   5.7056844
  26.1736655  44.9092674   7.1672732  26.4390135  43.8942242   7.4628556
  27.4552369  45.6718206   6.8282926  27.2198963  46.6955853   6.5373898
  28.1180334  45.6852245   7.6935220  27.9675746  45.1726437   6.0058391
  25.5115247  45.6028414   8.3608907  24.6489573  45.0274944   8.6971247
  26.2205410  45.6661654   9.1863513  25.1933837  46.6073322   8.0818045
  22.9961681  44.3010283   4.9524745  22.0226097  45.0158787   5.1856166
  23.2000685  43.7388563   3.7580881  24.0484834  43.2082987   3.6209536
  22.2537851  43.8224316   2.6364192  22.1606183  44.8680592   2.3430207
  22.8216958  43.0312824   1.4431739  23.7991309  43.4400892   1.1870500
  22.9654098  41.9931746   1.7428018  21.9401789  43.0396223   0.1862821
  22.4796891  42.5351048  -0.6152740  21.0349369  42.4676609   0.3900034
  21.5638638  44.4536161  -0.2705427  22.3898458  45.3877974  -0.1597404
  20.4116869  44.6748257  -0.6940275  20.8500314  43.3372259   3.0383083
  19.8640275  44.0613842   2.8855589  20.7728386  42.1419573   3.6332166
  21.6247559  41.6088676   3.7339893  19.5342672  41.5667582   4.1729841
  18.8474607  41.3874531   3.3457917  19.8169136  40.2242804   4.8570764
  20.5246615  40.3584719   5.6751138  18.8877845  39.8337150   5.2721357
  20.3383350  39.2888737   3.9372292  21.2524438  39.5252061   3.7635469
  18.8356364  42.5080538   5.1605511  17.6318836  42.7576256   5.0460529
  19.5716810  43.0615473   6.1304682  20.5504870  42.8215885   6.1972564
  19.0126562  44.0189838   7.0895189  18.0943322  43.5872412   7.4874842
  19.9761438  44.2294455   8.2663739  20.9339547  44.5680141   7.8713161
  19.5804024  45.0286722   8.8930583  20.1986527  43.0189323   9.1651803
  19.1179526  42.2117281   9.5823789  18.1125700  42.4239111   9.2498350
  19.3326962  41.1206341  10.4434276  18.5003150  40.5006695  10.7420599
  20.6252193  40.8420992  10.9173560  20.7943487  40.0062466  11.5800345
  21.7017770  41.6532040  10.5219305  22.6965356  41.4446640  10.8871281
  21.4916348  42.7305126   9.6421367  22.3283172  43.3396578   9.3334109
  18.5747266  45.3482485   6.4519668  17.5534022  45.8941841   6.8673503
  19.2639124  45.8441257   5.4143453  20.1121664  45.3708553   5.1376069
  18.8316453  47.0281219   4.6485099  18.7021554  47.8603411   5.3404212
  19.9169362  47.4115801   3.6281124  20.8216047  47.6901579   4.1685441
  20.1472163  46.5421534   3.0123478  19.4950116  48.5751820   2.7111161
  18.6320424  48.2743549   2.1170728  19.2058086  49.4253731   3.3288881
  20.6118822  49.0234518   1.7538182  20.2240849  49.8015213   1.0963058
  21.4194751  49.4588327   2.3423272  21.1955786  47.8842545   0.9056383
  22.0405364  48.2535124   0.3244361  21.5833187  47.1079111   1.5652248
  20.2125835  47.2788477  -0.0181480  20.1510572  47.7876043  -0.8884843
  20.5616951  46.3786316  -0.3145378  19.3092501  47.1001816   0.3967780
  17.4659705  46.8101072   3.9926460  16.5690994  47.6283598   4.1854066
  17.2706127  45.7088804   3.2606241  18.0389380  45.0657129   3.1336612
  15.9564734  45.4105377   2.6478320  15.6332207  46.2958717   2.1002972
  16.0317445  44.2600060   1.6232936  16.2247229  43.3251524   2.1495086
  14.7256351  44.1338491   0.8282889  14.5577288  45.0396347   0.2456608
  14.7832346  43.2739592   0.1609245  13.8698077  43.9974880   1.4893977
  17.1423006  44.4848633   0.5865246  18.1237316  44.4787455   1.0607129
  17.1332896  43.6794901  -0.1479118  16.9940448  45.4346514   0.0726949
  14.8862648  45.1580715   3.7239170  13.7486875  45.6008387   3.5797635
  15.2753878  44.5695114   4.8638147  16.2205327  44.2165327   4.9108163
  14.4059849  44.3940210   6.0452354  13.4970832  43.8775253   5.7366431
  15.0821519  43.5413456   7.1239293  15.9435678  44.0730619   7.5280863
  14.3736362  43.3777475   7.9359269  15.4927695  42.2827673   6.6296726
  16.1873686  42.4165821   5.9806430  13.9520574  45.7071400   6.6966182
  13.0056703  45.6845570   7.4795109  14.5875585  46.8400383   6.3792586
  15.3979385  46.7799664   5.7794452  14.0782785  48.1754255   6.6949189
  13.4332836  48.1176996   7.5717026  15.2458727  49.1106796   7.0424032
  15.7132041  48.7606335   7.9628205  15.9989965  49.0571690   6.2562484
  14.8331618  50.5603456   7.2193652  14.1766560  50.9678364   8.3960354
  13.9788496  50.2510500   9.1792905  13.7646639  52.3040771   8.5478622
  13.2551873  52.6140356   9.4482851  14.0074027  53.2350779   7.5224751
  13.6854911  54.2597723   7.6354736  14.6571112  52.8300428   6.3434148
  14.8327565  53.5430861   5.5515081  15.0691187  51.4942122   6.1912727
  15.5571151  51.1844826   5.2789533  13.2137585  48.7336874   5.5542642
  12.0798194  49.1340590   5.8039999  13.7239313  48.7440872   4.3151656
  14.6469474  48.3560133   4.1827253  13.0522144  49.3442392   3.1499797
  12.9373837  50.4131031   3.3300978  13.9148045  49.1420984   1.8876942
  14.0848136  48.0735683   1.7556383  13.3467257  49.4859648   1.0233193
  15.2738965  49.8655796   1.8883491  15.8109987  49.6472120   2.8113529
  16.1241305  49.3725014   0.7161984  15.5922580  49.5519781  -0.2181470
  17.0798445  49.8963308   0.6984264  16.2955046  48.3005714   0.8146740
  15.1225364  51.3835192   1.7742239  14.5774615  51.7715931   2.6346841
  16.1061990  51.8520832   1.7433119  14.5781469  51.6306829   0.8628225
  11.6313446  48.7987328   2.9227993  10.6581295  49.5510292   3.0014744
  11.4940119  47.4863768   2.7144784  12.3188484  46.9066048   2.6543939
  10.1909614  46.8721342   2.4213989   9.6917933  47.4738169   1.6618520
  10.3680873  45.4645491   1.8455036  10.6652713  44.7806978   2.6405698
   9.4167817  45.1329041   1.4294180  11.3598788  45.4440784   0.8356447
  11.2609160  46.2403345   0.3085681   9.2675889  46.8221998   3.6459386
   8.0471081  46.7894840   3.5056624   9.8312044  46.8498421   4.8599485
  10.8375394  46.9179010   4.9124476   9.0618128  47.0200062   6.0914761
   8.2362556  46.3083220   6.0838026   9.9554729  46.6973019   7.2924078
  10.7881176  47.3986721   7.3460728   9.3738681  46.7700291   8.2113993
  10.3476799  45.6845760   7.1993399   8.4444129  48.4247971   6.1939406
   7.2632813  48.5538292   6.5087432   9.2214632  49.4735479   5.8977973
  10.1854157  49.3023777   5.6496042   8.7506926  50.8590937   5.8689553
   8.3134240  51.0823774   6.8421161   9.9603409  51.7929745   5.6663060
  10.6622589  51.5857935   6.4740741  10.4651999  51.5511370   4.7310343
   9.6072644  53.2952499   5.6857008   8.7309486  53.4567213   6.3134736
  10.7648909  54.1009521   6.2787044  11.6644788  53.9493656   5.6821615
  10.5098271  55.1606226   6.2907344  10.9513903  53.7744999   7.3018110
   9.3393219  53.8584757   4.2867684   8.4932131  53.3515739   3.8228205
   9.0969795  54.9188805   4.3568891  10.2177048  53.7289286   3.6545020
   7.6389062  51.0627460   4.8308864   6.6560835  51.7433119   5.1296872
   7.7639312  50.4541206   3.6475864   8.6283946  49.9690533   3.4538841
   6.6972697  50.3879213   2.6372233   6.4513135  51.4083052   2.3432519
   7.2287357  49.6621895   1.3842937   8.1971616  50.0986767   1.1398937
   7.3984748  48.6080647   1.6036253   6.3451457  49.8104572   0.1317412
   6.0721475  50.8599186   0.0212604   6.9461125  49.5380545  -0.7358637
   5.0822675  48.9377403   0.1236669   4.0508792  49.3824148  -0.4285123
   5.0974327  47.8120041   0.6753376   5.4079109  49.7710609   3.2135519
   4.3652412  50.4302788   3.2432106   5.4899645  48.5578442   3.7723193
   6.3623053  48.0573750   3.6792812   4.3747041  47.8789425   4.4470567
   3.6057347  47.7031755   3.6947989   4.8318043  46.5249491   5.0323862
   5.9201270  46.4771175   5.0693250   4.4772711  46.4241695   6.0581785
   4.3076757  45.3314018   4.2262742   4.6569714  45.4088831   3.1966674
   4.7149843  44.4191933   4.6622461   2.7790952  45.2531052   4.2634535
   2.1168643  45.4552507   3.2180980   2.1901564  45.0709248   5.3499269
   3.7130463  48.7285900   5.5420858   2.4840404  48.8124514   5.5960459
   4.4986925  49.3472242   6.4280957   5.4954749  49.1999245   6.3585681
   3.9921957  50.1813078   7.5242060   3.2161003  49.6249866   8.0498308
   5.1175326  50.4653025   8.5340530   5.8631134  51.0866308   8.0379063
   4.6985218  51.0514593   9.3519467   5.8381730  49.2642403   9.1447163
   5.2901089  47.9606485   9.1160882   4.3234706  47.7796888   8.6696982
   6.0210967  46.8681574   9.6214771   5.6094718  45.8712578   9.5653701
   7.2970581  47.0763016  10.1856196   8.0224347  46.0210323  10.6402862
   7.8767234  45.2416134  10.0991154   7.8318477  48.3784580  10.2527726
   8.8145632  48.5264492  10.6755841   7.1055865  49.4655085   9.7288001
   7.5360239  50.4558611   9.7468162   3.3356220  51.4788532   7.0219362
   2.2519220  51.8420219   7.4854404   3.9381739  52.1428061   6.0297048
   4.8112747  51.7747498   5.6799424   3.3848634  53.3453846   5.3744054
   3.1947017  54.1020203   6.1356169   4.3843728  53.9341402   4.3641552
   4.5844516  53.2075596   3.5766593   3.8895556  55.2334070   3.7291041
   3.6410525  55.9555149   4.5068595   4.6761963  55.6466007   3.0977809
   3.0127138  55.0434113   3.1101140   5.5912519  54.2381430   5.0187117
   6.0694128  53.4108782   5.1114792   2.0535770  53.0355120   4.6878460
   1.0616566  53.7492275   4.8541605   1.9990712  51.9156933   3.9635748
   2.8589162  51.4025736   3.8313428   0.7748196  51.3351488   3.4044003
   0.3144246  52.0453215   2.7175283   1.2084775  50.0973082   2.6188958
   1.9456409  50.4251289   1.8859398   1.7058255  49.4155884   3.3088243
   0.1144506  49.3172264   1.8727657  -0.7728919  49.2162466   2.4976867
  -0.1564974  49.8575354   0.9657066   0.6248349  47.9067802   1.5217614
   0.6797667  47.3367548   2.4492057  -0.0770798  47.4141359   0.8489180
   2.0226718  47.9484606   0.8918910   1.9829856  48.4151602  -0.0923452
   2.6712367  48.5891008   1.4894243   2.7006838  46.6404963   0.8123087
   2.3840822  46.0875845   0.0286353   3.6800614  46.8451977   0.6743545
   2.6186678  46.1341858   1.6823809  -0.2499514  51.0188866   4.4943950
  -1.4153153  51.3706541   4.3387291   0.1503465  50.4040098   5.6163418
   1.1198043  50.1263571   5.6726062  -0.7443053  50.0758171   6.7478305
  -1.5674880  49.4689226   6.3708007  -0.0115251  49.2766094   7.8448880
   1.0601104  49.2370653   7.6496148  -0.1350490  49.7918749   8.7974358
  -0.5507431  47.8473854   8.0260587  -0.2190661  47.4929571   9.0020049
  -1.6404471  47.8674793   8.0416143  -0.0704591  46.8251801   6.9836867
   1.0186816  46.7866468   7.0034182  -0.4445717  45.8459806   7.2825330
  -0.5329603  47.1200657   5.5513996  -1.5980159  47.3519135   5.5489546
   0.0129528  47.9929638   5.1934457  -0.2540454  45.9696436   4.6649072
  -0.7451712  45.1349926   4.9517018  -0.4308534  46.1732912   3.6915815
   0.7266785  45.7335854   4.7156128  -1.4303014  51.3065243   7.3337662
  -2.6366955  51.2580156   7.5456977  -0.7133774  52.4190760   7.5045770
   0.2818445  52.3747969   7.3382139  -1.3036688  53.6947727   7.9366207
  -1.7167427  53.5543346   8.9354938  -0.1829668  54.7505283   8.0147511
   0.5766639  54.4017839   8.7143499   0.2833093  54.8310804   7.0328158
  -0.6364885  56.1626911   8.4341836  -1.3766281  56.5377855   7.7273625
  -1.2301962  56.1867619   9.8443353  -0.5180420  55.7780457  10.5611968
  -1.4739162  57.2127438  10.1201272  -2.1512288  55.6043053   9.8676080
   0.5645727  57.1087456   8.4078187   0.9908837  57.1316910   7.4049062
   0.2433218  58.1166935   8.6703849   1.3242185  56.7757082   9.1150117
  -2.4718136  54.1413069   7.0317173  -3.4549066  54.6884012   7.5197399
  -2.3782922  53.8661289   5.7281083  -1.5482293  53.3872223   5.4091305
  -3.3958024  54.1865063   4.7228861  -3.9815587  55.0394535   5.0656295
  -2.6553321  54.6150875   3.4411308  -1.9739173  53.8284063   3.1172395
  -3.3833912  54.7741985   2.6456979  -1.8924974  55.9169865   3.6166152
  -2.4258335  56.9965601   3.4440404  -0.6253854  55.8850718   3.9619949
  -0.1774118  56.7845440   4.0638018  -0.1448894  55.0193501   4.1613689
  -4.4149709  53.0526400   4.4439468  -5.3108656  53.2401800   3.6245000
  -4.3171296  51.8864393   5.1013118  -3.5765186  51.7902422   5.7812697
  -5.1341331  50.6855059   4.7787076  -6.0332584  51.0049868   4.2518237
  -4.3791765  49.7273922   3.8316286  -4.9886596  48.8386440   3.6680526
  -4.0851471  50.3401232   2.4631788  -3.3953989  51.1799288   2.5473246
  -3.6458156  49.5869637   1.8090875  -5.0143796  50.6964254   2.0185700
  -3.1413528  49.3290377   4.3772036  -2.5943679  50.1159811   4.3211558
  -5.6464678  49.8989344   5.9966993  -6.2727022  48.8492346   5.8286929
  -5.4252994  50.4039621   7.2164476  -4.8791534  51.2511349   7.2806942
  -5.9201813  49.8199654   8.4724218  -5.7258224  48.7484980   8.4246862
  -5.1508737  50.4240179   9.6676737  -4.7035822  51.3742685   9.3760246
  -5.8299756  50.6362677  10.4934299  -4.0425947  49.4809532  10.1707959
  -3.4216154  49.1840363   9.3256187  -3.4180978  50.0397491  10.8678257
  -4.5313320  48.2148695  10.8939469  -3.7457424  47.4290228  11.3998485
  -5.8148998  47.9354858  10.9991753  -6.0504168  47.0781279  11.4782989
  -6.5110934  48.5149622  10.5523729  -7.4338180  49.9244070   8.6729127
  -7.9215705  49.2678881   9.6242273  -8.1576061  50.5995798   7.9068214
  26.4154601  41.4498854  -7.7644670  26.6176653  42.1949339  -7.1132243
  25.9066749  40.6996727  -7.3190218  25.7673883  41.7944908  -8.4582639
  27.6026845  40.9373569  -8.4802240  27.2627497  40.0641108  -9.0369940
  28.1124377  41.9489717  -9.5245093  27.2939968  42.1810770 -10.2059639
  28.3992958  42.8712845  -9.0193880  29.3116546  41.4398289 -10.3517163
  30.1564813  41.2602234  -9.6868020  28.9910674  40.1463032 -11.1021090
  28.1109786  40.2830648 -11.7304742  29.8360586  39.8655629 -11.7308176
  28.8083124  39.3308663 -10.4022753  29.7262979  42.5042439 -11.3668215
  29.9852538  43.4310961 -10.8549750  30.5968642  42.1593618 -11.9247389
  28.9115334  42.6940060 -12.0655680  28.7003136  40.4439735  -7.5381464
  28.9116359  39.2426229  -7.4434054  29.3931556  41.3446808  -6.8179989
  29.1312981  42.3145628  -6.9222289  30.7305002  41.1135435  -6.2146246
  31.3965154  40.7906961  -7.0148081  31.2661910  42.4414778  -5.6310910
  30.4307365  43.0268955  -5.2471668  31.9165993  42.2507668  -4.7774526
  32.0503926  43.2991362  -6.6377723  31.4150763  43.4991550  -7.5005978
  32.2657418  44.2553663  -6.1609626  33.3854508  42.7101994  -7.1362549
  33.2008553  41.8555641  -7.7871221  33.8595128  43.4705257  -7.7569550
  34.3865538  42.3275995  -6.0295010  35.3839231  42.5780058  -6.3909543
  34.1879511  42.9125357  -5.1314425  34.3609333  40.8762455  -5.7368499
  34.4943118  40.3727865  -6.6022092  35.0891328  40.5627680  -5.1111048
  33.4689426  40.5396414  -5.4034501  30.8709073  39.9914742  -5.1698083
  31.9923830  39.7427845  -4.7345412  29.7857308  39.3387914  -4.7530797
  28.9093256  39.5656848  -5.2008867  29.8711181  38.0797386  -4.0083891
  30.4980731  38.2341194  -3.1302145  28.4714913  37.6342678  -3.5372314
  27.8586316  37.4301362  -4.4152033  28.5841489  36.6979766  -2.9906356
  27.7155995  38.6317635  -2.6381215  27.5628042  39.5637608  -3.1823036
  26.3448000  38.0602813  -2.2743300  26.4585805  37.1408653  -1.7000246
  25.7890463  38.7859964  -1.6805476  25.7780242  37.8494835  -3.1812090
  28.4536600  38.9364338  -1.3353673  29.4046092  39.4223881  -1.5536416
  27.8561807  39.6144032  -0.7258804  28.6398315  38.0162907  -0.7814936
  30.5459833  36.9688249  -4.8319986  31.4162397  36.2689328  -4.3219674
  30.1264262  36.8108344  -6.0929990  29.5029068  37.5082469  -6.4737099
  30.4011130  35.6343198  -6.9271910  30.0636744  34.7483397  -6.3893485
  29.5941424  35.7332230  -8.2398391  29.9863744  36.5696764  -8.8182843
  29.7677445  34.8248243  -8.8167048  28.0714130  35.9330702  -8.0807424
  27.8792882  36.8438816  -7.5136364  27.4213934  36.0887051  -9.4549650
  27.5665450  35.1842546 -10.0457275  26.3540006  36.2775755  -9.3405128
  27.8649092  36.9352412  -9.9791509  27.3854756  34.7734714  -7.3586011
  27.7961326  34.6529341  -6.3561386  26.3177657  34.9761724  -7.2749072
  27.5250387  33.8527775  -7.9251224  31.8945003  35.4043007  -7.2061163
  32.3964787  34.3116808  -6.9753700  32.6129985  36.4303041  -7.6611567
  32.1733427  37.3359847  -7.7420741  34.0513730  36.3741469  -7.9620761
  34.2500496  35.4788280  -8.5511678  34.4580579  37.5946164  -8.8090497
  35.5195880  37.5176215  -9.0442693  33.9082241  37.5646234  -9.7497314
  34.1840839  38.9422631  -8.1320161  35.0694466  39.8223495  -8.1361306
  33.1177306  39.1335082  -7.5011808  34.9203014  36.2779379  -6.6936707
  35.9631228  35.6224990  -6.6953897  34.4807339  36.8883204  -5.5852354
  33.6067414  37.3913121  -5.6421274  35.0907922  36.6514611  -4.2741716
  36.1583829  36.8623090  -4.3365389  34.4619203  37.5831389  -3.2231256
  33.3815360  37.6037931  -3.3660966  34.6547246  37.1729445  -2.2318308
  34.9681950  39.0151048  -3.2110515  35.9752059  39.4012022  -3.7980258
  34.2769051  39.8924232  -2.5301331  34.6641755  40.8059597  -2.3415612
  33.4360361  39.5686388  -2.0738275  34.9758840  35.1683974  -3.8648772
  35.9657025  34.5854068  -3.4255788  33.8139439  34.5304728  -4.0616256
  33.0220294  35.0398374  -4.4270319  33.6731267  33.0868649  -3.8413087
  34.1018033  32.8581047  -2.8656015  32.1995378  32.6649332  -3.7984434
  31.7674017  32.8266191  -4.7859743  32.1672320  31.5924454  -3.6065522
  31.3163781  33.3255696  -2.7748805  30.0984001  33.8521242  -3.0348238
  29.6508455  33.8876891  -4.0170822  29.5068812  34.2801023  -1.8640751
  28.5716510  34.6584129  -1.8158558  30.3265333  34.0714908  -0.7799426
  30.1910806  34.3725610   0.5831008  29.2834330  34.8165059   0.9645304
  31.2516189  34.0791154   1.4550175  31.1633635  34.2863250   2.5112745
  32.4217987  33.4860587   0.9516744  33.2271433  33.2454848   1.6298664
  32.5424409  33.1773233  -0.4177010  33.4479737  32.7087092  -0.7738074
  31.5008283  33.4661984  -1.3275960  34.4724369  32.2387314  -4.8435777
  35.1154327  31.2802958  -4.4280422  34.5278955  32.5946617  -6.1303711
  33.9300823  33.3395791  -6.4587337  35.3136683  31.8379617  -7.1225107
  35.0019956  30.7970357  -7.0363081  34.9944568  32.2955537  -8.5501391
  33.9178205  32.4325943  -8.6510015  35.4850578  33.2485843  -8.7479830
  35.4381323  31.2357640  -9.5654273  36.1137152  31.6166997 -10.5458891
  35.0936484  30.0513673  -9.3399978  36.8308806  31.8613124  -6.8509388
  37.5534034  30.8989096  -7.1237940  37.3213983  32.9210639  -6.1963588
  36.7052364  33.7084126  -6.0530776  38.6734867  32.9505849  -5.6264710
  39.3799973  32.8582120  -6.4513415  38.9145184  34.3000245  -4.9394774
  38.7195873  35.1068735  -5.6459463  38.2342482  34.4020820  -4.0939519
  40.2444553  34.4019771  -4.4557109  40.8211899  34.4308567  -5.2226216
  38.9407420  31.7751241  -4.6665421  40.0758839  31.2948704  -4.5877558
  37.9203200  31.2716603  -3.9565527  37.0010233  31.6600370  -4.1119966
  37.9914522  30.0006604  -3.2131863  38.9175177  29.9889755  -2.6384154
  36.8278193  29.8007107  -2.2202209  35.8909059  29.7108030  -2.7699536
  36.9913411  28.5137105  -1.4064439  37.9373956  28.5287189  -0.8652813
  36.1626792  28.4225607  -0.7042252  36.9676590  27.6433635  -2.0622151
  36.7158771  30.9702253  -1.2390395  36.5529275  31.8951011  -1.7923497
  35.8609939  30.8172655  -0.5803460  37.6203299  31.0532808  -0.6364038
  38.0618763  28.8221478  -4.1754100  39.0140152  28.0554867  -4.0697908
  37.1094704  28.6855221  -5.1066554  36.3615680  29.3635511  -5.1386696
  37.0388794  27.5813031  -6.0872370  36.7408657  26.6705322  -5.5678314
  36.0033083  27.8724051  -7.1882397  36.3937736  28.6552811  -7.8384238
  35.6726313  26.6494608  -8.0436760  35.2831626  25.8519316  -7.4109358
  34.9186301  26.9315743  -8.7785214  36.5562582  26.2956166  -8.5748041
  34.7953153  28.3319187  -6.6443270  34.3918896  28.8111567  -7.3717809
  38.3802676  27.3169994  -6.7682713  38.8961315  26.1988711  -6.7313087
  38.9695454  28.3587646  -7.3592001  38.4585738  29.2299294  -7.3685300
  40.2679396  28.3139086  -8.0383801  40.2061033  27.5872898  -8.8485050
  40.5259180  29.6924329  -8.6572188  39.7213793  29.9170303  -9.3574870
  40.5239677  30.4516387  -7.8751045  41.7616940  29.7352314  -9.3386179
  41.6982698  30.4165769 -10.0119305  41.4102268  27.8680468  -7.1110392
  42.1501589  26.9340801  -7.4283779  41.5144634  28.4782887  -5.9230018
  40.8357430  29.1923499  -5.7003927  42.5191927  28.1233597  -4.9005049
  43.5102987  28.2259941  -5.3424048  42.4401808  29.0692544  -3.6912149
  41.4673376  28.9463878  -3.2152155  43.5332394  28.8006043  -2.6565996
  44.5034933  28.7264085  -3.1477174  43.5674620  29.6106815  -1.9281039
  43.3179522  27.8702593  -2.1310486  42.5743532  30.4197407  -4.0710479
  41.7296553  30.7070971  -4.4253352  42.3832273  26.6690803  -4.4301304
  43.3573532  25.9213901  -4.4208914  41.1697388  26.2650156  -4.0459123
  40.4151726  26.9323158  -4.1196844  40.7983398  24.9084473  -3.6301795
  41.3308239  24.6476555  -2.7155486  39.2887092  24.9228549  -3.3371711
  39.1038537  25.6328058  -2.5310066  38.7640381  25.3022671  -4.2140216
  38.6517382  23.5982442  -2.9659861  38.2326627  22.7044773  -3.9726508
  38.4138227  22.9305816  -5.0130635  37.5398326  21.5305209  -3.6308971
  37.2109079  20.8537602  -4.4056246  37.2673774  21.2460685  -2.2823271
  36.7228794  20.3519678  -2.0168041  37.7055383  22.1205091  -1.2750611
  37.5134015  21.8880296  -0.2380284  38.3889151  23.3004618  -1.6159211
  38.7012839  23.9809632  -0.8376250  41.1730623  23.8652205  -4.6913391
  41.8419552  22.8801966  -4.3776694  40.8050776  24.1303277  -5.9522033
  40.2531910  24.9598789  -6.1176443  41.1856985  23.3164120  -7.1139526
  40.7281017  22.3317385  -7.0184410  40.7021141  23.9377117  -8.4324312
  41.2121487  24.8841548  -8.6119068  40.9422445  23.2581449  -9.2501289
  39.3071055  24.1627693  -8.4165370  39.1218925  24.8991203  -7.8290886
  42.6997328  23.1204700  -7.1660376  43.1666470  21.9900489  -7.0722258
  43.4688139  24.2179751  -7.2268713  43.0046368  25.1147413  -7.2481996
  44.9394417  24.2038608  -7.3193860  45.2173471  23.6593342  -8.2218051
  45.4538822  25.6489420  -7.4414653  44.8930073  26.2888479  -6.7602611
  46.5030956  25.6951904  -7.1497154  45.3080177  26.1819649  -8.8774604
  44.3755245  25.8220363  -9.3122131  45.2678251  27.2707129  -8.8440728
  46.4983940  25.7680511  -9.7598481  47.3811674  26.3090825  -9.4191146
  46.7006826  24.7018933  -9.6574390  46.2451124  26.1140060 -11.2329292
  45.6182575  27.0043778 -11.2818444  47.2018051  26.3340068 -11.7066741
  45.6079340  24.9833465 -11.9442523  44.9000120  24.5249128 -11.3885581
  45.2578068  25.1953506 -12.8675950  46.2465954  24.2040277 -12.0141315
  45.6196451  23.4562373  -6.1676037  46.5584469  22.7027392  -6.4078581
  45.1490736  23.6272502  -4.9306798  44.3862486  24.2766023  -4.8020509
  45.6876993  22.9220796  -3.7589285  46.7665339  23.0750728  -3.7304568
  45.0672865  23.5073876  -2.4798290  43.9836836  23.5076547  -2.5977248
  45.3056240  22.8608513  -1.6352651  45.5466032  24.9340868  -2.1563450
  45.5176878  25.5596256  -3.0485129  44.6178389  25.5413699  -1.1098564
  44.6389437  24.9276495  -0.2093009  44.9372673  26.5552759  -0.8688968
  43.6005068  25.5730653  -1.4998932  46.9714165  24.9486613  -1.5969786
  47.6674509  24.5716476  -2.3463079  47.2597980  25.9711742  -1.3532512
  47.0364523  24.3209910  -0.7082158  45.4788065  21.3999414  -3.8159356
  46.3727760  20.6489110  -3.4122699  44.3216038  20.9311032  -4.3070376
  43.6173964  21.5937543  -4.5987451  44.0600824  19.4919825  -4.4852227
  44.5045996  18.9692819  -3.6382961  42.5475121  19.2151594  -4.4902799
  42.0295906  19.9097180  -3.8288811  42.1580219  19.3582022  -5.4982167
  42.2730970  17.7748859  -4.0258184  41.3457346  17.4206352  -4.4759297
  43.0710030  17.1146142  -4.3656638  42.1555614  17.7020574  -2.4968362
  42.9554653  18.2886422  -2.0449841  41.2034178  18.1389248  -2.1957205
  42.2492027  16.3161421  -2.0071571  42.3883486  15.5901897  -2.6954362
  42.2770977  15.9441888  -0.7389601  42.5166464  14.7024488  -0.4466942
  42.7137804  14.0138507  -1.1587761  42.4595213  14.3923187   0.5128210
  42.0868540  16.7710841   0.2437316  41.8648434  17.7389455   0.0591575
  42.2953653  16.4997768   1.1940021  44.7345781  18.9171767  -5.7349837
  45.2674770  17.8165722  -5.6852633  44.7440386  19.6734142  -6.8259710
  44.2316341  20.5426621  -6.7817992  45.4772949  19.4146097  -8.0721098
  45.0780392  18.5212064  -8.5522437  45.2140617  20.6186652  -8.9895904
  44.1472006  20.6507373  -9.2106962  45.4672527  21.5122080  -8.4190023
  45.9801483  20.7086778 -10.3128850  47.0401716  20.5315399 -10.1310277
  45.6074905  19.9471021 -10.9978890  45.8111763  22.1053910 -10.9360111
  44.8019457  22.8075409 -10.6755698  46.7129898  22.5706673 -11.6704011
  46.9711161  19.1624856  -7.8152943  47.4946356  18.1294489  -8.2210732
  47.6326466  20.0568819  -7.0706296  47.1488571  20.9036541  -6.8078965
  49.0234137  19.9096990  -6.6220397  49.6682262  19.9035037  -7.5008321
  49.3770552  21.1390662  -5.7629853  49.2816448  22.0328283  -6.3795757
  48.6658812  21.2138414  -4.9403438  50.7974100  21.0945344  -5.1764518
  50.8999014  20.2230096  -4.5298922  51.5157175  21.0018015  -5.9910280
  51.1564684  22.3263812  -4.3482751  50.4074287  23.2748461  -4.1822082
  52.3413706  22.3594260  -3.7797952  52.5436592  23.1814957  -3.2289997
  52.9794168  21.5833926  -3.8835454  49.2828274  18.5936129  -5.8635193
  50.3180933  17.9581201  -6.0515529  48.3619499  18.2090557  -4.9754372
  47.5411940  18.7897813  -4.8794079  48.4117889  16.9626498  -4.2048669
  49.4037008  16.8617368  -3.7643787  47.3812056  17.1018231  -3.0671486
  47.7459478  17.8444088  -2.3574811  46.4523602  17.4834561  -3.4910589
  47.0426750  15.8085048  -2.3099828  46.7263031  15.0406873  -3.0160010
  48.2410288  15.3043795  -1.5063520  48.5770845  16.0696304  -0.8066681
  47.9649782  14.3975151  -0.9683084  49.0581799  15.0533211  -2.1826155
  45.8583260  16.0784209  -1.3820535  45.0153732  16.4375889  -1.9724162
  45.5691767  15.1509643  -0.8877724  46.1209011  16.8341041  -0.6417171
  48.1744671  15.7001328  -5.0581831  48.7934685  14.6648622  -4.8070726
  47.2600508  15.7780981  -6.0301280  46.8262291  16.6784906  -6.1757201
  46.6743135  14.6420777  -6.7524409  45.9256458  14.1748142  -6.1127067
  46.1668253  15.0157821  -7.6417655  47.6639605  13.5543513  -7.1911997
  47.4684477  12.3990893  -6.8074197  48.7445164  13.8904428  -7.9237098
  49.0018892  15.1855135  -8.5384351  49.5084429  15.8359528  -7.8253919
  48.0839777  15.6561863  -8.8905841  49.9216890  14.8959589  -9.7210789
  50.5513573  15.7524002  -9.9621785  49.3271494  14.5966864 -10.5842471
  50.7403994  13.7073994  -9.2196387  51.5541077  14.0717733  -8.5925764
  51.1329460  13.1110120 -10.0432467  49.7336149  12.9138839  -8.3779973
  49.2332745  12.1888578  -9.0199459  50.4276943  12.1568060  -7.2392464
  50.6927538  10.9682918  -7.3713571  50.7091475  12.8144753  -6.1095315
  50.3924847  13.7690651  -6.0168785  51.3516617  12.1755826  -4.9460790
  52.1280670  11.5137291  -5.3298002  52.0532513  13.2024920  -4.0371513
  51.2999773  13.7519586  -3.4725580  52.9981613  12.4913907  -3.0594283
  53.7151909  11.8800020  -3.6073083  53.5416412  13.2200062  -2.4578889
  52.4276876  11.8479145  -2.3896560  52.8904200  14.2178667  -4.8303252
  52.2437096  14.8443103  -5.4446805  53.4336948  14.8680699  -4.1446251
  53.6015463  13.6943316  -5.4693180  50.3755522  11.2850392  -4.1634735
  50.7557201  10.2287328  -3.6612019  49.0935612  11.6642463  -4.0861109
  48.8305187  12.5561810  -4.4802758  48.0335855  10.7473314  -3.6263499
  48.3115196  10.3740311  -2.6407036  46.6774559  11.4620948  -3.4951165
  46.4381790  11.9666624  -4.4312033  45.5155420  10.5383122  -3.1263274
  45.7659292   9.9503905  -2.2432902  44.6230316  11.1320937  -2.9289711
  45.3003454   9.8633260  -3.9546898  46.7386627  12.4198389  -2.4628931
  47.0369530  11.9748390  -1.6662760  47.9234695   9.5130283  -4.5286477
  47.8058624   8.4030575  -4.0111387  47.9802418   9.6914047  -5.8544582
  48.0469847  10.6320488  -6.2161738  48.0120182   8.5871583  -6.8169707
  47.1399069   7.9611886  -6.6280609  47.8822947   9.1229773  -8.2531708
  46.9237232   9.6334350  -8.3462948  48.6756134   9.8429203  -8.4542376
  47.9633570   7.9990488  -9.3015748  48.9467764   7.5313056  -9.2547131
  47.2144461   7.2395444  -9.0771055  47.7432203   8.4803003 -10.7324409
  47.2480631   9.5611024 -11.0072017  48.0993128   7.6808715 -11.7130899
  47.9572010   8.0308408 -12.6497972  48.5338354   6.7911643 -11.5138078
  49.2363691   7.6784712  -6.6290063  49.0468693   6.4774925  -6.4974034
  50.4552555   8.2263869  -6.5740901  50.5355358   9.2166626  -6.7557859
  51.7151499   7.4950761  -6.3286418  51.9733238   6.9019669  -7.2059506
  52.8354263   8.5325557  -6.0987455  52.9896498   9.0926605  -7.0210242
  52.4965525   9.2442411  -5.3459060  54.1878462   7.9807490  -5.6111425
  54.8682165   8.8228786  -5.4846007  54.0531588   7.5300902  -4.6278480
  54.8307180   6.9660521  -6.5664238  54.6021223   7.0934337  -7.7885646
  55.5579758   6.0816681  -6.0580486  51.6033506   6.5288955  -5.1384741
  51.8192720   5.3210026  -5.2653134  51.2066841   7.0385379  -3.9685750
  51.0434341   8.0327618  -3.8980708  51.0677958   6.1947066  -2.7836990
  51.9747543   5.5942518  -2.7131352  50.9819984   7.0555222  -1.5180133
  50.1983833   7.8013462  -1.6513914  50.6935215   6.4116251  -0.6871852
  52.2868681   7.7361733  -1.1352026  53.4595251   6.9711077  -0.9625111
  53.4388924   5.9024197  -1.1170452  54.6746731   7.5961339  -0.6313094
  55.5802107   7.0123082  -0.5568428  54.7192621   8.9880311  -0.4458635
  55.6550264   9.4733948  -0.2109789  53.5503483   9.7529775  -0.5980315
  53.5920000  10.8252370  -0.4758660  52.3378277   9.1304475  -0.9467527
  51.4521408   9.7301245  -1.0962309  49.9349022   5.1619041  -2.8868908
  50.0701761   4.0856045  -2.3033796  48.8537836   5.4194182  -3.6352140
  48.7891817   6.2964612  -4.1319284  47.9001093   4.3493804  -3.9520919
  47.6942158   3.8111228  -3.0268979  46.5516710   4.8849687  -4.4469368
  46.2597418   5.7393450  -3.8362658  46.6393805   5.2178204  -5.4811603
  45.4842854   3.8358176  -4.3371919  45.3575420   2.7641857  -5.1548809
  45.9739542   2.5675267  -6.0196131  44.4376612   1.8779138  -4.6328366
  44.2998362   0.9472164  -5.0001532  43.8814974   2.3626447  -3.4715736
  42.9268217   1.8474969  -2.5893280  42.4779987   0.8904693  -2.8108096
  42.5867319   2.5782752  -1.4375976  41.8598366   2.1875660  -0.7409137
  43.2127666   3.8122466  -1.1830428  42.9651642   4.3602309  -0.2859326
  44.1745377   4.3223080  -2.0795295  44.6634912   5.2627730  -1.8725353
  44.5299292   3.6140001  -3.2512373  48.4706354   3.3111307  -4.9317688
  48.2990170   2.1155600  -4.7253367  49.1759443   3.7392420  -5.9777397
  49.3034506   4.7350174  -6.0885447  49.7223186   2.8764778  -7.0320344
  48.8922644   2.3404168  -7.4921972  50.3655672   3.7586203  -8.1156766
  49.6424723   4.5012030  -8.4530264  51.2284565   4.2801380  -7.7014995
  50.7951498   2.9179472  -9.3132639  49.9190950   2.2914217  -9.9536270
  52.0115423   2.7109188  -9.5119184  50.6958818   1.8108030  -6.4868724
  50.6942558   0.6626458  -6.9427222  51.4799643   2.1672690  -5.4636413
  51.4621878   3.1408358  -5.1953989  52.2972250   1.2281117  -4.6867326
  52.9120874   0.6378110  -5.3661364  53.2245255   2.0350157  -3.7560567
  52.6539183   2.8004068  -3.2300493  53.6426973   1.3574959  -3.0116114
  54.4021893   2.6884735  -4.4642770  55.4987240   2.1553366  -4.4576937
  54.2182541   3.8551620  -5.0348145  54.9918461   4.3472639  -5.4584849
  53.3090639   4.2895105  -5.1042163  51.4334631   0.2348141  -3.8733548
  51.6157627  -0.9804516  -3.9720207  50.4581499   0.7480593  -3.1106156
  50.3291512   1.7492472  -3.1435436  49.4964933  -0.0219849  -2.3002656
  50.0549078  -0.5854682  -1.5527643  48.5800743   0.9959581  -1.5738985
  49.0453863   1.2542696  -0.6226594  48.5647154   1.9111539  -2.1657424
  47.1020079   0.6322166  -1.3204512  46.6209173   0.3433858  -2.2549182
  46.9077969  -0.4739612  -0.2873071  47.2929811  -0.1594700   0.6826553
  45.8464670  -0.7070155  -0.2015238  47.4260521  -1.3738796  -0.6184505
  46.3861465   1.8649906  -0.7758965  46.4408970   2.6679051  -1.5110356
  45.3359461   1.6356634  -0.5953747  46.8640614   2.1939264   0.1468705
  48.7280512  -1.0631637  -3.1297487  48.5616589  -2.2109908  -2.7069291
  48.2933807  -0.6766839  -4.3243879  48.4287977   0.2920473  -4.5760378
  47.4938917  -1.4998217  -5.2269346  46.5836287  -1.7930476  -4.7039190
  47.1020269  -0.6373934  -6.4420903  46.7674637   0.3394231  -6.0928082
  47.9877281  -0.4764235  -7.0566815  45.9925461  -1.2249713  -7.3274678
  45.8493996  -0.5573697  -8.1771260  46.3271475  -2.1853930  -7.7195531
  44.6417904  -1.4020588  -6.6127378  44.3905687  -0.7557485  -5.5717671
  43.8386345  -2.2339141  -7.0914018  48.2289839  -2.7857974  -5.6425041
  47.5937033  -3.8233408  -5.8044183  49.5649719  -2.7508068  -5.7722574
  50.0289536  -1.8810694  -5.5522990  50.3803682  -3.8865387  -6.2496710
  49.8076916  -4.4126782  -7.0134234  51.6691971  -3.3689976  -6.9061428
  52.2008657  -2.7179977  -6.2121493  52.3096704  -4.2133641  -7.1609664
  51.3216162  -2.6014125  -8.1890178  50.8165693  -3.2750034  -8.8813353
  50.6319809  -1.7946678  -7.9406953  52.5551891  -2.0110348  -8.8846058
  53.1380987  -1.4192991  -8.1787944  53.1751299  -2.8232720  -9.2641366
  52.0972013  -1.1279121 -10.0514364  52.9491806  -0.8829978 -10.6856668
  51.3705349  -1.6845043 -10.6432700  51.4844513   0.1182849  -9.5479494
  52.1451473   0.8687600  -9.4051874  50.8257961   0.5691428 -10.1668262
  51.0147715   0.0139133  -8.6599106  50.6677485  -4.9481457  -5.1863205
  50.5451488  -6.1336267  -5.4841536  50.9720802  -4.5566508  -3.9459267
  51.0741186  -3.5681811  -3.7653258  50.9387445  -5.4963458  -2.8062931
  51.6227245  -6.3241291  -2.9934913  51.3527775  -4.8047033  -1.4956762
  50.9411335  -3.7955323  -1.4806640  50.9211063  -5.3719378  -0.6710514
  52.8698158  -4.7362444  -1.2703422  53.2837915  -5.7410944  -1.3540117
  53.3129168  -4.1230053  -2.0550086  53.2278299  -4.1649058   0.1160703
  54.0588903  -3.2363707   0.1857686  52.6693583  -4.6050987   1.1509143
  49.5374966  -6.1137456  -2.6567259  49.3894291  -7.3282683  -2.5030652
  48.4978056  -5.2790827  -2.7735040  48.6877680  -4.2948818  -2.8974578
  47.1004105  -5.7282418  -2.7365711  46.9570589  -6.2602115  -1.7960615
  46.1237478  -4.5394179  -2.7421632  46.1566257  -4.0311539  -3.7058470
  44.6852016  -4.9520427  -2.4382769  44.6387815  -5.4168999  -1.4534657
  44.0516376  -4.0651745  -2.4509481  44.3299437  -5.6571758  -3.1897262
  46.4538860  -3.6265308  -1.7223948  47.2191048  -3.1310722  -2.0233460
  46.7863226  -6.7285776  -3.8584697  46.1397886  -7.7389348  -3.5938588
  47.2586203  -6.5112293  -5.0911003  47.7133989  -5.6305063  -5.2850300
  47.0934582  -7.4510407  -6.2128574  46.0255909  -7.6479584  -6.3076192
  47.5528860  -6.8160278  -7.5385475  47.1738768  -5.7958454  -7.5992274
  48.6418867  -6.7702305  -7.5472200  47.0753002  -7.5777274  -8.7905121
  47.6063490  -7.1788740  -9.6548080  47.3356724  -8.6330396  -8.7091237
  45.5634499  -7.4149954  -9.0110826  45.1555681  -6.4467698  -9.6869707
  44.7659922  -8.1589836  -8.3987206  47.7712631  -8.8096559  -5.9585309
  47.1965790  -9.8538917  -6.2668490  48.9401817  -8.8227850  -5.3059983
  49.3737888  -7.9380804  -5.0837654  49.5440531 -10.0517261  -4.7733721
  49.8608017 -10.6862724  -5.6010926  50.4191160  -9.7927177  -4.1773218
  48.5731173 -10.8438468  -3.8862801  48.3507299 -12.0393586  -4.0926376
  47.9172754 -10.1614904  -2.9428115  48.1436300  -9.1848546  -2.8201365
  46.8761253 -10.7636273  -2.1066214  47.3088932 -11.6626143  -1.6677171
  46.5245390  -9.7921932  -0.9679896  47.4509621  -9.4775343  -0.4875394
  46.0591602  -8.9028931  -1.3930383  45.5836582 -10.3551996   0.1089455
  44.6159363 -10.5865586  -0.3361251  46.1374092 -11.6125727   0.7848816
  47.1543741 -11.4367449   1.1355489  45.5162954 -11.8964279   1.6344346
  46.1486340 -12.4420738   0.0778435  45.3736305  -9.2836320   1.1806132
  45.0578260  -8.3518595   0.7113949  44.6061325  -9.6064728   1.8840492
  46.3097715  -9.1024053   1.7087163  45.6380701 -11.2105584  -2.9073319
  45.0522280 -12.2452593  -2.5906295  45.2328968 -10.4785848  -3.9554536
  45.7559061  -9.6396393  -4.1621849  44.1589737 -10.8996511  -4.8790616
  43.2773066 -11.1615825  -4.2941195  43.7860298  -9.7707367  -5.8566236
  44.6928453  -9.2317820  -6.1310506  43.3998013 -10.2120543  -6.7754084
  42.7148771  -8.7972558  -5.3302586  41.8806076  -8.7822235  -6.0315865
  42.3313189  -9.1533333  -4.3741250  43.1955004  -7.3557699  -5.1453012
  42.4007940  -6.7891264  -4.6600670  44.0564442  -7.3702735  -4.4769719
  43.5655165  -6.6904914  -6.4069271  43.8354969  -7.2713798  -7.1878177
  43.6849689  -5.3901923  -6.6065121  44.0257072  -4.8922649  -7.7492517
  44.3148899  -5.4808241  -8.5174191  44.0725327  -3.8859197  -7.8212434
  43.4622526  -4.5121971  -5.6755966  43.1965303  -4.7878206  -4.7409785
  43.5410500  -3.5455185  -5.9574383  44.5072079 -12.1736693  -5.6500995
  43.6212683 -13.0263686  -5.7776552  45.7477045 -12.3520958  -6.1211866
  46.4134598 -11.5965462  -6.0436201  46.1520386 -13.6197519  -6.7447644
  45.4025745 -13.8282716  -7.5082582  47.4923849 -13.5398149  -7.5113899
  47.4589825 -14.3527329  -8.2367522  47.5208426 -12.6151001  -8.0877507
  48.8201523 -13.6828160  -6.7340726  49.2446232 -12.6928306  -6.5671772
  48.6690331 -14.1433787  -5.7577837  49.8453999 -14.5321572  -7.4839342
  50.2049732 -14.2617714  -8.6188090  50.3543806 -15.6009793  -6.9097108
  51.0456419 -16.1131299  -7.4388152  50.0752735 -15.9119189  -5.9901851
  46.0605574 -14.7855401  -5.7512736  45.4468107 -15.8026159  -6.0714155
  46.5692139 -14.6217203  -4.5249408  47.0816231 -13.7754452  -4.3215650
  46.5285969 -15.6762123  -3.5066354  46.8603134 -16.6025329  -3.9756712
  47.4849653 -15.3691494  -2.3408169  47.3225737 -14.3505478  -1.9884220
  47.2590208 -16.0477233  -1.5182684  48.9648008 -15.5558026  -2.7209598
  49.2537069 -14.7556257  -3.4023932  49.5723486 -15.4619503  -1.8208578
  49.2354870 -16.9178319  -3.3807436  49.7455311 -16.9322109  -4.5242685
  48.8495350 -17.9627550  -2.8001818  45.1113081 -15.9839129  -3.0204186
  44.7841549 -17.1510172  -2.8442964  44.2324352 -14.9865282  -2.8795290
  44.5680761 -14.0407622  -2.9934549  42.8033590 -15.2069032  -2.6072535
  42.7108479 -15.8230448  -1.7128758  42.1026325 -13.8669634  -2.3436745
  42.2804594 -13.2089043  -3.1942263  41.0295439 -14.0386999  -2.2595297
  42.5816917 -13.1593072  -1.0707670  43.6267567 -13.4062517  -0.8838012
  42.5251579 -12.0851541  -1.2471170  41.6293192 -13.5177195   0.4275999
  42.6229143 -12.5418997   1.5811412  42.7367926 -11.5258777   1.2032112
  42.1368980 -12.5117528   2.5563219  43.6053419 -13.0033457   1.6811615
  42.0929766 -15.9580326  -3.7481982  41.2842989 -16.8493462  -3.4945187
  42.3863363 -15.6137168  -5.0068474  43.0536652 -14.8702872  -5.1554614
  41.8283224 -16.2980604  -6.1878288  40.7405853 -16.3058209  -6.1180925
  42.2116995 -15.5646157  -7.4765068  43.2924366 -15.5916083  -7.6156932
  41.7344093 -16.0600376  -8.3219957  41.7805099 -14.2209673  -7.4272496
  42.3976374 -13.7309992  -6.8788934  42.2832489 -17.7560627  -6.2696975
  41.4732170 -18.6606300  -6.4835340  43.5856009 -17.9735994  -6.0593271
  44.1693544 -17.1637356  -5.9061629  44.2336798 -19.2821515  -5.9681684
  44.0396261 -19.8426294  -6.8826658  45.7444906 -19.0340793  -5.8519101
  46.0935926 -18.5899818  -6.7841160  45.9125233 -18.3127534  -5.0521880
  46.5916157 -20.2730918  -5.5424446  46.3027954 -20.6477785  -4.5604619
  46.4167500 -21.0506654  -6.2860173  48.0777597 -19.8715079  -5.5473214
  48.4532022 -19.9163222  -6.5696406  48.1777525 -18.8383102  -5.2147514
  48.9629126 -20.7392812  -4.6472260  48.8913298 -21.7809963  -4.9599719
  49.9905157 -20.3944254  -4.7621915  48.5661030 -20.6135654  -3.2276031
  47.7120209 -21.1303139  -3.0739248  49.2605352 -21.0088134  -2.6098326
  48.4606743 -19.6378720  -2.9888132  43.6538887 -20.1082706  -4.8217511
  43.1971931 -21.2090111  -5.0762731  43.5873461 -19.5730710  -3.6062124
  43.9953995 -18.6573458  -3.4835553  43.0026150 -20.1955462  -2.4068609
  43.6583233 -20.9950495  -2.0619842  42.9371738 -19.1170847  -1.3151915
  43.9078379 -19.0498602  -0.8238786  42.7262163 -18.1504595  -1.7726097
  41.8457174 -19.3531716  -0.2817392  42.0746613 -20.0689530   0.7083821
  40.7573843 -18.7415981  -0.3792572  41.6142178 -20.8170533  -2.6338312
  41.3342714 -21.9315720  -2.1733822  40.7162142 -20.0921059  -3.3066520
  40.9695768 -19.1629803  -3.6110181  39.3933868 -20.6183124  -3.6156204
  38.9441824 -20.9085989  -2.6658586  38.5213423 -19.5144856  -4.2360210
  38.5343957 -18.6457038  -3.5778818  38.9545584 -19.2179263  -5.1912570
  37.0630074 -19.9556315  -4.4636154  37.0391583 -20.8058834  -5.1452345
  36.3571239 -20.3406453  -3.1606340  36.4839005 -19.5524120  -2.4185306
  35.2942014 -20.4854298  -3.3538529  36.7710757 -21.2729597  -2.7765363
  36.2624860 -18.8197708  -5.0924230  36.8001223 -18.4522271  -5.9664696
  35.2846360 -19.1859853  -5.4051411  36.1354256 -18.0026531  -4.3823022
  39.4861984 -21.8850422  -4.4808424  38.9536190 -22.9283166  -4.0903115
  40.1799583 -21.7975235  -5.6185508  40.6412554 -20.9236193  -5.8273488
  40.2728367 -22.8754783  -6.6076672  39.2802405 -23.3207679  -6.6752577
  40.6132269 -22.2954202  -7.9894972  39.9142766 -21.4882851  -8.2088107
  41.6161299 -21.8696809  -7.9573017  40.5515909 -23.3265710  -9.1328323
  40.6973600 -22.7994871 -10.0757194  41.3803816 -24.0249705  -9.0168899
  39.2300582 -24.1119361  -9.1991204  38.1522751 -23.5567880  -8.8772362
  39.2344284 -25.3062201  -9.5773548  41.2260675 -24.0168524  -6.2215215
  40.8085108 -25.1651907  -6.2557411  42.4682188 -23.7313175  -5.8160669
  42.7038670 -22.7516031  -5.7472819  43.5032701 -24.6855998  -5.3625339
  43.9308310 -25.2018142  -6.2220770  44.6185493 -23.8895202  -4.6338528
  45.1119757 -23.2343149  -5.3517205  44.1348553 -23.2629824  -3.8844591
  45.6933355 -24.7075629  -3.8909793  45.2365637 -25.5657291  -3.3980194
  46.4127493 -25.0901294  -4.6149862  46.4163446 -23.8650441  -2.8210014
  46.4237690 -24.2972040  -1.6429473  46.9792843 -22.8011775  -3.1689981
  42.9107237 -25.7406139  -4.4261461  43.0164051 -26.9505429  -4.6446204
  42.2469521 -25.2559805  -3.3792844  42.2011757 -24.2517805  -3.2813528
  41.6328907 -26.0894156  -2.3544554  42.3517847 -26.8537855  -2.0594507
  41.3416815 -25.2292180  -1.1179490  40.7452440 -24.3718266  -1.4297828
  40.5872107 -25.9980845  -0.0357963  41.1686707 -26.8670511   0.2722691
  40.4152012 -25.3435087   0.8186277  39.6181846 -26.3310337  -0.4075929
  42.6300287 -24.6996665  -0.4833160  43.2076216 -24.1192675  -1.2027741
  42.3906469 -24.0435505   0.3535282  43.2328606 -25.5363250  -0.1301928
  40.3980207 -26.8262172  -2.8881866  40.2143431 -27.9975533  -2.5550923
  39.5664668 -26.2054467  -3.7449041  39.8222947 -25.2938914  -4.0966478
  38.4038973 -26.9009948  -4.3320650  37.9415822 -27.4582911  -3.5173333
  37.3116779 -25.9247065  -4.8315948  36.3543344 -26.2997913  -4.4697875
  37.4532723 -24.9616098  -4.3411931  37.1505451 -25.6667399  -6.3436222
  36.4949870 -24.8029399  -6.4540362  38.1165361 -25.4149723  -6.7813164
  36.5209436 -26.8497062  -7.1086442  37.2957850 -27.5623298  -7.3912966
  35.8143544 -27.3672414  -6.4598083  35.7666492 -26.4534903  -8.3824748
  35.4046988 -27.3698902  -8.8486367  34.8990989 -25.8524919  -8.1099755
  36.6220260 -25.7081890  -9.3331063  37.5341392 -26.1210728  -9.4660908
  36.1964583 -25.5585599 -10.2367651  36.9116044 -24.8097301  -8.9739025
  38.8268733 -27.9825854  -5.3269202  38.2933950 -29.0794706  -5.2592963
  39.8186469 -27.7326727  -6.1803538  40.2024078 -26.7984915  -6.1920017
  40.4193163 -28.7091827  -7.0904982  39.6449971 -29.1003609  -7.7504259
  41.4624834 -27.9894972  -7.9537559  42.2505045 -27.5722766  -7.3268223
  41.9017076 -28.6925650  -8.6614811  40.9874582 -27.1803188  -8.5084504
  41.0299015 -29.8995018  -6.3313043  40.8350420 -31.0514641  -6.7130262
  41.7049694 -29.6281505  -5.2067864  41.8917847 -28.6568332  -5.0024664
  42.2182608 -30.6404042  -4.2701149  42.8581810 -31.3283896  -4.8226333
  43.0717707 -29.8959732  -3.2313088  43.8557243 -29.3503857  -3.7565249
  42.4441814 -29.1688538  -2.7160156  43.7309456 -30.7947278  -2.1820816
  42.9572773 -31.3447642  -1.6463591  44.4027519 -31.5000200  -2.6713112
  44.5201826 -29.9216366  -1.1935876  45.3156281 -29.4051671  -1.7308298
  43.8597918 -29.1689324  -0.7629830  45.1463747 -30.7393670  -0.0610232
  45.8402872 -31.4675426  -0.4809614  45.7099247 -30.0587082   0.5771133
  44.1120672 -31.4206648   0.7475362  43.6010551 -32.1056223   0.2092036
  44.5289755 -31.8829751   1.5428765  43.4725761 -30.7419896   1.1355475
  41.1062193 -31.5013123  -3.6408398  41.3325644 -32.6796222  -3.3762890
  39.9253607 -30.9312844  -3.3862820  39.8494029 -29.9372077  -3.5479704
  38.7047410 -31.6509771  -2.9603523  38.9917970 -32.4202657  -2.2434911
  37.7468491 -30.6801796  -2.2325489  37.6396561 -29.7701550  -2.8228578
  36.3432741 -31.2477851  -1.9926339  36.4034295 -32.2154737  -1.4945771
  35.7635975 -30.5610681  -1.3757908  35.8267641 -31.3551354  -2.9464644
  38.3201766 -30.3002405  -0.8630458  39.3176460 -29.8735094  -0.9681923
  37.6748013 -29.5512295  -0.4041645  38.3637619 -31.1758900  -0.2154075
  38.0067444 -32.3988914  -4.1107139  37.4938273 -33.4980321  -3.8991916
  37.9893231 -31.8243408  -5.3171921  38.4227872 -30.9149694  -5.3896803
  37.1717429 -32.2308493  -6.4678526  36.1482191 -31.9483709  -6.2214684
  37.5603724 -31.4097857  -7.7133906  37.7003837 -30.3647661  -7.4369347
  38.5113978 -31.7772722  -8.0988818  36.5153003 -31.4796853  -8.8436097
  36.9621301 -31.0834241  -9.7554314  36.2504244 -32.5190163  -9.0378469
  35.2490377 -30.6653166  -8.5641545  35.2793241 -29.5802045  -7.9989296
  34.0949225 -31.1280203  -8.9735943  33.2463646 -30.6296372  -8.7463188
  34.0379286 -32.0433092  -9.3968129  37.1387982 -33.7436652  -6.7679918
  36.0344958 -34.2669463  -6.8907189  38.2626200 -34.4907379  -6.8559355
  39.6523309 -34.0644240  -6.7382312  39.8274565 -33.4340954  -5.8663839
  39.9514699 -33.5413384  -7.6465255  40.4656029 -35.3480744  -6.5946805
  40.4929447 -35.6480670  -5.5471325  41.4756107 -35.2320838  -6.9877833
  39.6519661 -36.3588142  -7.4015170  39.8337102 -37.3812795  -7.0704049
  39.8942780 -36.2565327  -8.4593087  38.2018995 -35.9213758  -7.1689028
  37.6406550 -36.0662198  -8.0920088  37.5113010 -36.7527962  -6.0760307
  36.8220425 -37.7164912  -6.3971996  37.6525688 -36.3847446  -4.7953060
  38.1509876 -35.5291605  -4.5961696  36.8458486 -36.9778776  -3.7222284
  36.8737626 -38.0629206  -3.8222569  37.4263310 -36.6150451  -2.3441602
  38.3338237 -37.1955442  -2.1780874  37.7036595 -35.5609584  -2.3346759
  36.4547682 -36.8687892  -1.2042391  35.7938814 -35.7880497  -0.5856832
  36.0204005 -34.7753096  -0.8847606  34.7991133 -36.0262108   0.3822048
  34.2845106 -35.1921988   0.8360822  34.4553614 -37.3522305   0.7251891
  33.4722924 -37.5955391   1.6314560  32.8073597 -36.9033122   1.6145793
  35.1161432 -38.4313440   0.1045774  34.8211408 -39.4430995   0.3406289
  36.1174011 -38.1901383  -0.8541291  36.5854669 -39.0197349  -1.3631338
  35.3680325 -36.5737009  -3.8258281  34.4881392 -37.4216318  -3.6811951
  35.0941014 -35.2899218  -4.0870073  35.8656216 -34.6505904  -4.2139429
  33.7319660 -34.7803569  -4.2418623  33.1977916 -34.9857926  -3.3142018
  33.7658525 -33.2561755  -4.4524148  34.2059922 -32.8003502  -3.5655099
  34.4082713 -33.0370140  -5.3052723  32.3961759 -32.6036453  -4.7212738
  31.9590068 -33.0176783  -5.6298774  31.4214277 -32.8133702  -3.5593614
  31.8466163 -32.4223089  -2.6350313  30.4838729 -32.3016644  -3.7767205
  31.2046051 -33.8752556  -3.4432361  32.5864935 -31.0988235  -4.9215767
  33.2481027 -30.9279704  -5.7708001  31.6248202 -30.6314063  -5.1332456
  33.0204153 -30.6501007  -4.0280119  32.9743075 -35.5125165  -5.3533298
  31.8906116 -36.0238743  -5.0973517  33.5403895 -35.6017947  -6.5550345
  34.4224954 -35.1335478  -6.7058170  32.9045582 -36.2510848  -7.7047127
  31.8667531 -35.9190798  -7.7335566  33.5416746 -35.7707810  -9.0140170
  34.6150756 -35.9576273  -8.9823765  33.1191921 -36.3427567  -9.8401231
  33.2766080 -34.2825651  -9.2777634  34.0580344 -33.6735702 -10.0391853
  32.2893643 -33.7313986  -8.7343305  32.8325009 -37.7786589  -7.5959343
  31.8346262 -38.3633518  -8.0201381  33.8014960 -38.4428549  -6.9540566
  34.6275258 -37.9489779  -6.6476828  33.6275411 -39.8453331  -6.5536422
  33.3836460 -40.4170465  -7.4490511  34.9230051 -40.4312181  -5.9789729
  35.7332945 -40.2944946  -6.6951019  35.1826954 -39.9226999  -5.0504947
  34.7315454 -41.9260645  -5.7282090  34.6837163 -42.3576307  -4.5522237
  34.4704342 -42.6778841  -6.6971356  32.4502540 -40.0209618  -5.5736613
  31.6567278 -40.9602976  -5.7009560  32.2805715 -39.0956759  -4.6213406
  32.9714012 -38.3654356  -4.5232961  31.1019206 -39.0661359  -3.7573248
  30.9892178 -40.0723648  -3.3537132  31.3178372 -38.1464601  -2.5476557
  32.3070097 -38.3283663  -2.1274759  31.2682700 -37.1017265  -2.8545341
  30.2774763 -38.4183288  -1.4817733  30.4892182 -39.4578123  -0.5569132
  31.4303780 -39.9874806  -0.5484207  29.4596434 -39.8422313   0.3184158
  29.6146226 -40.6612349   1.0051607  28.2180953 -39.1842985   0.2735658
  27.4171996 -39.5023465   0.9245726  28.0143881 -38.1259131  -0.6302851
  27.0568442 -37.6288319  -0.6794754  29.0447927 -37.7402854  -1.5046841
  28.8717508 -36.9596887  -2.2307178  29.8005700 -38.7546587  -4.5242229
  28.7882900 -39.4201159  -4.2987588  29.8137474 -37.8217530  -5.4863292
  30.6568289 -37.2782922  -5.6045085  28.6884570 -37.5830317  -6.4042985
  27.8134346 -37.3323154  -5.8046526  28.9445519 -36.4108920  -7.3687810
  29.7811341 -36.6377950  -8.0296457  28.0567193 -36.3198304  -7.9945296
  29.1840911 -35.0500512  -6.6908044  28.6354232 -35.0090456  -5.7498574
  30.2452898 -34.9150324  -6.4817017  28.7132502 -33.8901567  -7.5598562
  27.5469017 -33.5324001  -7.5618684  29.5699883 -33.2655382  -8.3331227
  29.2103219 -32.5165510  -8.9073610  30.5464435 -33.5194063  -8.3800232
  28.3347940 -38.8482380  -7.1998143  27.1552706 -39.1646242  -7.3572713
  29.3319058 -39.6206045  -7.6544237  30.2759361 -39.2719841  -7.5685215
  29.1199136 -40.9366465  -8.2706314  28.3688998 -40.8009958  -9.0488845
  30.4145622 -41.4195728  -8.9518136  30.7328486 -40.6545925  -9.6600497
  31.2022805 -41.5205097  -8.2052118  30.2936745 -42.7562380  -9.7104919
  31.2235665 -42.9169607 -10.2559936  30.1844358 -43.5656500  -8.9886791
  29.1171861 -42.8170490 -10.6992292  28.1832814 -42.8317642 -10.1373541
  29.1277719 -41.9406080 -11.3471782  29.1856766 -44.0840578 -11.5576017
  29.9058723 -43.9376545 -12.3625755  29.5240331 -44.9093008 -10.9310329
  27.8505588 -44.4344521 -12.0936882  27.3885250 -43.6532259 -12.5367582
  27.8821993 -45.2534294 -12.6839197  27.2674012 -44.7168112 -11.3188875
  28.5317659 -41.9472933  -7.2793972  27.6069307 -42.6636887  -7.6433873
  28.9666677 -41.9672728  -6.0131764  29.7330761 -41.3536358  -5.7761663
  28.3225989 -42.7760458  -4.9538982  28.3319521 -43.8185883  -5.2718878
  29.0690136 -42.6382399  -3.6078474  29.8353505 -41.8657398  -3.6716768
  28.3610415 -42.3100328  -2.8468230  29.7049165 -43.9483786  -3.1088626
  29.6482921 -43.9531946  -2.0203449  29.1329503 -44.8050117  -3.4654251
  31.1845946 -44.1162586  -3.4853020  31.7546082 -43.3174849  -3.0107987
  31.5346146 -45.0675392  -3.0844909  31.4481401 -44.0767288  -4.9929824
  30.8702374 -44.8523092  -5.4955804  31.1233258 -43.1075525  -5.3715241
  32.8915453 -44.2372894  -5.2688044  33.2535696 -45.1683664  -5.1200539
  33.1588030 -43.9027309  -6.1835468  33.4424090 -43.5903454  -4.7227925
  26.8356800 -42.4275827  -4.7897977  26.0056329 -43.3314705  -4.7425830
  26.4968038 -41.1370707  -4.7523701  27.2430563 -40.4565382  -4.7432968
  25.1096559 -40.6545782  -4.7391999  24.5893049 -41.1309624  -3.9083034
  25.0934052 -39.1451836  -4.4682431  25.4451561 -38.9666152  -3.4521309
  25.7942867 -38.6560798  -5.1447368  23.7588763 -38.4873724  -4.6433997
  22.7505851 -38.4983253  -3.7420696  22.7952862 -38.9749098  -2.7739403
  21.6532159 -37.8431034  -4.2679608  20.7698894 -37.7658200  -3.7843716
  21.8961978 -37.3882055  -5.5466580  21.1141205 -36.6937160  -6.4817286
  20.1056600 -36.3976550  -6.2332255  21.6597342 -36.3954782  -7.7420968
  21.0776806 -35.8517122  -8.4714365  22.9730773 -36.7952991  -8.0492079
  23.3967614 -36.5504670  -9.0119898  23.7493134 -37.4921536  -7.1018052
  24.7609806 -37.7830148  -7.3433244  23.2330298 -37.8027153  -5.8239776
  24.3264747 -41.0269880  -6.0117680  23.1691456 -41.4313936  -5.9275717
  24.9563265 -40.9534407  -7.1871793  25.8858538 -40.5585241  -7.1982694
  24.3857503 -41.4016676  -8.4620517  23.4687686 -40.8363485  -8.6283684
  25.3646541 -41.0497665  -9.5951432  25.5140233 -39.9700499  -9.5948327
  26.3232756 -41.5241385  -9.3851101  24.9432349 -41.4991903 -11.0026240
  24.7524548 -42.5723648 -11.0048139  24.0305614 -40.9767485 -11.2892938
  26.0300589 -41.2092352 -12.0374811  26.5118146 -42.0867157 -12.7384436
  26.5071940 -39.9885011 -12.1506441  27.2161984 -39.8371625 -12.8538561
  26.1647010 -39.2397952 -11.5656352  23.9886808 -42.8899479  -8.4410495
  22.9302192 -43.2269526  -8.9834273  24.7824025 -43.7525606  -7.7953935
  25.6873679 -43.4330130  -7.4807113  24.4223309 -45.1622391  -7.5834215
  24.0445065 -45.5629587  -8.5240442  25.6229925 -46.0324860  -7.1585709
  25.8326983 -45.8429480  -6.1058599  25.2909684 -47.0686531  -7.2235227
  26.9742489 -45.9464121  -7.8940976  27.5354481 -45.1139688  -7.4696064
  27.5395989 -46.8403721  -7.6308221  26.9674087 -45.7964182  -9.4259411
  27.8788757 -46.3576746 -10.0720179  26.1725664 -45.0302219 -10.0158775
  23.2986379 -45.2964401  -6.5386146  22.2722197 -45.9185028  -6.8082297
  23.4677815 -44.6775961  -5.3589940  24.3321490 -44.1739607  -5.2199662
  22.4888682 -44.6616602  -4.2552787  22.4108839 -45.6697989  -3.8482478
  22.9589581 -43.7248611  -3.1259736  23.8424754 -44.1581106  -2.6571545
  23.2270765 -42.7576685  -3.5511267  21.8664837 -43.4916401  -2.0680915
  21.0195112 -42.9795027  -2.5246570  21.5216660 -44.4586706  -1.7019495
  22.3443484 -42.6594162  -0.8803231  23.3149529 -43.0949926  -0.2186836
  21.6564560 -41.6643620  -0.5540072  21.0837650 -44.2746449  -4.7240451
  20.1007199 -44.8905230  -4.3132904  20.9920549 -43.2687044  -5.5957144
  21.8495655 -42.7964783  -5.8442706  19.7457671 -42.7774000  -6.1771053
  19.1459835 -42.3493671  -5.3738964  20.0566077 -41.6698313  -7.1960568
  20.9631205 -41.9401264  -7.7376026  19.2420805 -41.5911913  -7.9160994
  20.2718711 -40.2985048  -6.5428001  20.7472706 -40.4382324  -5.5719393
  20.9656119 -39.7280979  -7.1604222  18.7675858 -39.3000150  -6.3221234
  18.4457123 -38.7815976  -8.0285013  18.2226336 -39.6521807  -8.6452824
  17.5917625 -38.1043649  -8.0435830  19.3201542 -38.2642126  -8.4231734
  18.8814926 -43.8797140  -6.8053222  17.6774693 -43.6727953  -6.9248378
  19.4228017 -45.0488615  -7.1676368  20.4074502 -45.2065897  -7.0073426
  18.6092401 -46.1787939  -7.6355112  18.0218220 -45.7936525  -8.4689993
  19.5053816 -47.3176718  -8.1579614  20.3184152 -46.8887758  -8.7437302
  19.9436450 -47.8550959  -7.3170084  18.7350428 -48.3034801  -9.0545309
  19.4407415 -49.0085936  -9.4937384  18.0324435 -48.8701057  -8.4434718
  17.9891038 -47.5560760 -10.1677871  16.7401159 -47.5951052 -10.1768148
  18.6612368 -46.8003607 -10.9080100  17.6006615 -46.6906977  -6.5865135
  16.4809465 -47.0748806  -6.9279373  17.9440534 -46.6071367  -5.2942353
  18.8521731 -46.2242985  -5.0731945  17.0095837 -46.8344879  -4.1843757
  16.6739404 -47.8707170  -4.2252252  17.7654278 -46.5867949  -2.8596810
  18.6090696 -47.2747231  -2.8037900  18.1614745 -45.5715132  -2.8808478
  16.9291675 -46.7116880  -1.5735412  16.1000669 -46.0048294  -1.6057608
  16.3732326 -48.1218576  -1.4004138  17.1874189 -48.8451004  -1.3543752
  15.7857430 -48.1727695  -0.4837000  15.7249033 -48.3521128  -2.2458422
  17.7923381 -46.3826323  -0.3545089  18.1996477 -45.3769493  -0.4584375
  17.1832061 -46.4263344   0.5483465  18.6135173 -47.0947981  -0.2733521
  15.7695556 -45.9324360  -4.3047422  14.6353066 -46.3725901  -4.1239658
  15.9994888 -44.6586800  -4.6167189  16.9604206 -44.3873358  -4.7686577
  14.9691725 -43.6400461  -4.8049331  14.2080033 -43.7867165  -4.0386376
  15.6205320 -42.2642756  -4.5569712  16.2219167 -42.0142126  -5.4309887
  14.8398960 -41.5077305  -4.4773144  16.5125668 -42.1550894  -3.3167517
  17.6955664 -41.3925123  -3.3814651  17.9398787 -40.8624792  -4.2901877
  18.5795617 -41.3288212  -2.2863784  19.5029223 -40.7726860  -2.3535885
  18.2660902 -42.0054579  -1.0915548  19.1059434 -41.9434547  -0.0243825
  20.0117064 -41.7407417  -0.2695814  17.0611167 -42.7355814  -1.0026569
  16.8220317 -43.2416391  -0.0789980  16.1924291 -42.8173208  -2.1107107
  15.2861357 -43.3991718  -2.0301920  14.2404521 -43.7652779  -6.1657429
  13.0518234 -43.4500885  -6.2669933  14.9085951 -44.2853689  -7.2061247
  15.8843124 -44.5009804  -7.0591819  14.3298280 -44.5747614  -8.5314280
  13.6490965 -43.7695885  -8.8078356  15.4208577 -44.6641111  -9.6144801
  16.1425865 -45.4078817  -9.2768252  14.9670887 -45.0279903 -10.5363190
  16.1955094 -43.3813477  -9.9499023  15.5167282 -42.6278591 -10.3494179
  16.6619885 -42.9857254  -9.0476960  17.2764349 -43.7200546 -10.9949422
  17.5510728 -44.7688293 -10.8820617  16.8528605 -43.6145115 -11.9937146
  18.4828544 -42.8758335 -10.8674502  18.3526683 -41.8836927 -11.0045922
  19.7071898 -43.2821846 -10.5553877  20.6517529 -42.4070168 -10.3749669
  20.4825473 -41.4175034 -10.4859817  21.5353560 -42.7414465 -10.0178850
  20.0608850 -44.5219994 -10.4002285  19.4286668 -45.2751541 -10.6308305
  20.9967780 -44.7632933 -10.1070118  13.4873545 -45.8582640  -8.4758890
  12.3003507 -45.7629824  -8.1462866  14.0317559 -47.0249128  -8.8378292
  15.0083470 -47.0508099  -9.0941662  13.2303953 -48.2117701  -9.1482228
  12.4205542 -47.8748751  -9.7953367  14.0733886 -49.2055988  -9.9670994
  14.4950569 -48.6812687 -10.8246386  14.8963308 -49.5677900  -9.3509138
  13.2800937 -50.4134989 -10.4976165  13.9509642 -51.0412169 -11.0841370
  12.9217708 -51.0091209  -9.6580106  12.0970154 -50.0235653 -11.3853478
  12.0718729 -48.9989519 -12.0410550  11.0562670 -50.8227682 -11.4462781
  10.2957416 -50.4877472 -12.0202625  11.0100794 -51.6613770 -10.8853042
  12.5558317 -48.8811159  -7.9402882  11.4380443 -49.3731737  -8.0858529
  13.1479132 -48.8850069  -6.7330050  14.0625787 -48.4667492  -6.6405499
  12.4894035 -49.5233679  -5.5640709  12.1863461 -50.5248117  -5.8696342
  13.4556055 -49.6795034  -4.3740660  14.3496239 -50.2068281  -4.7068742
  13.7464643 -48.6954594  -4.0064359  12.7968264 -50.4679155  -3.2245710
  11.9469845 -49.8989916  -2.8474846  12.4394393 -51.4251471  -3.6041477
  13.7450874 -50.7255602  -2.0493862  14.5707595 -51.3541842  -2.3828466
  14.1477501 -49.7767496  -1.6948126  13.0287039 -51.4095783  -0.8787504
  12.5206244 -52.3088598  -1.2269527  13.7835526 -51.7026520  -0.1490847
  12.0765293 -50.4893494  -0.2156371  11.2471235 -50.2798271  -0.7525562
  11.8563235 -50.8011961   0.7194401  12.5538898 -49.6343708   0.0318574
  11.1849368 -48.8170385  -5.1638818  10.2566850 -49.4625998  -4.6819893
  11.1028743 -47.5035572  -5.3747505  11.9190872 -47.0411730  -5.7490510
   9.8800534 -46.7076731  -5.1716417   9.4193494 -47.0216942  -4.2350295
  10.2548420 -45.2177906  -5.0175041  10.8295321 -44.9271822  -5.8969218
   9.0517962 -44.2720318  -4.8862326   8.4195888 -44.5873404  -4.0561774
   9.3957192 -43.2528734  -4.7097924   8.4648317 -44.2799997  -5.8046597
  11.1385822 -44.9884415  -3.7816036  12.0569837 -45.5706835  -3.8566360
  11.4189172 -43.9371395  -3.7161928  10.6055045 -45.2772903  -2.8757930
   8.8189608 -46.9517612  -6.2636477   7.6346898 -46.7446470  -6.0064059
   9.2016655 -47.4212933  -7.4587005  10.1685953 -47.6813078  -7.5911391
   8.2998747 -47.6196671  -8.6095184   7.9826826 -46.6165972  -8.8947207
   9.0462643 -48.1930637  -9.8284620   9.9970031 -47.6718378  -9.9403715
   9.2551750 -49.2494631  -9.6597183   8.2451129 -48.0490732 -11.1384153
   8.8377583 -48.4644318 -11.9534922   7.3305035 -48.6377144 -11.0670567
   7.9137200 -46.5794802 -11.4472854   6.7207247 -46.2307644 -11.5656745
   8.8586223 -45.7582188 -11.4424443   6.9961011 -48.4007454  -8.3289677
   5.9353977 -47.8983498  -8.6926866   6.9859332 -49.5765400  -7.6634514
   8.1159163 -50.3691339  -7.2022468   8.9384794 -49.7653532  -6.8189281
   8.4724039 -50.9983921  -8.0177552   7.5556773 -51.2368917  -6.0805529
   7.5218576 -50.6607723  -5.1558685   8.1380284 -52.1483612  -5.9456527
   6.1340290 -51.5306044  -6.5617418   5.4621536 -51.7297029  -5.7268506
   6.1527705 -52.3838663  -7.2397500   5.7341498 -50.2738523  -7.3467588
   5.2639765 -50.5844069  -8.2798135   4.7151473 -49.3987942  -6.5952808
   3.5367191 -49.4115734  -6.9436067   5.1526326 -48.6046219  -5.6078595
   6.1469656 -48.5748672  -5.4331690   4.3037796 -47.6029205  -4.9450412
   3.3637524 -48.0822134  -4.6716720   5.0014126 -47.1337509  -3.6522681
   5.1240414 -47.9974556  -2.9987565   5.9945029 -46.7636728  -3.9070457
   4.2672116 -46.0215378  -2.8745839   4.2206457 -45.1161098  -3.4796685
   2.8504127 -46.4266586  -2.4707037   2.8672996 -47.4014711  -1.9833104
   2.4167500 -45.6758451  -1.8101615   2.2214063 -46.4934111  -3.3583948
   5.0408155 -45.6999016  -1.5943138   6.0551375 -45.3912783  -1.8473007
   4.5504409 -44.8850918  -1.0616633   5.0832051 -46.5773869  -0.9490813
   3.9441559 -46.4288187  -5.8737969   2.8118023 -45.9528685  -5.8577323
   4.8907945 -45.9769392  -6.7055386   5.7875204 -46.4407396  -6.6758949
   4.7039351 -44.9040747  -7.6997977   4.3746087 -44.0044880  -7.1798146
   6.0555106 -44.6318293  -8.3824420   6.8404704 -44.6209431  -7.6262540
   6.2522680 -45.4405642  -9.0862411   6.1144114 -43.3179903  -9.1665822
   5.3601283 -43.3430481  -9.9530488   5.8942091 -42.4868965  -8.4965897
   7.4886346 -43.1127739  -9.8280478   7.7089751 -43.9916611 -10.4339349
   7.4221128 -42.2683716 -10.5140948   8.5673720 -42.8415632  -8.8495046
   8.4398729 -42.0308828  -8.2607424   9.6785796 -43.5376167  -8.6551702
  10.5200338 -43.1702709  -7.7343839  10.3646982 -42.3454857  -7.1725219
  11.3425243 -43.7301016  -7.5605923  10.0121987 -44.5928955  -9.3251616
   9.4756454 -44.8942852 -10.1260281  10.8394694 -45.1188660  -9.0821028
   3.6098671 -45.2393484  -8.7241334   2.9274803 -44.3233728  -9.1803980
   3.4230739 -46.5200663  -9.0462554   4.1292956 -47.1699905  -8.7316835
   2.3434389 -47.0454693  -9.8819828   2.1004328 -46.3089609 -10.6478834
   2.8679433 -48.3005619 -10.5922985   3.1393296 -49.0631580  -9.8622984
   2.0991430 -48.6946440 -11.2569380   3.7498847 -48.0462790 -11.1801922
   1.0446674 -47.3267698  -9.0920782  -0.0124968 -46.8044043  -9.4496036
   1.1088125 -48.1270599  -8.0177271   2.0081851 -48.5088968  -7.7619189
  -0.0459460 -48.5371494  -7.1910000  -0.7111987 -49.1372442  -7.8118277
   0.4405101 -49.4320869  -6.0359484   0.8095271 -50.3552246  -6.4828777
   1.2870277 -48.9613771  -5.5360109  -0.6406453 -49.8127222  -5.0025815
  -1.6098291 -49.8785686  -5.4969984  -0.4014949 -50.8116579  -4.6378452
  -0.7321448 -48.8882494  -3.7729776   0.1537644 -48.0333900  -3.5427177
  -1.6316515 -49.0894365  -2.9243538  -0.8872604 -47.3548222  -6.6939843
  -2.1159838 -47.3804092  -6.7872620  -0.2203346 -46.2970304  -6.2296671
   0.7817998 -46.3849068  -6.1396199  -0.8195633 -45.0232124  -5.8362728
  -1.3820952 -45.1691628  -4.9141252   0.3559767 -44.0696669  -5.5766553
   0.9380921 -44.4601536  -4.7419325   0.9913764 -44.0844345  -6.4621776
   0.0016482 -42.6057148  -5.2882183  -0.6066594 -42.1934462  -6.0932618
  -0.7357989 -42.4487448  -3.9580387  -0.1507980 -42.8912973  -3.1518000
  -0.8975714 -41.3904667  -3.7531620  -1.7044953 -42.9444122  -4.0216121
   1.3099219 -41.8240452  -5.2296489   1.8328792 -41.9076872  -6.1823404
   1.1022209 -40.7710648  -5.0394338   1.9381300 -42.2276545  -4.4355741
  -1.7797416 -44.4547939  -6.8951023  -2.8317088 -43.9166451  -6.5479976
  -1.4098874 -44.5554113  -8.1750965  -0.5973579 -45.1164341  -8.3875883
  -2.2254337 -44.0828276  -9.2913467  -2.6527095 -43.1177139  -9.0191609
  -1.4109728 -43.8965559 -10.5759144  -1.2907645 -44.8674107 -11.0566378
  -2.0046321 -43.2602787 -11.2322795  -0.0140036 -43.2850695 -10.4558563
  -0.0772109 -42.2403049 -10.1515961   0.5508053 -43.8325071  -9.7012717
   0.7249020 -43.3870602 -11.7877316   0.1370859 -43.3629799 -12.8636360
   2.0290665 -43.5293627 -11.7641008   2.5034073 -43.6611843 -12.6459837
   2.4892654 -43.6764812 -10.8771527  -3.3842573 -45.0311089  -9.5954025
  -4.5316231 -44.5999002  -9.6500337  -3.1078413 -46.3179541  -9.8158759
  -2.1491376 -46.6298199  -9.7548109  -4.1465163 -47.2640133 -10.2439594
  -4.7183296 -46.7843056 -11.0383189  -3.5314506 -48.5476923 -10.8287847
  -2.9322633 -49.0382004 -10.0616634  -4.3402603 -49.2256165 -11.1014426
  -2.6474109 -48.3181429 -12.0732784  -1.7232147 -47.8412867 -11.7468226
  -2.3823281 -49.2884779 -12.4931324  -3.2927793 -47.4497986 -13.1713963
  -2.5477248 -46.7349243 -13.8799965  -4.5355061 -47.4254179 -13.2852912
  -5.1840508 -47.5392532  -9.1466373  -6.3680011 -47.6759195  -9.4454247
  -4.8022306 -47.4889851  -7.8647119  -3.8191488 -47.3918056  -7.6544434
  -5.7583898 -47.4432755  -6.7533088  -6.3504207 -48.3584785  -6.7554742
  -5.2082080 -47.3902798  -5.8138454  -6.7148250 -46.2413406  -6.8261224
  -7.8994447 -46.3710690  -6.5037316  -6.2216246 -45.0771379  -7.2649544
  -5.2526188 -45.0487471  -7.5483710  -7.0172197 -43.8693571  -7.4925327
  -7.6867419 -43.7354088  -6.6428864  -6.0748386 -42.6640177  -7.5422913
  -5.5205214 -42.6623631  -8.4808147  -6.6502845 -41.7410612  -7.4707288
  -5.3514981 -42.7161217  -6.7285585  -7.8915673 -43.9457798  -8.7589866
  -9.0608281 -43.5649538  -8.7121916  -7.3649490 -44.4750357  -9.8742175
  -6.3882375 -44.7312498  -9.8519421  -8.1334162 -44.7186184 -11.1130512
  -8.6639768 -43.8033342 -11.3754654  -7.2018588 -45.0738049 -12.2893810
  -6.5865594 -45.9355307 -12.0306659  -7.8123724 -45.3369522 -13.1531668
  -6.3032109 -43.8836145 -12.6686692  -6.9301641 -43.0108118 -12.8510058
  -5.6316012 -43.6626959 -11.8390703  -5.4571635 -44.1378355 -13.9216065
  -4.9154451 -45.0761461 -13.8023722  -6.1158353 -44.2344093 -14.7846973
  -4.5169383 -43.0203485 -14.1425586  -4.8973274 -42.1418571 -14.4645357
  -3.2238308 -43.0222511 -13.8814151  -2.5378662 -41.9286728 -13.8905072
  -2.9978362 -41.0382318 -14.0156448  -1.5322348 -41.9421673 -13.7976408
  -2.5291094 -44.0829706 -13.6116529  -2.9060265 -45.0161934 -13.6961555
  -1.5572351 -43.9914751 -13.3524442  -9.2291141 -45.7662678 -10.9007573
 -10.3554094 -45.5612469 -11.3359547  -8.9641088 -46.8064070 -10.1116502
  -8.0012220 -46.9684696  -9.8534077  -9.9850273 -47.6995468  -9.5546740
 -10.4925108 -48.1945276 -10.3826571  -9.2790985 -48.7878466  -8.7239534
  -8.6869502 -49.3854094  -9.4170511  -8.5763949 -48.3329630  -8.0258226
 -10.2085185 -49.7519302  -7.9659879 -11.0425818 -50.0296736  -8.6104208
  -9.6381134 -50.6558895  -7.7524710 -10.7564533 -49.2548275  -6.6255361
 -11.7718720 -49.7230959  -6.1515343 -10.1523054 -48.3070421  -5.9384638
 -10.6242108 -48.0611563  -5.0800127  -9.3139440 -47.8469419  -6.2633610
 -11.0679901 -46.9260502  -8.7782401 -12.2552729 -47.1848917  -8.9584744
 -10.6917942 -45.9289122  -7.9637736  -9.7047657 -45.7394028  -7.8639656
 -11.6439986 -45.1148844  -7.1860075 -12.3519433 -45.8152294  -6.7428046
 -10.9115815 -44.4171286  -6.0200781 -10.1748860 -45.1025248  -5.6010175
 -10.3967714 -43.5279560  -6.3840038 -11.8957984 -44.0352249  -4.9023888
 -12.6019323 -43.3010340  -5.2902520 -12.4633038 -44.9246120  -4.6284789
 -11.2483597 -43.4365654  -3.6429289 -10.3933907 -42.8282452  -3.9380184
 -11.9761324 -42.7775049  -3.1695491 -10.7999587 -44.4757462  -2.6035643
 -10.1466703 -45.2069378  -3.0796710 -10.2318716 -43.9538240  -1.8335155
 -11.9583964 -45.1573277  -1.9748849 -12.4006629 -45.8173609  -2.5984809
 -11.7582357 -45.6488085  -1.1155362 -12.7563643 -44.5495939  -1.8564896
 -12.5082219 -44.1662264  -8.0461001 -13.5569096 -43.7200308  -7.5879568
 -12.1748412 -43.9299679  -9.3201053 -11.2966728 -44.2913866  -9.6640509
 -13.1283045 -43.3473635 -10.2804708 -13.5197473 -42.4296951  -9.8414290
 -12.3965478 -42.9588270 -11.5809751 -11.6248906 -42.2286272 -11.3371396
 -11.9076085 -43.8476706 -11.9797099 -13.2761741 -42.4013042 -12.7172995
 -13.9836037 -43.1660938 -13.0378270 -14.0484345 -41.1439610 -12.3210871
 -13.3593214 -40.3778744 -11.9656634 -14.6019948 -40.7661104 -13.1806803
 -14.7681940 -41.3847399 -11.5387356 -12.3861837 -42.0409536 -13.9083445
 -11.8358433 -42.9239321 -14.2332613 -13.0025089 -41.6926718 -14.7371662
 -11.6778982 -41.2608147 -13.6293948 -14.3437409 -44.2710209 -10.5169797
 -15.4560316 -43.7789059 -10.6935823 -14.1741514 -45.5974913 -10.4576087
 -13.2540798 -45.9706736 -10.2723897 -15.3012502 -46.5377522 -10.4920328
 -15.9299600 -46.2612200 -11.3384080 -14.8067617 -47.9681349 -10.7532322
 -13.9738488 -47.9330873 -11.4554644 -14.4473302 -48.4131479  -9.8253995
 -15.8775234 -48.8542461 -11.3434398 -17.1775985 -48.9669514 -10.9033465
 -17.5864398 -48.4458685 -10.1408327 -17.8351140 -49.7827673 -11.7426074
 -18.8800502 -50.0436735 -11.6623712 -17.0192099 -50.2033663 -12.7214718
 -15.7748318 -49.6123505 -12.4792361 -14.8933005 -49.7174311 -13.0942667
 -16.1773348 -46.4645910  -9.2225689 -17.3970914 -46.5972567  -9.3050450
 -15.5793917 -46.2153769  -8.0534494 -14.5702016 -46.1776018  -8.0390632
 -16.2996316 -45.9252644  -6.8001038 -17.0263076 -46.7175484  -6.6203123
 -15.2955532 -45.9442282  -5.6379640 -14.8750126 -46.9477081  -5.5726218
 -14.4830215 -45.2574110  -5.8749723 -15.8460665 -45.5404902  -4.2619377
 -16.3167119 -44.5593834  -4.3254253 -16.5951395 -46.2661028  -3.9449647
 -14.7005498 -45.4895067  -3.2431185 -14.4759154 -44.4377804  -2.5956586
 -13.9105082 -46.4577627  -3.1571469 -17.0982206 -44.6120071  -6.8844670
 -18.2685184 -44.5758677  -6.5078205 -16.5247416 -43.5512638  -7.4680459
 -15.5476236 -43.6084700  -7.7171892 -17.2923136 -42.3577499  -7.8469467
 -17.7631390 -41.9661236  -6.9452542 -16.3487852 -41.2702036  -8.3945268
 -15.7164037 -40.9299898  -7.5744992 -15.6996238 -41.7221403  -9.1444880
 -17.0321774 -40.0469637  -9.0447462 -17.5705099 -40.3723574  -9.9349248
 -18.0066824 -39.2917109  -8.1335998 -17.4888790 -38.8799977  -7.2673035
 -18.4649277 -38.4767246  -8.6938757 -18.8022602 -39.9513602  -7.7871621
 -15.9582317 -39.0474916  -9.4766366 -15.2692759 -39.5236540 -10.1742816
 -16.4189363 -38.1992650  -9.9829608 -15.3998303 -38.6899376  -8.6115116
 -18.4368551 -42.7039242  -8.8142258 -19.5271981 -42.1668148  -8.6631089
 -18.2453132 -43.6200762  -9.7666454 -17.3213720 -44.0082836  -9.8920667
 -19.3302488 -44.0576601 -10.6524491 -19.8272550 -43.1509018 -10.9972286
 -18.7859738 -44.7994947 -11.8859422 -17.8209484 -45.2476358 -11.6493094
 -19.4578314 -45.6105757 -12.1667528 -18.6202514 -43.8613319 -13.0924416
 -17.9664850 -43.0363178 -12.8095257 -18.1331003 -44.4221354 -13.8901150
 -19.9230742 -43.2817841 -13.6612034 -19.9004853 -42.4111700 -14.5137715
 -21.1029196 -43.6894703 -13.2356560 -21.9051576 -43.2447433 -13.6584198
 -21.2064314 -44.3416166 -12.4713993 -20.4447341 -44.8642826  -9.9662316
 -21.5449619 -44.8938513 -10.5164325 -20.2197695 -45.4588127  -8.7886524
 -19.2821383 -45.4448080  -8.4134805 -21.3191795 -45.8355427  -7.8872514
 -22.0880961 -46.3433075  -8.4695220 -20.8476377 -46.8241835  -6.7987353
 -20.4810667 -47.7156448  -7.3076761 -20.0150084 -46.4038134  -6.2347192
 -21.9577837 -47.2596216  -5.8201987 -22.9116964 -47.2945499  -6.3464427
 -21.7361641 -48.2763195  -5.4956943 -22.0592141 -46.3684034  -4.5688379
 -21.1853218 -46.4888096  -3.6774290 -22.9978967 -45.5445099  -4.5017833
 -21.9697905 -44.5724297  -7.3132980 -23.1197524 -44.2760372  -7.6422727
 -21.2002444 -43.7909985  -6.5410691 -20.2502108 -44.1045523  -6.4024097
 -21.6776013 -42.6958466  -5.6689209 -22.5054097 -43.0971766  -5.0843120
 -20.5607152 -42.3129892  -4.6766204 -19.6726835 -41.9934511  -5.2219629
 -20.9043336 -41.4963675  -4.0416718 -20.2272701 -43.5287189  -3.7945724
 -21.1460924 -43.8460875  -3.3014721 -19.8722577 -44.3391180  -4.4312182
 -19.1610622 -43.3021212  -2.7187702 -18.2938421 -42.8172588  -3.1670341
 -19.5602882 -42.6643896  -1.9300878 -18.7114906 -44.6497297  -2.1276912
 -18.2449377 -45.2390862  -2.9170507 -17.9665065 -44.4662952  -1.3534477
 -19.8285425 -45.4311419  -1.5473500 -20.4772162 -45.7559395  -2.2500883
 -19.4699895 -46.2297058  -1.0435185 -20.2796507 -44.9244976  -0.7990755
 -22.2627044 -41.4862537  -6.4096791 -22.9695249 -40.6734276  -5.8136976
 -22.0405078 -41.4064407  -7.7210701 -21.3616562 -42.0552444  -8.0929792
 -22.7841306 -40.5847359  -8.6770773 -22.6008081 -39.5323730  -8.4602350
 -22.2401452 -40.9085941 -10.0861812 -21.1503339 -40.8918476 -10.0749207
 -22.5452757 -41.9234371 -10.3413165 -22.7189636 -39.9417377 -11.1823440
 -23.7432575 -39.6270442 -10.9826159 -21.8097091 -38.7113118 -11.2493372
 -20.8090162 -39.0048766 -11.5664053 -22.2202706 -37.9981518 -11.9641376
 -21.7408419 -38.2411218 -10.2683794 -22.6952863 -40.6115961 -12.5547910
 -23.3440590 -41.4874125 -12.5429142 -23.0597067 -39.9173975 -13.3120120
 -21.6790915 -40.9167528 -12.8044438 -24.3029428 -40.8456326  -8.5970557
 -25.1070857 -39.9187207  -8.6634469 -24.6918559 -42.1151733  -8.4724176
 -23.9714742 -42.8107786  -8.3409595 -26.0641456 -42.6066589  -8.6399853
 -26.4553833 -42.1385574  -9.5432657 -26.0983467 -44.1217566  -8.9016932
 -25.9504771 -44.6849966  -7.9802847 -27.0768189 -44.3840170  -9.3040746
 -25.1002669 -44.4999075  -9.8303109 -24.2752385 -44.5982313  -9.3494064
 -27.0236850 -42.2126579  -7.5056970 -28.0864692 -41.6746759  -7.8215754
 -26.7093587 -42.4139786  -6.2037081 -25.5486274 -43.1023645  -5.6483030
 -24.7383094 -42.3872471  -5.5065697 -25.2043056 -43.9351654  -6.2614775
 -25.9952664 -43.6309958  -4.2903179 -25.1526570 -43.7623930  -3.6114627
 -26.5369368 -44.5678997  -4.4203404 -26.9488931 -42.5354338  -3.8181028
 -26.3684154 -41.7251158  -3.3770412 -27.6737094 -42.9168987  -3.0989182
 -27.6290393 -42.0697975  -5.1140100 -28.5489559 -42.6385069  -5.2497429
 -27.9845858 -40.5779600  -5.0787663 -29.1611814 -40.2186680  -5.0179905
 -26.9813418 -39.6958208  -5.1808244 -26.0355020 -40.0435686  -5.2483594
 -27.2103524 -38.2495499  -5.2753925 -27.9854870 -38.0153251  -4.5457318
 -25.9343076 -37.5006199  -4.8478332 -25.5743027 -37.9585552  -3.9265344
 -25.1745820 -37.6521301  -5.6146193 -26.0952973 -35.9844565  -4.5949778
 -26.2762618 -35.4690409  -5.5382156 -27.2288108 -35.6388259  -3.6293170
 -27.1324086 -36.2208629  -2.7127808 -27.2176218 -34.5754886  -3.3899707
 -28.1883550 -35.8594036  -4.0969911 -24.8190427 -35.4294086  -3.9562172
 -23.9918137 -35.4887629  -4.6635142 -24.9634933 -34.3843198  -3.6823180
 -24.5699525 -35.9963942  -3.0592325 -27.7737212 -37.8303099  -6.6490102
 -28.4642625 -36.8183279  -6.7453891 -27.5599051 -38.6392140  -7.6911598
 -26.9090343 -39.4027352  -7.5749439 -28.2632065 -38.5728717  -8.9752036
 -28.0758119 -37.5993085  -9.4281435 -27.8645968 -39.3444824  -9.6338606
 -29.7819567 -38.7620330  -8.8864475 -30.5075359 -38.2095933  -9.7190291
 -30.2827549 -39.5042872  -7.8922909 -29.6381140 -40.0135183  -7.3047322
 -31.6858935 -39.4237423  -7.4703670 -32.2872400 -39.2127180  -8.3546448
 -32.2094393 -40.7518053  -6.8918943 -31.9966245 -41.5524721  -7.6002330
 -31.6833949 -40.9772253  -5.9642285 -33.7297535 -40.7240534  -6.6114861
 -34.0300393 -41.7051125  -6.2434530 -33.9291716 -40.0021410  -5.8195412
 -34.5747256 -40.3760099  -7.8512865 -34.2202020 -40.8179665  -8.9690900
 -35.5511999 -39.5943689  -7.7509475 -31.9268465 -38.2352972  -6.5379792
 -32.6748252 -37.3351860  -6.9053686 -31.3021922 -38.2030106  -5.3565276
 -30.6650352 -38.9548182  -5.1353419 -31.6149426 -37.2246432  -4.3032655
 -32.6470995 -37.3989820  -3.9993536 -30.7408166 -37.4701786  -3.0653813
 -30.8630967 -38.5022879  -2.7369058 -29.7001386 -37.3241019  -3.3547768
 -31.0918355 -36.5289187  -1.8964015 -31.1275268 -35.4978943  -2.2482753
 -32.0804358 -36.7907953  -1.5193211 -30.0709438 -36.5731430  -0.7563455
 -28.9100671 -36.9989705  -0.9619587 -30.3809786 -36.1024499   0.3636627
 -31.5525365 -35.7592154  -4.7694957 -32.4931312 -35.0089312  -4.5344308
 -30.5001855 -35.3146958  -5.4629278 -29.7656369 -35.9652352  -5.7023925
 -30.4337597 -33.9418769  -5.9907925 -30.6040359 -33.2516599  -5.1645315
 -29.0332842 -33.6656332  -6.5564114 -28.2931089 -33.8439798  -5.7763886
 -28.8430405 -34.3462777  -7.3862481 -28.8817787 -32.2239876  -7.0548266
 -29.5465636 -32.0617771  -7.9032660 -29.1873646 -31.5530372  -6.2519902
 -27.2006774 -31.7616129  -7.5513762 -26.9187689 -32.9048967  -8.9228266
 -27.7023721 -32.7705193  -9.6684867 -25.9462500 -32.7003384  -9.3705565
 -26.9311547 -33.9316559  -8.5571635 -31.5311718 -33.6763668  -7.0343387
 -32.1280289 -32.5996137  -7.0613617 -31.8440390 -34.6849394  -7.8569984
 -31.3850021 -35.5675435  -7.6826382 -32.9291201 -34.6790576  -8.8539618
 -32.9171062 -33.7128258  -9.3582958 -32.6359391 -35.7859278  -9.8817515
 -31.5561008 -35.9013057  -9.9752355 -33.0491281 -36.7257404  -9.5155233
 -33.1716824 -35.4798055 -11.2881148 -34.2283177 -35.2152610 -11.2476528
 -32.6218605 -34.6259665 -11.6840339 -32.9803300 -36.6702175 -12.2423244
 -33.0172420 -36.2967181 -13.2656693 -31.9956374 -37.1116686 -12.0886838
 -34.0488911 -37.6760626 -12.0781040 -34.9248481 -37.4925041 -12.5461888
 -34.0064049 -38.7802291 -11.3525963 -35.0765586 -39.4895577 -11.1635399
 -35.9848785 -39.2331910 -11.5231550 -34.9980807 -40.1964951 -10.4464662
 -32.9474115 -39.2196608 -10.7506323 -32.0808816 -38.7030840 -10.7018888
 -33.0897164 -40.0054550 -10.1322603 -34.3253350 -34.8312426  -8.2249653
 -35.3252888 -34.7192550  -8.9375895 -34.3981361 -35.0697374  -6.9162148
 -33.5353184 -35.3270245  -6.4585555 -35.6052470 -35.0989509  -6.0890317
 -36.4866710 -35.1676679  -6.7265761 -35.5959630 -36.3270283  -5.1748741
 -35.5831671 -37.2371149  -5.7746053 -34.7068024 -36.3212252  -4.5444307
 -36.8390560 -36.2941194  -4.2934856 -37.9233646 -36.6281128  -4.8238426
 -36.7103076 -35.8200455  -3.1432512 -35.7709813 -33.8162112  -5.2704072
 -36.8129802 -33.1702042  -5.3293610 -34.7169995 -33.3563018  -4.5977619
 -33.8924265 -33.9383554  -4.5604166 -34.6954656 -32.0543742  -3.9241874
 -35.5651593 -32.0021415  -3.2692048 -33.4404302 -31.9405127  -3.0472851
 -32.5558209 -32.0294142  -3.6778918 -33.4242988 -30.9539485  -2.5841066
 -33.3614802 -33.0046535  -1.9292167 -33.3014011 -34.0081549  -2.3504946
 -32.4327445 -32.8296852  -1.3861358 -34.5106030 -32.9553795  -0.9091148
 -34.1242909 -33.3262467   0.0402648 -34.8114133 -31.9174051  -0.7669060
 -35.6873775 -33.7790346  -1.2661056 -35.6552100 -34.3733716  -2.0820923
 -36.7676425 -33.9185500  -0.5190032 -37.7024531 -34.7398043  -0.8860652
 -37.5382209 -35.2633238  -1.7340440 -38.5310292 -34.8981762  -0.3306638
 -36.9470024 -33.2576537   0.5880939 -36.2484980 -32.5840569   0.8682121
 -37.7740097 -33.3948350   1.1514150 -34.8745441 -30.8962297  -4.9141890
 -35.4394197 -29.8742223  -4.5421436 -34.5348310 -31.0825109  -6.1941224
 -33.9660573 -31.8875861  -6.4142466 -35.0208855 -30.2549386  -7.3050636
 -34.5772243 -29.2624593  -7.2260082 -34.5643735 -30.8926344  -8.6255699
 -35.0072455 -31.8820143  -8.7399882 -34.8759079 -30.2638841  -9.4596696
 -33.4786105 -30.9868240  -8.6441410 -36.5504265 -30.0542641  -7.2941625
 -37.0215297 -28.9184785  -7.3497528 -37.3177004 -31.1486578  -7.1799999
 -36.8425369 -32.0216680  -7.0006156 -38.7847638 -31.1550093  -7.0229989
 -39.2387271 -30.6316614  -7.8645009 -39.3611503 -32.5974131  -6.9599193
 -39.1843987 -33.0145431  -5.9685260 -40.4426289 -32.5474405  -7.0864409
 -38.7805104 -33.5672975  -8.0099529 -39.1944051 -33.3262801  -8.9890862
 -37.7002287 -33.4324527  -8.0638939 -39.0153003 -35.0580621  -7.7040809
 -38.8269591 -35.2370834  -6.6455066 -40.0483179 -35.3256631  -7.9262739
 -38.0813789 -35.8579326  -8.5224342 -37.6600146 -35.3672338  -9.2981690
 -37.5194693 -37.0276952  -8.2639837 -36.5181541 -37.3960567  -8.9987016
 -35.9731889 -36.6496897  -9.4061875 -36.0509706 -38.2298040  -8.6720264
 -37.8115869 -37.8218818  -7.2825605 -38.2320595 -37.4289274  -6.4525604
 -37.2157979 -38.6283207  -7.1609128 -39.1496682 -30.3591561  -5.7721508
 -39.8425293 -29.3587542  -5.8681089 -38.5593152 -30.7019901  -4.6257880
 -37.9753733 -31.5260291  -4.6341267 -38.8181877 -30.0312448  -3.3494717
 -39.8763466 -30.1628041  -3.1234273 -38.0174541 -30.7456970  -2.2521749
 -36.9577241 -30.5056715  -2.3385623 -38.3692598 -30.4305887  -1.2698112
 -38.1538272 -31.8241787  -2.3320575 -38.5471201 -28.5058379  -3.3685881
 -39.2391920 -27.7499604  -2.6854125 -37.5373554 -28.0291867  -4.1008559
 -36.9334459 -28.6931682  -4.5640275 -37.2873974 -26.5982509  -4.3208763
 -37.3759151 -26.0828352  -3.3645228 -35.8483362 -26.4013219  -4.8197174
 -35.5409908 -27.2439814  -5.4390401 -35.8083272 -25.5088663  -5.4442376
 -34.8722172 -26.2081861  -3.6865735 -34.5481682 -25.0016522  -3.1088588
 -34.8762679 -24.0939927  -3.4065232 -33.6991715 -25.2368975  -2.0958103
 -33.2586074 -24.4814587  -1.4620776 -33.4697485 -26.5502548  -1.9750345
 -34.2158437 -27.1789789  -2.9774964 -34.2720461 -28.2442379  -3.1462166
 -38.3132148 -25.9236622  -5.2492374 -38.7362671 -24.8030734  -4.9628192
 -38.7456417 -26.5908957  -6.3248932 -38.3702755 -27.5112963  -6.5039629
 -39.8173141 -26.0982704  -7.2148687 -39.5967317 -25.0642800  -7.4800205
 -39.8530126 -26.9149590  -8.5239816 -39.8610711 -27.9785872  -8.2857919
 -41.0780478 -26.6124916  -9.3982100 -41.1441422 -25.5421329  -9.5933104
 -41.0004759 -27.1497488 -10.3434289 -41.9853354 -26.9466686  -8.8949645
 -38.6064792 -26.6079187  -9.3677616 -37.7024150 -26.8318272  -8.8015187
 -38.6073637 -27.2257471 -10.2657509 -38.5948181 -25.5559945  -9.6531093
 -41.1782694 -26.0808444  -6.5054262 -41.9585991 -25.1467776  -6.6875577
 -41.4467621 -27.0728230  -5.6580794 -40.8374453 -27.8782296  -5.6705606
 -42.6007509 -27.1290016  -4.7615930 -43.5017824 -27.0934415  -5.3739405
 -42.6396942 -28.4689999  -4.0043092 -41.6572332 -28.6859345  -3.5850191
 -43.3425426 -28.3729005  -3.1767401 -43.0919313 -29.6391368  -4.8918864
 -43.9294767 -30.4324269  -4.4174135 -42.8171492 -29.6530342  -6.1118311
 -42.6740789 -25.9104419  -3.8309023 -43.6551189 -25.1706648  -3.8809925
 -41.6110849 -25.6375742  -3.0654567 -40.8291531 -26.2764454  -3.0884433
 -41.5198803 -24.4454145  -2.2141342 -42.3211145 -24.4838834  -1.4761335
 -40.1774454 -24.4821000  -1.4740670 -39.3532825 -24.4827247  -2.1874104
 -40.0956154 -23.6042571  -0.8331331 -40.1273012 -25.3754377  -0.8515475
 -41.6983700 -23.1333899  -3.0085096 -42.4525690 -22.2468019  -2.6002598
 -41.0438108 -23.0220985  -4.1742626 -40.4265308 -23.7722421  -4.4505823
 -41.2209225 -21.8930721  -5.0912166 -40.9121180 -20.9890294  -4.5663857
 -40.3011560 -22.0703721  -6.3165307 -39.2645669 -22.0073748  -5.9854525
 -40.4585886 -23.0705333  -6.7202514 -40.5298424 -21.0646343  -7.4639845
 -41.5558100 -21.1451077  -7.8231668 -40.2608061 -19.6173894  -7.0494139
 -39.2427158 -19.5192838  -6.6726232 -40.3939390 -18.9572287  -7.9064804
 -40.9669924 -19.3147051  -6.2762529 -39.5999908 -21.3952160  -8.6308140
 -39.7601700 -22.4249101  -8.9504576 -39.8114038 -20.7313395  -9.4690681
 -38.5617614 -21.2668324  -8.3247167 -42.6959038 -21.6889834  -5.4747242
 -43.1777716 -20.5595827  -5.3872430 -43.4331465 -22.7405548  -5.8727700
 -43.0006599 -23.6525679  -5.9087324 -44.8640919 -22.5874448  -6.1976659
 -44.9391317 -21.6902041  -6.8120152 -45.4328728 -23.7213087  -7.0700157
 -46.4064312 -23.3909535  -7.4321532 -44.7883606 -23.8661861  -7.9370302
 -45.6156874 -25.0623465  -6.3505441 -44.6360826 -25.5298829  -6.2511122
 -46.0383129 -24.9034381  -5.3584576 -46.5532303 -26.0052013  -7.1170437
 -47.5106573 -25.5052519  -7.2636259 -46.1308384 -26.2251878  -8.0974966
 -46.7792845 -27.2469139  -6.3520694 -47.5286579 -27.2360301  -5.6750011
 -45.9756613 -28.2944059  -6.3054901 -46.1512470 -29.2130709  -5.4038912
 -46.8473721 -29.1205835  -4.6779808 -45.4098225 -29.8800898  -5.2442330
 -44.9733686 -28.4240127  -7.1229684 -44.7508907 -27.6859832  -7.7755815
 -44.2638254 -29.1099215  -6.9080597 -45.7366228 -22.2759390  -4.9776483
 -46.6975451 -21.5274167  -5.1476389 -45.4111290 -22.7779126  -3.7772825
 -44.6592808 -23.4480333  -3.7013176 -46.1207771 -22.3785901  -2.5471053
 -47.1732855 -22.6344442  -2.6690266 -45.6237221 -23.0563784  -1.2578076
 -44.6229696 -22.6987171  -1.0155772 -46.5794373 -22.7323794  -0.1019624
 -47.6115799 -22.9010224  -0.4091114 -46.3708162 -23.3721638   0.7555056
 -46.4554977 -21.6951680   0.2093755 -45.5741262 -24.4525170  -1.3630491
 -45.0888634 -24.7220850  -0.5798071 -46.0361910 -20.8714509  -2.3488028
 -47.0683241 -20.2146244  -2.2535323 -44.8231459 -20.3060508  -2.3303983
 -44.0084314 -20.8978605  -2.4085216 -44.6353054 -18.8618243  -2.1715392
 -45.1752901 -18.5492122  -1.2777898 -43.1537628 -18.5472846  -1.9635184
 -42.7498817 -19.1988373  -1.1886282 -42.6039267 -18.7403059  -2.8846732
 -42.9562521 -17.1158195  -1.5430553 -43.2823086 -16.5721750  -0.3218320
 -43.6090755 -17.0859540   0.4839923 -43.1673002 -15.2364469  -0.4136252
 -43.3844090 -14.5333481   0.3768922 -42.7698374 -14.8883140  -1.6454467
 -42.6740694 -16.0718000  -2.3757608 -42.5177908 -16.1488366  -3.4416121
 -45.1944971 -18.0413866  -3.3452180 -45.7139111 -16.9412041  -3.1509316
 -45.1236868 -18.5723948  -4.5703879 -44.6323967 -19.4465959  -4.6908429
 -45.6465149 -17.8974068  -5.7559031 -45.1855183 -16.9099796  -5.7797408
 -45.2041578 -18.6460090  -7.0249170 -44.1209602 -18.7640595  -6.9958377
 -45.6610012 -19.6355367  -7.0097649 -45.5774832 -17.9639053  -8.3555603
 -46.6617870 -17.9001713  -8.4467959 -44.9801111 -16.5593064  -8.4920168
 -43.9021969 -16.5935659  -8.3338273 -45.1880741 -16.1640704  -9.4863212
 -45.4328203 -15.8906889  -7.7598244 -45.0545740 -18.8116980  -9.5162421
 -45.4824495 -19.8126113  -9.4597071 -45.3462648 -18.3597195 -10.4642570
 -43.9678860 -18.8821793  -9.4689441 -47.1655893 -17.6726758  -5.6924653
 -47.6368666 -16.6999137  -6.2731779 -47.9373550 -18.5129404  -4.9926582
 -47.5099564 -19.3046415  -4.5337015 -49.3707466 -18.2793665  -4.7998443
 -49.8001337 -18.1418121  -5.7922179 -50.0327778 -19.5444560  -4.2346281
 -49.4958878 -19.9167979  -3.3621538 -51.0687828 -19.3343234  -3.9688602
 -50.0135088 -20.3269768  -4.9931735 -49.6793985 -16.9532514  -4.0495437
 -50.3545189 -16.1065423  -4.6428519 -49.1594887 -16.6863370  -2.8282669
 -48.6720085 -17.6435316  -1.8462828 -47.6336098 -17.8934455  -2.0639049
 -49.2852926 -18.5438585  -1.8089223 -48.7461853 -16.9470823  -0.4907365
 -47.9915810 -17.3232889   0.2000158 -49.7459269 -17.0621717  -0.0719576
 -48.5046339 -15.4880643  -0.8546612 -47.4322367 -15.3113866  -0.9374188
 -48.9487171 -14.8185861  -0.1179860 -49.1868496 -15.3532565  -2.2217366
 -50.2290297 -15.0759959  -2.0633636 -48.5262251 -14.2651403  -3.0779740
 -49.1512918 -13.2333004  -3.3173710 -47.3005581 -14.4817126  -3.5719261
 -46.8250370 -15.3384042  -3.3268461 -46.5305328 -13.4640348  -4.3073085
 -46.4220476 -12.5927722  -3.6613724 -45.1226521 -14.0017200  -4.5865086
 -44.7296476 -14.4372737  -3.6678472 -45.1857281 -14.7972393  -5.3289843
 -44.1342735 -12.9567134  -5.0657803 -43.4143019 -12.2053218  -4.1176388
 -43.5897255 -12.3595905  -3.0632043 -42.4717045 -11.2505949  -4.5402116
 -41.9199371 -10.6904364  -3.7998220 -42.2616577 -11.0303926  -5.9175766
 -41.3526869 -10.1054335  -6.3245219 -40.9081697  -9.7181940  -5.5668640
 -42.9919910 -11.7724705  -6.8699318 -42.8246403 -11.5936863  -7.9218006
 -43.9246845 -12.7393651  -6.4431590 -44.4847250 -13.3095729  -7.1695304
 -47.2184277 -13.0039299  -5.6068951 -47.1566486 -11.8319261  -5.9797931
 -47.9338741 -13.9143729  -6.2802547 -47.9179668 -14.8659253  -5.9420222
 -48.7838268 -13.6179066  -7.4406499 -48.1537580 -13.2136440  -8.2329166
 -49.4568348 -14.8994875  -7.9548788 -48.6919355 -15.6058621  -8.2774669
 -50.0306988 -15.3503788  -7.1452630 -50.3305054 -14.6317518  -9.0454173
 -49.7829580 -14.5061612  -9.8238909 -49.8595476 -12.5772882  -7.1345592
 -50.2425003 -11.8414068  -8.0431229 -50.3552246 -12.5186634  -5.8937579
 -49.9705935 -13.1419945  -5.1983279 -51.2658739 -11.4760828  -5.4150599
 -51.8367863 -11.0880435  -6.2586123 -52.2777748 -12.0693398  -4.4304913
 -52.7576876 -12.9352427  -4.8865589 -51.7720985 -12.4065018  -3.5256639
 -53.3467674 -11.0326612  -4.0910220 -54.1986656 -10.7913172  -4.9773374
 -53.2957935 -10.4661155  -2.9761511 -50.5350780 -10.2622616  -4.8295406
 -50.8917713  -9.1343224  -5.1550436 -49.4700480 -10.4792464  -4.0549210
 -49.2183018 -11.4368057  -3.8554120 -48.6146402  -9.4259864  -3.4863314
 -49.1843081  -8.8812667  -2.7334341 -47.3904133 -10.0708282  -2.8220773
 -47.6872253 -10.9898305  -2.3166709 -46.6560698 -10.3303754  -3.5846207
 -46.7513847  -9.1226482  -1.8061426 -46.4755630  -8.2022089  -2.3207437
 -47.4845839  -8.8738137  -1.0389406 -45.5058432  -9.7036010  -1.1305635
 -45.2064562 -10.9044492  -1.3058679 -44.8133755  -8.8904685  -0.4758506
 -48.1639862  -8.4062058  -4.5356026 -48.2849646  -7.1912736  -4.3645144
 -47.6880550  -8.9151067  -5.6745589 -47.5843048  -9.9177957  -5.7374477
 -47.2874498  -8.0961329  -6.8065214 -46.5250683  -7.4074376  -6.4424169
 -46.6519785  -9.0186739  -7.8630859 -45.8484268  -9.5842421  -7.3913413
 -47.4071884  -9.7296655  -8.1981146 -46.0833073  -8.2885289  -9.0911752
 -46.8884325  -7.7476877  -9.5885277 -44.9630308  -7.3083276  -8.7318271
 -44.1502857  -7.8378946  -8.2347262 -44.5908785  -6.8310767  -9.6383768
 -45.3417826  -6.5295225  -8.0699307 -45.5144787  -9.3025029 -10.0839174
 -46.2980127  -9.9987721 -10.3828895 -45.1443911  -8.7859505 -10.9695303
 -44.6997118  -9.8589450  -9.6206355 -48.4442663  -7.2322118  -7.3452675
 -48.2006025  -6.0989654  -7.7473754 -49.6993208  -7.7080578  -7.3218310
 -49.8506594  -8.5734546  -6.8235451 -50.8876133  -6.9112366  -7.7033436
 -50.7261038  -6.4894557  -8.6953700 -52.1914768  -7.7454311  -7.7190387
 -52.5025558  -7.9443222  -6.6934794 -52.9799843  -7.1539354  -8.1843209
 -52.0777464  -9.0862429  -8.4542990 -51.9298983  -8.9173877  -9.5209426
 -51.2048817  -9.6079195  -8.0617970 -53.3076429  -9.9806631  -8.2295626
 -53.6431170  -9.8557121  -7.2000265 -54.1132927  -9.6709204  -8.8952130
 -52.9581308 -11.3962102  -8.4663600 -52.0443916 -11.5568376  -8.8655788
 -53.5106802 -12.4666393  -7.9240948 -52.9994345 -13.6459625  -8.1448454
 -52.1098852 -13.7294996  -8.6158282 -53.3689070 -14.4548893  -7.6660758
 -54.5327425 -12.4063182  -7.1211481 -54.6363020 -11.5538859  -6.5894079
 -54.8916864 -13.2403576  -6.6788483 -51.0542870  -5.7312614  -6.7496866
 -51.0910606  -4.5857480  -7.2008514 -51.1023903  -6.0189342  -5.4460722
 -51.0126686  -6.9857991  -5.1681775 -51.2994051  -5.0085819  -4.4051966
 -52.2305441  -4.4845012  -4.6206594 -51.4307928  -5.6438041  -3.0058327
 -50.4389954  -5.9274858  -2.6537573 -51.8075562  -4.8774868  -2.3284043
 -52.3393202  -6.8849701  -2.8806332 -51.8041611  -7.7468061  -3.2793102
 -52.5072145  -7.0833254  -1.8220651 -53.7042522  -6.8041795  -3.5620782
 -54.2101002  -5.7559288  -3.9330462 -54.3648100  -7.9208273  -3.7619853
 -55.2662611  -7.8584623  -4.2131883 -53.9765692  -8.8148278  -3.4971422
 -50.1897144  -3.9524773  -4.4394794 -50.4771137  -2.7577248  -4.4962928
 -48.9183617  -4.3697980  -4.5003623 -48.7454033  -5.3611594  -4.4143638
 -47.7686214  -3.4520850  -4.5449093 -47.9154348  -2.7205402  -3.7503091
 -46.4906025  -4.2342556  -4.2118722 -46.7161703  -4.8831415  -3.3656055
 -46.2048101  -4.8655358  -5.0532460 -45.3257847  -3.2975796  -3.8346669
 -44.9335194  -2.8296804  -4.7376046 -45.6870747  -2.5131023  -3.1697097
 -44.1925764  -4.0474147  -3.1219050 -43.8441086  -4.8579809  -3.7619454
 -43.3681154  -3.3557850  -2.9486570 -44.6598482  -4.5581084  -1.8242209
 -45.1468372  -3.9013126  -1.2312847 -44.6935034  -5.8049268  -1.4031439
 -45.4170847  -6.1516637  -0.3949187 -45.9991455  -5.4463762   0.0339025
 -45.4239321  -7.1196443  -0.1066985 -44.0212679  -6.7598414  -1.9654311
 -43.3953619  -6.5734929  -2.7358836 -44.1105890  -7.6654661  -1.5272774
 -47.6713228  -2.6482141  -5.8450669 -47.3301125  -1.4677612  -5.8021039
 -48.0201340  -3.2257393  -7.0018375 -48.2916403  -4.1984922  -6.9899362
 -48.1031227  -2.4825594  -8.2716918 -47.1688700  -1.9354701  -8.3980310
 -48.2802534  -3.4384674  -9.4664294 -49.0946770  -4.1234934  -9.2307299
 -48.5940123  -2.8639016 -10.3379381 -47.0288467  -4.2476943  -9.8582095
 -46.6069651  -4.7417626  -8.9829886 -47.4321270  -5.2926958 -10.9005308
 -47.8436661  -4.8103389 -11.7871344 -46.5693474  -5.8998108 -11.1746049
 -48.1908226  -5.9490639 -10.4743087 -45.9209061  -3.3920446 -10.4723573
 -45.6157017  -2.6128629  -9.7739136 -45.0535917  -4.0221080 -10.6695366
 -46.2634325  -2.9548427 -11.4102423 -49.2127228  -1.4165851  -8.2797557
 -49.0716887  -0.4360416  -9.0213823 -50.2737808  -1.5974605  -7.4849755
 -50.3483534  -2.4695843  -6.9810480 -51.3233089  -0.6057225  -7.2480142
 -51.5076494  -0.0632823  -8.1753099 -52.6200199  -1.3368499  -6.8752033
 -52.4927139  -1.8973476  -5.9490627 -53.4232759  -0.6122936  -6.7414314
 -52.8966284  -2.0296519  -7.6699442 -50.9117222   0.4392104  -6.1906874
 -50.8879185   1.6277523  -6.5006793 -50.5137920   0.0133924  -4.9847084
 -50.5548620  -0.9782660  -4.7975442 -50.0930834   0.8822171  -3.8740125
 -50.9336138   1.5131052  -3.5848859 -49.7261095   0.0016211  -2.6732880
 -48.8716507  -0.6306210  -2.9146737 -49.4689417   0.6362823  -1.8252477
 -50.5732822  -0.6272525  -2.3995844 -48.9350939   1.8231104  -4.2556739
 -48.9049911   2.9760575  -3.8384828 -48.0443430   1.3751571  -5.1525605
 -48.0838346   0.3907270  -5.3749150 -47.0522022   2.1993031  -5.8658832
 -46.2391186   2.4473578  -5.1836294 -46.5093565   1.3464990  -7.0267576
 -45.8777142   0.5615281  -6.6108853 -47.3639297   0.8711583  -7.5082701
 -45.7066631   2.0999722  -8.1026304 -46.3009071   2.9111770  -8.5232484
 -44.8103809   2.5242046  -7.6500750 -45.3030634   1.1663418  -9.2526400
 -44.6809959   1.7315182  -9.9466926 -44.7188997   0.3392499  -8.8491946
 -46.4718437   0.6150864  -9.9643224 -47.3667908   0.6842117  -9.5012945
 -46.4685535  -0.0601739 -11.0958374 -47.5944185  -0.5242008 -11.5480053
 -48.4150076  -0.4169699 -10.9690094 -47.6257849  -1.0302012 -12.4215460
 -45.3721428  -0.3008279 -11.7644668 -44.4981718   0.0299234 -11.3812327
 -45.3598309  -0.9284478 -12.5556982 -47.6136065   3.5376784  -6.3669509
 -46.9122887   4.5378307  -6.2728703 -48.8098907   3.5592517  -6.9628549
 -49.3803978   2.7270684  -6.9170481 -49.4333029   4.7934660  -7.4549937
 -48.7048483   5.3083408  -8.0813783 -50.6563568   4.4421825  -8.3242601
 -50.3314924   3.8046354  -9.1465104 -51.3608789   3.8753265  -7.7156359
 -51.4088249   5.6604880  -8.8974893 -51.7825747   6.2815303  -8.0834138
 -50.5265713   6.5136987  -9.8132515 -50.0990391   5.9010828 -10.6069875
 -51.1243153   7.3135328 -10.2503657 -49.7297144   6.9753462  -9.2301577
 -52.6061153   5.1755548  -9.7163492 -53.2660866   4.5872611  -9.0788150
 -53.1655645   6.0339397 -10.0882244 -52.2719145   4.5656392 -10.5556428
 -49.7920179   5.7618821  -6.3180661 -49.4565201   6.9399285  -6.4032781
 -50.4298687   5.2615023  -5.2582169 -50.6304789   4.2720923  -5.2278447
 -50.7942295   6.0654086  -4.0845880 -51.3320208   6.9440317  -4.4408232
 -51.7352629   5.2600104  -3.1673878 -52.5682926   4.8800957  -3.7588480
 -51.1881876   4.3983746  -2.7847740 -52.3022604   6.0397798  -1.9657008
 -52.8299761   5.3291780  -1.3295694 -51.4739752   6.4438504  -1.3836621
 -53.2686949   7.1830195  -2.3282647 -53.4115410   7.5192237  -3.5263672
 -53.8258362   7.7978557  -1.3901220 -49.5464993   6.5866977  -3.3602670
 -49.4115114   7.7874601  -3.1525034 -48.5599756   5.7217103  -3.1073600
 -48.7316370   4.7422606  -3.2843193 -47.2522593   6.1072892  -2.5776312
 -47.3990250   6.5189141  -1.5790690 -46.3849735   4.8473260  -2.4581403
 -46.2382269   4.3997011  -3.4410936 -45.4152966   5.1082462  -2.0341775
 -46.8744087   4.1262665  -1.8034436 -46.5616226   7.1979272  -3.4239700
 -45.9409809   8.1023020  -2.8703853 -46.6628075   7.1457779  -4.7596872
 -47.1645260   6.3708884  -5.1694781 -46.1727571   8.2121557  -5.6445372
 -45.1768017   8.4853041  -5.2958828 -46.0446358   7.6963449  -7.0890850
 -46.9644308   7.1746510  -7.3534882 -45.9424686   8.5466051  -7.7634144
 -44.8391342   6.7591882  -7.2975224 -44.8068666   6.0043389  -6.5118635
 -44.9558163   6.0501015  -8.6498529 -44.9628639   6.7838550  -9.4558656
 -44.1159344   5.3674293  -8.7789196 -45.8842182   5.4794586  -8.6731225
 -43.5101414   7.5208485  -7.2882527 -43.3496904   7.9884052  -6.3167870
 -42.6909351   6.8231136  -7.4619234 -43.5089016   8.2887799  -8.0618024
 -46.9878197   9.5183170  -5.5702043 -46.4043331  10.5872512  -5.7617635
 -48.2906103   9.4668531  -5.2579308 -48.7091875   8.5575324  -5.1236415
 -49.0846539  10.6500316  -4.8719957 -48.8950062  11.4397931  -5.5989134
 -50.5897760  10.3232861  -4.9369174 -50.8254480  10.1230216  -5.9821224
 -50.8033276   9.3994802  -4.3992582 -51.5432739  11.4401102  -4.4563860
 -51.1765718  12.4022102  -4.8141497 -52.5084305  11.2655413  -4.9318850
 -51.8011332  11.5328479  -2.9382953 -50.9054947  11.8702185  -2.4166505
 -52.5806236  12.2752905  -2.7671996 -52.2555733  10.1823270  -2.3743416
 -53.0513430   9.7799128  -3.0011702 -51.4230108   9.4803739  -2.4213481
 -52.7360439  10.2481532  -0.9762263 -53.4830666  10.9159827  -0.8495421
 -53.0778217   9.3311238  -0.7265130 -51.9838428  10.4700840  -0.3397904
 -48.6135960  11.2249780  -3.5329914 -48.4462452  12.4343336  -3.4560901
 -48.2368946  10.3758717  -2.5749433 -48.4709501   9.4014984  -2.7011046
 -47.5795746  10.7673693  -1.3091239 -48.0691719  11.6629708  -0.9266417
 -47.7204990   9.6558797  -0.2501858 -47.0716429   8.8278383  -0.5355570
 -47.3487234  10.0595415   0.6915887 -49.1064882   9.0648472   0.0435844
 -49.4796610   8.5645044  -0.8500031 -48.9903164   8.2911867   0.8025663
 -50.1649618  10.0694060   0.5029172 -51.0787344   9.6689487   1.2512589
 -50.2500153  11.1885810  -0.0402079 -46.0842657  11.1354840  -1.4820275
 -45.3385353  11.3065112  -0.5197583 -45.6174612  11.2381887  -2.7290851
 -46.2817430  11.0476243  -3.4656402 -44.3542624  11.8626225  -3.1252980
 -43.8423061  12.2533858  -2.2459178 -43.4592438  10.7914865  -3.7973776
 -44.0607166  10.1931477  -4.4817153 -42.6828480  11.2810540  -4.3852794
 -42.7343035   9.8610091  -2.8414714 -41.5167332   9.8452246  -2.7760318
 -43.4256411   9.0272003  -2.1135044 -42.9310274   8.4753269  -1.4272931
 -44.4326401   9.0062290  -2.1884437 -44.6330786  13.0657470  -4.0630889
 -43.7880135  13.4091818  -4.9017215 -45.8175850  13.6844313  -3.9856064
 -46.4055204  13.4927654  -3.1870398 -46.4584541  14.4087112  -5.0868648
 -45.7809067  14.4723320  -5.9383202 -47.3302269  13.8373840  -5.4057771
 -46.9216824  15.8263445  -4.7502953 -46.2352896  16.7957485  -5.0904918
 -48.1214285  15.9610844  -4.1825819 -48.5063457  15.1538479  -3.7132031
 -48.7837791  17.2389746  -3.8855878 -48.9392185  17.7885354  -4.8139837
 -49.7567749  17.0352829  -3.4384966 -48.0016422  18.1314337  -2.9190814
 -48.0092859  19.3544340  -3.0693242 -47.2136974  17.5460851  -2.0187706
 -47.2860861  16.5433180  -1.9222024 -46.2656021  18.2513297  -1.1608709
 -46.8094158  18.9489758  -0.5239610 -45.5611992  17.2303879  -0.2703036
 -45.1818228  16.3991916  -0.8646835 -44.7202539  17.7195680   0.2212328
 -46.2566042  16.8548834   0.4803672 -45.2307320  19.0550852  -1.9635248
 -44.7122431  20.0582600  -1.4790601 -44.9363947  18.6543155  -3.2072827
 -45.4004192  17.8258693  -3.5514697 -44.0652180  19.4053280  -4.1217381
 -43.3745289  19.9846649  -3.5090277 -43.2128096  18.4100187  -4.9023592
 -42.7940416  17.7137446  -4.1757655 -43.8508797  17.8595388  -5.5936879
 -42.0476532  19.0560436  -5.6712228 -42.4330997  19.5639336  -6.5552932
 -41.5529060  19.7916138  -5.0369799 -41.0052347  18.0121243  -6.0968810
 -40.2630377  18.5021818  -6.7270309 -40.4848623  17.6565099  -5.2075821
 -41.6252851  16.8872559  -6.8348408 -41.8747520  17.0664954  -7.7969915
 -42.0610571  15.7542741  -6.3064551 -42.8178787  14.9492311  -6.9893181
 -43.1867123  15.2090168  -7.8929591 -43.2275963  14.1831756  -6.4741474
 -41.7999887  15.3884530  -5.0870907 -41.2655973  15.9901989  -4.4768277
 -42.2842741  14.5818746  -4.7196639 -44.8058987  20.4257345  -4.9958047
 -44.1770315  21.3548326  -5.4960573 -46.1321020  20.3271675  -5.1334000
 -46.5958691  19.5534706  -4.6790734 -46.9497204  21.4814138  -5.5340874
 -46.4731503  21.9437408  -6.3985139 -48.3580256  21.0264063  -5.9665662
 -48.2607269  20.3405762  -6.8081540 -48.8240099  20.4832315  -5.1444209
 -49.3050718  22.1778965  -6.3625705 -49.4311762  22.8531384  -5.5162573
 -48.7895203  22.9737020  -7.5634861 -48.6464167  22.3167992  -8.4214497
 -49.5071459  23.7545967  -7.8151006 -47.8468275  23.4595203  -7.3116618
 -50.6778336  21.6122913  -6.7263085 -51.0848713  21.0646176  -5.8763242
 -51.3565207  22.4305582  -6.9669878 -50.5973530  20.9432364  -7.5830388
 -46.9696093  22.5418663  -4.4176981 -46.7707062  23.7237024  -4.6942511
 -47.1133804  22.1201348  -3.1562358 -47.3320436  21.1481643  -2.9902151
 -46.8972921  22.9896140  -2.0000371 -47.5730658  23.8398242  -2.0926353
 -47.2699738  22.2521949  -0.7079134 -46.6017389  21.4083242  -0.5363233
 -47.1888447  22.9380059   0.1354019 -48.2960939  21.8898416  -0.7702041
 -45.4681540  23.5668063  -1.9825639 -45.3178120  24.7727752  -1.8055639
 -44.4304705  22.7591228  -2.2569858 -44.5802212  21.7606139  -2.2312872
 -43.0662537  23.2647085  -2.4723230 -42.7431059  23.7110853  -1.5318859
 -42.0451450  22.1677947  -2.8417805 -42.0873022  21.3562703  -2.1153165
 -42.2586632  21.7795610  -3.8376623 -40.6456709  22.8000736  -2.8573605
 -40.6031895  23.5336375  -3.6624563 -40.5179596  23.3231688  -1.9096465
 -39.4465899  21.8724942  -3.0557752 -39.6205544  20.7225084  -3.5185742
 -38.3366609  22.3893833  -2.7701819 -43.0227995  24.3725228  -3.5294971
 -42.4800110  25.4360271  -3.2549816 -43.5792398  24.1440392  -4.7238815
 -43.9794302  23.2326221  -4.8949599 -43.6345863  25.1344705  -5.8057517
 -42.6157379  25.3559399  -6.1235583 -44.3741465  24.5236969  -7.0075095
 -43.7027740  23.8275909  -7.5102937 -45.2203608  23.9368105  -6.6503227
 -44.9028397  25.5236769  -8.0177218 -46.2341022  25.9761620  -7.9193246
 -46.8704891  25.6190896  -7.1231407 -46.7367315  26.9048572  -8.8486153
 -47.7591228  27.2424197  -8.7639344 -45.9015417  27.3874450  -9.8792475
 -46.3797522  28.2828259 -10.7821572 -47.2890902  28.5217500 -10.5881977
 -44.5672035  26.9393396  -9.9744123 -43.9367294  27.3233104 -10.7627451
 -44.0678787  26.0082078  -9.0426475 -43.0437088  25.6715798  -9.1071409
 -44.2419481  26.4723754  -5.3494477 -43.6555719  27.5282717  -5.5996406
 -45.3679371  26.4376426  -4.6293467 -45.7956457  25.5414629  -4.4448793
 -45.9326267  27.6332068  -3.9987996 -46.0440636  28.3929348  -4.7724265
 -47.3323727  27.3300028  -3.4472883 -47.3034143  26.4243221  -2.8414807
 -47.6444912  28.1536007  -2.8051281 -48.3569241  27.1808124  -4.5458296
 -48.7941980  28.1911373  -5.3717953 -48.5360813  29.1647482  -5.2972543
 -49.6487951  27.6629400  -6.2624431 -50.1695681  28.2177758  -7.0288318
 -49.7738934  26.3428330  -6.0676336 -48.9594078  26.0275626  -4.9723068
 -48.8265705  25.0462604  -4.5412672 -44.9983931  28.2535601  -2.9458871
 -44.7894526  29.4650841  -2.9734147 -44.3660545  27.4516439  -2.0840038
 -44.5817232  26.4649439  -2.0873572 -43.3632565  27.9313111  -1.1328804
 -43.8342285  28.6930943  -0.5116133 -42.9370785  26.7885447  -0.2017410
 -42.4139881  26.0099196  -0.7569152 -42.2762203  27.1815324   0.5708699
 -43.8162327  26.3599515   0.2794021 -42.1631002  28.6037827  -1.8292898
 -41.7364311  29.6678805  -1.3838124 -41.6529083  28.0603242  -2.9529968
 -42.0669460  27.1959114  -3.2715470 -40.5419111  28.6517954  -3.7343222
 -39.6593666  28.7143302  -3.0976826 -40.1741076  27.8481078  -5.0031811
 -41.0033321  27.9300547  -5.7058722 -39.3303537  28.3629084  -5.4627037
 -39.7884059  26.3578486  -4.9452847 -40.6866741  25.7543921  -4.8147020
 -39.4086528  26.1028290  -5.9346545 -38.7269378  25.9041214  -3.9335039
 -38.3789611  24.9200273  -4.2474619 -37.8762770  26.5853477  -3.9536309
 -39.2806673  25.7858133  -2.5108144 -39.3698835  26.7830229  -2.0798658
 -40.2772856  25.3474140  -2.5624037 -38.4062791  24.9405003  -1.6626769
 -37.5713015  25.4551053  -1.4216225 -38.8595486  24.7140646  -0.7889661
 -38.1773090  24.0681624  -2.1173337 -40.8664894  30.0837374  -4.1777900
 -39.9704313  30.9251475  -4.2071134 -42.1278954  30.3775382  -4.5086712
 -42.8242302  29.6485233  -4.4474113 -42.5550032  31.7192030  -4.9154276
 -41.9643116  32.0093179  -5.7843447 -44.0266609  31.6775298  -5.3430784
 -44.6639395  31.5041089  -4.4759560 -44.3006802  32.6335621  -5.7891953
 -44.1818190  30.8833313  -6.0733354 -42.2961283  32.7850819  -3.8299650
 -42.0564175  33.9426780  -4.1667712 -42.2742796  32.3859167  -2.5539923
 -42.5348091  31.4307475  -2.3542990 -41.7786980  33.1938076  -1.4292967
 -41.9035959  34.2492080  -1.6714369 -42.5919867  32.9182410  -0.1521835
 -42.4556112  31.8803167   0.1514866 -42.1984005  33.8422179   0.9992766
 -42.3120594  34.8827124   0.6950469 -42.8453302  33.6478496   1.8547308
 -41.1642170  33.6632514   1.2934354 -43.9608002  33.1412888  -0.3905144
 -44.4497871  32.6255774   0.2548821 -40.2821159  32.9500532  -1.1905450
 -39.4754815  33.8698483  -1.2842837 -39.9040484  31.7168808  -0.8511411
 -40.6212234  31.0058236  -0.8638521 -38.5723829  31.2770844  -0.4082946
 -38.3258247  31.8365884   0.4940719 -38.7160063  29.7973299   0.0140385
 -39.2969871  29.7865152   0.9362336 -39.3198276  29.2719054  -0.7258453
 -37.4389696  28.9827800   0.2679899 -36.5837574  29.6566439   0.3191372
 -37.5326514  28.4898925   1.2356613 -37.2068119  27.9186535  -0.8131207
 -37.4557900  28.2093596  -2.0031451 -36.8244672  26.7716169  -0.4913985
 -37.4274302  31.5836215  -1.4030908 -36.4800787  32.2954464  -1.0470277
 -37.5082183  31.1323023  -2.6612705 -38.2999325  30.5606341  -2.9191178
 -36.5259504  31.4785528  -3.7007040 -35.5317497  31.2517285  -3.3157134
 -36.7321396  30.6527591  -4.9884582 -37.7769184  30.3613615  -5.0962585
 -36.4853191  31.2757921  -5.8481169 -35.8803606  29.4137836  -5.0778264
 -35.7995057  28.4182501  -4.1403210 -36.3461018  28.3570123  -3.2932109
 -34.9042726  27.5143099  -4.5587632 -34.6294808  26.6281009  -4.0060234
 -34.3915129  27.8728485  -5.7480186 -35.0061774  29.0857339  -6.0793161
 -34.8189092  29.6678305  -6.9695365 -36.5301442  32.9766035  -4.0303198
 -35.4590678  33.5409999  -4.2432559 -37.6965261  33.6324096  -4.0821585
 -38.5405731  33.1150484  -3.8821098 -37.8039360  35.0720263  -4.3685532
 -37.2769213  35.2659178  -5.3027695 -39.2872572  35.4262424  -4.5688039
 -39.6868300  34.8173356  -5.3797746 -39.8253226  35.1642299  -3.6577955
 -39.5699286  36.9095778  -4.8725495 -39.2234564  37.5249863  -4.0422919
 -38.8846111  37.3827434  -6.1575711 -39.1791296  36.7457461  -6.9915920
 -39.1762066  38.4115314  -6.3689113 -37.8018761  37.3531461  -6.0354829
 -41.0739517  37.1259975  -5.0302243 -41.5837812  36.8103957  -4.1199675
 -41.2861395  38.1806874  -5.2054602 -41.4543390  36.5313315  -5.8607513
 -37.1407533  35.9410691  -3.2850769 -36.3418722  36.8291616  -3.5905176
 -37.4297619  35.6382990  -2.0190482 -38.1131124  34.9112558  -1.8623826
 -36.7766857  36.2070751  -0.8378112 -36.9778395  37.2776842  -0.7999476
 -37.3694968  35.5628848   0.4196636 -38.4447336  35.7403922   0.4410649
 -37.1942925  34.4871640   0.4045272 -36.7909265  36.1129999   1.5809219
 -37.2741532  35.7445836   2.3241431 -35.2611637  36.0147071  -0.9045888
 -34.5004535  36.9816566  -0.8354612 -34.8159599  34.7827768  -1.1677374
 -35.4857373  34.0275359  -1.2011269 -33.3865762  34.4583583  -1.2774172
 -32.8936911  34.8774600  -0.4001952 -33.1521606  32.9395819  -1.2270991
 -33.4771919  32.4825001  -2.1617281 -31.6809750  32.6004362  -0.9758852
 -31.2986064  33.2001615  -0.1499163 -31.5877128  31.5499163  -0.7005461
 -31.0892582  32.7956247  -1.8702400 -33.8702965  32.3556709  -0.1663856
 -34.7987223  32.3066854  -0.4056248 -32.7213621  35.0900578  -2.5137812
 -31.5217066  35.3505349  -2.5023091 -33.4626985  35.4000211  -3.5859749
 -34.4260049  35.0966287  -3.5957256 -32.9916358  36.2364244  -4.7023207
 -32.0325994  35.8458233  -5.0425911 -33.9983273  36.1942887  -5.8749473
 -34.9337578  35.7329917  -5.5582845 -34.2347980  37.2152686  -6.1745864
 -33.4666324  35.4538894  -7.1112525 -32.5233293  35.9073424  -7.4156553
 -33.2287836  33.9666343  -6.8526679 -34.1711688  33.4925151  -6.5784091
 -32.8398967  33.4922767  -7.7536952 -32.5243139  33.8344717  -6.0314769
 -34.4584823  35.5821466  -8.2669508 -34.6147132  36.6349602  -8.5020524
 -34.0696359  35.0785089  -9.1519636 -35.4133892  35.1362777  -7.9886520
 -32.7252865  37.6842093  -4.2673093 -31.6754603  38.2299232  -4.6067262
 -33.6479092  38.2871795  -3.5123247 -34.4820166  37.7652097  -3.2844764
 -33.4768772  39.6228147  -2.9204813 -33.2954812  40.3389025  -3.7219873
 -34.7692442  40.0344610  -2.2066136 -35.6021523  39.9629426  -2.9060778
 -34.9601412  39.3639803  -1.3686918 -34.6812367  41.3600969  -1.7268957
 -35.4899502  41.5614843  -1.2504248 -32.2640085  39.6691370  -1.9807400
 -31.3809609  40.5167341  -2.1207072 -32.1638584  38.6864018  -1.0821009
 -32.9347301  38.0381799  -1.0067834 -31.0004139  38.4564304  -0.2217543
 -30.8923221  39.3159008   0.4398563 -31.2669635  37.2120738   0.6405745
 -32.2624564  37.2811604   1.0791171 -31.2300110  36.3258266   0.0070920
 -30.2527595  37.0559478   1.7710976 -29.2454576  37.0595145   1.3546510
 -30.3358531  37.9091430   2.4443403 -30.4907107  35.7506657   2.5391734
 -29.8054290  34.7590995   2.2008432 -31.3077235  35.7762361   3.4856838
 -29.6921682  38.3470535  -1.0259613 -28.7371135  39.0787601  -0.7655449
 -29.6717358  37.4975443  -2.0626162 -30.4912043  36.9212794  -2.1910395
 -28.5276461  37.2630620  -2.9610842 -27.6674867  37.0193100  -2.3375396
 -28.8409853  36.0340595  -3.8371834 -29.0402699  35.1978493  -3.1670043
 -29.7384405  36.2320900  -4.4232354 -27.7065086  35.6177664  -4.7855499
 -27.6667023  36.3133812  -5.6237853 -26.7644596  35.6831074  -4.2411476
 -27.8447247  34.1796756  -5.3234017 -27.0144629  33.9983034  -6.0059488
 -27.7538848  33.4889174  -4.4851276 -29.1730142  33.9146686  -6.0531771
 -29.9852419  34.0509343  -5.3391576 -29.2959261  34.6588564  -6.8400586
 -29.2300105  32.5412321  -6.6295373 -29.0510678  31.8504405  -5.9147727
 -30.1454949  32.3433280  -7.0074612 -28.5513544  32.4083161  -7.3656499
 -28.0918407  38.5027456  -3.7516403 -26.9094610  38.6208558  -4.0732020
 -28.9966369  39.4381905  -4.0403447 -29.9595094  39.2685413  -3.7869740
 -28.6475348  40.7230902  -4.6470103 -28.0330801  40.5274820  -5.5258060
 -29.9324512  41.4112568  -5.1239824 -30.5573869  41.6780663  -4.2717099
 -29.6788049  42.3191118  -5.6713063 -30.4911327  40.7442284  -5.7805264
 -27.8210020  41.6421080  -3.7205952 -26.9504118  42.3709488  -4.2060801
 -28.0631137  41.6245461  -2.3979191 -28.7514687  40.9744358  -2.0463029
 -27.4437451  42.5818729  -1.4596194 -27.6384997  43.5677099  -1.8818733
 -28.1422329  42.5372267  -0.0835532 -29.2204261  42.5406885  -0.2435063
 -27.9047441  41.6051626   0.4292385 -27.7964807  43.7089872   0.8585101
 -28.3259678  43.5392618   1.7960247 -26.7283940  43.7092495   1.0759798
 -28.2053757  45.0830221   0.2936187 -27.4269414  45.4367590  -0.3824053
 -29.1228056  44.9661541  -0.2832389 -28.4763241  46.1534691   1.3651071
 -28.7936616  47.0645523   0.8578360 -29.2949820  45.8251095   2.0054825
 -27.2912216  46.4514637   2.1971655 -26.4797616  46.6711473   1.6373622
 -27.4293423  47.2441816   2.8075963 -27.0396256  45.6826639   2.8019342
 -25.9061098  42.4923086  -1.3976245 -25.2890968  43.5454464  -1.5469274
 -25.2575707  41.3123655  -1.2561411 -25.8317184  40.0173712  -0.9219448
 -26.2619829  39.5641541  -1.8150100 -26.5837288  40.0982285  -0.1370630
 -24.6847248  39.1531515  -0.4086288 -24.8378873  38.1010437  -0.6488561
 -24.5750427  39.2866874   0.6675854 -23.4645557  39.7162223  -1.1255594
 -23.3577633  39.2118216  -2.0859106 -22.5575852  39.5937634  -0.5335221
 -23.7978530  41.1987019  -1.3257436 -23.3607507  41.7738104  -0.5094774
 -23.2047105  41.7114019  -2.6392546 -22.2250009  42.4507284  -2.6155531
 -23.8029027  41.3306808  -3.7747455 -24.6257424  40.7477093  -3.7183762
 -23.3305383  41.7177868  -5.1018614 -22.3144102  41.3435650  -5.2265108
 -24.2223740  41.0477781  -6.1556846 -25.2495813  41.4002848  -6.0625118
 -23.8531590  41.2924671  -7.1516299 -24.2011452  39.9657702  -6.0256451
 -23.2679605  43.2448864  -5.2732390 -22.2447419  43.7725306  -5.7042199
 -24.3403435  43.9568901  -4.9049449 -25.1541209  43.4623003  -4.5684215
 -24.3487334  45.4213285  -4.8857424 -24.0541005  45.7679176  -5.8762807
 -25.7837439  45.9083605  -4.6051529 -26.4367247  45.5436087  -5.3980428
 -26.1194754  45.4676580  -3.6664492 -25.9311986  47.4402666  -4.4984493
 -25.3139019  47.8138733  -3.6814648 -25.5341363  48.1612587  -5.7891941
 -26.1088562  47.7720690  -6.6296268 -25.7212615  49.2302752  -5.6877404
 -24.4704652  48.0213547  -5.9818822 -27.3858237  47.7937746  -4.1866541
 -27.6866317  47.3169136  -3.2537985 -27.4858260  48.8734961  -4.0757450
 -28.0355263  47.4532461  -4.9928978 -23.3314586  46.0081863  -3.8915983
 -22.5887275  46.9242144  -4.2387986 -23.3119416  45.5127811  -2.6522818
 -23.9288807  44.7466040  -2.4232335 -22.5215888  46.1099672  -1.5699247
 -22.7475810  47.1761417  -1.5524511 -22.9436922  45.5077553  -0.2223590
 -24.0071607  45.2689362  -0.2323432 -22.3952937  44.5795631  -0.0616938
 -22.6727724  46.4706564   0.9388287 -22.6717901  45.8992958   1.8670769
 -21.6894841  46.9285727   0.8313464 -23.7566853  47.5440550   1.0593441
 -23.4162903  48.7373209   1.2028852 -24.9528170  47.1973419   1.1417088
 -21.0020614  45.9897900  -1.7691627 -20.2705073  46.9312048  -1.4576422
 -20.5201888  44.8611307  -2.3016384 -21.1532331  44.1009808  -2.5054470
 -19.0983164  44.6929646  -2.6223099 -18.5280931  45.2147532  -1.8537502
 -18.6863339  43.2169437  -2.5509471 -19.1467535  42.7669954  -1.6713682
 -19.0581942  42.6953506  -3.4328538 -17.1651304  43.0275869  -2.4349956
 -16.7386258  41.8577909  -2.5272533 -16.4391971  44.0261412  -2.2070862
 -18.7155116  45.3344774  -3.9661354 -17.6491153  45.9315681  -4.0794039
 -19.6032238  45.3700209  -4.9697116 -20.4799175  44.8764038  -4.8810723
 -19.3544793  46.1831713  -6.1728507 -18.3946443  45.8649397  -6.5797257
 -20.4394627  45.8948278  -7.2238374 -20.4589272  44.8206139  -7.4076593
 -21.4060354  46.1849070  -6.8119067 -20.2411199  46.6164732  -8.5702640
 -20.2769613  47.6950598  -8.4170681 -18.9157665  46.2492418  -9.2455721
 -18.8293481  45.1667738  -9.3398947 -18.8665521  46.7038727 -10.2350116
 -18.0812824  46.6307068  -8.6571646 -21.3751268  46.2303448  -9.5210522
 -22.3332047  46.4972544  -9.0750223 -21.2634373  46.7661142 -10.4636967
 -21.3538384  45.1571941  -9.7107762 -19.2121410  47.6837158  -5.8317214
 -18.4262133  48.4010124  -6.4500505 -19.9064195  48.1385517  -4.7800508
 -20.5664659  47.4935007  -4.3697414 -19.7681701  49.4628382  -4.1477329
 -19.7037458  50.2101755  -4.9385786 -21.0514331  49.7095060  -3.3285782
 -21.9129491  49.3928576  -3.9164767 -21.0110354  49.0738916  -2.4440093
 -21.3173485  51.1662388  -2.9073319 -20.4089093  51.6824484  -2.5969106
 -21.7010069  51.7073393  -3.7722686 -22.3397350  51.2736940  -1.7659171
 -22.4621320  52.3275232  -1.5157898 -23.2978153  50.9136724  -2.1408443
 -22.0229006  50.5247021  -0.5240481 -22.8041935  50.0796318  -0.0640477
 -20.9033370  50.3712416   0.1658680 -20.9911084  49.8603106   1.3500151
 -21.8932629  49.4933701   1.6175587 -20.1604009  49.7015858   1.9021295
 -19.6975863  50.6750679  -0.2178279 -19.5106280  50.9227800  -1.1789649
 -18.9494061  50.3187323   0.3595401 -18.4888434  49.6179676  -3.2938460
 -18.2788038  50.6944704  -2.7326757 -17.6500440  48.5896730  -3.1287959
 -17.8710818  47.7167606  -3.5862583 -16.4507544  48.6389780  -2.2782864
 -16.2192810  49.6874428  -2.0905660 -16.7505479  47.9890871  -0.9158722
 -17.5840175  48.5162067  -0.4515760 -17.0568466  46.9552946  -1.0757342
 -15.5499506  47.9922581   0.0506984 -15.8418381  47.4778509   0.9662773
 -14.7297716  47.4166965  -0.3784095 -15.0441909  49.3906403   0.4058145
 -15.4163563  49.9972963   1.3994536 -14.1714466  49.9731112  -0.3854020
 -13.8728595  50.9064865  -0.1409629 -13.9216614  49.5386934  -1.2623227
 -15.1771307  48.0479002  -2.9043749 -14.1731894  48.7613869  -2.9766560
 -15.1724327  46.7643738  -3.2683477 -16.0402870  46.2519884  -3.2020396
 -13.9965940  45.9334993  -3.5483077 -13.4447813  45.7612610  -2.6242214
 -14.3683648  44.9711847  -3.9002073 -13.0292320  46.4641523  -4.6070677
 -11.8203032  46.2482977  -4.5049521 -13.5334802  47.2288561  -5.5791831
 -14.5368254  47.3407459  -5.6088185 -12.7165568  47.9345369  -6.5698063
 -12.1886051  47.1841955  -7.1583259 -13.6585283  48.7149668  -7.5075215
 -14.3306816  48.0073404  -7.9928803 -14.2645025  49.3887806  -6.9018179
 -12.9518139  49.5523119  -8.5927105 -12.3061013  50.2917147  -8.1189573
 -12.1159256  48.6949825  -9.5455998 -12.7390850  47.9286480 -10.0065792
 -11.6851914  49.3249750 -10.3238511 -11.2973559  48.2206821  -9.0042251
 -13.9960325  50.3029871  -9.4186753 -14.5884395  50.9461880  -8.7679476
 -13.4992683  50.9239388 -10.1641583 -14.6566808  49.5967579  -9.9215513
 -11.6458225  48.8426495  -5.9298885 -10.5317366  48.9239454  -6.4404494
 -11.9520748  49.5193624  -4.8162949 -12.8551209  49.3587303  -4.3934396
 -10.9796810  50.3682280  -4.1148320 -10.5111074  51.0004139  -4.8690754
 -11.6928685  51.3125944  -3.1261107 -12.2739995  50.7174015  -2.4217467
 -10.9396410  51.8650055  -2.5643387 -12.6567745  52.3176527  -3.7885508
 -13.3750272  51.7838860  -4.4108915 -13.4353745  53.0637407  -2.7034995
 -12.7478588  53.6014128  -2.0505606 -14.1184807  53.7745667  -3.1684655
 -14.0241981  52.3552084  -2.1209489 -11.9278729  53.3523989  -4.6485090
 -11.4508951  52.8666353  -5.4997581 -12.6421177  54.0797710  -5.0343710
 -11.1724710  53.8700438  -4.0573138  -9.7981310  49.5664024  -3.5152590
  -8.6599821  49.9049664  -3.8350356 -10.0046945  48.4704494  -2.7500397
 -11.1879456  48.1792116  -1.9515529 -11.9792616  47.7862787  -2.5899234
 -11.5335751  49.0607119  -1.4115588 -10.7790077  47.1182251  -0.9328627
 -11.6064095  46.4523220  -0.6877510 -10.3920364  47.6021481  -0.0361073
  -9.6503419  46.3843012  -1.6451757 -10.0760436  45.6582546  -2.3378012
  -8.9766490  45.8968592  -0.9404515  -8.9507961  47.5093508  -2.4129125
  -8.2475972  48.0031395  -1.7422517  -8.1592727  46.9633389  -3.6111480
  -6.9366950  46.8473196  -3.5162514  -8.8178575  46.6207218  -4.7266698
  -9.8263824  46.6753149  -4.7251523  -8.1406921  46.2128592  -5.9762716
  -7.5236362  45.3420210  -5.7549500  -9.1527808  45.7890081  -7.0638502
  -9.9077487  46.5669870  -7.1772963  -8.5028952  45.5584669  -8.4349841
  -7.6909178  44.8361063  -8.3513671  -9.2446339  45.1814461  -9.1390991
  -8.1095910  46.4938450  -8.8330740  -9.8585671  44.4849348  -6.6734302
 -10.3061879  44.5720720  -5.6834090 -10.6484675  44.2638350  -7.3912561
  -9.1434264  43.6623669  -6.6661763  -7.1755457  47.2952080  -6.4772260
  -5.9925085  47.0175838  -6.6659272  -7.6534843  48.5295868  -6.6664219
  -8.6332268  48.6925268  -6.4829546  -6.8379796  49.6639729  -7.1237618
  -6.3573730  49.3848896  -8.0614346  -7.7476424  50.8812046  -7.3741412
  -8.3359879  51.0564995  -6.4734632  -7.1246481  51.7606592  -7.5370419
  -8.6999810  50.7261610  -8.5764372  -9.2220926  49.7709179  -8.5216165
  -9.7408515  51.8461990  -8.5543144  -9.2496496  52.8172445  -8.6166734
 -10.4234290  51.7301702  -9.3961728 -10.3150809  51.7881775  -7.6296556
  -7.9555815  50.7939053  -9.9120450  -7.2593147  49.9595261  -9.9964255
  -8.6693794  50.7245493 -10.7328868  -7.4069047  51.7324114  -9.9911535
  -5.6982702  50.0154972  -6.1523128  -4.5765141  50.2706289  -6.5902710
  -5.9583670  49.9903870  -4.8427686  -6.9112402  49.8267984  -4.5505786
  -4.9333674  50.1169348  -3.7987995  -4.4595581  51.0926580  -3.9063781
  -5.6013793  50.0499821  -2.4101898  -6.2989932  50.8828497  -2.3220481
  -6.1803061  49.1294003  -2.3362161  -4.6310309  50.0932646  -1.2157077
  -5.2208078  50.1485109  -0.3007152  -4.0666887  49.1611528  -1.1876140
  -3.6594641  51.2794971  -1.2684602  -4.0187389  52.3488665  -1.8057454
  -2.4815480  51.1458921  -0.8700515  -3.8312411  49.0588760  -3.9566478
  -2.6466063  49.3907404  -4.0207568  -4.2264712  47.7883959  -4.0772325
  -5.2182585  47.6011086  -4.0400276  -3.3185041  46.6545105  -4.2906272
  -2.6142880  46.6169357  -3.4595031  -4.0938613  45.3332710  -4.3066084
  -4.7659734  45.3027773  -5.1641840  -3.3827478  44.5112991  -4.3889153
  -4.8411867  45.1688719  -3.1180772  -5.6012982  45.7525587  -3.1742248
  -2.5024605  46.7886496  -5.5805993  -1.3016316  46.5221548  -5.5798495
  -3.1262219  47.2296810  -6.6773874  -4.1223890  47.3893166  -6.6297251
  -2.4436739  47.5074196  -7.9434299  -1.8915644  46.6148758  -8.2377845
  -3.4855053  47.7892780  -9.0334165  -4.1689894  46.9425297  -9.0963662
  -4.0703714  48.6660624  -8.7554210  -2.8689298  48.0102921 -10.3997076
  -2.3518325  46.9140959 -11.1151016  -2.4215998  45.9173250 -10.7052505
  -1.7219381  47.1180487 -12.3543072  -1.2968086  46.2821150 -12.8899169
  -1.6209564  48.4118176 -12.8914666  -1.1293497  48.5596132 -13.8416660
  -2.1447547  49.5080471 -12.1834159  -2.0566288  50.5040073 -12.5916970
  -2.7643037  49.3084145 -10.9359729  -3.1479976  50.1549292 -10.3858924
  -1.4073408  48.6367655  -7.8199768  -0.2673467  48.4741783  -8.2541305
  -1.7534383  49.7464085  -7.1491832  -2.7068204  49.8209667  -6.8242073
  -0.8089750  50.8305645  -6.8213814  -0.3873415  51.2186241  -7.7486026
  -1.5640409  51.9660044  -6.1053205  -2.2838840  52.4015188  -6.7983258
  -2.1178070  51.5433598  -5.2669817  -0.6273732  53.0742025  -5.5855888
   0.1028320  52.6471472  -4.8981851  -0.0853007  53.5035992  -6.4281297
  -1.3610741  54.2028904  -4.8448855  -0.6231456  54.9165773  -4.4785404
  -2.0030737  54.7240734  -5.5550283  -2.2291531  53.7286711  -3.6691368
  -2.6988709  54.5916843  -3.1972587  -3.0394804  53.1068182  -4.0496242
  -1.4828837  52.9578638  -2.6437914  -0.7867870  53.5011101  -2.1534573
  -2.1460733  52.6267862  -1.9577269  -1.0933591  52.1010971  -3.0102929
   0.3737751  50.3155470  -5.9954089   1.5168110  50.6297112  -6.3114613
   0.1050217  49.5410585  -4.9429142  -0.8660312  49.3512583  -4.7400942
   1.1292391  48.8546753  -4.1353545   1.7696433  49.6076202  -3.6759436
   0.4722087  48.0485678  -2.9994059  -0.3810123  47.4961901  -3.3930975
   1.4140143  47.0376492  -2.3357198   2.3250277  47.5403547  -2.0109943
   0.9085565  46.5715933  -1.4899057   1.6771699  46.2529278  -3.0449891
  -0.0352980  49.0128565  -1.9225129  -0.7061716  49.7519159  -2.3604876
  -0.6043724  48.4644032  -1.1718801   0.8005393  49.5329046  -1.4545111
   2.0569313  48.0003548  -5.0011015   3.2704666  48.1486559  -4.9127570
   1.5045430  47.1341515  -5.8544695   0.4980885  47.0504189  -5.8663929
   2.2768499  46.3100004  -6.7928630   2.9332593  45.6664085  -6.2071872
   1.3234368  45.4130220  -7.5870335   0.8255976  44.7255087  -6.9032323
   0.5660737  46.0270166  -8.0743867   2.0115191  44.6783113  -8.5770649
   2.7300027  44.1913128  -8.1669241   3.1780201  47.1410179  -7.7173936
   4.3681145  46.8500662  -7.8278410   2.6405680  48.1982851  -8.3345211
   1.6491379  48.3594847  -8.2287651   3.4017286  49.1334152  -9.1688085
   3.8458157  48.5755920  -9.9932587   2.4330378  50.1686716  -9.7608811
   1.7089926  49.6511936 -10.3902268   1.8769938  50.6418514  -8.9515507
   3.1072861  51.2535334 -10.5796981   3.4085485  51.0287333 -11.9359410
   3.1508300  50.0867891 -12.3971570   4.0554342  52.0245695 -12.6898730
   4.2906937  51.8463993 -13.7287712   4.4053134  53.2466269 -12.0885932
   4.9090505  54.0075064 -12.6662707   4.1064796  53.4742165 -10.7334852
   4.3833253  54.4092035 -10.2692056   3.4567872  52.4798059  -9.9805713
   3.2393870  52.6525545  -8.9368790   4.5656598  49.8048592  -8.4175819
   5.6895608  49.8254156  -8.9149618   4.3161172  50.3382683  -7.2158641
   3.3739734  50.2837563  -6.8560064   5.3550506  50.9522390  -6.3780266
   5.8868933  51.6927004  -6.9754899   4.7016287  51.6561937  -5.1743901
   4.0760443  50.9309673  -4.6540165   5.4837394  51.9709253  -4.4834861
   3.8476592  52.8851271  -5.5427361   3.1395522  52.6288319  -6.3307691
   3.0519521  53.3460522  -4.3199062   3.7355846  53.6330795  -3.5209319
   2.4240789  54.1958666  -4.5876518   2.4221633  52.5270510  -3.9724800
   4.6982670  54.0606928  -6.0302258   5.2097851  53.7929296  -6.9547534
   4.0603346  54.9218130  -6.2292552   5.4382914  54.3256712  -5.2750772
   6.4187425  49.9385118  -5.9251314   7.6133579  50.2159882  -6.0272127
   5.9964722  48.7517214  -5.4798669   5.0014150  48.5925531  -5.4118180
   6.8964177  47.6511145  -5.1194108   7.5722027  48.0070591  -4.3417734
   6.1104900  46.4800215  -4.5284805   5.8222866  46.7189980  -3.5047963
   5.2062327  46.3262987  -5.1173687   6.8469304  45.2739954  -4.5508239
   7.7309829  45.3673744  -4.1883990   7.7693444  47.2055435  -6.2899119
   8.9511323  46.9740248  -6.0737234   7.2697216  47.1715450  -7.5309044
   6.2826389  47.3374081  -7.6660341   8.0883515  46.8182468  -8.6944884
   8.4080660  45.7832766  -8.5731697   7.2348040  46.9015503  -9.9656814
   6.9359094  47.9333878 -10.1502681   7.8161496  46.5453386 -10.8161235
   6.3444436  46.2822199  -9.8571056   9.3702126  47.6729298  -8.8012481
  10.4325938  47.1444178  -9.1235048   9.2962193  48.9726162  -8.4840697
   8.4004557  49.3281364  -8.1818879  10.4623151  49.8659420  -8.4051985
  10.9969378  49.8117828  -9.3535370   9.9971837  51.3218451  -8.1893438
   9.6308380  51.4168549  -7.1671581  10.8648050  51.9747066  -8.2847846
   8.8903642  51.8228960  -9.1391546   8.0027235  51.1996698  -9.0306062
   8.5005891  53.2555103  -8.7724680   9.3566257  53.9203882  -8.8875163
   7.6879418  53.5882807  -9.4181985   8.1565708  53.2816887  -7.7385116
   9.3326718  51.8019009 -10.6041336   9.5267630  50.7750988 -10.9141481
   8.5342222  52.2008801 -11.2297475  10.2333534  52.4020147 -10.7334852
  11.4627767  49.4470358  -7.3076886  12.6747704  49.4470644  -7.5343096
  10.9613872  49.0711927  -6.1295956   9.9551642  49.0499687  -6.0449326
  11.7288065  48.4814978  -5.0204086  12.5416136  49.1613531  -4.7649741
  10.8041036  48.3210802  -3.7856695   9.8055118  48.6695194  -4.0493032
  10.7032585  47.2656631  -3.5326287  11.2363052  49.1173983  -2.5368422
  11.9049931  49.9310970  -2.8176486  10.3476620  49.5730639  -2.1000566
  11.8853569  48.2229424  -1.4725089  13.1274438  48.2530308  -1.3385367
  11.1606443  47.4161530  -0.8379071  12.3865747  47.1513367  -5.4412824
  13.5896099  46.9723463  -5.2627254  11.6359198  46.2313080  -6.0514849
  10.6479812  46.4241695  -6.1344844  12.1291602  44.9397087  -6.5505743
  12.6027989  44.4133997  -5.7218623  10.9676111  44.0589380  -7.0578092
  10.5662441  44.4936848  -7.9732329  11.3976097  43.0942440  -7.3271954
   9.7869134  43.7852716  -6.0969269   8.9706123  44.4589043  -6.3576472
   9.4183463  42.7766562  -6.2838989  10.1170087  43.9319944  -4.6033368
   9.4910187  44.7553444  -3.8973588  11.0530770  43.2574463  -4.1190055
  13.2170296  45.1004696  -7.6301366  14.2724657  44.4629049  -7.5552708
  13.0141866  45.9906864  -8.6108196  12.1206546  46.4592600  -8.6571574
  14.0523791  46.3729095  -9.5768970  14.3852174  45.4780912 -10.1028454
  13.5022068  47.3793173 -10.6028223  13.1454945  48.2527256 -10.0569189
  14.3330634  47.7087402 -11.2267280  12.3975194  46.9176340 -11.5452814
  12.3026168  45.5783224 -11.9832850  12.9896367  44.8304510 -11.6157389
  11.3046193  45.2007723 -12.9037130  11.2336957  44.1741753 -13.2315373
  10.3936613  46.1636591 -13.3902752   9.4481528  45.8159113 -14.3019724
   9.5935798  44.9346924 -14.6539724  10.4792702  47.4979544 -12.9473495
   9.7724420  48.2257509 -13.3176303  11.4818513  47.8723574 -12.0333004
  11.5425193  48.8966703 -11.6964018  15.2940059  46.9589186  -8.8875353
  16.4198792  46.5979195  -9.2431873  15.1043653  47.8241873  -7.8847730
  14.1558945  48.0798483  -7.6499420  16.1945307  48.3929682  -7.0742166
  16.8805635  48.9041233  -7.7496290  15.6832910  49.4464016  -6.0773331
  14.9549222  49.0046263  -5.3973246  16.8072009  50.0739336  -5.2523518
  17.5726938  50.4809189  -5.9130216  16.3963771  50.8782387  -4.6420875
  17.2510266  49.3289995  -4.5919028  15.0745857  50.4955721  -6.7913598
  14.2149627  50.1839018  -7.0838010  17.0035362  47.2976732  -6.3780802
  18.2233214  47.2517109  -6.5367889  16.3448489  46.3596916  -5.6819892
  15.3445089  46.4633417  -5.5887914  16.9837880  45.1750612  -5.0708359
  17.7088928  45.4994154  -4.3244338  15.9246790  44.2951918  -4.3817589
  15.1704490  44.0288591  -5.1222354  16.3898289  43.3749723  -4.0282881
  15.2550507  44.9956512  -3.1868702  15.9174752  44.9612761  -2.3219350
  15.0934064  46.0457516  -3.4303182  13.9060426  44.3475008  -2.8347757
  13.4482169  43.9242744  -3.7288517  14.0441179  43.5533333  -2.1010637
  12.9860067  45.4387283  -2.2927150  13.4056151  45.8665323  -1.3822126
  12.9510295  46.2451982  -3.0251634  11.6068792  44.9769306  -2.0345715
  11.5610671  44.3416309  -1.2507373  11.0400403  45.7778835  -1.7952520
  11.1855662  44.5412827  -2.8425428  17.7554810  44.3606758  -6.1127329
  18.9311886  44.0661907  -5.9085041  17.1486545  44.0762424  -7.2739470
  16.1796808  44.3432999  -7.3733330  17.8131604  43.3524561  -8.3736414
  18.1197095  42.3830557  -7.9807097  16.8224764  43.1242609  -9.5312047
  15.9194636  42.6760101  -9.1167885  16.5336943  44.0813541  -9.9655813
  17.3635912  42.1836233 -10.6306255  18.3098567  41.7378473 -10.3240836
  16.6515422  41.3655186 -10.7392120  17.5333011  42.8325462 -12.0166397
  17.7598810  42.0444059 -12.7346909  16.5780485  43.2684040 -12.3092484
  18.6169589  43.9194012 -12.1217692  18.5605383  44.3455982 -13.1234062
  18.3961010  44.7160101 -11.4113176  19.9817097  43.3790970 -11.8965948
  20.1246381  42.5268364 -12.4194062  20.7040405  44.0386438 -12.1482515
  20.1186347  43.1331253 -10.9266174  19.0939450  44.0483809  -8.8382041
  20.0797963  43.3700848  -9.1291738  19.0807152  45.3767729  -8.9765680
  18.2237804  45.8645296  -8.7577939  20.2654386  46.1848354  -9.3099982
  20.7685351  45.7487679 -10.1730382  19.8278844  47.6193380  -9.6653068
  19.2148674  48.0035496  -8.8500214  20.7121515  48.2529974  -9.7334790
  19.0381908  47.7279139 -10.9840572  18.2790101  46.9470930 -11.0294521
  18.3390427  49.0824795 -11.0660756  19.0690887  49.8903227 -11.0159016
  17.7795863  49.1561317 -11.9986427  17.6389337  49.1811466 -10.2364886
  19.9527097  47.5756502 -12.2028041  20.4528284  46.6072607 -12.1886432
  19.3598795  47.6566362 -13.1138980  20.7049561  48.3644581 -12.2002316
  21.3153195  46.1920023  -8.1850803  22.5083613  46.1588669  -8.4689623
  20.8752728  46.1988640  -6.9258648  19.8807573  46.2837219  -6.7714441
  21.7321491  46.1601973  -5.7411587  22.4965692  46.9295025  -5.8503950
  20.8325028  46.5246058  -4.5427966  20.2063274  47.3726845  -4.8198691
  20.1789570  45.6809711  -4.3208647  21.5147948  46.9034338  -3.2400772
  21.0430479  47.7836752  -2.5354183  22.5896430  46.2651014  -2.8485322
  22.7722049  46.2578773  -1.8551919  23.0252218  45.5828142  -3.4525636
  22.4694777  44.8112297  -5.5667573  23.5939193  44.8090649  -5.0590372
  21.8673372  43.6722088  -5.9459054  20.8998919  43.7221336  -6.2316740
  22.4009228  42.3419189  -5.5638319  23.2390571  42.4772739  -4.8802298
  21.3626194  41.5201569  -4.7804269  21.8227816  40.5817699  -4.4709456
  20.8722734  42.2444201  -3.5271183  20.2849698  43.1235027  -3.7924328
  20.2437282  41.5734196  -2.9416382  21.7219424  42.5556421  -2.9194131
  20.2398872  41.2291956  -5.5770898  20.4462409  40.4685926  -6.1252671
  22.9536247  41.4887190  -6.7132705  23.9666867  40.8206034  -6.4874011
  22.3533511  41.4989805  -7.9172629  21.5949130  42.1494150  -8.0649394
  22.7223969  40.5963659  -9.0370798  22.6756239  39.5708966  -8.6705744
  21.7439532  40.7443476 -10.2164781  20.7224178  40.7485580  -9.8362869
  21.9466853  41.6995382 -10.7008457  21.8855405  39.5981383 -11.2443292
  22.9160857  39.5455551 -11.5954924  21.6447115  38.6543012 -10.7551742
  20.9736156  39.7724009 -12.4641061  20.4560328  40.8481073 -12.7511072
  20.7303739  38.7420964 -13.2416260  20.1306796  38.8892984 -14.0408719
  21.0223484  37.8019214 -13.0159581  24.1699409  40.7961369  -9.4853967
  24.5723820  41.9550991  -9.7173458  24.9504709  39.8264050  -9.4290775
   2.6224577 -37.3452163  -0.0309702   2.7388674 -36.5338755  -0.7525222
   1.5934272 -37.3320889   0.3342519   2.7962369 -38.2934761  -0.5438708
   3.6171201 -37.1686316   1.1261109   3.3903071 -36.2411475   1.6560110
   4.6215576 -37.0607495   0.7114647   3.6235252 -38.3429694   2.1228187
   4.3529469 -38.1077003   2.9006708   3.9666268 -39.2452526   1.6122971
   2.2680520 -38.6251593   2.7968284   1.5262149 -38.8586521   2.0302637
   1.9222699 -37.7260303   3.3110890   2.3107097 -39.8012877   3.7950748
   2.4827912 -40.7248449   3.2383889   1.3245024 -39.8935199   4.2548046
   3.3839700 -39.6972537   4.9021924   4.3696091 -39.7799540   4.4394404
   3.2862228 -40.5572510   5.5680138   3.3213392 -38.4044838   5.7444710
   2.3962662 -38.3930302   6.3246191   3.3081368 -37.5340009   5.0852656
   4.5282558 -38.2741618   6.6937971   5.4449081 -38.3247352   6.1024809
   4.5512432 -39.1165090   7.3883379   4.5441914 -36.9486880   7.4789160
   4.3487516 -36.1191916   6.7961276   5.5476236 -36.8017101   7.8838658
   3.5335159 -36.8922734   8.6356986   3.6786601 -37.7688313   9.2705542
   2.5162488 -36.9318318   8.2406455   3.7138456 -35.6164956   9.4804257
   3.5779208 -34.7471261   8.8337541   4.7352108 -35.5701184   9.8639965
   2.7226958 -35.5175900  10.6550157   1.7084934 -35.6368899  10.2682006
   2.7899030 -34.5162368  11.0854053   2.9565361 -36.5494013  11.7748344
   3.9413393 -36.3922215  12.2197187   2.9419845 -37.5533915  11.3455844
   1.8722194 -36.4352465  12.8658473   0.8888905 -36.5753269  12.4120796
   1.9012102 -35.4200220  13.2670224   2.0132621 -37.4136257  14.0478599
   1.3519581 -37.0775127  14.8492122   3.0301097 -37.3938942  14.4454706
   1.6490404 -38.8371110  13.7024248   1.9264598 -39.3679142  12.6506865
   0.9680355 -39.4600201  14.6869659   1.0970047 -40.9099674  14.7652626
   1.0015136 -41.3573647  13.7726045   0.2782598 -41.2887526  15.3823757
   2.4430227 -41.3395596  15.4273593   2.4057095 -42.4175549  15.6039524
   2.7004066 -40.6751204  16.8050647   3.6063623 -41.0936928  17.2508121
   1.8593767 -40.9068251  17.4635708   2.8423437 -39.2286730  16.7294323
   2.5068754 -38.3076429  17.9931569   0.9077633 -38.2085586  17.9628468
   0.2451237 -37.0375657  17.4478173   0.9449618 -36.4197516  16.8793273
  -0.1250976 -36.4356399  18.2816470  -0.9035932 -37.4638200  16.5102243
  -0.5000237 -38.0241895  15.6655943  -1.3729152 -36.5539217  16.1332583
  -2.0285721 -38.2869864  17.0783067  -1.6425197 -39.7203064  17.1793687
  -1.3699077 -40.0665951  16.1813486  -2.4995980 -40.2692795  17.5722182
  -0.7861320 -39.7823715  17.8524435  -2.4433216 -37.8187776  18.4287488
  -2.6622933 -36.7527962  18.3511913  -1.6060381 -37.9828620  19.1086853
  -3.3208969 -38.3932614  18.7289393  -3.2049063 -38.1819844  16.1698377
  -3.5054556 -37.1344852  16.1178756  -4.0102661 -38.7903619  16.5840268
  -2.9195446 -38.5444021  15.1811504   2.8998041 -39.0627575  19.1970956
   3.0957967 -36.9732881  17.7525687   3.5485011 -41.0246134  14.5378387
   3.8706824 -41.9437981  13.6075521   3.6491263 -43.1329918  13.7294102
   4.4749033 -41.3365602  12.3694384   4.6118575 -40.2666998  12.5400352
   5.4525018 -41.7789555  12.1668291   3.5088995 -41.5674257  11.1903286
   3.6947629 -42.5511122  10.7541180   2.4885707 -41.5877724  11.5788889
   3.5700601 -40.4836941  10.1016021   3.6809430 -39.5117092  10.5867982
   4.4479740 -40.6222057   9.4671392   2.2835711 -40.4362869   9.2548954
   1.4625607 -40.1289988   9.9060345   2.3959884 -39.6575594   8.4976572
   1.8971530 -41.7639446   8.5689044   2.6007271 -41.9797039   7.7621233
   1.9613375 -42.5876522   9.2829376   0.4597503 -41.7311621   8.0131817
   0.2245936 -42.7031660   7.5745797  -0.2352083 -41.5708113   8.8400936
   0.2534267 -40.6356382   6.9558126   0.4744059 -39.6556592   7.3839104
   0.9730922 -40.8199215   6.1554474  -1.1433657 -40.6662989   6.3732374
  -1.5010528 -41.6511917   6.0840786  -1.9173265 -39.6093416   6.1511570
  -2.8952196 -39.7596335   5.7009292  -1.6020219 -38.1830263   6.5465677
  -2.5189823 -37.5900555   6.5408552  -1.2385253 -38.1738830   7.5762528
  -0.5494644 -37.5047159   5.6450075  -0.1957605 -36.6197491   6.1781025
   0.3145745 -38.1632948   5.5346763  -1.0151867 -37.0522404   4.2446640
  -1.8877298 -36.4027309   4.3409473  -0.2143752 -36.4458203   3.8163885
  -1.3272375 -38.1888366   3.2526776  -0.5290351 -38.9330530   3.2911128
  -2.2538364 -38.6865711   3.5461700  -1.4629982 -37.6553988   1.8116070
  -2.2185676 -36.8671227   1.7974998  -0.5218164 -37.1945715   1.5045577
  -1.8567574 -38.7346697   0.7829010  -2.7669320 -39.2369151   1.1172596
  -2.0944174 -38.2412457  -0.1618287  -0.7610251 -39.7877908   0.5288857
   0.1562070 -39.2902613   0.2069960  -0.5322402 -40.3193808   1.4549148
  -1.1807818 -40.8050966  -0.5450581  -0.3818312 -41.5306282  -0.7116333
  -1.3890852 -40.2993393  -1.4901944  -2.0777531 -41.3442373  -0.2332303
  14.1510248  36.2881351  -1.3079017  14.7626543  37.1918893  -1.3479312
  14.3157244  35.7261157  -2.2295697  14.4881344  35.6807065  -0.4653747
  12.6621318  36.6518188  -1.1745405  12.0545089  35.7480335  -1.2547201
  12.3894691  37.2970057  -2.0123070  12.3279536  37.3794270   0.1416445
  11.3396728  37.8342772   0.0474207  13.0354273  38.1976295   0.2916071
  12.3344004  36.4559174   1.3777260  13.3349442  36.0430288   1.5222882
  11.6482997  35.6223130   1.2139113  11.9163811  37.2340345   2.6386139
  10.8979404  37.6083994   2.5157508  12.5692153  38.1056428   2.7196512
  12.0257044  36.4478159   3.9587727  11.7609406  37.1151948   4.7815537
  13.0692518  36.1654162   4.1127983  11.1503148  35.1831317   4.0489793
  11.3591921  34.7042465   5.0078857  11.4362860  34.4785380   3.2652509
   9.6440959  35.4816127   3.9374545   9.4264323  35.8354235   2.9275516
   9.3948144  36.2886047   4.6296147   8.7369084  34.2735291   4.2435068
   9.0176320  33.4292984   3.6103150   7.7066076  34.5319057   3.9901569
   8.7844819  33.8586903   5.7249272   8.5973161  34.7405767   6.3411307
   9.7834212  33.4925270   5.9709132   7.7516663  32.7671814   6.0647535
   7.8390002  31.9576621   5.3370750   6.7434204  33.1769466   5.9753263
   7.9495573  32.1766162   7.4741650   8.9491105  31.7403626   7.5293165
   7.2350246  31.3621378   7.6103032   7.7786595  33.1998539   8.6173815
   6.7327815  33.5075784   8.6799049   8.3663225  34.0950394   8.4034652
   8.2497716  32.6558614   9.9783647   8.1903011  33.4608817  10.7138014
   9.3024498  32.3791790   9.8901552   7.4419683  31.4397764  10.4910934
   7.4264812  30.6559920   9.7308922   6.4094794  31.7408204  10.6803048
   7.9930788  30.8245564  11.7596567   7.5493217  29.7861314  12.2139704
   9.0207517  31.5133047  12.3050535   9.6350974  31.0196733  13.5255706
   8.8616300  30.6254458  14.1896343  10.1202512  31.8594217  14.0296471
  10.7086074  29.9433064  13.2399976  10.2436638  29.1142201  12.7004683
  11.3208890  29.4443631  14.5706964  11.8929172  28.5305238  14.3908930
  10.5289733  29.2132854  15.2877176  12.1889305  30.4201961  15.1824641
  12.8285575  30.1093674  16.6072237  11.5877247  30.3613114  17.5763929
  11.1165965  31.7004395  17.8157878  10.9028530  32.1931481  16.8638420
  11.9033134  32.2614622  18.3266473   9.8489988  31.6373658  18.7024832
   9.5575404  32.6521206  18.9774549  10.0839233  31.0881376  19.6154118
   8.5991269  31.0055614  18.1350195   8.1608868  31.7221451  16.9059587
   7.9917401  32.7627254  17.1867907   7.2290224  31.2748218  16.5569425
   8.9483881  31.6474366  16.1546004   8.7760371  29.5578313  17.8274477
   9.0813071  29.0359902  18.7356174   9.5600647  29.4599366  17.0751202
   7.8243411  29.1666245  17.4647987   7.4984592  31.1107469  19.1326118
   7.7883625  30.5694818  20.0344253   6.5981901  30.6824946  18.6894464
   7.3415130  32.1682358  19.3502569  13.1908393  28.6789465  16.6593397
  13.8629317  31.1113286  16.8917179  11.7660236  30.5084658  12.4279404
  12.6722372  29.6645880  11.9112396  12.6109946  28.4442997  11.9786692
  13.7974703  30.4044318  11.2368262  13.4560859  31.3963294  10.9334159
  14.5953631  30.5444455  11.9691002  14.3302667  29.6454406  10.0101101
  15.2091551  30.1682377   9.6270937  14.6537936  28.6495709  10.3200078
  13.2744634  29.5199990   8.8951743  12.3943090  29.0067387   9.2880565
  12.9594088  30.5184555   8.5848659  13.7943101  28.7405229   7.6747990
  14.5578015  29.3281150   7.1607161  14.2732739  27.8209877   8.0175972
  12.6681411  28.3585238   6.6941923  13.1053936  27.8330064   5.8426613
  11.9969749  27.6525331   7.1877271  11.8325078  29.5396280   6.1652571
  11.0788584  29.1441965   5.4810703  11.2929535  30.0148368   6.9871581
  12.6729333  30.5956793   5.4260910  13.3403707  31.1009741   6.1272818
  13.3063304  30.1051521   4.6840301  11.7766380  31.6168189   4.7610772
  11.5416539  32.4946022   5.3576082  11.3511491  31.5406609   3.5047036
  10.7521546  32.3445797   3.0845976  11.5999544  30.3631139   2.5888854
  12.5492954  30.5129170   2.0704512  11.6834795  29.4386220   3.1640378
  10.5021179  30.1846170   1.5279379  10.4361951  31.0873199   0.9169967
  10.8128250  29.3726420   0.8671671   9.1074347  29.8687458   2.1038085
   9.2148590  29.2578936   3.0025756   8.6229450  30.8005738   2.4028558
   8.2072848  29.1062641   1.1093043   8.5955453  28.0910921   1.0037525
   7.2045994  29.0209913   1.5333506   8.1163841  29.7458768  -0.2912643
   7.7042401  30.7537365  -0.2086831   9.1163576  29.8399901  -0.7198195
   7.2504783  28.9024425  -1.2475123   7.5908881  27.8652692  -1.2182257
   6.2128371  28.9186287  -0.9076539   7.3296422  29.4045520  -2.6999947
   7.0295447  30.4536152  -2.7432749   8.3673501  29.3462014  -3.0349886
   6.4527583  28.5855412  -3.6613202   6.5369314  28.9799500  -4.6761209
   5.4044223  28.6331797  -3.3593509   6.7678028  27.5400186  -3.6709857
   0.7695182 -17.3483717  -0.4101598   0.5594967 -16.7742550  -1.3150050
   1.0841196 -16.6485918   0.3668838  -0.1552698 -17.8352499  -0.0936456
   1.8666641 -18.3929515  -0.6817769   2.8012258 -17.8857231  -0.9303271
   1.5774779 -18.9863360  -1.5516789   2.0944574 -19.3502617   0.4998171
   2.7852780 -20.1372361   0.1901352   1.1467719 -19.8370194   0.7394497
   2.6456162 -18.6603379   1.7632067   1.9858654 -17.8339863   2.0358503
   3.6359474 -18.2461023   1.5629129   2.7188531 -19.6625412   2.9285708
   3.4242848 -20.4597306   2.6850209   1.7350608 -20.1278305   3.0186796
   3.0959168 -19.0594625   4.2946908   4.1244999 -18.6947548   4.2563748
   3.0730605 -19.8571026   5.0401509   2.1452360 -17.9247236   4.7313780
   1.1149950 -18.2282627   4.5340669   2.3481402 -17.0372427   4.1283253
   2.2679879 -17.5647998   6.2236524   3.3227900 -17.4484897   6.4811939
   1.8686326 -18.3907914   6.8158644   1.5240651 -16.2630022   6.5808529
   0.4854971 -16.3226938   6.2487727   1.9897622 -15.4446268   6.0278147
   1.5583187 -15.9175909   8.0842304   1.4573881 -14.8345387   8.1805402
   2.5303772 -16.1836624   8.5046732   0.4233643 -16.5774536   8.8986808
   0.4868035 -17.6656413   8.8332194  -0.5320084 -16.2839699   8.4586883
   0.4446923 -16.1346400  10.3763843   0.6986596 -15.0731480  10.4110408
   1.2307850 -16.6655087  10.9174013  -0.9066103 -16.3043606  11.0995317
  -1.6888222 -15.8578217  10.4821074  -0.8656932 -15.7181537  12.0199406
  -1.3171348 -17.7469635  11.4724839  -0.5980188 -18.1604922  12.1826458
  -1.3270828 -18.3866060  10.5874836  -2.7196896 -17.7124083  12.1118140
  -3.4569156 -17.4714470  11.3431144  -2.7477515 -16.9139123  12.8561783
  -3.1460837 -18.9932227  12.7908146  -3.7158772 -19.8967671  12.2158527
  -2.9474002 -18.9483237  14.1270030  -3.4956741 -20.0059462  14.9721134
  -4.4077554 -20.4124165  14.5276606  -3.7678993 -19.5432103  15.9241724
  -2.5178802 -21.1670494  15.3014898  -3.0509004 -21.7646265  16.0454237
  -1.1792246 -20.7275701  15.9404087  -0.8563002 -19.7846007  15.4918778
  -0.4121537 -21.4788651  15.7359469  -1.2984018 -20.5448985  17.3842382
  -1.3351016 -21.7813563  18.4255791  -0.0754208 -22.6545906  17.9928446
   1.2490283 -22.0999169  18.0120862   1.2106006 -21.0802007  17.6204848
   1.8666513 -22.7137256  17.3514605   1.8722716 -22.0885563  19.4206452
   1.2456550 -21.4810729  20.0753188   2.8682011 -21.6465569  19.3654823
   2.0629166 -23.4072232  20.1128197   0.7437361 -23.9687443  20.5295777
   0.1841255 -23.1821465  21.0378909   0.9022862 -24.8339939  21.1749339
   0.2007404 -24.2505503  19.6262383   2.7916098 -24.3815827  19.2451334
   3.7547117 -23.9407182  18.9836872   2.2005923 -24.5648074  18.3465743
   2.9414764 -25.3109884  19.7965205   2.8966942 -23.1709719  21.3244295
   3.8585195 -22.7822018  20.9867406   3.0349603 -24.1202641  21.8440509
   2.3867458 -22.4439383  21.9581914  -1.0445537 -21.2805295  19.7809160
  -2.5419283 -22.5925994  18.1693614  -2.3311798 -22.0882487  14.1963017
  -1.5380782 -21.8208385  13.1392908  -0.8373249 -20.8349919  13.0225670
  -1.6072190 -22.9304004  12.1209908  -0.9473405 -22.7022171  11.2813735
  -1.2364788 -23.8401103  12.5978971  -3.0533737 -23.1489944  11.6172934
  -3.7653044 -22.6675963  12.2909951  -3.1732124 -22.6649976  10.6457770
  -3.4264639 -24.6400070  11.5245414  -2.7944255 -25.1415873  10.7887363
  -3.2298011 -25.1071000  12.4918115  -4.9112228 -24.8609662  11.1819494
  -5.1833582 -25.8905077  11.4237130  -5.5315113 -24.2288256  11.8207800
  -5.2587432 -24.6040106   9.7063285  -5.1480800 -23.5405636   9.4842911
  -4.5682740 -25.1498103   9.0599400  -6.7009199 -25.0506186   9.4084734
  -6.7722702 -26.1369467   9.4937146  -7.3649096 -24.6279907  10.1654184
  -7.2071177 -24.6109438   8.0273455  -8.2720810 -24.8410726   7.9541558
  -7.1061188 -23.5282207   7.9274786  -6.5046066 -25.3106284   6.8949640
  -6.5900373 -26.3931322   6.8453932  -5.8947170 -24.6343589   5.9388542
  -5.8425105 -23.5503101   5.9995502  -5.3161496 -25.2555370   4.6934158
  -4.2399058 -25.0729418   4.6647611  -5.4758126 -26.3357925   4.6890461
  -5.9614313 -24.6248841   3.4457618  -5.5717343 -25.1127958   2.5499153
  -7.0380861 -24.8055553   3.4709862  -5.6949645 -23.1085253   3.3615047
  -6.0501409 -22.6143146   4.2681843  -4.6168613 -22.9467058   3.2984886
  -6.3951510 -22.4497533   2.1651772  -5.9932238 -22.8684044   1.2401640
  -7.4600017 -22.6892161   2.2000270  -6.2333810 -20.9178972   2.1556665
  -6.7347479 -20.5188465   1.2714410  -6.7368454 -20.4927254   3.0264238
  -4.7574732 -20.4759264   2.1558391  -4.3123227 -20.6818080   3.1315020
  -4.2027080 -21.0611105   1.4194566  -4.5980516 -18.9808202   1.8392557
  -5.1092362 -18.7449265   0.9035697  -5.0718743 -18.3969891   2.6311499
  -3.1230786 -18.5720694   1.7216334  -3.0470121 -17.5107133   1.4762774
  -2.6290047 -19.1431975   0.9328576  -2.6011139 -18.7532997   2.6635316
  -2.2286655 -25.6698513   2.3512945  -2.0987217 -25.7669330   1.2714082
  -1.8301082 -24.7011757   2.6599681  -3.2985362 -25.6920314   2.5688899
  -1.5127690 -26.8231726   3.0743742  -0.4686875 -26.8522859   2.7557683
  -1.9716379 -27.7629018   2.7600288  -1.5790823 -26.7300558   4.6121797
  -1.2942958 -27.6977563   5.0304121  -2.6106519 -26.5398884   4.9157637
  -0.6480511 -25.6543469   5.2027166  -0.8570150 -24.6889663   4.7370601
   0.3812316 -25.9140849   4.9466354  -0.7470249 -25.5226851   6.7368454
   0.1117708 -24.9512577   7.0951790  -0.6708367 -26.5166569   7.1825802
  -2.0312184 -24.8511887   7.2595882  -2.0246784 -24.8939991   8.3507293
  -2.9097077 -25.4036498   6.9197261  -2.1345855 -23.3814979   6.8179226
  -2.2385566 -23.3334136   5.7319480  -1.2134435 -22.8664851   7.0984960
  -3.3130148 -22.6450729   7.4644578  -3.1196806 -22.5558567   8.5354966
  -4.2186546 -23.2429743   7.3428351  -3.5460377 -21.2492013   6.8580300
  -3.6438623 -21.3467383   5.7748026  -2.6820645 -20.6099772   7.0514417
  -4.8232502 -20.5854487   7.4048764  -5.6611454 -21.2682366   7.2493279
  -5.0316620 -19.6881664   6.8184358  -4.7278318 -20.1918435   8.8945460
  -3.9777890 -19.4050801   8.9989704  -4.3873987 -21.0377955   9.4953215
  -6.0685152 -19.6801567   9.4548959  -6.4850640 -18.9548492   8.7528414
  -5.8783436 -19.1428542  10.3863490  -7.1084040 -20.7962704   9.7041082
  -7.1643972 -21.4453626   8.8277471  -8.0944347 -20.3388786   9.8089844
  -6.8307048 -21.6581511  10.9552693  -5.8019626 -22.0242643  10.9446371
  -7.4949986 -22.5246596  10.9369230  -7.0802599 -20.8723354  12.2502041
  -8.0756164 -20.4275608  12.1877313  -6.3528895 -20.0633025  12.3443365
  -7.0201457 -21.7042208  13.5044253  -6.1678427 -22.5321078  13.7571275
  -8.0270594 -21.3798475  14.3472922  -8.1613171 -22.1608782  15.5707657
  -8.6211699 -21.5212798  16.3284564  -7.1706545 -22.4346328  15.9426463
  -9.0682828 -23.4213185  15.4207313 -10.0790596 -23.1840539  15.7623267
  -8.5357928 -24.5722532  16.2949300  -7.6763380 -25.0513268  15.8190370
  -9.3310934 -25.3120136  16.4170074  -8.1420290 -24.0413332  17.5890601
  -8.0438846 -24.9697542  18.8875377  -6.5884352 -25.5929399  18.7378287
  -5.4381007 -24.8390436  19.1563880  -5.2853733 -24.9930024  20.2276587
  -5.6105465 -23.7731910  18.9864695  -4.2004275 -25.3031945  18.3552766
  -3.9718652 -26.3416672  18.5994375  -3.3595803 -24.6749687  18.6529207
  -4.2512187 -25.2142119  16.8482184  -2.8574130 -25.2315903  16.3185644
  -2.3274224 -24.3883657  16.7639446  -2.8956237 -25.1232481  15.2336299
  -2.3871632 -26.1748552  16.6003394  -5.0033689 -26.3683605  16.2631691
  -6.0028452 -26.3898778  16.7000508  -4.4903293 -27.2991776  16.5094411
  -5.0612068 -26.2523794  15.1798940  -4.8746252 -23.9337945  16.4107430
  -5.9093440 -23.9345694  16.7566264  -4.8268101 -23.8570833  15.3234935
  -4.3119150 -23.1290436  16.8861556  -8.0945712 -24.0607357  20.0485992
  -9.0784335 -26.0095525  18.7528980  -9.1168809 -23.9199543  14.0577877
 -10.0395405 -23.3887339  13.2364428 -10.7584715 -22.4459410  13.5295653
 -10.0360239 -24.0285635  11.8734729  -9.0024078 -24.2076659  11.5701187
 -10.5371046 -24.9967885  11.9360840 -10.7481027 -23.1296253  10.8460522
 -11.7971635 -23.0354142  11.1342549 -10.3144717 -22.1279097  10.8776176
 -10.6647289 -23.6503601   9.4049412  -9.6407175 -23.5399485   9.0420729
 -10.9301877 -24.7091818   9.3751067 -11.6320097 -22.8613853   8.5111892
 -12.6442277 -23.0489993   8.8754392 -11.4477026 -21.7905664   8.6200190
 -11.5774620 -23.2358027   7.0219535 -11.6131413 -24.3215036   6.9103992
 -12.4786139 -22.8349805   6.5531987 -10.3291333 -22.6892066   6.2994087
 -10.1378655 -21.6635180   6.6216516  -9.4602835 -23.2853508   6.5860754
 -10.4673684 -22.7021527   4.7647583  -9.4930339 -22.4783087   4.3254068
 -10.7455611 -23.7092757   4.4473091 -11.5263832 -21.7131448   4.3092951
 -12.4583733 -21.7491913   4.8675641 -11.4165318 -20.8155656   3.3349741
 -12.2622335 -20.1644087   3.1291816 -10.2461123 -20.6379414   2.3882146
  -9.8328400 -19.6350038   2.5138476  -9.4383448 -21.3440847   2.5915286
 -10.7078886 -20.7928157   0.9266138 -11.4518833 -20.0232267   0.7105852
  -9.8638070 -20.6077456   0.2589767 -11.3279366 -22.1725559   0.6164582
 -12.2027957 -22.3234868   1.2523086 -11.6864145 -22.1701598  -0.4150220
 -10.3805923 -23.3730030   0.7998463 -10.0298917 -23.4238935   1.8327467
 -10.9516633 -24.2851877   0.6147562  -9.1760689 -23.3177519  -0.1562591
  -9.5281184 -23.1652451  -1.1786423  -8.5666245 -22.4513912   0.1091797
  -8.2832617 -24.5717716  -0.1156040  -7.3996025 -24.3866754  -0.7298926
  -7.9374921 -24.7415709   0.9061963  -8.9923209 -25.8369970  -0.6324499
  -9.8326832 -26.0868621   0.0185675  -9.3923265 -25.6493497  -1.6310729
  -8.0423945 -27.0409942  -0.6919494  -8.5854161 -27.9183435  -1.0495072
  -7.6371211 -27.2625089   0.2975698  -7.2133040 -26.8447113  -1.3749923
  20.2338386   2.0935576  -3.3576331  21.1501884   2.2124135  -3.9395612
  19.6041107   2.9694858  -3.5269159  19.7083795   1.2111949  -3.7288377
  20.5720615   1.9524355  -1.8619250  21.1256266   2.8402269  -1.5491082
  21.2312078   1.0952578  -1.7094897  19.3298602   1.8044610  -0.9630472
  18.6444712   2.6300046  -1.1659846  19.6558571   1.8991651   0.0748447
  18.5857248   0.4614708  -1.1194944  19.2195404  -0.3478318  -0.7510224
  18.3974731   0.2680410  -2.1776105  17.2303152   0.4338932  -0.3832651
  16.7502153  -0.5290155  -0.5697491  16.5847027   1.1992490  -0.8190171
  17.3191535   0.6621467   1.1405017  17.8379893   1.6007836   1.3460097
  17.8988671  -0.1436228   1.5956183  15.9154367   0.7321312   1.7734341
  15.3814542  -0.2005735   1.5800722  15.3559530   1.5305687   1.2815601
  15.9219551   1.0118039   3.2891315  14.9084663   1.2809020   3.5939106
  16.5605164   1.8735835   3.4941697  16.3784504  -0.2001279   4.1243145
  17.4043643  -0.4662674   3.8613787  15.7501125  -1.0569724   3.8723773
  16.2902927   0.0400550   5.6449395  16.4948738  -0.9057710   6.1509269
  15.2709019   0.3283277   5.9099019  17.2831321   1.1092096   6.1470604
  16.9671917   2.0973183   5.8060515  18.2621741   0.9129918   5.7049745
  17.4419022   1.1168070   7.6802379  18.3245397   1.7084090   7.9320735
  17.6315641   0.0964781   8.0199724  16.2257040   1.6807203   8.4390450
  15.3099155   1.2225660   8.0597156  16.1541247   2.7531806   8.2462513
  16.2947190   1.4355947   9.9605656  16.1734462   0.3679269  10.1550949
  15.4488921   1.9447279  10.4272807  17.6104772   1.9108772  10.6139064
  17.8285336   2.9322970  10.2951324  18.4427178   1.2841760  10.2866685
  17.5700140   1.8918353  12.1243119  16.6400111   1.4761643  12.7873385
  18.6856413   2.4419333  12.6382983  18.7323964   2.8131703  14.0456426
  19.7745335   2.7610439  14.3710399  18.1437945   2.1305040  14.6638381
  18.2339752   4.2706755  14.1959512  18.5415912   4.8092332  13.2959628
  18.8964999   4.9845669  15.3931010  18.4001946   5.9339762  15.6097829
  19.9265969   5.1939476  15.0935900  18.9628255   4.1894072  16.5967786
  19.7333229   4.7705933  17.8750086  18.7002921   5.8533835  18.4282529
  19.0988326   7.2089577  18.6795580  18.2087100   7.8281772  18.8170242
  19.6496344   7.5989306  17.8197968  19.9697173   7.2356582  19.9519312
  20.3135848   8.2593650  20.1070428  20.8423781   6.6007668  19.7917569
  19.3492568   6.8024975  21.2549424  20.2761865   7.1921277  22.3559666
  21.2181973   6.6611546  22.2111750  19.8235035   6.9155824  23.3093190
  20.4370499   8.2697588  22.3001480  18.0370033   7.4769634  21.4744401
  17.3432159   7.0834368  20.7300758  18.1747353   8.5521358  21.3506842
  17.6805580   7.2321057  22.4760747  19.1425192   5.3249621  21.3184690
  18.4057689   5.0499243  20.5622697  18.7790728   5.0405651  22.3070550
  20.0735831   4.8124087  21.0721159  19.8857021   3.7480983  18.9155769
  20.9428620   5.4942197  17.4239087  16.7780483   4.2820325  14.2413723
  16.1431932   5.4184210  13.9145339  16.6029716   6.5313375  14.0636456
  14.7652054   5.2293748  13.3428967  14.0462172   5.1263481  14.1583121
  14.5274055   6.1489552  12.8041160  14.6686208   4.0228134  12.3882329
  15.5298126   4.0184695  11.7168212  14.7169709   3.1043565  12.9769289
  13.3708537   4.0001929  11.5597606  13.3396673   3.0759245  10.9790540
  12.5173974   3.9742717  12.2404981  13.2152021   5.1974446  10.5998850
  12.2384357   5.1293153  10.1164103  13.2082140   6.1297250  11.1684501
  14.2930377   5.2578193   9.5000941  15.2890897   5.2946031   9.9461782
  14.2419875   4.3415678   8.9081973  14.1151118   6.4662218   8.5574853
  14.8158944   6.3626087   7.7264428  13.1120944   6.4376521   8.1266671
  14.3370569   7.8411919   9.2243427  14.1633201   8.6239725   8.4830379
  13.5897899   7.9938412  10.0058496  15.7257342   7.9603946   9.8251450
  15.8353436   7.5212020  10.8134091  16.7892134   8.5180897   9.2518497
  17.7351046   8.5178149   9.7874427  16.8444908   9.1613722   7.8782797
  15.8590639   9.2174459   7.4111050  17.2068465  10.1856875   7.9875582
  17.8053343   8.4212494   6.9297957  17.8950822   8.9985150   6.0072052
  18.7967968   8.3799857   7.3856050  17.3513365   6.9935799   6.5723473
  17.2721326   6.3957936   7.4827552  16.3610566   7.0357531   6.1140549
  18.3275986   6.3077730   5.5994081  18.4029222   6.9048780   4.6882248
  19.3212616   6.2757933   6.0511547  17.8847909   4.8732141   5.2506167
  17.8154874   4.2980084   6.1762512  16.8886101   4.8894471   4.8035976
  18.8632607   4.1561797   4.3004909  19.8756993   4.2528731   4.6980831
  18.6235130   3.0910027   4.2809182  18.8449073   4.6911705   2.8579152
  17.8598440   4.5194194   2.4190344  19.0290296   5.7675350   2.8566617
  19.9148405   4.0113631   1.9909921  19.8235977   4.3335310   0.9515948
  19.8059452   2.9256323   2.0333496  20.9141493   4.2729607   2.3451310
 -20.0435615 -31.4855099   1.4778373 -20.9115815 -30.8269596   1.4049216
 -19.5530343 -31.5072417   0.5024532 -19.3542421 -31.0605145   2.2104229
 -20.4783869 -32.9041052   1.8858311 -21.1921859 -33.2737851   1.1467180
 -21.0074091 -32.8600097   2.8401136 -19.3112695 -33.9074469   1.9780254
 -18.8434219 -33.9877009   0.9945918 -19.7144628 -34.8940802   2.2156221
 -18.2267904 -33.5489321   3.0148292 -17.7736413 -32.5893855   2.7571729
 -17.4363232 -34.3001866   2.9578707 -18.7477851 -33.4938884   4.4632530
 -19.1541898 -34.4695878   4.7376814 -19.5582724 -32.7658129   4.5372784
 -17.6401949 -33.1002855   5.4572976 -17.2554362 -32.1141958   5.1888710
 -16.8111944 -33.8072205   5.3833735 -18.1591570 -33.0680752   6.9066393
 -18.4652936 -34.0728045   7.2054034 -19.0437829 -32.4299026   6.9580114
 -17.1002114 -32.5399661   7.8905296 -16.7454982 -31.5670037   7.5441396
 -16.2453830 -33.2194543   7.8959423 -17.6681554 -32.3894525   9.3157780
 -17.9781055 -33.3654904   9.6949154 -18.5640585 -31.7667580   9.2702460
 -16.6685486 -31.7463589  10.2976227 -17.2107720 -31.4493918  11.1977720
 -16.2583554 -30.8377552   9.8519266 -15.5212498 -32.6966119  10.6920040
 -15.0618851 -33.1101418   9.7917587 -15.9359062 -33.5368490  11.2528312
 -14.4158447 -32.0270300  11.5311468 -13.8917029 -31.2941194  10.9142339
 -13.6883903 -32.7931166  11.8075252 -14.9277472 -31.3316083  12.8076375
 -15.6007862 -32.0037436  13.3440292 -15.5000198 -30.4430056  12.5331330
 -13.7653184 -30.9369779  13.7400424 -13.0316854 -30.3418493  13.1922579
 -13.2595229 -31.8502498  14.0603113 -14.2241669 -30.1669931  14.9955249
 -13.4828353 -30.3076911  15.7848895 -15.1660848 -30.5705523  15.3728747
 -14.3956327 -28.6858726  14.7594810 -14.7228408 -28.1956339  13.6997807
 -14.0512550 -27.9619598  15.8456802 -14.6107781 -26.6228247  15.9644568
 -14.5758843 -26.1076760  15.0011015 -13.9944756 -26.0560250  16.6669917
 -16.0676324 -26.6516972  16.5033746 -16.3543510 -25.6190825  16.7181981
 -16.2068963 -27.4823880  17.8097379 -17.1659148 -27.2460604  18.2777989
 -15.4170096 -27.1869850  18.5050535 -16.1203694 -28.9212155  17.5993228
 -17.4406159 -29.8207211  17.7283299 -16.9158614 -31.3268399  17.8534544
 -16.9846785 -32.2440052  16.7449141 -15.9829867 -32.6580524  16.6041052
 -17.2713292 -31.7462349  15.8150184 -17.9559469 -33.4000993  17.0763338
 -17.6380181 -33.8617969  18.0123019 -17.8788531 -34.1431832  16.2812459
 -19.4371855 -33.1344199  17.2322607 -19.7608221 -32.4581814  18.5227048
 -19.3974614 -33.0667877  19.3520701 -20.8450699 -32.3494720  18.5763049
 -19.2884707 -31.4748716  18.5389543 -19.9996245 -32.3200655  16.1153424
 -19.7425294 -32.7814746  15.1607311 -19.5857573 -31.3128352  16.1822927
 -21.0815382 -32.2794223  16.2498558 -20.1278162 -34.4593191  17.2301841
 -19.9540353 -34.9575496  16.2752771 -21.1960554 -34.2824268  17.3637998
 -19.7538793 -35.0561261  18.0634153 -18.1213748 -29.4888234  18.9907384
 -18.1945300 -29.7234535  16.4698529 -16.9181371 -27.1539116  15.4452968
 -18.2377136 -26.8846822  15.4820752 -18.8062060 -26.3896418  16.4411151
 -18.9249969 -27.1390080  14.1591847 -19.9599361 -26.7964268  14.2224431
 -18.4203362 -26.5144825  13.4190857 -18.8919389 -28.6136317  13.7033010
 -17.9041696 -29.0391374  13.8922977 -19.6087074 -29.1833568  14.2983794
 -19.2243767 -28.7870932  12.2049594 -19.3869674 -29.8480535  12.0039773
 -20.1554108 -28.2642245  11.9763851 -18.0869699 -28.2795572  11.2922633
 -17.9200923 -27.2141266  11.4639294 -17.1683145 -28.7979913  11.5746868
 -18.3181477 -28.4948969   9.7843421 -17.4164593 -28.1883621   9.2500585
 -18.4580481 -29.5611620   9.5946932 -19.5193207 -27.7134705   9.2163813
 -20.4416180 -28.0871344   9.6660554 -19.4245303 -26.6618943   9.4950724
 -19.6340716 -27.7942443   7.6810664 -20.5346131 -27.2551918   7.3795503
 -18.7769401 -27.2874808   7.2327572 -19.7237420 -29.2262053   7.1976912
 -20.0755620 -29.9442005   7.9340851 -19.4029689 -29.6632195   5.9849596
 -19.5143509 -30.7208061   5.7598519 -18.9265192 -28.8194442   4.8235631
 -18.4696531 -27.8901911   5.1702988 -18.1603861 -29.3718290   4.2754987
 -20.1027012 -28.5044670   3.8817030 -20.6204104 -29.4361520   3.6442098
 -20.8188081 -27.8660107   4.4032687 -19.6828318 -27.8288126   2.5619677
 -19.0415764 -28.5230088   2.0148410 -20.5779719 -27.6609850   1.9594553
 -18.9392412 -26.4916325   2.7519551 -19.4689631 -25.9059405   3.5061598
 -17.9392946 -26.6860127   3.1453866 -18.8214540 -25.6217003   1.4799443
 -19.8207426 -25.3571653   1.1279425 -18.3496201 -24.6833634   1.7788754
 -17.9857278 -26.2036443   0.3154476 -17.6797068 -25.3684616  -0.3180228
 -17.0654941 -26.6346002   0.7153353 -18.6807132 -27.2433829  -0.5936107
 -17.9749036 -27.5482678  -1.3690734 -18.9233863 -28.1484532  -0.0328771
 -19.9539196 -26.7192912  -1.2791423 -20.3244829 -27.4558187  -1.9951560
 -19.7480059 -25.7913256  -1.8166763 -20.7414174 -26.5356278  -0.5452627
 -14.7141051  -2.8741795   2.3069537 -13.7142003  -2.9804549   1.8810907
 -15.4330790  -3.3078182   1.6087432 -14.7531211  -3.4369025   3.2419854
 -15.0304472  -1.3898529   2.5535995 -14.9671483  -0.8503462   1.6062930
 -14.2747295  -0.9689354   3.2200697 -16.4333129  -1.1892176   3.1511313
 -16.5515649  -1.8579674   4.0062645 -17.1652687  -1.4945009   2.4004611
 -16.7296135   0.2693626   3.5698423 -17.8095281   0.4304306   3.5873231
 -16.3288736   0.9350549   2.8025585 -16.1346233   0.6944170   4.9298769
 -15.9008789   1.7598520   4.8781464 -15.1866424   0.1787517   5.0968611
 -17.0724368   0.4850008   6.1399406 -17.9385710   1.1401482   6.0256761
 -16.5448225   0.8063169   7.0404083 -17.5660658  -0.9642323   6.3204324
 -16.7072463  -1.6313799   6.4194643 -18.1100869  -1.2619986   5.4216343
 -18.5155201  -1.1794175   7.5127745 -18.8091457  -2.2311063   7.5268412
 -19.4248462  -0.5951719   7.3570561 -17.9153585  -0.8274782   8.8844460
 -17.7223814   0.2461404   8.9350998 -16.9619656  -1.3445275   9.0115952
 -18.8729191  -1.2322401  10.0201130 -19.0003347  -2.3166689  10.0045025
 -19.8536086  -0.7850119   9.8448998 -18.3644211  -0.8003573  11.4059091
 -18.3069122   0.2895754  11.4406013 -17.3549497  -1.1896661  11.5537870
 -19.2807710  -1.3161805  12.5333023 -19.3606508  -2.4019909  12.4490428
 -20.2864361  -0.9099106  12.4066293 -18.7626207  -0.9759140  13.9430118
 -17.7269316  -1.3121842  14.0250528 -19.3452191  -1.5486827  14.6675658
 -18.8532019   0.5238616  14.3047607 -19.9051535   0.8137060  14.3478000
 -18.3911800   1.1228488  13.5172248 -18.1746364   0.8913697  15.6433511
 -18.3609092   1.9448356  15.8623838 -17.0923257   0.7694086  15.5646741
 -18.6906528   0.0721960  16.7985821 -19.6730816   0.3581863  17.4455023
 -17.9555440  -1.0447153  17.0132613 -18.4594512  -1.9253013  18.0634260
 -19.5146620  -2.1297798  17.8650069 -18.3922327  -1.4159676  19.0281594
 -17.7112460  -3.2873333  18.1245232 -18.4178591  -4.0082300  18.5436368
 -16.4907146  -3.3319774  19.0846050 -15.8356822  -4.1548419  18.7871528
 -16.8535864  -3.5401559  20.0943732 -15.7398188  -2.0874785  19.1482115
 -14.1851819  -2.0243058  18.7943268 -14.1748810  -2.0321386  17.2163153
 -14.7008729  -0.8988878  16.5082002 -13.9067936  -0.1746323  16.3093567
 -15.4695535  -0.4110528  17.1130121 -15.3357184  -1.4013438  15.2026081
 -15.6771767  -0.5380857  14.6294832 -16.2042403  -2.0080161  15.4631829
 -14.4857335  -2.2298709  14.2738628 -13.1367397  -1.6175315  14.0778291
 -13.2607794  -0.5937912  13.7216675 -12.5762916  -2.2124049  13.3551240
 -12.6309395  -1.6092341  15.0444627 -14.3202031  -3.6154106  14.8056591
 -15.3011703  -3.9965764  15.0932288 -13.6861432  -3.5692936  15.6922948
 -13.8770020  -4.2533967  14.0396118 -15.1634955  -2.3221669  12.9476523
 -16.1671066  -2.7234253  13.0960953 -14.5859230  -2.9858214  12.3024750
 -15.2208793  -1.3225445  12.5143588 -13.6160016  -0.7434744  19.2524588
 -13.5262024  -3.2407856  19.3006587 -17.3371899  -3.7797052  16.7997277
 -18.3320498  -4.2463195  16.0151541 -19.5074749  -4.2219827  16.3096428
 -17.7893853  -4.8226595  14.7285724 -17.3951101  -4.0018100  14.1259003
 -16.9584918  -5.4835993  14.9839902 -18.8448644  -5.6135565  13.9256155
 -19.3112350  -6.3513356  14.5818520 -19.6290755  -4.9302661  13.5930622
 -18.2692218  -6.3543361  12.7020371 -17.4773037  -7.0299029  13.0320966
 -19.0495479  -6.9859278  12.2723329 -17.7403474  -5.4124826  11.6014838
 -18.5684741  -4.8145646  11.2152660 -17.0042658  -4.7225913  12.0194530
 -17.0872831  -6.1947745  10.4472494 -16.2049615  -6.7160881  10.8243465
 -17.7873707  -6.9516057  10.0873196 -16.6745412  -5.2912080   9.2686635
 -17.5763130  -4.9169198   8.7796050 -16.1358666  -4.4219932   9.6517569
 -15.7788980  -5.9968346   8.2273597 -15.6222332  -5.3207576   7.3842490
 -14.8018956  -6.1808312   8.6791074 -16.3539720  -7.3158234   7.7578586
 -16.5363276  -8.0360061   8.5513639 -16.6513741  -7.6584136   6.5077215
 -17.0600009  -8.6480159   6.3198882 -16.4815867  -6.8069494   5.2642983
 -15.7109690  -6.0459489   5.4039019 -16.1406255  -7.4441034   4.4456136
 -17.7996385  -6.1301309   4.8385319 -17.6266825  -5.6207281   3.8882375
 -18.5617197  -6.8924034   4.6634987 -18.3158958  -5.1171440   5.8810502
 -18.5217083  -5.6397688   6.8175161 -17.5313759  -4.3850517   6.0836202
 -19.5931256  -4.3674058   5.4628122 -20.4271245  -5.0687408   5.3918219
 -19.8463511  -3.6585626   6.2539387 -19.4419110  -3.5964543   4.1395241
 -18.4831488  -3.0737454   4.1358772 -19.4307995  -4.2981693   3.3029020
 -20.5699849  -2.5706792   3.9368251 -21.5348887  -3.0819666   3.9399797
 -20.5663395  -1.8653661   4.7704822 -20.4079437  -1.7914470   2.6215154
 -19.4235218  -1.3195643   2.5950041 -20.4636431  -2.4849977   1.7798808
 -21.4801455  -0.7044040   2.4657823 -21.3850451   0.0349796   3.2637367
 -22.4799514  -1.1409151   2.5138539 -21.3661957  -0.1953090   1.5064587
   7.1546310 -37.2165728   3.0486444   6.2020755 -36.6854668   3.1036699
   7.5903177 -37.0236087   2.0660947   7.8229368 -36.8092823   3.8101855
   6.9409597 -38.7236476   3.2693046   6.3685536 -39.1361475   2.4358423
   6.3493162 -38.8579106   4.1772661   8.2494181 -39.5120001   3.4231883
   8.8379294 -39.0526915   4.2201537   8.8285357 -39.4406033   2.5001574
   7.9921466 -40.9981966   3.7375563   7.4482119 -41.4498043   2.9053000
   7.3465097 -41.0675383   4.6155134   9.2763489 -41.8127823   3.9924356
   9.8927581 -41.8065786   3.0910674   8.9991564 -42.8501797   4.1910219
  10.1043642 -41.2711811   5.1715553   9.4507211 -41.1250782   6.0340333
  10.5046988 -40.2955675   4.8880634  11.2640846 -42.1991014   5.5775148
  11.9015539 -42.3736620   4.7082478  10.8583200 -43.1646252   5.8866769
  12.1420312 -41.6317606   6.7096043  12.9015732 -42.3781061   6.9515187
  11.5374482 -41.4745474   7.6052761  12.8197432 -40.3134823   6.2894833
  12.0435584 -39.5505834   6.2001508  13.2544637 -40.4394674   5.2956980
  13.9070415 -39.7649932   7.2305715  14.3156397 -38.8606119   6.7749298
  14.7291648 -40.4802561   7.3011178  13.3918071 -39.4143629   8.6397541
  13.1245148 -40.3290939   9.1729355  12.4883556 -38.8075376   8.5502917
  14.4511318 -38.6326933   9.4412243  14.6791685 -37.7018428   8.9177936
  15.3742146 -39.2153358   9.4713712  14.0365195 -38.3018064  10.8878064
  14.8866630 -37.8303957  11.3852918  13.8265872 -39.2301273  11.4231706
  12.8176534 -37.3634100  10.9962618  11.9321442 -37.8622985  10.5969501
  12.9919982 -36.4675474  10.3966784  12.5618827 -36.9544220  12.4622071
  13.4495902 -36.4579034  12.8595841  12.3820806 -37.8406882  13.0743062
  11.3817978 -36.0266948  12.6177227  10.4116631 -36.0302424  11.8884480
  11.5435803 -35.1855779  13.6608708  10.4359722 -34.3174028  14.0396202
   9.8571014 -34.0218425  13.1608701  10.8539367 -33.4150314  14.4931376
   9.5128590 -34.9944305  15.0838912   8.7448883 -34.2748833  15.3790557
  10.2916014 -35.3973460  16.3531995  11.2581670 -34.8878717  16.3821208
  10.4659188 -36.4761114  16.3762641   9.5343137 -34.9729991  17.5120187
   8.8010949 -36.0276413  18.4606993   7.6117480 -36.5657735  17.5438476
   7.5602090 -37.9075384  17.0216668   8.4371835 -38.0768895  16.3916767
   6.6599351 -38.0004978  16.4088726   7.5268096 -38.9544344  18.1613863
   8.5060936 -38.9437628  18.6421883   7.3897618 -39.9452472  17.7257407
   6.5207815 -38.8337588  19.2879021   5.6464916 -40.0389814  19.2943454
   5.1045525 -40.0568628  18.3476329   4.9108338 -39.9235582  20.0916958
   6.2521005 -40.9359169  19.4322503   7.2641706 -38.7538147  20.5776787
   7.9076350 -37.8743434  20.5250573   7.8694838 -39.6539807  20.6941938
   6.5409684 -38.6506391  21.3879967   5.6374681 -37.6357508  19.2284453
   6.2368101 -36.7523599  19.4535923   4.8204339 -37.7565765  19.9412835
   5.2130324 -37.5598812  18.2262576   9.7122544 -37.1449614  18.7540615
   8.1304783 -35.3029132  19.5525134   8.8875717 -36.1749768  14.5123339
   7.8469867 -35.9716511  13.6802554   7.3147655 -34.8885560  13.5289502
   7.4069828 -37.2336030  12.9819405   8.2302636 -37.9508066  12.9989409
   6.5743107 -37.6683617  13.5388112   6.9888145 -36.9554329  11.5228069
   6.2265748 -36.1735010  11.5168583   7.8415406 -36.5688515  10.9607780
   6.4099157 -38.1956792  10.8162665   5.5482054 -38.5428762  11.3901758
   6.0309929 -37.9002094   9.8356658   7.3947942 -39.3702412  10.6428719
   7.7383530 -39.7038865  11.6242552   6.8556923 -40.2112103  10.2017283
   8.6212361 -39.0573931   9.7606993   9.1933817 -38.2369184  10.1988006
   9.2728686 -39.9336576   9.7616994   8.2492357 -38.7198114   8.3007067
   7.6095450 -39.5135021   7.9091507   7.6752031 -37.7916169   8.2632607
   9.4788152 -38.5899687   7.3833507  10.1031959 -39.4751811   7.5212330
   9.1362709 -38.5749078   6.3465774  10.2888572 -37.3476768   7.6824874
  10.1456034 -36.9312406   8.6762828  11.0788071 -36.7113519   6.8227750
  11.5734518 -35.8003116   7.1497309  11.4389944 -37.1600223   5.4175848
  12.4852729 -37.4725103   5.4284334  10.8457887 -38.0189824   5.0970280
  11.2972200 -36.0319853   4.3796465  10.2547598 -35.9559679   4.0634775
  11.5539026 -35.0805926   4.8502088  12.2234404 -36.2357020   3.1581697
  12.1759415 -35.3512406   2.5194746  13.2531369 -36.3033867   3.5153905
  11.9342256 -37.4810147   2.2970136  12.7708447 -37.6268721   1.6105305
  11.8793106 -38.3716726   2.9264387  10.6412399 -37.3378801   1.4766170
   9.7943461 -37.2595644   2.1615261  10.6851578 -36.4124298   0.8986206
  10.4169869 -38.5136938   0.5092932  11.2441540 -38.5386109  -0.2031922
  10.4425037 -39.4548845   1.0624405   9.0806651 -38.3953142  -0.2522478
   8.2622564 -38.2980156   0.4641341   9.0871048 -37.4899554  -0.8627793
   8.7859523 -39.6098351  -1.1466040   7.8144157 -39.4937253  -1.6314755
   8.7689984 -40.5273819  -0.5547537   9.5463204 -39.7095513  -1.9240092
  -5.2966720 -37.6056528   2.4378105  -5.1438123 -37.4557686   3.5086200
  -5.8142513 -36.7292356   2.0422490  -4.3230692 -37.6748371   1.9481438
  -6.1233455 -38.8730955   2.1633613  -6.3193828 -38.9286733   1.0905408
  -7.0916766 -38.7826014   2.6599595  -5.4394847 -40.1843309   2.6035401
  -4.5749590 -40.3670406   1.9619186  -6.1312824 -41.0142851   2.4452302
  -4.9724841 -40.1976156   4.0702894  -4.2111349 -39.4267082   4.2063388
  -4.4986004 -41.1589909   4.2792320  -6.1042011 -39.9695826   5.0870782
  -6.8349099 -40.7757998   4.9946395  -6.6176379 -39.0316916   4.8652619
  -5.5679595 -39.9238634   6.5300530  -4.8861837 -39.0792584   6.6495788
  -4.9926859 -40.8332157   6.7160618  -6.6996902 -39.8275781   7.5677973
  -6.3000315 -40.0627422   8.5564512  -7.4400568 -40.5966949   7.3380530
  -7.3792863 -38.4425831   7.6324761  -7.4797916 -38.0186200   6.6311681
  -6.7521417 -37.7651787   8.2158083  -8.7791538 -38.5541296   8.2605594
  -8.7234759 -39.2064118   9.1345674  -9.4333488 -39.0478396   7.5389361
  -9.4455612 -37.2205997   8.6493963 -10.4967654 -37.4163198   8.8710451
  -9.4277239 -36.5408659   7.7949345  -8.8241798 -36.5191317   9.8716426
  -9.4367671 -35.6438470  10.0976431  -7.8249723 -36.1565089   9.6215355
  -8.7402356 -37.4219084  11.1211288  -7.9681170 -38.1775284  10.9619641
  -9.6858060 -37.9503107  11.2595093  -8.3949196 -36.6432762  12.4035680
  -7.5711828 -35.9590507  12.1896589  -8.0269080 -37.3422074  13.1575751
  -9.5822972 -35.8427739  12.9848158 -10.0643134 -35.2682686  12.1910501
  -9.1880357 -35.1212478  13.7034380 -10.6528878 -36.6915202  13.7031102
 -11.0801733 -37.4233985  13.0144536 -11.4671862 -36.0497928  14.0459919
 -10.0736129 -37.3983526  14.9025857  -9.3622881 -36.8552995  15.7212853
 -10.3958642 -38.7030315  14.9414575  -9.6225691 -39.6034336  15.7928467
 -10.2715480 -40.4441786  16.0509622  -9.3339628 -39.1101408  16.7245209
  -8.3800042 -40.1532459  15.0219727  -8.1315339 -41.1460400  15.4057276
  -7.1205032 -39.2505670  15.1480782  -7.3890197 -38.2558560  15.5128980
  -6.6656137 -39.1372395  14.1607165  -6.1179525 -39.8305202  16.0328031
  -6.3435775 -39.9539709  17.6108301  -7.1581036 -41.3222313  17.7335501
  -6.4787173 -42.5790024  17.8621519  -5.6201208 -42.6002073  17.1861243
  -7.1659148 -43.3813763  17.5817859  -6.0265619 -42.7565956  19.3289328
  -5.2368927 -42.0325661  19.5350564  -5.6105250 -43.7592745  19.4376910
  -7.0562613 -42.5794220  20.4229665  -8.3505303 -43.2506275  20.0845003
  -8.7545830 -42.7674150  19.1936958  -9.0398669 -43.1280231  20.9211969
  -8.1629413 -44.3078995  19.8914576  -6.5205967 -43.1776953  21.6830325
  -5.5857551 -42.6749754  21.9352746  -6.3459885 -44.2421389  21.5194654
  -7.2543538 -43.0330944  22.4773693  -7.3170149 -41.1288357  20.6837797
  -6.3597119 -40.6188631  20.8011818  -7.9350495 -41.0238028  21.5766859
  -7.8293484 -40.7067871  19.8179436  -5.0392044 -40.1244736  18.2759273
  -7.2462302 -38.8923907  18.0762553  -8.6982775 -40.3000069  13.6088371
  -9.5989370 -41.2299490  13.2395339 -10.0879729 -42.0584488  13.9927781
  -9.9332041 -41.1597061  11.7734241  -9.1270101 -40.6449366  11.2466133
  -9.9875754 -42.1764469  11.3787854 -11.2718034 -40.4360914  11.5231514
 -12.0800531 -40.9542847  12.0434141 -11.2182391 -39.4224477  11.9257987
 -11.5653074 -40.3848219  10.0129902 -10.7002616 -39.9525070   9.5057815
 -11.6693223 -41.4068890   9.6428192 -12.8139615 -39.5771694   9.6100783
 -13.7083042 -40.0767088   9.9883336 -12.7762604 -38.5784531  10.0500882
 -12.8846419 -39.4621921   8.0738771 -12.0881093 -38.8011122   7.7260643
 -12.6845181 -40.4403400   7.6315641 -14.2275798 -38.9707041   7.5105661
 -14.1696942 -39.0322185   6.4218378 -15.0326526 -39.6374559   7.8264195
 -14.5636535 -37.5253749   7.9110277 -14.8861063 -37.4979115   8.9539725
 -13.6618710 -36.9131017   7.8448784 -15.6488502 -36.9583488   7.0194077
 -16.6530204 -36.9772053   7.4351656 -15.4532421 -36.4512181   5.8045512
 -16.3033748 -36.0676813   5.2462101 -14.1219854 -36.3863182   5.0764948
 -13.8630116 -35.3433609   4.8824909 -13.3170450 -36.8024087   5.6859231
 -14.1517925 -37.1490717   3.7390381 -13.1411564 -37.1765447   3.3263341
 -14.4334352 -38.1857204   3.9352480 -15.1114464 -36.5632129   2.6826891
 -15.0682425 -37.1903610   1.7897822 -16.1371624 -36.6186261   3.0532292
 -14.8130679 -35.1066875   2.2753415 -15.5223036 -34.8206377   1.4958408
 -14.9910426 -34.4393539   3.1211862 -13.3831549 -34.8876262   1.7474909
 -12.6696622 -34.9633145   2.5706935 -13.1388724 -35.6663322   1.0219516
 -13.2493830 -33.5128236   1.0723557 -13.9600694 -33.4603477   0.2449302
 -13.5168397 -32.7317739   1.7871226 -11.8383121 -33.2419014   0.5286721
 -11.1337888 -33.1719613   1.3600680 -11.5260041 -34.0802813  -0.0974619
 -11.7878628 -31.9481111  -0.3005767 -10.7887053 -31.7992520  -0.7152915
 -12.0412493 -31.0844612   0.3177827 -12.4944222 -31.9978762  -1.1316963
 -15.2858388 -19.7953320   0.9989503 -14.3771219 -19.2237306   0.7990251
 -15.7949078 -19.3406606   1.8513504 -15.9356987 -19.7241271   0.1242644
 -14.9317670 -21.2645531   1.2870017 -14.2796528 -21.3138962   2.1615168
 -14.3615043 -21.6576838   0.4427789 -16.1629152 -22.1662283   1.5037340
 -15.8252692 -23.1877470   1.6907164 -16.7408943 -22.1967125   0.5777352
 -17.0929670 -21.7348385   2.6547214 -17.8861451 -22.4791121   2.7516282
 -17.5768113 -20.7891035   2.4018502 -16.3686073 -21.5913463   4.0075019
 -15.6748426 -20.7489729   3.9680043 -15.7848275 -22.4944472   4.1974369
 -17.3690772 -21.3748121   5.1567304 -17.9933560 -22.2666597   5.2424443
 -18.0297494 -20.5407882   4.9110055 -16.7169166 -21.1018109   6.5236247
 -17.5101161 -21.0130382   7.2688884 -16.1862957 -20.1479149   6.4922297
 -15.7399070 -22.2102499   6.9468886 -14.8108387 -22.1117640   6.3815594
 -16.1716449 -23.1786776   6.6857117 -15.4223967 -22.2334695   8.4519088
 -14.7618771 -23.0877018   8.6145836 -16.3371933 -22.4609208   9.0031570
 -14.7301996 -20.9809113   9.0435374 -13.9808404 -20.6129313   8.3396083
 -14.1837835 -21.3054919   9.9315357 -15.6470370 -19.8127723   9.4792169
 -16.0411000 -19.2935801   8.6030787 -15.0404060 -19.0921080  10.0315797
 -16.8187284 -20.2816415  10.3625560 -16.4511633 -21.0283947  11.0694623
 -17.5417638 -20.7917500   9.7226560 -17.5780880 -19.1725373  11.1227107
 -17.9037654 -18.4112096  10.4108274 -18.4883559 -19.6112764  11.5366971
 -16.8040729 -18.4863460  12.2733760 -17.5039208 -17.8547060  12.8244734
 -16.0632133 -17.8149033  11.8343365 -16.0764492 -19.4120681  13.2805359
 -15.2532041 -19.9274433  12.7814186 -15.6343949 -18.7941635  14.0649104
 -16.9595492 -20.4618144  13.9211464 -17.5456285 -21.3029432  13.2824969
 -16.9785929 -20.3949809  15.2699792 -17.6084507 -21.4980245  16.0018003
 -18.4006000 -21.9656754  15.4115033 -18.0692542 -21.0922861  16.9060600
 -16.5566719 -22.5677299  16.4124084 -17.0853710 -23.4492755  16.7838955
 -15.6676638 -22.0646095  17.5801301 -15.8324075 -22.6869583  18.4634137
 -15.9490502 -21.0394740  17.8342319 -14.2615545 -22.0683336  17.2249901
 -13.2753575 -23.2788062  17.5673234 -12.1752238 -22.5327611  18.4363520
 -10.9715056 -23.2351542  18.7608600 -10.1753151 -22.5246501  18.9973223
 -10.6617391 -23.8278103  17.8963077 -11.2427557 -24.1762686  19.9455369
 -10.3687644 -24.8128366  20.0911403 -12.0989823 -24.8058796  19.6990716
 -11.5327966 -23.5804796  21.2817574 -12.8690553 -22.9170871  21.2762690
 -12.8122878 -22.0574784  20.6068444 -13.1360531 -22.6149464  22.2900248
 -13.5905445 -23.6247301  20.8651972 -11.5448868 -24.6932602  22.2716618
 -10.5687726 -25.1791120  22.2338343 -12.3279524 -25.3956485  21.9822836
 -11.7356324 -24.2856288  23.2655096 -10.4633653 -22.6136565  21.6647100
  -9.5035213 -23.1162453  21.5366912 -10.6091213 -22.3024225  22.7001643
 -10.5187559 -21.7618728  20.9852409 -13.9358020 -24.2559004  18.4532666
 -12.6238060 -23.7127876  16.3206220 -15.7487881 -22.9377246  15.2488887
 -16.3269126 -23.7715340  14.3603563 -17.4140084 -24.2683291  14.5559156
 -15.4953456 -23.9945483  13.1171548 -15.4826581 -23.0609441  12.5508642
 -14.4671106 -24.2237067  13.4047031 -16.0700083 -25.1315546  12.2424471
 -15.8496845 -26.0979939  12.7006149 -17.1574676 -25.0362873  12.2138453
 -15.5977619 -25.1142120  10.7788324 -16.1404467 -25.8874297  10.2310276
 -15.9085155 -24.1619420  10.3440058 -14.0829515 -25.2873468  10.5441320
 -13.8896358 -25.1911569   9.4736928 -13.5512948 -24.4668913  11.0306025
 -13.4831226 -26.6222429  11.0302699 -12.4455345 -26.6776133  10.6943977
 -13.4525788 -26.6159987  12.1218240 -14.2330778 -27.8905869  10.5602479
 -13.6806917 -28.7671089  10.9052718 -15.2065909 -27.9260063  11.0536849
 -14.4541514 -28.0092788   9.0382951 -14.9801290 -28.9463806   8.8442522
 -15.1027453 -27.2008681   8.6944032 -13.1410980 -28.0207968   8.2884765
 -12.4000990 -28.7148666   8.6767530 -12.8204882 -27.2374082   7.2642827
 -11.8289721 -27.3273277   6.8279558 -13.7379277 -26.2684417   6.5490508
 -14.7815895 -26.5827584   6.6156727 -13.6532593 -25.2793407   7.0039940
 -13.3222449 -26.1772156   5.0708574 -12.2459269 -26.0012603   5.0156987
 -13.5189939 -27.1422839   4.5992669 -14.0414655 -25.0608897   4.2902043
 -15.1188898 -25.2387142   4.2900071 -13.8678777 -24.1092014   4.7967860
 -13.5300946 -24.9454737   2.8396285 -13.9080966 -24.0144897   2.4120232
 -12.4407911 -24.8695993   2.8507584 -13.9540398 -26.1308455   1.9453150
 -13.6679292 -27.0681167   2.4271138 -15.0415337 -26.1396122   1.8466055
 -13.3096552 -26.1109138   0.5452562 -12.2236180 -26.1237025   0.6584992
 -13.5815895 -27.0301151   0.0222053 -13.7250638 -24.9076676  -0.3240144
 -14.7971416 -24.9610043  -0.5246829 -13.5411870 -23.9738870   0.2114339
 -12.9549301 -24.8695517  -1.6554642 -13.3245265 -24.0574694  -2.2850578
 -13.0763388 -25.8092833  -2.1982600 -11.8885410 -24.7121835  -1.4807861
   7.7214497 -12.6066482   1.5151323   7.4989015 -11.9141662   0.7006358
   8.5102767 -13.2841134   1.1815811   8.0930859 -12.0323610   2.3663343
   6.4595824 -13.3924520   1.9041036   6.0831380 -13.9310837   1.0319630
   5.6788009 -12.6933551   2.2108719   6.7233407 -14.3891382   3.0448627
   7.1506011 -13.8530791   3.8948941   7.4564993 -15.1283014   2.7153462
   5.4280198 -15.1023698   3.4779999   4.9616620 -15.5515683   2.5986847
   4.7223231 -14.3676233   3.8711971   5.6561077 -16.2122238   4.5213386
   6.2921339 -16.9826448   4.0804446   4.6930617 -16.6778994   4.7407705
   6.2837571 -15.7544100   5.8502096   7.2362679 -15.2584696   5.6521451
   6.5054542 -16.6418660   6.4466459   5.3854978 -14.8160505   6.6778105
   4.4350290 -15.3108883   6.8880695   5.1715052 -13.9092255   6.1083031
   6.0709804 -14.4358432   8.0014014   7.0200050 -13.9503944   7.7644312
   6.2992048 -15.3452635   8.5611629   5.2145672 -13.5033107   8.8813210
   4.2519951 -13.9814317   9.0745038   5.0134587 -12.5755286   8.3416545
   5.8859015 -13.1764913  10.2314126   6.0691881 -14.1110885  10.7656384
   5.1955473 -12.5863123  10.8376837   7.2082376 -12.3982251  10.0744891
   7.0036501 -11.4544451   9.5646983   7.8982395 -12.9618382   9.4430614
   7.9258347 -12.0977640  11.4025915   7.2768092 -11.4900982  12.0366049
   8.8170666 -11.5076697  11.1790788   8.3401197 -13.3599114  12.1791661
   8.6707348 -14.1246378  11.4732265   7.4710059 -13.7624860  12.7036083
   9.4864577 -13.1091785  13.1797063  10.3962862 -12.9186225  12.6066756
   9.6660608 -14.0264213  13.7443948   9.2887193 -11.9271255  14.1617131
  10.2029848 -11.8381631  14.7521913   9.1647261 -10.9949815  13.6065590
   8.1357598 -12.0697117  15.1321769   7.6344663 -11.1160064  15.7040763
   7.7224535 -13.3313882  15.2968121   6.6417444 -13.6357856  16.2127650
   5.8313644 -12.9191971  16.0564506   7.0078808 -13.5524118  17.2392356
   6.0909390 -15.0632703  15.9517455   5.1171428 -15.1497936  16.4405012
   7.0140541 -16.1730850  16.5155292   6.6140544 -17.1636653  16.2844503
   7.0533502 -16.0821939  17.6040339   8.3435994 -16.0649645  15.9541810
   9.6221113 -15.8649874  16.8784451  10.0009310 -17.3696363  17.1909428
  11.3369489 -17.6973224  17.5844765  11.8957973 -16.7949677  17.8454256
  11.8416667 -18.1798446  16.7435956  11.2566328 -18.6431491  18.7984765
  12.2782815 -18.8956273  19.0861726  10.7554412 -19.5685244  18.5107839
  10.5748177 -18.1506693  20.0459361   9.0913522 -18.1241155  19.8962128
   8.8428336 -17.3727143  19.1452682   8.6342293 -17.8677571  20.8530807
   8.7523615 -19.1075134  19.5671296  10.9091198 -19.0964246  21.1474609
  11.9954002 -19.1515517  21.2325358  10.5004156 -20.0720549  20.8802724
  10.4556501 -18.7316644  22.0702791  11.0390556 -16.7818868  20.4151964
  12.1287227 -16.7859161  20.4689455  10.5842733 -16.5051079  21.3674808
  10.6970143 -16.1006069  19.6347165  10.7256031 -15.2885222  16.0891855
   9.2243505 -15.2568078  18.1655335   5.9190828 -15.2291536  14.5166540
   5.3070951 -16.3325059  14.0681207   4.6163052 -17.0482779  14.7642827
   5.6007624 -16.6063523  12.6153064   4.6702111 -16.5448260  12.0471942
   6.2626284 -15.8296800  12.2264922   6.2522775 -17.9949296  12.4267721
   5.5450559 -18.7661624  12.7390265   6.4403063 -18.1488836  11.3621569
   7.5680757 -18.2033956  13.2069194   7.3854160 -18.0360651  14.2704499
   7.8764224 -19.2460525  13.1056595   8.7189549 -17.2890472  12.7442443
   8.3535445 -16.2705946  12.5969648   9.4665164 -17.2413945  13.5388160
   9.4013250 -17.8004289  11.4608908  10.0082994 -18.6727083  11.7122364
   8.6462408 -18.1254280  10.7420814  10.2821767 -16.7311752  10.7888007
   9.6385980 -15.9953070  10.3022134  10.8475816 -16.1953461  11.5540898
  11.2701797 -17.3113716   9.7560537  11.8674493 -16.5029311   9.3292564
  11.9700336 -17.9751372  10.2679932  10.5778491 -18.0908966   8.6578226
  10.6366229 -19.1719401   8.7551004   9.9600869 -17.5647163   7.6057279
   9.5168126 -18.2262540   6.8658316   9.7946090 -16.0850418   7.3317468
   8.7820607 -15.7916629   7.6165950  10.4864419 -15.4853916   7.9269356
   9.9778509 -15.7551336   5.8397204   9.2962438 -16.3805783   5.2594656
   9.6765804 -14.7182477   5.6767255  11.4217687 -15.9370148   5.3251272
  12.0940149 -15.3336954   5.9387678  11.7320848 -16.9784844   5.4324192
  11.5691423 -15.4991364   3.8534081  11.1290956 -14.5066440   3.7360111
  12.6309907 -15.4111779   3.6142299  10.9125459 -16.4794099   2.8586775
  11.5293205 -17.3775697   2.7854553   9.9373209 -16.7943752   3.2357678
  10.6950891 -15.8867109   1.4537375  10.2341151 -16.6537321   0.8279234
   9.9829447 -15.0620937   1.5266882  11.9744468 -15.3881741   0.7582148
  12.4493265 -14.6146357   1.3653302  12.6825869 -16.2139785   0.6630831
  11.6688192 -14.8108518  -0.6356063  12.5832522 -14.4433570  -1.1059518
  10.9645343 -13.9796472  -0.5611400  11.2337089 -15.5767667  -1.2809870
 -24.3615437 -32.3990440   0.0196884 -24.2735505 -33.4717107   0.2043820
 -23.6874771 -32.1346116  -0.7977309 -25.3859854 -32.1828794  -0.2905658
 -24.0014982 -31.6075349   1.2873302 -22.9734683 -31.8391967   1.5735970
 -24.6458340 -31.9364190   2.1053343 -24.1458607 -30.0883126   1.0831916
 -25.1953268 -29.8581481   0.8879840 -23.5824680 -29.7998285   0.1933440
 -23.6405277 -29.2365646   2.2663695 -23.7776136 -28.1803679   2.0252877
 -22.5660706 -29.3985677   2.3748098 -24.3191409 -29.5354128   3.6174351
 -23.8315773 -28.9411378   4.3930519 -24.1592836 -30.5852604   3.8718563
 -25.8292437 -29.2350078   3.6327574 -26.3251257 -29.7983575   2.8395364
 -25.9861732 -28.1746173   3.4244031 -26.4801574 -29.5961118   4.9806514
 -26.0005379 -29.0175366   5.7729137 -26.3048506 -30.6515050   5.1994538
 -27.9978395 -29.3269968   4.9766937 -28.4558821 -29.8739767   4.1499677
 -28.1791592 -28.2660246   4.7925109 -28.6992741 -29.7398400   6.2845564
 -28.6129904 -30.8217192   6.4052141 -29.7618604 -29.5052242   6.1932933
 -28.1423426 -29.0325928   7.5355768 -28.1306577 -27.9549932   7.3592001
 -27.1091175 -29.3412519   7.7077353 -28.9731598 -29.3031907   8.8043356
 -29.9703598 -28.8787150   8.6706346 -28.5117626 -28.7682128   9.6370286
 -29.1058803 -30.7865405   9.2023849 -29.6580100 -31.3387322   8.4390372
 -29.6960783 -30.8359718  10.1198196 -27.7397609 -31.4566112   9.4420856
 -27.0971274 -30.7616258   9.9865866 -27.2580433 -31.6701007   8.4856153
 -27.8653193 -32.7495766  10.2661073 -28.4768677 -33.4788322   9.7307032
 -28.3803248 -32.5110984  11.1990392 -26.4906788 -33.3659005  10.5909479
 -25.7308626 -32.5824261  10.6270921 -26.1962175 -34.0722775   9.8119819
 -26.5080333 -34.0593576  11.9285202 -27.1942997 -35.0246549  12.1786380
 -25.7008600 -33.4584308  12.8255141 -25.6380868 -34.0370846  14.1605926
 -25.4210162 -35.1054764  14.0826702 -26.6116190 -33.9276910  14.6452749
 -24.5457768 -33.3407378  15.0202215 -24.4041824 -33.9237738  15.9338248
 -24.9611020 -31.8940473  15.3841007 -25.8907485 -31.9049120  15.9588110
 -25.1112676 -31.3227391  14.4644773 -23.9270639 -31.2443280  16.1760437
 -23.6386585 -31.7560101  17.6636684 -22.7656126 -30.5942154  18.3009624
 -23.4109235 -29.4237876  18.8139760 -24.0966129 -29.7190380  19.6122909
 -23.9779568 -28.9471459  18.0102766 -22.3355055 -28.4744906  19.3809521
 -21.7061210 -29.0424800  20.0676417 -22.8094769 -27.6725698  19.9488914
 -21.3895893 -27.7996254  18.4210205 -22.0548177 -26.7411280  17.6153171
 -22.9296660 -27.1640038  17.1192372 -21.3302875 -26.3602352  16.8940294
 -22.3547673 -25.9416199  18.2943583 -20.3049946 -27.1504354  19.2036986
 -19.7454655 -27.9336929  19.7172296 -20.7653069 -26.4496279  19.9017406
 -19.6528292 -26.6276979  18.5024822 -20.7673717 -28.7694383  17.4874675
 -20.2704430 -29.5341039  18.0863225 -20.0174665 -28.2609653  16.8797028
 -21.5421677 -29.2232132  16.8677437 -24.9331760 -31.8255210  18.3557236
 -22.7739358 -32.9428005  17.5596249 -23.2819176 -33.2381535  14.3099844
 -22.6242948 -34.3373203  13.9270663 -22.9880810 -35.4743791  14.1652036
 -21.3720250 -34.0527749  13.1190836 -20.5074739 -34.2757750  13.7477994
 -21.3439941 -34.7354341  12.2672307 -21.2605977 -32.5977182  12.6066494
 -21.2682486 -31.9260740  13.4676373 -20.2945733 -32.4579120  12.1170402
 -22.3837161 -32.1960807  11.6241860 -22.1102047 -32.5012565  10.6119990
 -23.3103633 -32.7193117  11.8691635 -22.6512122 -30.6816173  11.6834700
 -22.7616572 -30.3853321  12.7286875 -21.7852235 -30.1428914  11.2932098
 -23.9238381 -30.2415109  10.9369409 -24.7939634 -30.6898260  11.4210498
 -24.0258908 -29.1612482  11.0597312 -23.9617133 -30.5716419   9.4317007
 -24.1550827 -31.6387343   9.3037081 -24.7996759 -30.0382304   8.9780968
 -22.6597905 -30.2081561   8.6946172 -22.3511696 -29.2037535   8.9919269
 -21.8558192 -30.8820009   8.9979774 -22.8103399 -30.2471352   7.1899152
 -22.7743435 -29.2773461   6.7002404 -22.8869176 -31.3415051   6.4405203
 -22.9298091 -31.2387991   5.3592342 -22.9715872 -32.7653003   6.9465786
 -22.2954154 -33.4009337   6.3710558 -22.6550031 -32.8280044   7.9897976
 -24.4108272 -33.3024168   6.8233728 -24.4709253 -34.2780328   7.3102248
 -25.0871801 -32.6377058   7.3648232 -24.8977256 -33.4398580   5.3671163
 -24.8568249 -32.4656963   4.8753870 -24.2336869 -34.1131878   4.8210916
 -26.3366485 -33.9818907   5.3129727 -26.3559437 -34.9741983   5.7683975
 -26.9755912 -33.3377075   5.9206289 -26.9150853 -34.0891671   3.8879943
 -26.1887217 -34.5827532   3.2389706 -27.8032088 -34.7235966   3.9225852
 -27.3138523 -32.7280283   3.2868519 -28.0735779 -32.2661948   3.9208794
 -26.4471126 -32.0637989   3.2823327 -27.8594208 -32.8527761   1.8522175
 -27.0919156 -33.2854748   1.2071066 -28.7121177 -33.5349345   1.8467204
 -28.3033395 -31.5022898   1.2681150 -28.7365198 -31.6456699   0.2760167
 -27.4540043 -30.8220458   1.1766516 -29.0580726 -31.0385370   1.9066875
 -28.0058098 -20.9068370   3.1258065 -28.8151050 -20.4077339   2.5887743
 -28.4456348 -21.6069460   3.8391545 -27.4136472 -21.4698625   2.4013694
 -27.1280265 -19.8635936   3.8331208 -27.7512813 -19.2422676   4.4796291
 -26.6933274 -19.2085278   3.0752367 -25.9894657 -20.4811335   4.6634662
 -25.2909470 -19.6865165   4.9338770 -25.4418659 -21.1978054   4.0478507
 -26.4726710 -21.1722708   5.9528619 -27.1168447 -22.0180941   5.7036877
 -27.0684648 -20.4658008   6.5345788 -25.2789974 -21.6634417   6.7929214
 -24.6280694 -20.8161187   7.0183170 -24.6912622 -22.3624277   6.1942160
 -25.6703401 -22.3541069   8.1134492 -24.7500992 -22.7017117   8.5875726
 -26.2811375 -23.2344508   7.9027730 -26.4172220 -21.4318633   9.0971398
 -27.4120712 -21.2107944   8.7048787 -25.8730173 -20.4879379   9.1699970
 -26.5384388 -22.0460463  10.5065918 -25.5480981 -22.3655891  10.8376229
 -27.1566677 -22.9444385  10.4505169 -27.1041322 -21.0848737  11.5750790
 -26.3864326 -20.2761459  11.7278230 -27.1747184 -21.6169691  12.5260544
 -28.4768558 -20.4611826  11.2506437 -28.4122682 -19.8949349  10.3191638
 -28.7237310 -19.7453821  12.0375049 -29.6164823 -21.4926171  11.1497867
 -29.7019625 -22.0309114  12.0960402 -29.3832946 -22.2200823  10.3694797
 -30.9567118 -20.8221984  10.8045280 -30.8598137 -20.3535652   9.8229682
 -31.1588097 -20.0218630  11.5194285 -32.1498084 -21.7970347  10.7613122
 -31.8806100 -22.6656199  10.1567030 -32.9803443 -21.3059878  10.2498960
 -32.6517558 -22.2864795  12.1338654 -31.8734288 -22.8704429  12.6295030
 -33.4855437 -22.9671001  11.9494331 -33.1705403 -21.1681676  13.0650532
 -34.2032051 -21.3859010  13.3455133 -33.1713462 -20.2035332  12.5532544
 -32.3541665 -21.0544801  14.3249714 -32.8048587 -21.2366915  15.4378951
 -31.0660052 -20.7293177  14.0943348 -30.1673484 -20.6722426  15.2350783
 -30.6190348 -20.0626826  16.0218859 -29.2348218 -20.2002430  14.9152958
 -29.8527741 -22.0923400  15.7658219 -30.7894492 -22.6341343  15.9199393
 -29.1143203 -22.0106292  17.1167576 -29.7582650 -21.5362167  17.8616869
 -28.1987453 -21.4249277  17.0013213 -28.7541795 -23.3439064  17.5524175
 -29.2286110 -23.9566708  18.9437091 -30.7493210 -24.3422580  18.6704564
 -31.0905933 -25.1732874  17.5446463 -30.1943040 -25.4367447  16.9772768
 -31.7453051 -24.5924139  16.8899786 -31.8308091 -26.4473271  18.0025017
 -32.2210765 -26.9416308  17.1116412 -32.6717734 -26.1570477  18.6340058
 -31.0607243 -27.5048542  18.7575340 -30.7758999 -27.0761514  20.1585031
 -30.1327658 -26.1958694  20.1165247 -30.2559805 -27.8819060  20.6788111
 -31.7148590 -26.8235469  20.6533051 -31.8927884 -28.7424707  18.8230276
 -32.0882964 -29.0844297  17.8056192 -32.8279305 -28.5072970  19.3334043
 -31.3383842 -29.5025396  19.3754864 -29.7777200 -27.8499913  18.0722380
 -29.9797654 -28.1250381  17.0359910 -29.2966056 -28.6710048  18.6058545
 -29.1353440 -26.9688320  18.1067407 -28.4710550 -25.2040410  19.1437316
 -29.1433144 -22.8854585  19.9517190 -28.9936733 -22.7705336  14.8073220
 -29.3234801 -24.0043116  14.3871152 -30.3853369 -24.5511746  14.6177983
 -28.1978369 -24.6452999  13.6089349 -27.6243520 -23.8699412  13.0966854
 -27.5213408 -25.1184988  14.3237054 -28.6704564 -25.7021165  12.5900590
 -27.7996516 -26.2651634  12.2478008 -29.3429804 -26.4173865  13.0681396
 -29.3518853 -25.0685835  11.3667142 -30.3006101 -24.6181393  11.6658556
 -28.7101889 -24.2676353  10.9936583 -29.5884252 -26.0824132  10.2341890
 -28.6384916 -26.5427160   9.9545246 -30.2433896 -26.8755126  10.6009042
 -30.2268100 -25.4432797   8.9878261 -30.5653024 -26.2402558   8.3224589
 -31.1074829 -24.8807573   9.3047577 -29.2790675 -24.5184088   8.1962746
 -28.8590407 -23.7554288   8.8549864 -28.4432125 -25.1139760   7.8233033
 -29.9604344 -23.8143921   7.0057791 -29.1980624 -23.2697344   6.4448887
 -30.3732491 -24.5715737   6.3359100 -31.0719848 -22.8905773   7.4683690
 -31.8696928 -23.3765244   8.0243260 -31.1363959 -21.5745115   7.2888488
 -31.9870710 -21.0330725   7.6947576 -30.1715326 -20.7296491   6.4815325
 -29.4455242 -20.2701616   7.1555090 -29.6160960 -21.3394380   5.7659143
 -30.8970356 -19.6003354   5.7214099 -31.2548327 -18.8647711   6.4448673
 -30.1766777 -19.0876734   5.0805312 -32.0958138 -20.0590181   4.8636505
 -32.8744841 -20.4569435   5.5177099 -32.5147343 -19.1793418   4.3705603
 -31.7525697 -21.1089945   3.7882608 -31.0434866 -20.6789136   3.0778411
 -31.2735677 -21.9697618   4.2595363 -33.0119634 -21.5802956   3.0326360
 -33.6952639 -22.0542955   3.7403688 -33.5293150 -20.7103014   2.6228553
 -32.7227449 -22.5630021   1.8797588 -33.6720276 -22.8394246   1.4161688
 -32.1315432 -22.0546269   1.1152340 -31.9852543 -23.8434076   2.3196647
 -30.9832525 -23.5885692   2.6711094 -32.5198531 -24.3058181   3.1520382
 -31.8634200 -24.8629713   1.1749900 -31.2865233 -25.7311988   1.5003130
 -31.3618445 -24.4185543   0.3127950 -32.8517723 -25.2065063   0.8625710
 -39.5995355  11.5054739  -0.3678404 -39.8913741  11.3094902  -1.4017090
 -38.5953116  11.9344246  -0.3680474 -40.2949286  12.2377717   0.0476482
 -39.6361780  10.2061737   0.4547331 -38.9835954   9.4667822  -0.0142014
 -40.6513357   9.8040271   0.4405459 -39.1896534  10.4358900   1.9114120
 -39.8563576  11.1621225   2.3810448 -38.1847310  10.8632004   1.9108872
 -39.1898203   9.1470826   2.7530050 -38.6015868   8.3814615   2.2428358
 -40.2122211   8.7735969   2.8405732 -38.6052322   9.3806994   4.1595578
 -39.1635656  10.1782835   4.6541142 -37.5691772   9.7116870   4.0620899
 -38.6546779   8.1027585   5.0178683 -38.2028818   7.2821856   4.4566157
 -39.7001934   7.8423792   5.1955259 -37.9350257   8.2130265   6.3753086
 -36.8770695   8.4279990   6.2110603 -37.9955339   7.2453278   6.8776655
 -38.5416174   9.2911565   7.2897393 -39.6207309   9.1345721   7.3485535
 -38.3753443  10.2758610   6.8479544 -37.9346013   9.2623121   8.7067860
 -36.8459010   9.2823714   8.6243802 -38.2016921   8.3267087   9.2025405
 -38.3873200  10.4537916   9.5723498 -38.1662464  11.3799834   9.0377843
 -37.8024888  10.4640186  10.4944837 -39.8880529  10.4076564   9.9237382
 -40.0754404   9.5880616  10.6206000 -40.4574823  10.1889110   9.0179998
 -40.4300404  11.7280972  10.5054915 -41.4914751  11.6116631  10.7340944
 -40.3587294  12.4997091   9.7360790 -39.6876144  12.2260499  11.7571044
 -40.0971079  13.1964791  12.0452833 -38.6371684  12.3845875  11.5043342
 -39.7585607  11.2897015  12.9705989 -39.0819740  11.6809678  13.7332296
 -39.3978786  10.2957582  12.6977468 -41.1720419  11.1754417  13.5680711
 -41.8284130  10.6101990  12.9031360 -41.6035366  12.1688461  13.7074387
 -41.0935307  10.4883647  14.9012196 -41.2994957   9.3020678  15.0713468
 -40.7056141  11.3315582  15.8871686 -40.4187870  10.7568729  17.1859920
 -41.0918140   9.9195850  17.3875761 -40.6071615  11.5253162  17.9400861
 -38.9388084  10.2990806  17.2942865 -38.8647413   9.6776032  18.1903481
 -37.9596996  11.4867055  17.4163282 -38.2765102  12.1375275  18.2352972
 -37.9516220  12.0688605  16.4912975 -36.6179919  10.9858668  17.6841617
 -35.5532265  11.8314278  18.5330224 -35.6634521  11.1640525  19.9817050
 -35.1192880   9.8572260  20.2288246 -34.7936535   9.8033047  21.2707973
 -34.2510581   9.6880567  19.5867908 -36.2112737   8.8044500  19.9455762
 -35.7673120   7.8078866  19.9392366 -36.6094422   8.9930332  18.9474893
 -37.4021816   8.7386274  20.8715940 -38.1305838  10.0415325  20.9480309
 -37.4703360  10.7766545  21.4105773 -39.0439653   9.9191970  21.5320253
 -38.3516049  10.3724527  19.9321961 -38.3412814   7.6954693  20.3610969
 -37.8349066   6.7291874  20.3739023 -38.6050749   7.9421085  19.3316007
 -39.2333865   7.6719338  20.9886932 -36.9818759   8.3527482  22.2513819
 -36.4473271   7.4030286  22.2006607 -37.8749537   8.2561767  22.8705478
 -36.3354492   9.1389817  22.6441312 -34.1930366  11.5700030  18.0209565
 -36.0374808  13.2156515  18.6448395 -38.5690594   9.5309687  16.1263216
 -37.8801465   8.3867425  16.2460482 -37.5925827   7.8671259  17.3120260
 -37.4940085   7.8054148  14.9071300 -36.7811179   6.9916272  15.0554562
 -38.3932090   7.3843503  14.4525886 -36.9020987   8.8608640  13.9457452
 -36.7808652   8.3955622  12.9653072 -37.6211858   9.6720016  13.8137138
 -35.5572939   9.4633865  14.4060040 -35.6564856   9.8325509  15.4289126
 -34.7947359   8.6818218  14.4172251 -35.0866914  10.6324673  13.5138416
 -35.8319139  11.4299965  13.5462940 -34.1605020  11.0388827  13.9255011
 -34.8487473  10.2173245  12.0491123 -34.0988493   9.4239175  12.0242238
 -35.7724047   9.8121065  11.6306400 -34.3827748  11.3762951  11.1501837
 -35.1377869  12.1651947  11.1578274 -33.4530330  11.7935312  11.5425611
 -34.1564703  10.9102798   9.7029954 -33.3638954  10.1590896   9.7044849
 -35.0693727  10.4319608   9.3420511 -33.7422800  12.0614767   8.8121605
 -32.9537058  12.6933825   9.2126781 -34.2647481  12.3711705   7.6294082
 -33.8892984  13.2459784   7.1046996 -35.3519630  11.6104627   6.8920934
 -35.5398941  10.6364346   7.3486173 -36.2862659  12.1730745   6.9469488
 -34.9953318  11.3748229   5.4092866 -34.1222215  10.7210100   5.3575993
 -35.8177209  10.8314049   4.9393570 -34.7031617  12.6488400   4.5864382
 -33.7518764  13.0732560   4.9141499 -34.5764065  12.3687470   3.5386091
 -35.7854772  13.7414706   4.6863171 -35.8556962  14.0833044   5.7210547
 -35.4672909  14.6002209   4.0915313 -37.1790624  13.2951140   4.2062286
 -37.1204138  13.0137968   3.1527179 -37.5050998  12.4148703   4.7642019
 -38.2177329  14.4159675   4.4009742 -38.3015251  14.6367323   5.4671383
 -37.8707862  15.3262377   3.9075160 -39.6119189  14.0557444   3.8617247
 -39.9098396  13.0804718   4.2523006 -40.3320551  14.7875154   4.2337203
 -39.6785927  14.0335202   2.3253529 -40.6877184  13.7728965   1.9994517
 -38.9816475  13.3009911   1.9128840 -39.4276881  15.0140452   1.9153780
 -38.6004162  21.3153148   4.1616952 -38.5753012  20.9763694   3.1239337
 -39.4217634  22.0269728   4.2684564 -38.8038421  20.4503560   4.7964606
 -37.2686744  21.9874048   4.5345154 -37.1511722  22.8768301   3.9119595
 -36.4483356  21.3114238   4.2843989 -37.1629739  22.4034262   6.0181421
 -38.0761576  22.9192376   6.3222736 -36.3467455  23.1220961   6.1168700
 -36.9008136  21.2318206   6.9830179 -35.9553504  20.7582045   6.7105329
 -37.6829076  20.4781365   6.8700850 -36.8493176  21.6778111   8.4599268
 -37.8492212  21.9646239   8.7921882 -36.2088513  22.5573397   8.5531843
 -36.2951422  20.5635786   9.3662995 -35.3274536  20.2434897   8.9744020
 -36.9676280  19.7040057   9.3293637 -36.1276436  20.9779739  10.8390367
 -37.1137953  21.0868549  11.2952340 -35.6253719  21.9460559  10.8938491
 -35.3013825  19.9272251  11.6086698 -34.2693305  19.9587572  11.2532306
 -35.6872201  18.9319801  11.3782811 -35.3149366  20.1022363  13.1382334
 -34.6599698  19.3473816  13.5783231 -36.3250732  19.9042416  13.5027671
 -34.8944712  21.4946365  13.6388898 -35.6153727  22.2407174  13.2981110
 -33.9196754  21.7570734  13.2225180 -34.8207617  21.5213633  15.1768804
 -34.0344143  20.8348107  15.4974508 -35.7654905  21.1735058  15.5999053
 -34.5031881  22.9194522  15.7224894 -35.3304648  23.5951662  15.4955852
 -33.6182594  23.2884264  15.1997852 -34.2238140  22.9261518  17.2370398
 -33.3721113  22.2752261  17.4452806 -35.0847077  22.5175309  17.7702916
 -33.9270306  24.3492579  17.7539265 -34.8305368  24.9584961  17.6834083
 -33.1792235  24.8153973  17.1089780 -33.3876705  24.3799353  19.1975212
 -33.1002927  25.3977656  19.4693553 -32.4901700  23.7613606  19.2632484
 -34.3825674  23.8779950  20.2076983 -35.5759263  24.1023517  20.1565146
 -33.7827611  23.1928682  21.1991763 -34.6132541  22.3629737  22.0464039
 -35.5877781  22.8299594  22.2103572 -34.1135502  22.2733760  23.0143499
 -34.7945571  20.9403062  21.4566016 -35.4287624  20.3987098  22.1630764
 -33.4492850  20.1773524  21.3201189 -33.6755323  19.1080260  21.3181782
 -32.8137612  20.3842759  22.1849561 -32.7033114  20.5173063  20.1149487
 -32.3508334  19.3922901  19.0376723 -33.7110853  19.2071724  18.2262921
 -33.7138987  18.5822558  16.9370890 -32.9867482  19.0923667  16.3001513
 -34.7060919  18.6765790  16.4884210 -33.3276701  17.1013784  17.0795989
 -32.3894954  17.0474458  17.6338565 -33.1625199  16.6918933  16.0819387
 -34.2567158  16.1338162  17.7633595 -35.4633880  15.8611727  16.9331193
 -36.0514307  16.7779601  16.8699694 -36.0343885  15.0780070  17.4340141
 -35.1459765  15.5236542  15.9453893 -33.4963322  14.8712111  17.9373622
 -32.6156640  15.0927389  18.5420346 -33.2187724  14.4976258  16.9506121
 -34.1403627  14.1535878  18.4477770 -34.6996427  16.5642929  19.1173828
 -33.8142133  16.7376256  19.7307765 -35.3241444  15.7765889  19.5414126
 -35.2612352  17.4951982  19.0262270 -31.2987542  19.8634219  18.1111872
 -32.1151114  18.1204247  19.7495210 -35.4758310  21.0255790  20.1764584
 -36.2113667  19.9758351  19.7780824 -36.3329077  18.9548182  20.4300666
 -36.8687391  20.1986313  18.4346807 -37.1188617  21.2568521  18.3343434
 -36.1416149  19.9667323  17.6536727 -38.1475735  19.3509543  18.2548106
 -37.9562116  18.3164835  18.5475814 -38.9145088  19.7366917  18.9297056
 -38.6966777  19.3603647  16.8136311 -39.7374511  19.0305984  16.8362498
 -38.6889648  20.3797984  16.4222729 -37.9104400  18.4261417  15.8725667
 -36.8634248  18.7348557  15.8423209 -37.9451895  17.4115598  16.2749088
 -38.4700274  18.4174240  14.4375980 -39.5265889  18.1424212  14.4603443
 -38.4121656  19.4295144  14.0316594 -37.7004290  17.4543047  13.5081756
 -37.8250480  17.7855027  12.4751008 -36.6332483  17.5060487  13.7338138
 -38.1850576  15.9963930  13.6139858 -38.2940292  15.7192659  14.6645999
 -39.1749668  15.9140766  13.1603694 -37.2178960  15.0354445  12.9552078
 -36.4815044  14.5923316  13.6207521 -37.2641730  14.6422076  11.6870522
 -36.5507579  13.9046621  11.3283944 -38.2122588  15.1756322  10.6280053
 -39.2136216  14.7688770  10.7838523 -38.2985210  16.2620628  10.6964910
 -37.7597141  14.7673213   9.2109638 -37.7299809  13.6770582   9.1570491
 -38.5138488  15.0912464   8.4906745 -36.3754177  15.3158462   8.8040191
 -35.6352782  14.9776757   9.5322353 -36.0871220  14.8821926   7.8441787
 -36.3186932  16.8532062   8.7055093 -36.7449403  17.2944391   9.6088862
 -35.2758551  17.1751404   8.6692846 -37.0599198  17.4043250   7.4718678
 -37.9796910  16.8425059   7.2962463 -37.3585558  18.4363925   7.6670992
 -36.1881542  17.3802745   6.2058073 -35.2811503  17.9621053   6.3826764
 -35.8841896  16.3542986   5.9879923 -36.9295454  17.9610801   4.9921104
 -37.8321552  17.3778284   4.7982687 -37.2444510  18.9822769   5.2167302
 -36.0474515  17.9801667   3.7370849 -36.6270375  18.3294857   2.8800425
 -35.6719017  16.9781935   3.5191965 -35.1958942  18.6487424   3.8796318
  20.8220863 -12.5474584   0.5652472  21.0557699 -12.9052413  -0.4396644
  21.1029506 -13.3237660   1.2800372  21.4281344 -11.6579342   0.7494155
  19.3239653 -12.2183919   0.6763441  18.7530994 -13.0851877   0.3368711
  19.0899551 -11.4028156  -0.0110702  18.8344836 -11.8430567   2.0921259
  18.8521695 -12.7324128   2.7255258  17.7839243 -11.5589643   2.0022428
  19.5791698 -10.6781209   2.7883062  18.8833284 -10.2020812   3.4823188
  19.8373520  -9.9194497   2.0465362  20.8472562 -11.0563707   3.5874495
  21.2915850 -10.1399314   3.9813730  21.5920019 -11.5112555   2.9310226
  20.5610657 -12.0037925   4.7659296  20.1353526 -12.9328167   4.3810365
  19.8153520 -11.5434122   5.4174078  21.8266606 -12.3205185   5.5871975
  22.2661161 -11.3773465   5.9185123  22.5682521 -12.8139031   4.9554706
  21.5482783 -13.1832635   6.8335855  20.8614230 -12.6233947   7.4717396
  22.4754620 -13.2881629   7.4008501  20.9333634 -14.5768201   6.5556455
  20.4642439 -14.5963883   5.5697405  20.1239800 -14.7491944   7.2681421
  21.9146848 -15.7636392   6.6397995  22.6873326 -15.6474185   5.8769286
  21.3663244 -16.6759074   6.3958073  22.5963783 -15.9556508   8.0100560
  23.3574653 -15.1849627   8.1487983  23.1182742 -16.9148362   8.0029988
  21.6178966 -15.9184158   9.2015588  20.8039260 -16.6273963   9.0364450
  21.1812472 -14.9205542   9.2794901  22.3220968 -16.2514377  10.5260050
  23.2268786 -15.6457484  10.6095135  22.6291990 -17.2993231  10.5165398
  21.4316201 -15.9923708  11.7543459  20.5290484 -16.6048837  11.7027962
  21.1256981 -14.9440980  11.7555916  22.2008753 -16.2973607  13.0507624
  23.1724477 -15.8021224  12.9937434  22.3838449 -17.3692632  13.1508112
  21.4813304 -15.7975733  14.2761302  20.3499651 -16.1384821  14.5739985
  22.2365236 -14.9249136  14.9784648  21.6205263 -14.1306031  16.0276651
  22.3752856 -13.9413571  16.7952430  20.7905173 -14.6748328  16.4854264
  21.1716580 -12.7655435  15.4498076  22.0928168 -12.2503245  15.1657891
  20.4211187 -11.8641150  16.4661300  19.8262906 -11.1060882  15.9501612
  21.1777592 -11.3447332  17.0597529  19.5826399 -12.6032853  17.3933589
  18.0936015 -13.0852389  17.0769680  18.3305919 -14.4922698  16.3909388
  18.2376599 -15.7201278  17.1312964  18.5575569 -15.5591416  18.1639624
  18.8909721 -16.4656508  16.6708326  16.7696428 -16.1814713  17.0720577
  16.1392224 -15.3278136  17.3252785  16.5979826 -16.9687402  17.8075981
  16.2668991 -16.7260158  15.7589602  16.5860319 -15.8441961  14.5956886
  16.2138534 -14.8422265  14.8143673  16.1220503 -16.2514997  13.6961854
  17.6713932 -15.8076560  14.4910967  16.8574083 -18.0746627  15.5150628
  16.5710104 -18.7353241  16.3346875  17.9425097 -17.9822779  15.4494858
  16.4572263 -18.4674990  14.5792139  14.7866428 -16.8530953  15.8504784
  14.5527732 -17.4429739  16.7379630  14.4193339 -17.3762393  14.9663484
  14.3427932 -15.8589232  15.9204662  17.4767315 -13.3101785  18.3998823
  17.4490464 -12.1986830  16.0954547  20.3496718 -12.9550219  14.2608440
  20.3877902 -11.9714761  13.3490598  21.0038781 -10.9379923  13.5116839
  19.5473433 -12.2417891  12.1227181  19.4419336 -13.3192086  11.9794714
  18.5494208 -11.8369401  12.3035777  20.1631379 -11.5952027  10.8606124
  20.5684686 -10.6116438  11.1071563  20.9970784 -12.2088468  10.5135572
  19.1718853 -11.3939571   9.7052282  18.3716393 -10.7252252  10.0290632
  19.6972001 -10.8933687   8.8891894  18.5629725 -12.7043033   9.1811991
  19.3601882 -13.4187186   8.9655143  17.9280853 -13.1517744   9.9487603
  17.7420223 -12.4458218   7.9073620  16.9736242 -11.7001235   8.1217480
  18.4003651 -12.0260119   7.1439427  17.0726895 -13.7135386   7.3526376
  17.8150392 -14.5080543   7.2520220  16.3135266 -14.0628719   8.0555612
  16.4283979 -13.4535849   5.9803104  15.7301426 -12.6171410   6.0528517
  17.1968317 -13.1666958   5.2594304  15.6737876 -14.6668553   5.4974693
  14.6174395 -14.6894419   5.7527882  16.1787498 -15.6453454   4.7571582
  15.5196714 -16.4502883   4.4421136  17.6260698 -15.8056092   4.3307534
  18.2729602 -15.0603557   4.7982943  17.9889274 -16.7854428   4.6481192
  17.7428901 -15.7064462   2.8020957  16.8736243 -16.1871552   2.3484869
  17.7094400 -14.6533167   2.5152841  19.0003633 -16.3632846   2.2032641
  18.8785195 -17.4477744   2.2420081  19.0511751 -16.0866022   1.1481203
  20.3345513 -15.9984779   2.8803125  20.4550648 -14.9132144   2.8922909
  20.3261256 -16.3477707   3.9149082  21.5152001 -16.6553938   2.1350555
  21.2995362 -17.7177417   2.0032592  21.6001511 -16.2166810   1.1386728
  22.8707409 -16.5378273   2.8531688  22.8045583 -17.0425105   3.8192844
  23.6228991 -17.0663643   2.2637896  23.3329105 -15.0865614   3.0669543
  23.3933711 -14.5727146   2.1053046  22.5955033 -14.5597839   3.6762178
  24.7006035 -15.0224829   3.7662995  24.9548554 -13.9876986   4.0051284
  25.4802799 -15.4294813   3.1190589  24.6881580 -15.5926311   4.6975565
  14.7375917  12.5325692  -0.6591954  14.6742952  11.8614566  -1.5183033
  15.6157219  13.1696272  -0.7837211  13.8458335  13.1626749  -0.6450891
  14.8509061  11.7239702   0.6405823  15.7392883  11.0914576   0.5842938
  13.9817309  11.0689914   0.7300265  14.9513984  12.6201856   1.8881153
  14.0811265  13.2780540   1.9360617  15.8382833  13.2518268   1.8048611
  15.0351644  11.7874467   3.1808832  15.8732617  11.0916221   3.1041795
  14.1263306  11.1913407   3.2864425  15.2208614  12.6637673   4.4327906
  14.3675661  13.3371067   4.5375091  16.1138058  13.2782269   4.3002978
  15.3623486  11.8071949   5.7060510  16.2116694  11.1315477   5.5851400
  14.4736600  11.1825979   5.8181912  15.5556512  12.6284945   6.9962364
  15.6935871  11.9352841   7.8286403  14.6461523  13.1977832   7.1991789
  16.7565143  13.5937405   6.9326109  16.4996409  14.4480550   6.3028288
  17.6039922  13.0917764   6.4611471  17.2127712  14.1031241   8.3111632
  18.0155933  14.8274767   8.1586802  17.6278734  13.2685781   8.8800985
  16.1028898  14.7850621   9.1253471  15.3332126  14.0516233   9.3746024
  15.6300628  15.5543232   8.5112333  16.6241646  15.4408431  10.4190361
  15.7725215  15.8876550  10.9362674  17.2962189  16.2611461  10.1584411
  17.3697793  14.4886911  11.3815260  18.3935416  14.3453205  11.0296440
  16.8854201  13.5101700  11.4003837  17.3790348  15.0778019  12.8040731
  16.3500309  15.0740409  13.1695867  17.6832867  16.1247873  12.7431083
  18.3087611  14.3785989  13.8266432  19.0804887  15.0933039  14.1200650
  18.8291931  13.5524750  13.3376288  17.6361310  13.8374817  15.1167452
  18.4146345  13.5126877  15.8102202  17.0495856  12.9463029  14.8838806
  16.7474461  14.8252118  15.8479583  16.5189075  15.9538901  15.4685128
  16.1725521  14.2856026  16.9379032  15.3672791  15.1555419  17.7893484
  15.7657015  16.1732936  17.7798593  15.4553425  14.7829628  18.8131058
  13.8582397  15.1700532  17.4058855  13.3569789  15.8684313  18.0809093
  13.1730294  13.7992954  17.6287436  12.1387005  13.9445114  17.9508090
  13.7035549  13.2631552  18.4197855  13.1609035  12.9875088  16.4296985
  13.1819582  11.4008951  16.5428352  13.4546006  10.9573102  15.0326371
  14.7143710  11.2222147  14.4021547  14.8857844  10.4601383  13.6376238
  15.5223250  11.1642921  15.1359832  14.6689224  12.6265109  13.7613642
  15.5872333  12.7778435  13.1920803  14.6297884  13.3720517  14.5569265
  13.5243821  12.9487002  12.8334963  12.3332477  13.3949590  13.6133480
  11.9845641  12.5500250  14.2089891  11.5549505  13.7402403  12.9312098
  12.6476216  14.1864645  14.2952359  13.9318848  14.0624571  11.9379091
  14.7561967  13.7144530  11.3136625  14.2596722  14.9001527  12.5552440
  13.0831730  14.3511021  11.3160944  13.1449842  11.7839360  11.9811940
  14.0220988  11.4497805  11.4250541  12.3456502  12.0832598  11.3016725
  12.7983689  10.9971511  12.6528406  14.3531203  11.0215032  17.3538709
  11.8338466  10.9341359  16.8948114  13.6764884  15.6043983  16.0231829
  13.6099339  16.9304991  15.7920063  13.4480906  17.7614200  16.6604578
  13.6635685  17.2450471  14.3165553  14.6706879  17.5872445  14.0694261
  13.4876132  16.3175678  13.7676632  12.6185238  18.3037555  13.9053082
  11.6258013  17.9635382  14.2073298  12.8182292  19.2310202  14.4463837
  12.6069474  18.6080372  12.3921394  11.8621671  19.3828940  12.1988451
  13.5772133  19.0194333  12.1061301  12.2854197  17.3743594  11.5219605
  13.0657625  16.6223383  11.6560972  11.3468933  16.9344485  11.8656325
  12.1649981  17.6738727  10.0147581  11.8416941  16.7625296   9.5074201
  11.3891864  18.4252656   9.8535424  13.4850097  18.1529665   9.3801415
  13.7703216  19.1138852   9.8133820  14.2779207  17.4391758   9.6130759
  13.3834434  18.3041584   7.8511786  13.0954885  17.3476458   7.4100107
  12.5954127  19.0258110   7.6260388  14.6928918  18.8125765   7.2872072
  15.1447964  19.6183443   7.8599983  15.3235447  18.3786225   6.1991823
  16.2646723  18.8465321   5.9218568  14.8532820  17.3053968   5.2366477
  15.6317186  16.5448880   5.1464969  13.9536881  16.8002439   5.5944371
  14.5802319  17.8894019   3.8357988  15.4928768  18.3503163   3.4522599
  14.3231523  17.0716393   3.1593087  13.4393764  18.9286280   3.8269594
  12.5401664  18.4760022   4.2500630  13.7099385  19.7747672   4.4620255
  13.1263983  19.4438601   2.4097264  14.0242171  19.9040353   1.9918445
  12.8629792  18.5953343   1.7748433  11.9661331  20.4607344   2.4054770
  11.1020446  20.0120449   2.8999391  12.2528684  21.3356209   2.9926932
  11.5354991  20.9162068   0.9954764  11.1982143  20.0491810   0.4236661
  10.6797516  21.5874767   1.0932357  12.6494431  21.6399884   0.2159986
  13.0026627  22.4908638   0.8022703  13.4936666  20.9634852   0.0673569
  12.1763647  22.1415591  -1.1574500  12.9952717  22.6381803  -1.6820680
  11.3556540  22.8530502  -1.0448536  11.8301618  21.3053060  -1.7684242
  40.4628038   5.2712327   2.3897570  40.9190702   4.5270574   1.7336416
  40.9847593   5.2389139   3.3483922  40.6076956   6.2564009   1.9415225
  38.9645028   4.9704868   2.5664985  38.8468218   3.9787000   3.0080572
  38.4956646   4.9398646   1.5807416  38.2222557   6.0062599   3.4339896
  37.1612763   5.7478362   3.4340391  38.3054781   6.9929230   2.9735184
  38.7156606   6.0701507   4.8933735  39.7696114   6.3551074   4.9146509
  38.6361146   5.0764966   5.3392309  37.9100585   7.0733124   5.7426333
  36.8496180   6.8157333   5.7028472  38.0202508   8.0744278   5.3206265
  38.3741403   7.0830101   7.2109258  39.4292831   7.3625034   7.2428983
  38.2912350   6.0755169   7.6239008  37.5647044   8.0563790   8.0899298
  36.5233302   7.7312523   8.1378621  37.5821590   9.0480709   7.6330847
  38.1476927   8.1454635   9.5133042  39.2113566   8.3805257   9.4369662
  38.0731273   7.1705085   9.9994808  37.4588919   9.2138457  10.3881967
  36.5114188   8.8245195  10.7665896  37.2281146  10.0866032   9.7737867
  38.3486366   9.6798366  11.5594637  37.8333616  10.4678917  12.1125686
  39.2529249  10.1271474  11.1415660  38.7537980   8.5602647  12.5392640
  39.1759992   7.7196932  11.9846010  37.8692722   8.1969392  13.0665910
  39.8049283   9.0500617  13.5541534  39.3969822   9.8765153  14.1398299
  40.6697512   9.4321281  13.0077386  40.2753019   7.9326051  14.5024049
  40.5639172   7.0570505  13.9171100  39.4461989   7.6393306  15.1497412
  41.4736557   8.3748513  15.3627837  41.2112808   9.2872751  15.9023261
  42.3176241   8.6174011  14.7136664  41.8958998   7.2831118  16.3655829
  42.2387075   6.3939595  15.8323348  41.0371828   6.9967401  16.9763732
  43.0043459   7.7632153  17.2686970  44.1002321   8.0920029  16.8653929
  42.6563644   7.7207667  18.5734868  43.4670162   8.4755450  19.5190132
  44.5274830   8.4001106  19.2652941  43.3207941   8.0301070  20.5063581
  43.0367661   9.9672681  19.5927072  43.5042477  10.4175591  20.4721093
  41.4932299  10.1181591  19.6806252  41.2430191  11.0939157  20.1048231
  41.0727262   9.3404526  20.3232765  40.9010649  10.0302112  18.3585107
  39.3323135  10.0697041  18.1343341  38.9262342   8.5475814  17.8726971
  38.6332059   7.6448554  18.9444864  39.4155645   7.7174586  19.7042871
  38.6308789   6.6295707  18.5397148  37.2500658   7.9731697  19.5526433
  37.3344445   8.8987607  20.1239944  36.9705153   7.1690410  20.2349257
  36.0722995   8.1725276  18.6290240  34.8424792   8.0408525  19.4528556
  34.8302794   7.0403630  19.8877752  33.9729404   8.1401765  18.8014591
  34.8579907   8.8077044  20.2287269  36.0627747   9.5357126  18.0131590
  36.8699741   9.5835328  17.2807503  36.2631536  10.2687490  18.7959659
  35.1026034   9.7245181  17.5307655  36.0409021   7.1544367  17.5416780
  36.9425631   7.2768003  16.9397497  35.1428485   7.3161709  16.9436646
  35.9997606   6.1667532  18.0032742  38.6700821  10.4983389  19.3811214
  39.0226603  10.7960033  16.8968999  43.5165358  10.6392026  18.4034836
  43.4468222  11.9781888  18.3575261  43.1732082  12.6804543  19.3115997
  43.7267733  12.5156307  16.9804645  44.2162943  13.4875512  17.0710254
  44.4141006  11.8358791  16.4725411  42.4130440  12.6517606  16.1849332
  41.9354105  11.6734648  16.0996866  41.7310858  13.2932544  16.7469656
  42.6015377  13.2497692  14.7769022  41.6157293  13.3962250  14.3305838
  43.0679703  14.2333841  14.8629379  43.4533453  12.3583829  13.8510072
  44.4339180  12.1980035  14.3040192  42.9826307  11.3770282  13.7625062
  43.6809540  12.9557049  12.4469984  44.2330313  13.8925683  12.5468135
  44.3248415  12.2756612  11.8853807  42.4032545  13.2238162  11.6212928
  41.8565130  14.0601206  12.0618999  42.7042770  13.5406053  10.6205451
  41.4475775  12.0203066  11.4916146  40.9756994  11.8281245  12.4574614
  40.6420326  12.2776449  10.8007169  42.1621370  10.7663381  11.0314071
  42.5722456  10.1524937  11.8292654  42.2885180  10.3561211   9.7746408
  42.8119278   9.4249463   9.5733291  41.8264484  11.1038721   8.5423964
  41.5618706  12.1377707   8.7737286  42.6525354  11.1359000   7.8289384
  40.6201839  10.3865707   7.9109371  40.8851194   9.3446243   7.7195656
  39.7995853  10.3878140   8.6314088  40.1152849  11.0195649   6.6026974
  39.2740345  10.4267859   6.2374985  39.7410727  12.0237541   6.8125302
  41.2053394  11.1020780   5.5178565  41.9481659  11.8442512   5.8176106
  41.7232180  10.1430917   5.4499513  40.6715393  11.4971507   4.1288802
  40.0982571  12.4228358   4.2120466  41.5227652  11.7211759   3.4825903
  39.8116994  10.4256380   3.4319732  38.8962626  10.2578211   4.0031829
  39.5036101  10.8192754   2.4611001  40.5257893   9.0745169   3.2147476
  40.6203461   8.5516298   4.1687450  39.8937821   8.4577525   2.5723818
  41.9175196   9.1859877   2.5637019  42.2795963   8.1963211   2.2774816
  42.6356649   9.6354789   3.2526779  41.8782425   9.8067397   1.6661566
  26.5604806  -4.7410479   1.5200305  27.0342231  -4.1928211   0.7030357
  27.2836065  -5.4539239   1.9217302  26.2983561  -4.0291315   2.3054793
  25.3060603  -5.4708368   1.0116061  25.5896831  -6.1414587   0.1977944
  24.6044660  -4.7350889   0.6129814  24.6201158  -6.2895560   2.1166837
  24.4379354  -5.6376415   2.9735854  25.3045774  -7.0767540   2.4396335
  23.2958341  -6.9364619   1.6636507  23.4864807  -7.5335336   0.7694344
  22.5791407  -6.1593390   1.3899803  22.6847363  -7.8566194   2.7402869
  23.4361863  -8.5934144   3.0316928  21.8531108  -8.4151649   2.3056749
  22.2012091  -7.1271610   4.0100870  22.8976417  -6.3283664   4.2734730
  22.2110343  -7.8419876   4.8355508  20.7758927  -6.5578884   3.8669494
  20.0787520  -7.3931468   3.7731296  20.7061505  -5.9810370   2.9423723
  20.3195596  -5.6584150   5.0363868  19.2469239  -5.4871070   4.9242678
  20.7966614  -4.6801534   4.9478385  20.5806828  -6.2281883   6.4490503
  20.6359386  -7.3182487   6.4147139  19.7280419  -5.9762174   7.0830667
  21.8583822  -5.6404465   7.0867991  21.7254782  -4.5636746   7.2107375
  22.7037024  -5.7784796   6.4094174  22.2316623  -6.2385398   8.4535706
  23.1008196  -5.7021916   8.8400429  22.5323629  -7.2786278   8.3112305
  21.0915279  -6.1680716   9.4883019  20.3272796  -6.9025111   9.2256492
  20.6204963  -5.1835632   9.4517291  21.5591836  -6.4283460  10.9319758
  20.6774569  -6.6004783  11.5527761  22.0559001  -5.5337059  11.3132298
  22.5312257  -7.6175314  11.0585332  23.5448360  -7.2832954  10.8275652
  22.2599649  -8.3718038  10.3169441  22.5131583  -8.3063513  12.4355710
  23.3004665  -9.0611172  12.4897599  21.5603757  -8.8325697  12.5236595
  22.6497078  -7.3806089  13.6181974  23.2732463  -6.3386822  13.5980475
  22.0056152  -7.8508961  14.7098315  22.0762277  -7.0708811  15.9353805
  23.0117869  -6.5073711  15.9782577  22.0736170  -7.7689075  16.7764521
  20.8750749  -6.1016804  16.0932100  21.1402416  -5.3896165  16.8788946
  19.5726812  -6.7984140  16.5447485  19.7648239  -7.5472993  17.3173428
  19.1209543  -7.2845149  15.6762469  18.6473215  -5.7970607  17.0520663
  18.5541880  -5.4234314  18.6086297  20.0106573  -4.8958156  19.0011346
  20.3895545  -3.5158631  18.8087261  19.5496905  -2.8663832  19.0684474
  20.6560588  -3.3342421  17.7643895  21.5590835  -3.1987914  19.7658706
  21.2846637  -3.5058072  20.7761741  21.7151499  -2.1190231  19.7708011
  22.9171395  -3.7974760  19.4869924  23.8696885  -3.3870220  20.5573845
  23.9241838  -2.2973920  20.5618834  24.8499918  -3.8043207  20.3225470
  23.5086036  -3.7474045  21.5217590  22.8755379  -5.2881235  19.4710839
  22.1924067  -5.5941176  18.6773717  22.5079966  -5.6342131  20.4382539
  23.8842988  -5.6558949  19.2776251  23.4583688  -3.2992056  18.1924951
  22.7965474  -3.6203405  17.3868024  24.4601631  -3.7038696  18.0410421
  23.4878445  -2.2093029  18.2315552  17.6201797  -4.3025228  18.7730098
  18.2974708  -6.6308033  19.4228971  20.6073904  -5.3935891  14.8499370
  21.1991167  -4.1999704  14.6622229  21.8918490  -3.6532485  15.4941916
  20.8495092  -3.5704476  13.3412659  21.7242956  -3.0369386  12.9636693
  20.5972004  -4.3580008  12.6281297  19.6607733  -2.6051590  13.5066080
  18.7834322  -3.1758520  13.8181317  19.8800337  -1.8947205  14.3063998
  19.3180394  -1.8147548  12.2296488  18.4072912  -1.2429870  12.4196076
  20.1117420  -1.0941871  12.0216060  19.1113269  -2.7088910  10.9915662
  20.0788617  -3.0612338  10.6279778  18.5273230  -3.5876980  11.2728167
  18.3731353  -1.9608802   9.8677069  17.4187911  -1.6073823  10.2635980
  18.9440787  -1.0780182   9.5726794  18.0905747  -2.8492334   8.6395323
  17.8247440  -3.8539255   8.9747828  17.2212076  -2.4540067   8.1099463
  19.2686760  -2.9334170   7.6519418  20.1786876  -3.2200244   8.1831646
  19.0458679  -3.7246183   6.9330388  19.4306695  -1.6334437   6.8913162
  18.5228086  -1.2801313   6.4091069  20.5408478  -0.9166332   6.7534250
  20.5067849  -0.0007853   6.1689317  21.9068289  -1.2653701   7.3028141
  22.4213076  -0.3532739   7.6124233  21.8246388  -1.8959743   8.1905341
  22.7458119  -1.9937021   6.2378436  23.6721587  -2.3430040   6.6986400
  22.1944785  -2.8747892   5.9029126  23.0933309  -1.1141706   5.0216281
  22.1833372  -0.6700803   4.6127772  23.7191677  -0.2848790   5.3578818
  23.8372707  -1.8736064   3.9040694  24.1213632  -1.1599260   3.1279147
  24.7673178  -2.2816031   4.3053406  23.0328655  -3.0214980   3.2584164
  23.6031795  -3.4102157   2.4121869  22.9451704  -3.8416699   3.9740223
  21.6175389  -2.6342502   2.7778170  21.1620712  -3.5109526   2.3126228
  20.9995508  -2.3896995   3.6442748  21.5658307  -1.4532533   1.7841257
  20.5206609  -1.2117074   1.5798171  22.0059967  -0.5634439   2.2390497
  22.2719669  -1.7466429   0.4492877  22.1740031  -0.8923981  -0.2238637
  21.8258977  -2.6180097  -0.0346613  23.3357072  -1.9394064   0.6034416
  -3.6174148  20.7484484  -2.1544260  -3.1212875  21.2622881  -2.9804355
  -3.7685606  21.4685416  -1.3475285  -4.5937917  20.4024696  -2.5000435
  -2.7639693  19.5605087  -1.6855069  -1.7801151  19.9256897  -1.3836162
  -2.6154166  18.8868344  -2.5320047  -3.3996564  18.7674785  -0.5265843
  -2.8567699  17.8275049  -0.4074664  -4.4299310  18.5169256  -0.7877752
  -3.3758828  19.5253158   0.8145989  -3.9058322  20.4744244   0.7106216
  -2.3396206  19.7537947   1.0723218  -4.0119362  18.7206459   1.9629683
  -3.5143375  17.7522492   2.0470393  -5.0625402  18.5328901   1.7317913
  -3.9085481  19.4638383   3.3087146  -4.3679637  20.4498100   3.2124642
  -2.8538626  19.6115541   3.5501325  -4.5971113  18.6925507   4.4505304
  -4.1314405  17.7108574   4.5595881  -5.6371403  18.5158563   4.1684294
  -4.5853409  19.4339919   5.8047259  -5.1229519  18.8276649   6.5367138
  -5.1441962  20.3660560   5.6979495  -3.1850487  19.7611177   6.3647741
  -3.3121076  20.2876902   7.3129523  -2.6720539  20.4460454   5.6864142
  -2.3104943  18.5107958   6.5884250  -2.1852875  17.9900384   5.6367952
  -2.8239501  17.8229630   7.2634906  -0.9040565  18.8279426   7.1363890
  -0.3956207  19.4848239   6.4275420  -0.3239039  17.9033577   7.1684766
  -0.8652624  19.4907546   8.5299826  -1.3280810  20.4781175   8.4718645
   0.1808630  19.6541202   8.7971848  -1.5402718  18.6978567   9.6688062
  -2.6225206  18.7007022   9.5232248  -1.3457906  19.2241752  10.6056249
  -1.0516749  17.2385895   9.7876489   0.0363974  17.2027838   9.7023183
  -1.4576687  16.6636014   8.9527702  -1.4822651  16.5640903  11.1070740
  -1.3760953  15.4813159  11.0133111  -2.5346842  16.7721450  11.3110125
  -0.6304066  17.0235336  12.2640049   0.5243576  16.6584730  12.4309134
  -1.2721488  17.8683650  13.0948865  -0.4776596  18.4669781  14.1540658
   0.3749058  18.9873803  13.7102592  -0.1001476  17.6738846  14.8045552
  -1.2812886  19.4728386  15.0123775  -0.5910195  19.8829401  15.7539916
  -2.4492030  18.8454151  15.7920277  -2.2499688  17.7981985  16.0334599
  -3.3614627  18.9014482  15.1926184  -2.5836837  19.6106112  17.0188391
  -3.8581625  19.5300126  17.9694986  -4.8582345  20.5794072  17.3121941
  -5.5291414  20.3015327  16.0726678  -5.6272531  19.2243314  15.9156382
  -4.9439329  20.7341695  15.2571893  -6.9179720  20.9593129  16.1605871
  -7.3367912  21.0808992  15.1605427  -6.7965508  21.9484663  16.6045606
  -7.9730612  20.2485108  16.9702804  -7.4853432  19.8000932  18.3100224
  -6.6972286  19.0613329  18.1570768  -8.3182746  19.3598425  18.8601899
  -7.0721829  20.6617308  18.8364804  -9.1181064  21.1801291  17.1648860
  -9.4662535  21.4899516  16.1784339  -8.7838387  22.0389652  17.7487910
  -9.9184573  20.6420803  17.6750064  -8.4658635  19.0597725  16.2235856
  -8.8604164  19.3910372  15.2618825  -9.2715871  18.5876656  16.7876828
  -7.6461434  18.3513236  16.0953748  -4.4678399  18.1914186  17.8736842
  -3.4644186  20.0869703  19.2812216  -1.8169278  20.5692530  14.2291069
  -1.0071661  21.6146588  13.9880061   0.1886739  21.5985298  14.2120910
  -1.7838554  22.7929020  13.4501612  -2.4886426  22.4320364  12.6981533
  -2.3769513  23.2083058  14.2675591  -0.9108427  23.9069676  12.8372979
  -1.5676321  24.7285485  12.5438774  -0.2232275  24.3002176  13.5889649
  -0.1288395  23.4294701  11.5999901   0.6843922  22.7685261  11.9070268
  -0.8086982  22.8443027  10.9772265   0.4457545  24.5961976  10.7724798
  -0.3709770  25.2500486  10.4596007   1.1074685  25.1956105  11.4012098
   1.2288552  24.1300321   9.5263863   1.4901020  25.0053024   8.9279574
   2.1683761  23.6787629   9.8521471   0.4807444  23.1091762   8.6395627
   1.1024296  22.8700471   7.7742362   0.3614833  22.1774268   9.1964144
  -0.9045408  23.5730600   8.1444854  -1.4411002  22.7134323   7.7375352
  -1.5054636  23.9282560   8.9842415  -0.7846656  24.6733451   7.1122557
  -0.5295472  25.6535339   7.5068581  -0.9961585  24.5385289   5.8063602
  -0.8980411  25.4095292   5.1634753  -1.3293329  23.2482553   5.0841284
  -1.1667642  22.3747563   5.7189792  -2.3827456  23.2600594   4.7966453
  -0.4795649  23.0942321   3.8129184  -0.6651991  23.9485121   3.1585404
   0.5792953  23.1060767   4.0796375  -0.8074193  21.7814732   3.0751589
  -0.6165112  20.9406424   3.7452495  -1.8727913  21.7588615   2.8365475
   0.0102717  21.5741801   1.7849417   1.0671537  21.4804363   2.0431606
  -0.2878930  20.6253195   1.3341379  -0.1451672  22.6929688   0.7350256
   0.3468173  23.5960674   1.1022174   0.3818936  22.3889804  -0.1717606
  -1.6123293  23.0109668   0.3789512  -2.1302988  22.0792675   0.1420875
  -2.1139523  23.4489775   1.2443911  -1.7612208  23.9714503  -0.8156579
  -1.3839674  23.4835815  -1.7168391  -2.8232172  24.1660810  -0.9792026
  -1.0284181  25.3105950  -0.6205415  -1.1985814  25.9632063  -1.4793822
   0.0485448  25.1552796  -0.5283929  -1.3879119  25.8191490   0.2764547
 -36.8888426  -7.4944657   0.5255393 -37.5560069  -7.3000455  -0.3168123
 -36.2368298  -8.3333439   0.2732966 -36.2692380  -6.6095465   0.6851421
 -37.7018476  -7.8149045   1.7881227 -38.3732986  -8.6531138   1.5905862
 -38.3192635  -6.9501370   2.0399928 -36.7712617  -8.1588918   2.9649988
 -35.9437966  -7.4464703   2.9798228 -36.3332677  -9.1460454   2.8032786
 -37.4712133  -8.1213450   4.3359146 -37.8837848  -7.1235150   4.4989580
 -36.7204213  -8.2914424   5.1104099 -38.5909224  -9.1688949   4.4751620
 -38.2074809 -10.1325166   4.1332987 -39.4314528  -8.9019579   3.8311774
 -39.0826058  -9.3414456   5.9242231 -38.2201838  -9.5686734   6.5543520
 -39.7423244 -10.2109182   5.9595859 -39.8240018  -8.1227046   6.5140486
 -40.8131504  -8.0418938   6.0585046 -39.2810631  -7.2061795   6.2739187
 -39.9601746  -8.2088172   8.0484176 -40.4833794  -7.3215884   8.4111106
 -38.9555097  -8.1854075   8.4756964 -40.7030058  -9.4711912   8.5378599
 -40.2271557 -10.3624642   8.1235403 -41.7282248  -9.4512534   8.1623763
 -40.7307911  -9.6269095  10.0715542 -41.2812281 -10.5394495  10.3097856
 -41.2753677  -8.7932539  10.5197918 -39.3196630  -9.7128439  10.6884694
 -38.8567781  -8.7240630  10.6657660 -38.7027001 -10.3767872  10.0793719
 -39.3317819 -10.2439618  12.1337521 -39.8351669 -11.2129104  12.1481335
 -39.9178219  -9.5741647  12.7665198 -37.9175448 -10.4267144  12.7241695
 -37.3739457 -11.1534071  12.1168137 -38.0161142 -10.8597529  13.7217796
 -37.0756555  -9.1370481  12.8276551 -36.8592811  -8.7506127  11.8295002
 -36.1177254  -9.3844754  13.2898378 -37.7704358  -8.0468816  13.6638713
 -38.0770612  -8.4567261  14.6284819 -38.6734152  -7.6979595  13.1585538
 -36.8734455  -6.8661642  13.9211416 -35.9221387  -6.8903291  14.6836352
 -37.2133565  -5.7813370  13.2040274 -36.8738055  -4.4595659  13.7179506
 -36.1947274  -3.9852953  13.0048084 -36.3667274  -4.5266902  14.6838772
 -38.1674647  -3.5982528  13.8852453 -37.8934026  -2.5434655  13.9686847
 -38.9788890  -3.9614478  15.1557624 -40.0444508  -3.7943861  14.9787879
 -38.6462975  -3.3237323  15.9787750 -38.7652159  -5.3460413  15.5259097
 -39.3309331  -5.9980452  16.8691444 -38.2516980  -5.5402035  17.9574037
 -36.8401551  -5.7346374  17.7469563 -36.3075638  -5.2644432  18.5775661
 -36.5484905  -5.2270913  16.8239307 -36.4449930  -7.2220755  17.6496029
 -35.3980780  -7.2704846  17.3464394 -37.0486331  -7.7051675  16.8798482
 -36.5492082  -8.0810845  18.8736844 -35.7026005  -7.5218403  19.9667168
 -34.7127438  -7.3160893  19.5566738 -35.6540561  -8.2445836  20.7825398
 -36.1539912  -6.5841794  20.2943110 -37.9579329  -8.2096338  19.3431449
 -38.5490322  -8.5926920  18.5099864 -38.3264780  -7.2143203  19.5957446
 -37.9996204  -8.8865393  20.1977444 -36.0509729  -9.4392288  18.5165846
 -36.6635251  -9.8334086  17.7043760 -36.1366940 -10.1116133  19.3714726
 -35.0100875  -9.3707144  18.1969857 -40.5984354  -5.3351170  17.2111869
 -39.2487288  -7.4624699  16.7470086 -38.9978647  -3.7538326  12.7033138
 -38.4585214  -3.3515105  11.5385914 -37.5402331  -2.5530541  11.4722073
 -39.0455675  -4.0646160  10.3464186 -38.3437419  -4.8515096  10.0623381
 -39.9763155  -4.5580956  10.6339109 -39.3125653  -3.1221816   9.1563833
 -40.3430033  -2.7665228   9.2209411 -38.6704326  -2.2406213   9.2109668
 -39.0917873  -3.8000110   7.7944940 -39.5166135  -4.8059770   7.7989680
 -39.6157050  -3.2242358   7.0286876 -37.5955319  -3.8485640   7.4364901
 -37.2125983  -2.8259444   7.4278325 -37.0382524  -4.3962643   8.1993335
 -37.3377657  -4.4860038   6.0632974 -37.4096513  -5.5723184   6.1482471
 -38.1111193  -4.1543525   5.3673118 -35.9554982  -4.0839997   5.5118561
 -35.9324646  -2.9972014   5.4079181 -35.1815701  -4.3573022   6.2321371
 -35.6194282  -4.7205576   4.1497275 -34.6661568  -4.3336549   3.7836111
 -35.4813266  -5.7943457   4.2924526 -36.7186284  -4.4809860   3.1364653
 -37.4483609  -5.2823484   3.0535281 -36.8860340  -3.3854938   2.4044865
 -37.7462864  -3.3227625   1.7429715 -35.9872580  -2.1708128   2.3900795
 -36.4436173  -1.3830267   2.9930645 -35.0101709  -2.3947805   2.8232092
 -35.7975149  -1.6569075   0.9527805 -35.2610970  -2.4182774   0.3826640
 -36.7729211  -1.5276700   0.4791304 -35.0400662  -0.3150305   0.9014123
 -35.7299089   0.4847000   1.1789238 -34.2380595  -0.3127205   1.6425213
 -34.4358802  -0.0027203  -0.4815265 -35.1963758  -0.1401802  -1.2530296
 -34.1365290   1.0472560  -0.5015982 -33.2000661  -0.8752876  -0.7836189
 -32.4929094  -0.7739296   0.0422865 -33.4897399  -1.9273680  -0.8245899
 -32.4706340  -0.4922383  -2.0852762 -32.2072172   0.5665946  -2.0411281
 -31.5330458  -1.0504247  -2.1279280 -33.2571816  -0.7517282  -3.3866170
 -34.2119503  -0.2224659  -3.3590326 -32.6889729  -0.3379464  -4.2223132
 -33.5043359  -2.2450423  -3.6616281 -33.9652729  -2.3760724  -4.6428674
 -34.1738677  -2.6710600  -2.9114959 -32.5632286  -2.7987909  -3.6496231
 -17.1542203   6.2536025  -1.6277203 -17.8046811   6.2595165  -2.5048351
 -17.6869404   6.7182302  -0.7953773 -16.9425499   5.2143705  -1.3676144
 -15.8557439   7.0175743  -1.9303936 -16.1077988   8.0517125  -2.1743000
 -15.3775764   6.5860254  -2.8122017 -14.8605478   7.0106304  -0.7551493
 -15.3571856   7.3978519   0.1369681 -14.0419376   7.6929009  -0.9935783
 -14.2790651   5.6191397  -0.4422622 -13.9373457   5.1599407  -1.3722238
 -15.0563931   4.9741077  -0.0273417 -13.0903387   5.6858295   0.5349725
 -12.3354399   6.3601094   0.1251696 -12.6295650   4.6979526   0.6001688
 -13.4498370   6.1553884   1.9564195 -14.1912842   5.4803044   2.3888333
 -13.8857305   7.1560413   1.9224547 -12.1887636   6.1774713   2.8385654
 -11.4585352   6.8582177   2.3960552 -11.7413247   5.1813513   2.8412700
 -12.4615359   6.6067123   4.2915335 -13.1852961   5.9218472   4.7382951
 -12.8952146   7.6088113   4.3051067 -11.1522901   6.5959299   5.1032341
 -10.4431057   7.2800386   4.6325779 -10.7121301   5.5980015   5.0497305
 -11.3006973   6.9951618   6.5830249 -11.6196513   8.0376291   6.6462225
 -10.3109837   6.9387627   7.0410091 -12.2890925   6.1163002   7.3791564
 -12.1370995   5.0634331   7.1325111 -13.3069897   6.3753957   7.0804614
 -12.1486115   6.3101745   8.9031142 -13.0598617   5.9653187   9.3962282
 -12.0492601   7.3781526   9.1080898 -10.9454882   5.5329674   9.4792092
 -10.0496352   5.7601500   8.8975751 -11.1318934   4.4653752   9.3451750
 -10.6423378   5.7873458  10.9714615  -9.8028082   5.1459432  11.2476063
 -11.4909697   5.4618883  11.5767431 -10.2650893   7.2442573  11.3303089
  -9.8535258   7.7692342  10.4657423  -9.4982970   7.2369939  12.1077669
 -11.4448225   8.0184662  11.8533385 -12.0868468   8.7984335  11.1850655
 -11.6871846   7.7327126  13.1444061 -12.9451931   8.1749701  13.7306881
 -13.2579744   9.1289216  13.2984912 -12.7857101   8.3629704  14.7955191
 -14.0471876   7.0867598  13.5575068 -14.8953462   7.3060346  14.2111087
 -13.5457242   5.6536657  13.8735867 -12.4537671   5.6133652  13.8991702
 -13.8937604   4.9898157  13.0780852 -14.0609682   5.1249427  15.1266444
 -13.5487616   5.6358165  16.5561962 -12.0157123   5.1989377  16.5975177
 -11.3314641   5.2201337  17.8577042 -10.4146564   4.6313706  17.7712810
 -11.9667220   4.7572631  18.6172104 -11.0209227   6.6849285  18.2465291
 -10.6544936   6.7169368  19.2736530 -11.9499242   7.2549140  18.1979883
 -10.0306892   7.4543512  17.4107528  -9.8276025   8.7925327  18.0257070
 -10.6942749   9.4130188  17.7929819  -8.9200556   9.2211014  17.5979602
  -9.7071713   8.6838704  19.1045809  -8.7142611   6.7619455  17.3513913
  -8.8685727   5.7885468  16.8834555  -8.3281988   6.6675943  18.3674300
  -8.0518425   7.3786443  16.7421591 -10.5236483   7.6743293  16.0269594
 -10.6674600   6.7092407  15.5388987  -9.8294973   8.2954836  15.4589784
 -11.4926410   8.1680351  16.1140752 -13.5434282   7.1067917  16.5803623
 -14.2059016   4.8934442  17.6373863 -14.4917333   7.0954639  12.1741545
 -15.2717209   8.1367177  11.8175197 -15.6641030   8.9775944  12.6030636
 -15.5613089   8.1866109  10.3418994 -15.7624793   9.2259657  10.0740659
 -14.6700573   7.8679144   9.7973186 -16.7723799   7.3248065   9.9440640
 -16.5096271   6.2679517  10.0245762 -17.5949347   7.5099921  10.6380188
 -17.2531199   7.6302409   8.5106975 -18.1315970   7.0172769   8.2985300
 -17.5738990   8.6726785   8.4569442 -16.1683571   7.3810357   7.4412018
 -15.3179955   8.0380982   7.6351541 -15.8062398   6.3539022   7.5207818
 -16.6432118   7.6431167   5.9985292 -17.0846200   8.6401552   5.9390414
 -15.7676101   7.6400894   5.3460133 -17.6455951   6.5926558   5.4767329
 -17.2022986   5.6004381   5.5837697 -18.5537243   6.6089755   6.0829502
 -18.0232584   6.8032467   3.9967296 -17.1183705   6.8454111   3.3869234
 -18.5854149   5.9306794   3.6575070 -18.8838518   8.0352706   3.7981322
 -19.9270368   7.9088879   4.0762740 -18.5012531   9.1907018   3.2616940
 -19.2410088   9.9776328   3.1389266 -17.0939803   9.5746261   2.8494656
 -16.8586779  10.5479681   3.2850128 -16.3592815   8.8670284   3.2393196
 -16.9623566   9.6546531   1.3156182 -17.1868801   8.6699432   0.9004077
 -17.7104056  10.3398502   0.9114003 -15.5545151  10.0788426   0.8427779
 -14.8206353   9.4029534   1.2866890 -15.4921365   9.9429142  -0.2389321
 -15.1471376  11.5289021   1.1776081 -15.2538455  11.7087281   2.2494011
 -14.0865326  11.6382861   0.9417769 -15.9451425  12.5878513   0.3881381
 -15.8072317  12.4191582  -0.6819028 -17.0114660  12.4638033   0.5882057
 -15.5560851  14.0411174   0.7334541 -16.1809909  14.7167480   0.1456783
 -15.7902324  14.2302179   1.7831586 -14.0746498  14.3978238   0.4889905
 -13.9240479  15.4471493   0.7510950 -13.4372807  13.8124883   1.1550281
 -13.6183298  14.1879106  -0.9654911 -12.5862265  14.5231485  -1.0873123
 -14.2481303  14.7592199  -1.6506352 -13.6674297  13.1326354  -1.2419824
  -0.7781219  43.1833982   2.2762728  -0.5783407  44.2567015   2.2522886
   0.1809433  42.6638603   2.3285827  -1.3473997  42.9546881   3.1796435
  -1.5675512  42.7670527   1.0216503  -0.9982924  43.0432558   0.1316388
  -2.4990876  43.3360720   0.9912746  -1.9033876  41.2628222   0.9633981
  -2.5327292  41.0862732   0.0886279  -2.4905349  40.9921265   1.8434240
  -0.6561024  40.3610182   0.8711683  -0.0763364  40.4401970   1.7931582
  -0.0227553  40.7249737   0.0594593  -0.9763155  38.8804865   0.5863311
  -0.0378970  38.3401012   0.4455589  -1.5133519  38.8184047  -0.3624579
  -1.8078664  38.1572342   1.6632351  -2.0486102  37.1591854   1.2912078
  -2.7562028  38.6789536   1.8079089  -1.0884882  38.0211973   3.0177638
  -1.0339191  39.0057039   3.4870499  -0.0690437  37.6687288   2.8475806
  -1.8003184  37.0222211   3.9475960  -1.8597052  36.0668421   3.4220612
  -2.8265926  37.3540926   4.1181436  -1.1168373  36.7623234   5.3065372
  -0.0739793  36.4746308   5.1577300  -1.6149297  35.9015131   5.7575041
  -1.2110680  37.9251623   6.3127577  -1.2490956  37.4963570   7.3163235
  -2.1524064  38.4570956   6.1598116  -0.0360000  38.9202499   6.2610203
   0.1405648  39.2381120   5.2313352   0.8782134  38.4245443   6.5941149
  -0.2923869  40.1796484   7.1109134  -1.1769509  40.6865931   6.7197376
   0.5456578  40.8661509   6.9736034  -0.4992664  39.9263930   8.6189377
  -1.3278335  39.2319536   8.7728602  -0.7890205  40.8694696   9.0870333
   0.7597706  39.3958497   9.3274122   1.5736970  40.1078367   9.1755587
   1.0650831  38.4421635   8.8918275   0.5561329  39.2262411  10.8422673
  -0.1817965  38.4452987  11.0373390   0.1671219  40.1548529  11.2651265
   1.8366852  38.8808942  11.5625226   2.8523633  38.4765816  11.0362875
   1.7144723  39.0470624  12.8904581   2.8644422  38.7356806  13.7213182
   3.7193832  39.3289232  13.3869696   3.1127569  37.6762867  13.6180055
   2.5392717  39.0643263  15.2021194   3.4526628  38.9458084  15.7906067
   1.4676259  38.0977368  15.7677746   1.8860728  37.0943522  15.8807850
   0.6362592  38.0583787  15.0593054   0.9131508  38.5344315  17.0367157
   1.7319541  38.5307598  18.4113753   0.8991101  39.5939565  19.2569721
  -0.3017300  39.1860366  19.9349129  -0.0799498  39.1200852  21.0031414
  -0.6217260  38.1993389  19.5904136  -1.4254327  40.2138662  19.6819854
  -1.0888711  41.2019300  19.9993873  -2.2921658  39.9295735  20.2805090
  -1.9547844  40.3749323  18.2783282  -2.2161162  39.0620255  17.6299679
  -1.2639903  38.5591960  17.4541891  -2.7286577  39.2495394  16.6852880
  -2.8537083  38.4734082  18.2912433  -3.2522982  41.1075783  18.3548796
  -3.0893654  42.0885134  18.8037586  -3.9551079  40.5191803  18.9466012
  -3.6437589  41.2082005  17.3415124  -1.0175689  41.1502790  17.4129164
  -0.8489583  42.1322584  17.8574049  -1.4714122  41.2421846  16.4250588
  -0.0795985  40.5978966  17.3396564   1.5602642  37.2054696  19.0378428
   3.0919084  39.0446043  18.1736147   2.0804559  40.4405689  15.2978408
   3.0089954  41.4000559  15.1387656   4.2072260  41.1839485  15.0961888
   2.4043085  42.7697802  14.9668550   1.6686359  42.9301262  15.7577646
   3.1870180  43.5224438  15.0823009   1.7205048  42.9301596  13.5898054
   0.9101508  42.2031689  13.5044968   1.2653482  43.9216995  13.5435700
   2.6750761  42.7648306  12.3874748   3.5095903  43.4620285  12.4872947
   3.0905786  41.7549706  12.3880780   1.9632038  43.0159473  11.0422111
   1.0957479  42.3569632  10.9665883   1.5967560  44.0441847  11.0120761
   2.8901324  42.7679729   9.8369581   3.7499848  43.4383869   9.8975092
   3.2615146  41.7426825   9.8945087   2.1828750  42.9814625   8.4832191
   1.2662944  42.3881912   8.4638542   1.8820506  44.0279436   8.4004551
   3.0415830  42.6172876   7.2518390   2.4290048  42.7747440   6.3616598
   3.8921785  43.2995272   7.1926641   3.5013369  41.1717367   7.2666287
   2.9155785  40.4984283   7.8871971   4.5492467  40.6810522   6.6152400
   4.7832742  39.6238375   6.7106205   5.4543573  41.4528799   5.6798953
   5.5060202  42.5073338   5.9590483   6.4689302  41.0537148   5.7413191
   4.9482027  41.3246775   4.2359161   4.8435208  40.2659893   3.9895749
   3.9555398  41.7763948   4.1808102   5.8893132  41.9880199   3.2124758
   6.0301846  43.0386305   3.4748363   6.8718976  41.5146399   3.2663649
   5.3754520  41.9020128   1.7624760   6.0645258  42.4618816   1.1267213
   5.3973186  40.8630800   1.4269027   3.9498827  42.4634600   1.5862501
   3.2292286  41.7833090   2.0450681   3.8716784  43.4236145   2.1004963
   3.5800192  42.6663589   0.1088757   4.2601672  43.4021378  -0.3252823
   3.7119555  41.7262411  -0.4307845   2.1328220  43.1536961  -0.0691458
   1.4493917  42.3879814   0.3037693   1.9725327  44.0518713   0.5308988
   1.8009630  43.4601307  -1.5384656   0.7796803  43.8361835  -1.6280912
   1.8907855  42.5585461  -2.1480039   2.4856110  44.2127419  -1.9350727
  -4.7851446  33.8366890   0.2095967  -5.4807132  33.2363367  -0.3805106
  -3.7865919  33.7322736  -0.2198831  -5.0818491  34.8855376   0.1436744
  -4.7800753  33.3679557   1.6698021  -4.4354761  32.3323703   1.7054723
  -5.7984722  33.3893847   2.0633407  -3.8763180  34.2524433   2.5442502
  -4.3061748  35.2551317   2.5922143  -2.8925282  34.3470764   2.0798516
  -3.7138015  33.7108898   3.9750451  -4.6922836  33.4469724   4.3817216
  -3.3104479  34.5131898   4.5963991  -2.7686527  32.4929690   4.0373775
  -1.7838705  32.7875543   3.6687478  -3.1354868  31.7055964   3.3756077
  -2.6185349  31.9061565   5.4519492  -1.9497275  31.0442448   5.4043424
  -3.5909846  31.5461922   5.7943386  -2.0681255  32.9211974   6.4687258
  -2.7863321  33.7333846   6.5990859  -1.1456557  33.3517766   6.0736114
  -1.7928222  32.2814465   7.8402609  -0.9887100  31.5490723   7.7428108
  -2.6828662  31.7425585   8.1717533  -1.4173464  33.3138132   8.9184076
  -1.2423035  32.7751517   9.8520374  -2.2633107  33.9832497   9.0877140
  -0.1740706  34.1523075   8.5605359  -0.3795722  34.7464418   7.6676553
   0.6578594  33.4858871   8.3233863   0.2533792  35.1100683   9.6859485
  -0.5799604  35.7716823   9.9314600   1.0653675  35.7388687   9.3148029
   0.7324060  34.3680191  10.9493375   1.5293941  33.6758208  10.6698132
  -0.0796975  33.7682176  11.3654935   1.2515084  35.3288555  12.0313179
   1.8792643  36.0872507  11.5588534   1.8887636  34.7810626  12.7286637
   0.1119766  36.0031152  12.8141057  -0.7434747  36.1760044  12.1577704
   0.4463774  36.9805002  13.1681597  -0.3080022  35.1724172  14.0382230
   0.5280193  35.1200199  14.7387850  -0.5502188  34.1516161  13.7353051
  -1.4984061  35.7550573  14.7529984  -2.3084533  36.4962745  14.2309797
  -1.5272583  35.3758502  16.0415483  -2.7106798  35.7045507  16.8230021
  -3.1455094  36.6435242  16.4710081  -2.3977846  35.8604860  17.8585839
  -3.7913072  34.5863032  16.8109548  -4.6895728  34.9921608  17.2832346
  -3.3412120  33.3295584  17.6026428  -4.1516095  32.5972557  17.6431119
  -3.1027400  33.6264920  18.6271477  -2.1797128  32.7046657  16.9962025
  -1.2210461  31.7176270  17.8063059   0.0494758  32.6133204  18.1596971
  -0.0991967  33.8857317  18.8064659  -1.0046233  33.8838768  19.4187152
  -0.1852890  34.6665978  18.0465424   1.1128134  34.1503763  19.7187960
   1.0834163  33.4786582  20.5779862   1.0384057  35.1816726  20.0668979
   2.4968554  34.0401602  19.1332459   2.5714937  34.5917726  17.7520657
   1.8548416  34.0574789  17.1265888   3.5851124  34.4400811  17.3781002
   2.3233874  35.6533194  17.7949595   3.4224290  34.8033333  20.0119877
   3.3625153  34.4105864  21.0280776   3.1155989  35.8497477  19.9780107
   4.4317934  34.6865034  19.6147287   2.9741123  32.6317954  19.0903342
   3.0163014  32.2393942  20.1074481   3.9654696  32.6420283  18.6349332
   2.2691505  32.0671368  18.4783947  -1.8324067  31.3099957  19.0839028
  -0.7531331  30.6842327  16.8656051  -4.1049749  34.2190051  15.4382229
  -5.2601141  33.5745907  15.1897395  -6.1316878  33.4213543  16.0260236
  -5.3805828  32.9939032  13.7907374  -5.2680886  31.9096112  13.8549292
  -6.3964361  33.1986094  13.4463525  -4.3905899  33.5526681  12.7400815
  -4.7580457  33.3032942  11.7424572  -4.3917847  34.6428943  12.8023160
  -2.9359621  33.0470228  12.8628254  -2.2971192  33.7449765  12.3176622
  -2.6141962  33.0661511  13.9061677  -2.6894799  31.6386414  12.2911572
  -3.3816057  30.9231949  12.7401137  -2.8857172  31.6606164  11.2171590
  -1.2422331  31.1672401  12.5481236  -0.5765088  32.0328450  12.5495350
  -1.1825002  30.7197642  13.5424387  -0.7379360  30.1647758  11.4891326
  -1.4301899  29.3220711  11.4334738  -0.7420981  30.6480002  10.5098772
   0.6801887  29.6242166  11.7651474   0.6495116  29.0041184  12.6634789
   0.9792488  28.9714408  10.9424019   1.7015807  30.7257080  11.9701076
   1.6920233  31.1775804  12.9586864   2.6362488  31.0998845  11.1026669
   3.3498216  31.8653011  11.3968074   2.7447778  30.6447172   9.6627629
   3.3537185  29.7396874   9.6120250   1.7564072  30.4141140   9.2597622
   3.4229293  31.7361856   8.8106942   2.8676006  32.6720572   8.9013463
   4.4215307  31.9136262   9.2153835   3.5740399  31.3803172   7.3196191
   4.2278647  32.1212244   6.8548262   4.0712422  30.4124308   7.2276860
   2.2386257  31.3527918   6.5501457   1.5742768  30.6031680   6.9850838
   1.7483062  32.3241019   6.6429234   2.4525642  31.0366082   5.0582469
   3.1339532  31.7736173   4.6281406   2.9282141  30.0581121   4.9646160
   1.1368561  31.0405374   4.2578191   0.4409090  30.3253698   4.7012794
   0.6778067  32.0293999   4.3201941   1.3688527  30.6750751   2.7794892
   2.0729060  31.3817167   2.3351583   1.8202531  29.6825790   2.7190483
   0.0666216  30.6829977   1.9639653   0.2696321  30.3869033   0.9326661
  -0.3742198  31.6820216   1.9552743  -0.6577068  29.9842715   2.3877501
  25.8111048 -37.1640444   2.3633637  24.7236681 -37.0822716   2.4204740
  26.1666894 -37.7357364   3.2231274  26.0575414 -37.7181554   1.4552379
  26.4543962 -35.7683563   2.3308821  26.0700345 -35.1908445   3.1742153
  26.1528111 -35.2550864   1.4154221  27.9932261 -35.8357716   2.4065527
  28.3631706 -36.4856505   1.6107735  28.2821774 -36.2975383   3.3529893
  28.6923981 -34.4672847   2.2753531  28.5528183 -34.0964460   1.2577777
  29.7655082 -34.6077323   2.4208617  28.1873560 -33.3966064   3.2603922
  27.1265316 -33.2187819   3.0719998  28.7061501 -32.4573064   3.0578279
  28.3921194 -33.7619138   4.7427046  29.4569826 -33.7328315   4.9828717
  28.0402398 -34.7784829   4.9304044  27.6168275 -32.8067493   5.6656379
  26.5564346 -32.8628087   5.4109150  27.9385138 -31.7774439   5.4938346
  27.8086543 -33.1615520   7.1495467  28.7918091 -32.8056026   7.4644643
  27.7922082 -34.2466664   7.2708684  26.7182541 -32.5554109   8.0499119
  25.7583070 -33.0149484   7.8053844  26.6400003 -31.4882302   7.8320450
  27.0297670 -32.7423310   9.5471191  27.8737617 -32.0968533   9.7990978
  27.3562503 -33.7695265   9.7224522  25.8554411 -32.4161816  10.4937184
  25.4577374 -31.4310646  10.2410460  26.2381220 -32.3401761  11.5136421
  24.6992564 -33.4417748  10.4681826  24.2436719 -33.4424353   9.4757581
  23.9247966 -33.1069279  11.1614013  25.1009536 -34.8922253  10.8259022
  25.7469034 -35.2840519  10.0374317  24.2044306 -35.5156922  10.8264673
  25.8307934 -35.0569630  12.1757579  26.7296219 -34.4368267  12.1753764
  26.1680746 -36.0913825  12.2689366  24.9674296 -34.7079325  13.4043527
  24.2136359 -35.4800463  13.5719776  24.4446135 -33.7625980  13.2447672
  25.8283520 -34.5738029  14.6336210  26.3252115 -35.5159736  15.2248383
  25.9854269 -33.2883048  14.9805772  26.8931603 -32.9406929  16.0635340
  27.9164195 -32.9785180  15.6812274  26.7996740 -33.6617565  16.8796074
  26.5794230 -31.5257239  16.6176534  27.4628162 -31.1592889  17.1467984
  25.3977418 -31.5385699  17.6237559  25.1988268 -30.5274630  17.9880941
  25.7010698 -32.1353412  18.4877622  24.1719127 -32.0756102  17.0527649
  23.3514977 -33.2695627  17.7421916  23.7239575 -34.5279813  16.8503988
  23.0954742 -35.7875896  17.1152544  22.4483609 -36.0252309  16.2670684
  22.4744964 -35.7207036  18.0122304  24.1807723 -36.8757725  17.2774947
  24.8294592 -36.8550158  16.4005363  23.6890769 -37.8486800  17.3218071
  25.1010633 -36.8193674  18.4758127  25.8568120 -38.1041574  18.5478640
  25.1482606 -38.9240861  18.6741555  26.5419722 -38.0560255  19.3955195
  26.4156699 -38.2190681  17.6179409  26.1037850 -35.7273531  18.3536160
  25.5599833 -34.7815466  18.3568966  26.6361189 -35.8497667  17.4092019
  26.7875767 -35.7661104  19.2028546  24.3484282 -36.6308761  19.7521901
  23.8837886 -35.6442809  19.7201645  25.0536227 -36.6649246  20.5839467
  23.5906029 -37.4101019  19.8459089  23.9017487 -33.5572314  19.0763938
  21.9119358 -32.9998302  17.5752413  26.3231039 -30.6578207  15.4804349
  26.2864685 -29.3312216  15.6377983  26.3346648 -28.7449265  16.6983688
  26.1159039 -28.6292005  14.3207598  26.2382722 -27.5558591  14.4802153
  26.9023085 -28.9659643  13.6420703  24.7324109 -28.9131021  13.7084150
  24.5628810 -29.9916625  13.6876440  23.9611530 -28.4644532  14.3379712
  24.6251965 -28.3552241  12.2787845  24.8717356 -27.2915530  12.2958088
  25.3654981 -28.8506413  11.6471398  23.2317901 -28.5232019  11.6460693
  22.5110865 -27.9352999  12.2182727  23.2574368 -28.1140256  10.6339514
  22.7518344 -29.9846721  11.5913844  23.5268164 -30.6021452  11.1324787
  22.5966334 -30.3545332  12.6070499  21.4473605 -30.1495123  10.7930517
  20.6883216 -29.4646001  11.1767471  21.6365743 -29.8870611   9.7500837
  20.9038353 -31.5861011  10.8716238  21.7169952 -32.2933006  10.6952572
  20.5341172 -31.7805624  11.8805623  19.7891974 -31.8064070   9.8707318
  18.7917531 -31.5230846  10.1969254  19.9533796 -32.3829842   8.6841029
  19.0942693 -32.5494385   8.0392849  21.2927842 -32.7875614   8.1023651
  22.0975804 -32.1802402   8.5218042  21.4932132 -33.8287520   8.3635485
  21.3289666 -32.6639485   6.5688390  20.5788040 -33.3313990   6.1396182
  21.0848451 -31.6427946   6.2686509  22.7333117 -33.0339813   6.0552007
  23.4373236 -32.2603607   6.3687986  23.0412960 -33.9586639   6.5477180
  22.8566718 -33.2370567   4.5330584  22.5190687 -32.3401213   4.0096137
  23.9131117 -33.3734679   4.2926589  22.0704746 -34.4603395   4.0251684
  22.2748685 -35.3109670   4.6787128  21.0005522 -34.2488933   4.0801460
  22.4475193 -34.8324275   2.5780448  22.3523808 -33.9488745   1.9434221
  23.4976649 -35.1306391   2.5510168  21.5849900 -35.9587264   1.9738227
  20.5619884 -35.5985546   1.8465297  21.9649148 -36.1915040   0.9768586
  21.5612721 -37.2510910   2.8107584  20.9968328 -38.0248785   2.2862320
  21.0855198 -37.0821905   3.7790537  22.5741553 -37.6230240   2.9786804
 -42.0020771  -1.1473233  -1.0493484 -42.7835703  -1.5394622  -1.7035297
 -41.0461903  -1.2117869  -1.5733658 -42.2238493  -0.0953452  -0.8579788
 -41.9657230  -1.9515270   0.2634411 -41.7577028  -2.9975811   0.0290028
 -42.9521227  -1.9189095   0.7307963 -40.9204912  -1.4471196   1.2782931
 -39.9270558  -1.5080921   0.8290353 -40.9288311  -2.1137261   2.1431807
 -41.1895847  -0.0046163   1.7537262 -42.2314024   0.0712344   2.0720485
 -41.0542345   0.6843124   0.9173524 -40.2906179   0.4521221   2.9186967
 -40.4954243  -0.1754586   3.7885591 -40.5648661   1.4750190   3.1850284
 -38.7874007   0.4005878   2.5813881 -38.6074972   0.9493896   1.6546112
 -38.5046411  -0.6383359   2.3993225 -37.8693962   0.9751839   3.6802554
 -37.9979038   2.0582223   3.7348208 -36.8321586   0.7992033   3.3876282
 -38.1181598   0.3685299   5.0761777 -38.2852006  -0.7064817   4.9817753
 -39.0232444   0.8049552   5.5037522 -36.9306874   0.5964015   6.0300010
 -36.6372228   1.6480786   6.0121554 -36.0837221   0.0153018   5.6592751
 -37.2443509   0.1831982   7.4840581 -37.9557204  -0.6452566   7.4750972
 -37.7326035   1.0130778   7.9992020 -35.9949160  -0.2676824   8.2696760
 -35.6055617  -1.1693241   7.7922773 -36.2869287  -0.5543559   9.2821044
 -34.8532033   0.7678013   8.3245951 -34.6661448   1.1596703   7.3226416
 -33.9400458   0.2504347   8.6261576 -35.0755787   1.9481206   9.2877537
 -36.0401392   2.4195923   9.0882456 -34.3062735   2.6961756   9.0851539
 -34.9848056   1.5352161  10.7716084 -34.1010141   0.9118604  10.9226239
 -35.8581567   0.9378541  11.0415673 -34.8955727   2.7701974  11.6890538
 -35.7801509   3.3890748  11.5248120 -34.0185571   3.3680484  11.4323807
 -34.8266006   2.4237242  13.1564832 -34.3690419   1.3841797  13.5976243
 -35.3343153   3.4144366  13.9175439 -35.7996893   3.0852324  15.2551329
 -35.6351089   3.9568520  15.8937573 -35.2516270   2.2391325  15.6774974
 -37.3165178   2.7894720  15.2029860 -37.8119969   3.6882889  14.8271143
 -37.8837919   2.4558841  16.6072464 -38.9736986   2.3823582  16.5706170
 -37.6451898   3.2887757  17.2735870 -37.3136640   1.2545738  17.1940577
 -38.0707693  -0.1745159  17.2181940 -39.4800878   0.1210053  17.9192317
 -40.6764698   0.3123509  17.1355796 -40.4559278   0.9280622  16.2598455
 -41.4155006   0.8387520  17.7449882 -41.2364912  -1.0488006  16.6698825
 -40.4810953  -1.5432680  16.0573792 -42.1143103  -0.8716264  16.0467291
 -41.6526318  -2.0480745  17.7181053 -42.5260973  -1.4299864  18.7576437
 -41.9363451  -0.6799876  19.2867708 -42.8441668  -2.2183456  19.4414592
 -43.3871174  -0.9771830  18.2637846 -42.4261904  -3.1346461  17.0525050
 -41.7814589  -3.6064512  16.3095367 -43.3263779  -2.7284563  16.5888727
 -42.6672173  -3.8970917  17.7947068 -40.4663849  -2.6589310  18.3868694
 -39.8583508  -3.1431130  17.6212716 -40.8072138  -3.4286487  19.0808809
 -39.8841429  -1.8858890  18.8905358 -38.3169961  -0.6452665  15.8438051
 -37.2956824  -1.0488483  18.1099737 -37.5493050   1.7087710  14.2655337
 -38.8135195   1.5241441  13.8411582 -39.7583342   2.1662444  14.2627561
 -38.9143443   0.4968614  12.7434409 -37.9910612   0.5122972  12.1605420
 -39.0089703  -0.4960142  13.1880832 -40.1141930   0.7960051  11.8257284
 -41.0399866   0.6388044  12.3830950 -40.0745153   1.8463792  11.5297472
 -40.1207685  -0.0759815  10.5633247 -39.2283916   0.1478824   9.9750990
 -40.0544691  -1.1216142  10.8710885 -41.3662577   0.0843627   9.6670336
 -41.1750603  -0.4710966   8.7465054 -42.2269154  -0.3856667  10.1474583
 -41.7261028   1.5314774   9.2760742 -40.8110952   2.1172641   9.1661739
 -42.2079706   1.5083475   8.2964152 -42.6971292   2.2150929  10.2656937
 -43.6128807   1.6233209  10.3262842 -42.2682571   2.2425441  11.2695754
 -43.0710030   3.6495191   9.8578477 -43.5828447   3.6186537   8.8937283
 -43.7963104   4.0370753  10.5763113 -41.8640232   4.5737964   9.8314083
 -41.5386772   4.9232778  10.8079243 -41.2383842   5.0143611   8.7423509
 -40.4034519   5.7021987   8.8488239 -41.5531683   4.6010312   7.3186761
 -42.2643375   3.7728414   7.2903264 -42.0089626   5.4434639   6.7942512
 -40.2759266   4.1844583   6.5680885 -39.6614408   5.0672907   6.3797355
 -39.6902466   3.5156384   7.2022188 -40.5738878   3.4523511   5.2440304
 -39.6293926   3.2382867   4.7394770 -41.0275793   2.4881315   5.4825848
 -41.5157413   4.1952634   4.2744881 -41.7588329   3.5242856   3.4479532
 -42.4581814   4.4062302   4.7841620 -40.9608221   5.5132043   3.7007785
 -41.7578602   6.2592810   3.7244734 -40.1592636   5.8911771   4.3388274
 -40.4648590   5.3961325   2.2454230 -41.2986517   5.0590706   1.6260332
 -40.1858616   6.3895541   1.8880166 -39.2755365   4.4404763   2.0262529
 -39.5520401   3.4311619   2.3381719 -39.0617967   4.3927369   0.9564398
 -37.9950356   4.8721966   2.7623165 -37.1843791   4.1756600   2.5384083
 -38.1478286   4.8804316   3.8435426 -37.6899958   5.8712566   2.4440494
  -9.9618548  16.4047325  -0.8846690 -10.5167091  15.8557200  -1.6483353
  -9.1109252  15.7956469  -0.5725841  -9.5900017  17.3295414  -1.3306718
 -10.8780885  16.7082620   0.3092767 -11.1816442  15.7715082   0.7813067
 -11.7843747  17.1866345  -0.0679097 -10.2265239  17.6290512   1.3592471
 -10.9762836  17.8750563   2.1141014  -9.9331278  18.5645270   0.8783423
  -8.9974856  17.0075560   2.0486672  -8.2416075  16.7721593   1.2965365
  -9.2845619  16.0689557   2.5272909  -8.3594829  17.9315948   3.1013727
  -8.1148022  18.8921094   2.6431069  -7.4192488  17.4757886   3.4186491
  -9.2413884  18.1533670   4.3469331  -9.4463402  17.1841919   4.8064554
 -10.2002776  18.5913241   4.0619993  -8.5593897  19.0731716   5.3770041
  -8.5328263  20.0954795   4.9940619  -7.5265777  18.7465835   5.5152154
  -9.2647541  19.0418363   6.7445016  -9.2836934  18.0068648   7.0922655
 -10.3028870  19.3624568   6.6352046  -8.5583937  19.9365449   7.7858722
  -8.8527226  20.9746051   7.6177406  -7.4770737  19.8889506   7.6411444
  -8.8797772  19.5426178   9.2415965  -9.9544978  19.3832839   9.3513781
  -8.5997903  20.3631711   9.9054980  -8.1044167  18.2762253   9.6563613
  -7.0336062  18.4853435   9.6105450  -8.3046067  17.4788284   8.9376503
  -8.4556627  17.7564120  11.0614431  -9.5288998  17.5611019  11.1112440
  -8.2165319  18.5121274  11.8125594  -7.6811427  16.4552021  11.3486183
  -6.6130787  16.6680574  11.4285958  -7.8088748  15.7851040  10.4959059
  -8.1594181  15.7053232  12.6023090  -7.7560067  14.6918786  12.5507784
  -9.2468530  15.6131947  12.5640702  -7.7378768  16.3418365  13.9490068
  -8.0713707  17.3809087  13.9886856  -6.6498470  16.3223505  14.0399742
  -8.3404678  15.5856609  15.1121879  -8.8922316  16.1142623  16.0585952
  -8.2255656  14.2643356  14.9638200  -9.2996466  13.4265137  15.4598975
 -10.2277374  13.6955404  14.9490964  -9.4648790  13.5788083  16.5295458
  -9.0068376  11.9415057  15.1831198  -9.9746573  11.4340746  15.1610231
  -8.1703949  11.2678623  16.2904942  -7.7289927  10.3420699  15.9127104
  -8.8881558  11.0211051  17.0769906  -7.1412015  12.0844817  16.9227421
  -6.4435577  11.5547490  18.2656479  -7.2879004  12.2158611  19.4509196
  -7.3156506  13.6357915  19.6780562  -6.4379221  14.0986764  19.2198193
  -7.2880918  13.8198519  20.7550955  -8.6118364  14.2177618  19.0697038
  -8.6045492  13.9620876  18.0091131  -8.5982639  15.3062034  19.1431403
  -9.9581850  13.7730348  19.6126044 -10.1390457  12.2955835  19.5667577
  -9.9514943  11.9761610  18.5405636 -11.1735952  12.0585597  19.8193645
  -9.4302249  11.8191254  20.2456117 -10.1462555  14.2115521  21.0255313
 -10.0678289  15.2987909  21.0707307  -9.3829560  13.7318611  21.6399813
 -11.1400831  13.8891554  21.3396168 -11.0521615  14.3743002  18.7914979
 -10.9869218  15.4632568  18.8056099 -12.0092964  14.0288281  19.1849768
 -10.9653902  14.0038490  17.7689922  -6.7067319  10.1048326  18.3417869
  -5.0430089  12.0266569  18.3583677  -8.4383154  11.7970145  13.8587379
  -8.8553470  10.7418454  13.1479239  -9.0190381   9.6320999  13.6210430
  -9.1497171  11.1265707  11.7223835 -10.1075733  10.6914604  11.4297152
  -9.2609763  12.2117376  11.6724205  -8.0511910  10.6607831  10.7567275
  -7.0680785  10.9548962  11.1301613  -8.0828971   9.5698255  10.7211101
  -8.2512259  11.2105238   9.3318826  -7.6166737  10.6476068   8.6441827
  -9.2860138  11.0308623   9.0328836  -7.9071224  12.7115142   9.2073983
  -8.4527045  13.2865512   9.9584883  -6.8456995  12.8471327   9.4252354
  -8.2004696  13.3012521   7.8115892  -7.8902560  14.3482304   7.8034657
  -7.5868362  12.7836943   7.0712841  -9.6793175  13.2195914   7.3755491
  -9.7755861  13.6761856   6.3882709  -9.9703342  12.1729207   7.2648531
 -10.6541681  13.9214611   8.3421397 -10.5654228  13.4707522   9.3328208
 -10.3816307  14.9754918   8.4270346 -12.0808041  13.7472653   7.8699422
 -12.3466039  12.7313924   7.5890106 -12.9970860  14.7015643   7.7447015
 -13.9806139  14.4322073   7.3682845 -12.8341269  16.1686897   8.0868447
 -13.7382305  16.5237153   8.5858631 -12.0095932  16.3195479   8.7867361
 -12.5902736  17.0159340   6.8228912 -12.4496615  18.0585897   7.1153992
 -11.6626585  16.6844296   6.3516170 -13.7397254  16.9309485   5.7966709
 -13.9260006  15.8856750   5.5413902 -14.6561110  17.3267221   6.2394613
 -13.4101069  17.6978827   4.5038798 -13.2355678  18.7497532   4.7396067
 -12.4835193  17.2960997   4.0885830 -14.5277119  17.5770330   3.4483331
 -14.8356164  16.5318692   3.3755803 -15.4010975  18.1499410   3.7668252
 -14.0762484  18.0411136   2.0501553 -13.2022071  17.4545026   1.7596357
 -14.8636281  17.8099382   1.3296999 -13.7360632  19.5410299   1.9574833
 -14.6477413  20.1225972   2.1094300 -13.0310690  19.8175228   2.7442482
 -13.1202698  19.9146628   0.5988574 -12.9565334  20.9926748   0.5393358
 -13.7763071  19.6133244  -0.2204557 -12.1560276  19.4201589   0.4640719
 -34.0592837  29.2457247  -1.0734239 -34.9169135  29.9215961  -1.0850424
 -34.2236781  28.4660149  -1.8200772 -33.1760645  29.8233986  -1.3539143
 -33.8671136  28.6231041   0.3198871 -34.7789669  28.1038833   0.6222051
 -33.6785650  29.4140172   1.0488391 -32.7026939  27.6227808   0.3129727
 -31.7791390  28.1657815   0.1016441 -32.8585529  26.9097972  -0.4993239
 -32.5369000  26.8341327   1.6235296 -31.7522693  26.0906243   1.4685638
 -33.4570742  26.2887454   1.8432960 -32.1562862  27.7113223   2.8311238
 -33.0037713  28.3332777   3.1267670 -31.3379884  28.3761072   2.5466728
 -31.7050219  26.8404841   4.0166244 -30.9254479  26.1669540   3.6545664
 -32.5383973  26.2216306   4.3556994 -31.1656499  27.6719189   5.1976377
 -31.9848943  28.2520413   5.6274760 -30.4248881  28.3850169   4.8299071
 -30.5189753  26.8125343   6.3019794 -31.2596583  26.1087847   6.6874504
 -30.2426100  27.4629450   7.1344757 -29.2732143  26.0420537   5.8156985
 -28.5655451  26.7484069   5.3766829 -29.5583606  25.3408313   5.0286520
 -28.5529089  25.2416778   6.9144249 -28.1455183  25.9275961   7.6600868
 -27.7071857  24.7240853   6.4569169 -29.4568300  24.2097163   7.6146823
 -30.0465012  23.6712527   6.8698275 -30.1523829  24.7272110   8.2786614
 -28.6256218  23.1974864   8.4213728 -27.9211664  23.7402511   9.0550995
 -28.0296850  22.6056027   7.7235204 -29.4866014  22.2356558   9.2669761
 -29.4961643  21.2550092   8.7866557 -30.5214453  22.5836563   9.2883748
 -28.9890146  22.0844913  10.7181311 -27.9526901  21.7402816  10.7221174
 -29.5887232  21.3166690  11.2113488 -29.1061020  23.4025717  11.5104485
 -30.1279092  23.7799573  11.4332724 -28.4356308  24.1631150  11.1048555
 -28.7903643  23.2057762  12.9674995 -27.6940250  23.3935595  13.4627473
 -29.8574781  22.7449942  13.6397481 -29.7987175  22.5864744  15.0835967
 -28.8168955  22.2160339  15.3892922 -30.5500937  21.8433237  15.3625405
 -30.1359463  23.9098763  15.8131421 -29.3285584  24.6284652  15.6506467
 -30.3081369  23.5892677  17.3158574 -29.4702554  22.9881263  17.6781225
 -31.2232971  23.0077672  17.4536550 -30.3953791  24.7911310  18.1187832
 -29.0929890  25.6027913  18.5609794 -29.3616915  27.0535898  17.9871762
 -30.5213785  27.7811599  18.4167063 -31.0889268  27.2030163  19.1503882
 -31.1579728  27.9399657  17.5425327 -30.0934100  29.1427135  18.9978409
 -30.9853673  29.7512317  19.1540432 -29.4585252  29.6538973  18.2726550
 -29.3340158  29.1774106  20.3002381 -27.9453683  28.6521792  20.1631188
 -28.0059814  27.5911260  19.9165988 -27.4131584  28.7930346  21.1050272
 -27.4584842  29.1957402  19.3520916 -29.2286396  30.6039047  20.7203054
 -30.2327466  31.0141301  20.8376145 -28.6966658  31.1295891  19.9259841
 -28.6651945  30.6575632  21.6530061 -30.0406814  28.4053802  21.3654971
 -31.0676599  28.7645245  21.4467978 -29.5001292  28.5272169  22.3053026
 -30.0249076  27.3545098  21.0727358 -29.0534425  25.7196355  20.0277281
 -27.9246998  25.0693941  17.8368247 -31.3942885  24.3930101  15.2663279
 -31.5794325  25.7080531  15.0585520 -30.8209753  26.5890527  15.4078770
 -32.8237844  26.0110760  14.2599809 -33.6288071  25.3347278  14.5548582
 -33.1523943  27.0259213  14.4935715 -32.5648975  25.8825803  12.7436292
 -32.2964168  24.8499084  12.5113070 -33.4898067  26.1074400  12.2084200
 -31.4405775  26.8237901  12.2643614 -31.7053366  27.8569841  12.4986172
 -30.5390477  26.5906239  12.8347468 -31.0781693  26.7029405  10.7734954
 -30.1940203  27.3111105  10.5713224 -30.8069849  25.6680822  10.5544341
 -32.2008252  27.1269512   9.8175216 -31.8851757  26.8959069   8.7979889
 -33.0869055  26.5231371  10.0242519 -32.5612116  28.6240983   9.8991656
 -32.9278040  28.8614607  10.9000313 -31.6607165  29.2179084   9.7289914
 -33.6319900  29.0309095   8.8690746 -33.8213253  30.1034951   8.9476544
 -33.2513857  28.8629770   7.8594208 -34.9298167  28.2852340   9.0991068
 -35.5870295  28.7098694   9.8536420 -35.3320074  27.2020626   8.4429151
 -36.3012528  26.7726779   8.6832488 -34.5521617  26.4571190   7.3784190
 -35.0854158  26.5298533   6.4282554 -33.5615802  26.8880463   7.2186881
 -34.4043756  24.9713516   7.7456933 -33.8511777  24.8847342   8.6832076
 -35.3954315  24.5433688   7.9103172 -33.6779594  24.1711736   6.6492617
 -34.3058825  24.1549635   5.7560015 -32.7472711  24.6748805   6.3798958
 -33.3488417  22.7342582   7.0971054 -32.7503204  22.7732658   8.0096376
 -34.2755270  22.2128963   7.3458952 -32.5827527  21.9146538   6.0413343
 -31.5979290  22.3620915   5.8917212 -32.4262238  20.9063673   6.4303327
 -33.3137441  21.8280864   4.6871269 -34.3450117  21.5125489   4.8585594
 -33.3482122  22.8182840   4.2280146 -32.6626420  20.8500504   3.6924914
 -32.7848411  19.8260498   4.0515956 -33.1904101  20.9253669   2.7394694
 -31.1703229  21.1282372   3.4535980 -30.8106184  20.5360174   2.6095870
 -30.5795431  20.8694196   4.3347669 -31.0150313  22.1853089   3.2278922
  17.4888885  38.9832163  -0.3047847  17.4755418  38.7217569  -1.3649382
  17.6251423  38.0654144   0.2710099  18.3410394  39.6414828  -0.1231597
  16.1741066  39.6841550   0.0776883  15.3415811  38.9943361  -0.0756559
  16.0178387  40.5303860  -0.5945715  16.1439395  40.1959324   1.5295365
  15.1857007  40.6928349   1.6948575  16.9255543  40.9469271   1.6620195
  16.3223064  39.0848136   2.5822985  17.3115599  38.6350393   2.4748501
  15.5813038  38.3002281   2.4155535  16.1753881  39.6275282   4.0142816
  15.1675022  40.0226307   4.1575399  16.8710923  40.4569912   4.1572917
  16.4468420  38.5492206   5.0735086  17.4632645  38.1718731   4.9432844
  15.7570970  37.7172065   4.9170956  16.2980306  39.0962219   6.5034348
  15.2921808  39.5018315   6.6307473  16.9921672  39.9281812   6.6393816
  16.5763676  38.0471539   7.5977838  16.4532948  38.5285664   8.5701823
  17.6187456  37.7282929   7.5326538  15.6686354  36.8005514   7.5471795
  15.8452392  36.2203813   8.4552968  15.9610057  36.1638355   6.7095774
  14.1683161  37.1450663   7.4189037  13.9341140  37.3167300   6.3662195
  13.9653230  38.0793118   7.9465801  13.2294428  36.0556722   7.9730451
  13.5616100  35.0716448   7.6356769  12.2233224  36.2173080   7.5805384
  13.1798494  36.1100149   9.5114255  12.8070617  37.0894456   9.8183674
  14.1942656  36.0167742   9.9047822  12.3069847  35.0193024  10.1575077
  12.6845312  34.0370393   9.8658264  11.2748349  35.1022720   9.8107398
  12.3642838  35.1632881  11.6884828  11.8670940  36.0889506  11.9858336
  13.4157789  35.2626348  11.9658864  11.7511094  33.9700580  12.4522126
  12.1869206  33.0465651  12.0653081  10.6727481  33.9209747  12.2873199
  12.0483160  34.0262127  13.9340556  11.2154722  33.8694263  14.8076415
  13.3550179  34.2391491  14.1573238  13.9529467  34.0031242  15.4548776
  13.4846783  33.1271267  15.9109449  13.8125145  34.8705530  16.1048734
  15.4534757  33.7432289  15.1726544  15.5116510  32.9331064  14.4412410
  16.2919641  33.2807279  16.3823330  17.3473501  33.2758927  16.0981035
  16.0044396  32.2593522  16.6445684  16.1254764  34.1130900  17.5556052
  17.0726275  33.9001107  18.8359272  17.7748096  35.3199792  18.9560890
  17.0442402  36.4345074  19.4769871  17.3337829  36.5818167  20.5205941
  15.9704494  36.2338161  19.4402814  17.3953974  37.6722050  18.6217380
  18.4684324  37.8527594  18.7009716  16.8669403  38.5361671  19.0274227
  17.0805371  37.6314139  17.1416903  17.9903603  36.6978264  16.4105940
  19.0256965  36.9525027  16.6418934  17.7959704  36.7677879  15.3393352
  17.7776754  35.6829286  16.7497551  15.6634986  37.2272491  16.8936765
  14.9942207  37.9406261  17.3768330  15.5219924  36.2288666  17.3101974
  15.4908562  37.1914411  15.8170187  17.2843862  38.9952779  16.5695763
  16.6177893  39.6936536  17.0777118  17.0561039  38.9625311  15.5032301
  18.3253348  39.2837811  16.7227817  16.2110102  33.6868691  20.0072241
  18.1100428  32.9102612  18.4941077  16.0301650  34.9699163  14.6248829
  16.0824084  35.0806308  13.2798529  16.0351014  34.1457105  12.5100350
  16.1849689  36.5264034  12.8523290  15.1685083  36.9175267  12.7730000
  16.6889858  37.1040344  13.6300004  16.9128871  36.7339444  11.5081155
  16.4617527  36.1042356  10.7384360  16.7592919  37.7700400  11.1992753
  18.4291577  36.4653516  11.5826738  18.8468409  37.0153713  12.4285364
  18.6130023  35.4030132  11.7561829  19.1446686  36.9139719  10.2944827
  18.7803352  36.3226724   9.4518131  18.8837147  37.9560709  10.0985324
  20.6797075  36.7970896  10.3917301  21.0029030  37.1977305  11.3547957
  20.9761143  35.7464862  10.3627932  21.4037418  37.5878358   9.2822683
  21.0399365  38.6173511   9.2966998  22.4700975  37.6304030   9.5136541
  21.2201643  37.0309401   7.8584564  20.1796889  36.7310429   7.7172738
  21.4159822  37.8389597   7.1504843  22.1349192  35.8480382   7.6023668
  22.2438526  35.1543736   8.4321451  22.8147101  35.6195450   6.4804608
  23.4571362  34.7447515   6.4204961  22.7741027  36.4640260   5.2179629
  22.5099277  37.5008678   5.4362142  23.7710142  36.4897060   4.7730213
  21.7774415  35.9015155   4.1849393  21.7895460  36.5346050   3.2952672
  22.1007013  34.9054623   3.8753513  20.3377175  35.8130193   4.7249988
  20.3303003  35.2488732   5.6599569  19.9720120  36.8175888   4.9476278
  19.3733656  35.1158428   3.7551078  19.3641579  35.6388021   2.7965188
  19.7169662  34.0939212   3.5816783  17.9576147  35.0927854   4.3507475
  17.9870951  34.6321630   5.3404051  17.6198149  36.1229038   4.4819197
  16.9352961  34.3464208   3.4835503  16.9612634  34.7304201   2.4616234
  17.1967852  33.2867432   3.4492996  15.5206907  34.5206428   4.0604481
  15.5219567  34.2780852   5.1251674  15.2246761  35.5679011   3.9704978
  14.4930363  33.6389518   3.3431381  13.5175872  33.7274885   3.8259652
  14.7937131  32.5894880   3.3693585  14.3995333  33.9549375   2.3020463
 -37.2117996 -20.0695944   2.3487855 -37.6613474 -20.1679635   1.3584851
 -36.9106507 -21.0613918   2.6924574 -36.3125443 -19.4563067   2.2611576
 -38.2083821 -19.4336390   3.3311346 -39.1271520 -20.0234604   3.3520842
 -38.4711385 -18.4360099   2.9731420 -37.6321769 -19.3287909   4.7539657
 -36.6712022 -18.8118410   4.7120777 -37.4487519 -20.3314328   5.1457918
 -38.5721970 -18.5600948   5.7004565 -39.4914007 -19.1307449   5.8484101
 -38.8515019 -17.6149333   5.2302217 -37.9281163 -18.2476294   7.0638168
 -38.5963011 -17.5860977   7.6191252 -37.0040679 -17.6891911   6.9002861
 -37.6290464 -19.4977999   7.9141682 -36.8720269 -20.1112604   7.4211687
 -38.5332298 -20.1062512   7.9827660 -37.1668005 -19.1455209   9.3436325
 -37.0230913 -20.0712252   9.9047750 -37.9698682 -18.5994709   9.8430097
 -35.8732224 -18.3066225   9.4286460 -35.7006621 -18.0695844  10.4805493
 -36.0074973 -17.3568368   8.9067841 -34.6401000 -19.0435731   8.8654780
 -34.8098516 -19.2899334   7.8152609 -34.5278335 -19.9891543   9.4000220
 -33.3197665 -18.2515144   8.9645702 -33.3679771 -17.3926032   8.2919568
 -32.5101137 -18.8917375   8.6081463 -32.9866624 -17.7614522  10.3882194
 -33.1231189 -18.5902679  11.0860062 -33.6907077 -16.9801295  10.6820226
 -31.5443802 -17.2340894  10.5388653 -30.8466411 -18.0466306  10.3257895
 -31.3794470 -16.9506216  11.5804541 -31.1814976 -16.0497868   9.6225715
 -31.2304544 -16.3741946   8.5810214 -30.1430869 -15.7742310   9.8181087
 -32.0596862 -14.7963214   9.7922701 -33.0878091 -15.0260592   9.5047832
 -31.6987324 -14.0326393   9.1001970 -32.0409203 -14.2241502  11.2261975
 -31.0137606 -14.0572119  11.5571630 -32.4914956 -14.9385118  11.9183910
 -32.8056598 -12.9282296  11.3402331 -33.4050798 -12.4029350  10.4263878
 -32.7421284 -12.4174392  12.5859666 -33.8521099 -11.5679705  13.0048096
 -34.3020892 -11.0434616  12.1580160 -33.4738493 -10.8203530  13.7066901
 -34.9115324 -12.4394584  13.7258255 -35.7996893 -11.8249202  13.8936615
 -34.3615365 -12.9395616  15.0802863 -33.3186245 -12.6483452  15.2291906
 -34.4220304 -14.0303767  15.1136518 -35.1620817 -12.3804176  16.1496747
 -35.1427722 -13.0405390  17.6047540 -35.6877255 -14.5106184  17.3004723
 -36.9642091 -14.6814764  16.6631258 -36.7855096 -15.1149440  15.6757963
 -37.4650192 -13.7192655  16.5289974 -37.8315520 -15.6494308  17.4886918
 -37.2796249 -16.5806365  17.6247621 -38.7380815 -15.8614504  16.9198918
 -38.2872367 -15.2127934  18.8580251 -38.9593506 -13.8797605  18.8070869
 -38.2098913 -13.1409788  18.5193384 -39.3476510 -13.6380267  19.7975743
 -39.7609544 -13.9086807  18.0675781 -39.2653108 -16.2212288  19.3636835
 -38.7704825 -17.1927726  19.4027901 -40.1133823 -16.2558889  18.6782277
 -39.5948052 -15.9198833  20.3591251 -37.1499562 -15.1458859  19.8230958
 -36.5873504 -16.0794342  19.7757208 -37.5373197 -14.9603939  20.8260012
 -36.5075040 -14.3181944  19.5190156 -33.7464094 -13.1355286  18.0569649
 -36.1605191 -12.3876870  18.4527218 -35.2462578 -13.5832059  12.8841996
 -36.4793611 -14.1190684  12.9543245 -37.3466301 -13.7221777  13.7057233
 -36.6182899 -15.3142369  12.0358610 -36.2566018 -15.0424576  11.0419893
 -35.9482169 -16.0932028  12.4055600 -38.0544877 -15.8893514  11.9547403
 -38.0179834 -16.8456578  11.4288044 -38.4081459 -16.1047566  12.9651809
 -39.0869546 -14.9848902  11.2472177 -40.0772905 -15.4330754  11.3513017
 -39.1222954 -14.0145040  11.7467844 -38.7934923 -14.7789323   9.7489762
 -37.7700520 -14.4145274   9.6383345 -38.8592505 -15.7361674   9.2275941
 -39.7634315 -13.7684143   9.1028297 -40.7852077 -14.1446447   9.1858530
 -39.7276545 -12.8335750   9.6660876 -39.4623041 -13.4697509   7.6163530
 -39.7558713 -14.3347156   7.0179230 -40.0911903 -12.6367259   7.2953629
 -37.9895520 -13.1360829   7.2945279 -37.4000311 -14.0473449   7.4150717
 -37.9222131 -12.8430223   6.2447453 -37.4257302 -12.0589387   8.2021326
 -37.8582931 -12.0249236   9.1987777 -36.4776444 -11.1807442   7.8935969
 -36.1651468 -10.4598200   8.6447179 -35.7279921 -11.0916281   6.5805697
 -36.2079954 -11.6778088   5.7941532 -35.7325077 -10.0532448   6.2426269
 -34.2638516 -11.5390766   6.7518699 -33.7284660 -11.3585079   5.8174074
 -33.7940526 -10.9111595   7.5117874 -34.0939093 -13.0174077   7.1625531
 -33.0373263 -13.1960762   7.3727298 -34.6384454 -13.2022727   8.0908692
 -34.5604968 -14.0191448   6.0887885 -35.6042218 -13.8318658   5.8279681
 -33.9645076 -13.8661945   5.1866436 -34.4191051 -15.4776573   6.5635073
 -33.3744693 -15.6775486   6.8109787 -34.9976158 -15.6057513   7.4807757
 -34.9015617 -16.5155411   5.5309016 -34.8517394 -17.5074339   5.9849167
 -35.9484339 -16.3203299   5.2892053 -34.0750909 -16.5263188   4.2327127
 -34.1363168 -15.5473697   3.7527433 -33.0270386 -16.7209125   4.4697458
 -34.5701551 -17.5774419   3.2309920 -35.6019092 -17.3625267   2.9450592
 -34.5359015 -18.5771155   3.6691058 -33.9511824 -17.5692117   2.3313977
 -16.6712332 -17.8088796   4.4891766 -16.1654973 -17.2360456   3.7090769
 -17.2735536 -18.5833549   4.0097371 -15.9114838 -18.2895863   5.1089883
 -17.5581193 -16.8846536   5.3380865 -18.2565260 -16.3635015   4.6799877
 -16.9237149 -16.1297894   5.8073133 -18.3384681 -17.6398766   6.4325094
 -17.6486409 -18.2960200   6.9673723 -19.0972352 -18.2754731   5.9712559
 -18.9977980 -16.6998231   7.4620140 -18.2186437 -16.0841358   7.9162294
 -19.4274151 -17.3094904   8.2596344 -20.0950718 -15.7820594   6.8798757
 -20.9700227 -16.3797593   6.6159070 -19.7337067 -15.3159666   5.9608346
 -20.5060267 -14.6516800   7.8448397 -21.2042713 -13.9859962   7.3331940
 -19.6183467 -14.0599477   8.0779558 -21.1519289 -15.1334894   9.1597384
 -20.5304527 -15.9120119   9.6071041 -22.1316791 -15.5680192   8.9505970
 -21.2943459 -13.9715409  10.1609814 -21.8657088 -13.1644011   9.6978050
 -20.2968097 -13.5745299  10.3604007 -21.9622588 -14.3396091  11.5026152
 -23.0382323 -14.4392204  11.3450706 -21.8271232 -13.5035908  12.1920168
 -21.4209437 -15.6282699  12.1615195 -20.3299952 -15.5987918  12.1993041
 -21.6958213 -16.4941227  11.5555453 -21.9598055 -15.8206844  13.5909677
 -23.0514669 -15.8156919  13.5642624 -21.6457510 -14.9729037  14.2034233
 -21.4571476 -17.1294808  14.2386842 -20.3731155 -17.1864903  14.1199803
 -21.8850207 -17.9874909  13.7159920 -21.7851114 -17.2170639  15.7433796
 -21.3974237 -16.3180065  16.2269676 -21.2522006 -18.0644393  16.1797571
 -23.2911181 -17.3606575  16.0511053 -23.6019135 -18.3922732  15.8732331
 -23.8561010 -16.7374325  15.3547955 -23.6910653 -16.9311297  17.4795210
 -24.7756076 -16.9978726  17.5880468 -23.4158993 -15.8863854  17.6384342
 -23.0476880 -17.7543950  18.5599232 -23.5872841 -18.6991060  19.1023958
 -21.8127584 -17.3229957  18.8785934 -21.0508871 -18.0683482  19.8658001
 -21.2491274 -19.1342604  19.7273040 -21.3795376 -17.7806783  20.8677411
 -19.5183086 -17.8655362  19.7095764 -19.0756464 -18.8387322  19.9367094
 -18.8881731 -16.8396437  20.6900811 -17.8092694 -16.7901146  20.5222631
 -19.0472806 -17.2053289  21.7077303 -19.4606316 -15.5042267  20.6269097
 -18.7683392 -14.2919660  19.8078871 -19.5480347 -14.2552125  18.4199595
 -20.9904313 -14.2515481  18.3846962 -21.3744926 -14.9823928  19.1009438
 -21.3107038 -14.5574725  17.3854554 -21.5925694 -12.8699911  18.7131536
 -21.3427019 -12.6013112  19.7406054 -22.6749325 -12.9714632  18.6210752
 -21.2284040 -11.6913748  17.8472674 -20.8000064 -12.0945168  16.4737940
 -19.9278581 -12.7422667  16.5740788 -20.5813456 -11.1997294  15.8891380
 -21.6271853 -12.6507688  16.0303497 -22.4198341 -10.7969499  17.7099180
 -22.7543116 -10.4637837  18.6934865 -23.2084084 -11.3761079  17.2272086
 -22.1660376  -9.9341840  17.0922589 -20.1210380 -10.9403706  18.5001433
 -20.4758620 -10.6006277  19.4742870 -19.8335826 -10.1006472  17.8657043
 -19.2983270 -11.6407013  18.6516905 -19.0486348 -13.0169785  20.4943395
 -17.3644781 -14.6615994  19.5271325 -19.1950393 -17.5138950  18.3426309
 -18.0399561 -17.9402399  17.8216970 -17.2787142 -18.7210822  18.3661091
 -17.7793193 -17.3481524  16.4657509 -17.1376026 -18.0321372  15.9064436
 -18.7214375 -17.2440243  15.9235024 -17.0847976 -15.9850216  16.5980446
 -17.7793336 -15.2494073  17.0090854 -16.2549591 -16.0650921  17.3033237
 -16.5510976 -15.4852200  15.2515399 -16.0889900 -16.3159502  14.7141325
 -15.7684135 -14.7457433  15.4333150 -17.6451564 -14.8405707  14.3872464
 -18.4100986 -15.5781806  14.1357350 -18.1255233 -14.0432870  14.9582553
 -17.0297742 -14.2693102  13.1010902 -16.2009895 -13.6063027  13.3579957
 -16.6169953 -15.0962245  12.5194633 -18.0196714 -13.5006607  12.2148645
 -17.4942410 -13.2059431  11.3040817 -18.8232410 -14.1738117  11.9089115
 -18.6219716 -12.2447515  12.8727448 -19.2525756 -12.5342524  13.7159479
 -17.8244913 -11.6144347  13.2717299 -19.4555700 -11.4740336  11.8731451
 -20.5188847 -11.6992807  11.8871450 -18.9955914 -10.5842769  10.9991837
 -19.6936691 -10.1030922  10.3189480 -17.5537384 -10.1515639  10.8463049
 -17.4951434  -9.0849626  11.0729980 -16.8967891 -10.6696951  11.5480316
 -17.0315075 -10.3627264   9.4137734 -17.7016354  -9.8654610   8.7094146
 -16.0537684  -9.8834336   9.3314976 -16.8774712 -11.8415070   9.0161562
 -16.2071300 -12.3314226   9.7254443 -17.8464210 -12.3422849   9.0692663
 -16.2988091 -11.9957650   7.5990123 -16.9916391 -11.5523100   6.8808222
 -15.3579688 -11.4453149   7.5335175 -16.0442066 -13.4729874   7.2423786
 -15.4119992 -13.9200008   8.0124164 -16.9915736 -14.0160656   7.2474509
 -15.3544307 -13.6584127   5.8767104 -14.4087720 -13.1123579   5.8724946
 -15.1131713 -14.7155142   5.7471114 -16.2193978 -13.1920552   4.6904510
 -17.1855927 -13.6999500   4.7216776 -16.4069140 -12.1191645   4.7692344
 -15.5472231 -13.4772289   3.3387870 -16.1800504 -13.1200421   2.5236732
 -15.3884482 -14.5496297   3.2075998 -14.5825326 -12.9696000   3.2743645
  29.3582249 -23.9555478   1.8502566  30.0635910 -24.0014648   1.0179012
  29.7389221 -23.2432270   2.5851950  28.4009218 -23.5908937   1.4720187
  29.1959119 -25.3457642   2.4861276  30.1733446 -25.7003570   2.8198266
  28.8373113 -26.0467148   1.7294657  28.2005954 -25.3243709   3.6627367
  27.2384739 -24.9805689   3.2772651  28.5180378 -24.5976257   4.4134259
  27.9845047 -26.7024684   4.3212673  28.1546736 -27.4940348   3.5885134
  26.9345164 -26.7681599   4.6139690  28.8367391 -26.9609022   5.5816376
  28.5962296 -27.9589319   5.9538722  28.5428810 -26.2497973   6.3565201
  30.3582335 -26.8523264   5.3579700  30.5962920 -25.8525443   4.9888757
  30.6697440 -27.5652647   4.5917177  31.1839581 -27.0823169   6.6371536
  30.8791709 -26.3495326   7.3872191  32.2327971 -26.8871593   6.4041078
  31.0631466 -28.5060287   7.2187644  31.2788296 -29.2291188   6.4294064
  30.0395536 -28.6900353   7.5517190  32.0401073 -28.7541294   8.3866203
  33.0585670 -28.6175513   8.0170935  31.9652486 -29.7981477   8.6978859
  31.8343544 -27.8321314   9.6097541  31.9365001 -26.7897367   9.3008149
  32.6411200 -28.0191159  10.3215337  30.4849982 -28.0113983  10.3393960
  29.6571946 -27.8440928   9.6471429  30.4107046 -27.2491956  11.1178517
  30.3529119 -29.4010091  10.9922624  31.2277341 -29.5589328  11.6264629
  30.3637791 -30.1733327  10.2203417  29.0691018 -29.5557594  11.8322229
  28.2045579 -29.4219828  11.1786687  29.0266681 -28.7611461  12.5800538
  28.9592099 -30.9366941  12.5206614  28.9831424 -31.7035508  11.7436028
  27.9864979 -31.0208154  13.0097640  30.0697780 -31.2669277  13.5457516
  31.0583043 -31.0292649  13.1472600  30.0568533 -32.3417735  13.7381113
  29.8872519 -30.5670786  14.8696303  29.5742822 -31.1568379  15.8828032
  30.0994968 -29.2406702  14.8113132  30.0105262 -28.4861660  16.0540187
  30.8079743 -28.8060784  16.7295802  29.0463066 -28.6695623  16.5349519
  30.1552033 -26.9776964  15.7482004  31.0542464 -26.8540001  15.1390457
  30.3083825 -26.1382508  17.0383394  30.0563216 -25.0899601  16.8588865
  31.3475633 -26.1908293  17.3729885  29.4730830 -26.6683531  18.0981457
  29.6251702 -26.1491609  19.6104789  28.2530975 -25.3615713  19.8522460
  27.0435286 -26.0678983  20.1791739  26.4178038 -25.4099274  20.7876062
  27.2728205 -26.9572186  20.7717848  26.2931132 -26.4576459  18.8868952
  25.3498483 -26.9355440  19.1554928  26.8949461 -27.1798182  18.3332276
  25.9459090 -25.3630114  17.9077876  27.1274638 -25.0075507  17.0844746
  27.8894663 -24.5982933  17.7494121  26.8441463 -24.2412114  16.3614678
  27.5024319 -25.9138060  16.6065824  24.8880792 -25.8520842  16.9845760
  23.9977384 -26.0717177  17.5756228  25.2587938 -26.7592645  16.5051246
  24.6824098 -25.0675797  16.2548292  25.4461527 -24.1299963  18.5782897
  24.5044208 -24.3593526  19.0791070  25.3246808 -23.3596158  17.8153718
  26.2159252 -23.8030386  19.2788804  29.6398830 -27.3241305  20.4924273
  30.7178760 -25.1576090  19.6509027  28.9733672 -26.5225649  15.0254750
  29.1378045 -25.7020354  13.9718807  30.2133179 -25.4053426  13.4888446
  27.8224325 -25.1688480  13.4609663  26.9961953 -25.7243299  13.9095592
  27.7205229 -24.1349125  13.7972057  27.7192569 -25.2349114  11.9262993
  28.5621285 -24.7074437  11.4748454  27.7833390 -26.2759948  11.6030324
  26.4039993 -24.6033025  11.4312160  25.5704093 -25.2686882  11.6654301
  26.2272549 -23.6759686  11.9801021  26.4004922 -24.2724395   9.9266213
  25.3992033 -23.9419007   9.6426702  27.0749426 -23.4320259   9.7497392
  26.8270922 -25.4356217   9.0131164  26.7178631 -25.1190686   7.9737282
  27.8868842 -25.6479216   9.1687822  26.0159659 -26.7246699   9.2366898
  26.1549687 -27.0813513  10.2593911  24.9524951 -26.5222478   9.0934521
  26.4645100 -27.8241801   8.2680857  26.3050437 -27.4726009   7.2466040
  27.5377965 -27.9898858   8.3823735  25.7374740 -29.1245508   8.5289377
  26.1658645 -29.7300863   9.3235296  24.7362351 -29.6153307   7.8045934
  24.3378425 -30.5986810   8.0409712  24.0107131 -28.8756847   6.7025232
  23.0235910 -29.3202877   6.5597534  23.8556647 -27.8427434   7.0210373
  24.7578859 -28.8711476   5.3537887  24.1982770 -28.2517648   4.6497533
  25.7336307 -28.3989382   5.4856992  24.9788094 -30.2614856   4.7365931
  25.3994155 -30.9245348   5.4954880  24.0186691 -30.6815982   4.4298330
  25.9469247 -30.2139831   3.5377541  26.8808389 -29.7524667   3.8652769
  26.1964321 -31.2353039   3.2426059  25.4199409 -29.4412231   2.3100203
  25.0949025 -28.4441924   2.6145580  26.2464142 -29.2913198   1.6122159
  24.2731118 -30.1427913   1.5539420  23.4215784 -30.2908397   2.2213532
  23.9403820 -29.4826078   0.7502551  24.6909332 -31.4928317   0.9375216
  25.6209016 -31.3618755   0.3803233  24.8810577 -32.2202873   1.7294349
  23.6246347 -32.0582080  -0.0140874  23.9605808 -33.0077481  -0.4359589
  23.4373474 -31.3638186  -0.8358009  22.6867199 -32.2297859   0.5182130
  33.3834696  14.2219830   0.8813553  33.5533047  13.7662315  -0.0963512
  32.4301147  14.7537410   0.8529252  33.3160830  13.4232295   1.6229182
  34.5345020  15.1821458   1.2250789  34.5463610  16.0105062   0.5136417
  35.4795885  14.6470916   1.1111078  34.4549966  15.7282066   2.6624835
  35.3951335  16.2351894   2.8895861  34.3687081  14.8891807   3.3560652
  33.2898998  16.7102444   2.8923926  32.3576570  16.2386572   2.5745961
  33.4252405  17.6012921   2.2758049  33.1314588  17.1159005   4.3696803
  33.0309081  16.2052071   4.9638104  32.1956992  17.6700079   4.4685903
  34.2549348  17.9866266   4.9686578  34.2688990  18.9577544   4.4694793
  35.2248979  17.5087607   4.8160690  34.0251780  18.1754494   6.4801514
  34.1133261  17.2000086   6.9630694  33.0009055  18.5183966   6.6405141
  34.9800253  19.1660953   7.1785963  34.7869134  20.1768565   6.8131727
  36.0189486  18.9163327   6.9533819  34.7438812  19.0975583   8.7007803
  35.1056004  18.1297159   9.0541959  33.6674619  19.1246295   8.8825822
  35.4036975  20.2080369   9.5419377  35.1626325  21.1799479   9.1063422
  36.4901876  20.1005149   9.5209289  34.8913169  20.1513124  11.0006011
  35.2787352  19.2508125  11.4817178  33.8028741  20.0642776  10.9870911
  35.2613759  21.3923097  11.8389475  34.9626875  22.2861433  11.2873006
  36.3444066  21.4420962  11.9694400  34.5649219  21.4251924  13.2190311
  33.4895444  21.2978673  13.0782723  34.7090006  22.4145937  13.6581123
  35.0877643  20.3673005  14.2149091  36.1485028  20.5612469  14.3871844
  35.0136685  19.3686557  13.7793839  34.3610978  20.3848910  15.5820298
  34.2094326  21.4113641  15.9223449  34.9991083  19.8983347  16.3227510
  33.0322051  19.6604180  15.5712843  32.3407578  19.5082617  14.5782089
  32.7522230  19.0666664  16.7606974  31.5433693  18.2547152  16.8422163
  30.7527828  18.7132454  16.2427378  31.2068772  18.2612073  17.8821099
  31.7771721  16.7789388  16.3901317  30.8479977  16.4337099  15.9295857
  32.0952153  15.8178902  17.5626016  31.3056803  15.8753359  18.3162463
  33.0409694  16.1039782  18.0298829  32.1578002  14.4451451  17.0711815
  33.4674740  13.5316813  17.2363520  34.5899296  14.2921507  16.3901889
  35.4106593  15.3151870  16.9867933  35.3641129  15.2673006  18.0777514
  35.0482178  16.2966251  16.6704667  36.8679953  15.1117229  16.5285587
  37.5002551  15.8268225  17.0569158  36.9378018  15.3079629  15.4576266
  37.4901581  13.7549663  16.7483830  37.0273685  12.7970111  15.6987238
  35.9538245  12.6435208  15.8179915  37.5599909  11.8556130  15.8414245
  37.2524905  13.2133508  14.7157383  38.9717078  13.8848817  16.6382611
  39.3316793  14.5345283  17.4374235  39.2248511  14.2828548  15.6544840
  39.3981028  12.8876340  16.7564368  37.1782565  13.2009447  18.1010985
  37.5333977  13.8938749  18.8652992  37.6934552  12.2442675  18.1991875
  36.0994220  13.0609190  18.1835008  33.8565254  13.5380781  18.6564386
  33.2308722  12.2181392  16.6060305  32.8731990  16.7406404  15.4383969
  32.6469183  16.2791228  14.1990292  31.6531801  15.6559861  13.8744795
  33.7793827  16.6410899  13.2647312  33.5611606  17.6121330  12.8153777
  34.7057557  16.7342055  13.8353682  33.9367652  15.5751073  12.1753263
  34.1705132  14.6256578  12.6615071  32.9730225  15.4669976  11.6733563
  34.9830723  15.8510244  11.0866356  34.9495816  15.0189352  10.3802574
  34.6789455  16.7419255  10.5332255  36.4321876  16.0310006  11.5797973
  36.5709090  17.0662367  11.8983984  36.6226935  15.3937733  12.4458885
  37.4400878  15.6912792  10.4597390  37.0558238  16.0640419   9.5079762
  38.3825564  16.2102461  10.6465244  37.7228642  14.1735172  10.3699553
  38.5388327  13.9335811  11.0548568  36.8527484  13.6128473  10.7178259
  38.0870414  13.6709595   8.9584684  38.8886666  14.2860293   8.5442823
  38.4689116  12.6526678   9.0570688  36.8656254  13.6431050   8.0579460
  35.9235215  13.4641039   8.5697764  36.8493605  13.8161337   6.7396021
  35.8989692  13.7689257   6.2141532  38.0499578  14.0675449   5.8497179
  38.9176393  14.4048846   6.4204991  38.3185077  13.1338060   5.3512442
  37.7110004  15.1007211   4.7631595  36.8972135  14.7072661   4.1504559
  37.3512506  16.0118032   5.2458334  38.9138031  15.4357481   3.8554531
  39.6650338  15.9791744   4.4323447  39.3775630  14.5069575   3.5167220
  38.5226774  16.2570167   2.6105469  39.4176602  16.4406788   2.0124368
  37.8453827  15.6558800   2.0003241  37.8473473  17.6039100   2.9368290
  37.0192504  17.4394119   3.6294007  38.5675263  18.2529485   3.4393778
  37.3031282  18.3096194   1.6805442  38.1356621  18.7466347   1.1252329
  36.8417382  17.5636613   1.0300609  36.2436533  19.3932092   1.9634421
  36.1006927  19.9842858   1.0564402  35.2908874  18.9081430   2.1857247
  36.5838552  20.3425622   3.1190145  35.8190298  21.1167932   3.2088286
  37.5486827  20.8222651   2.9416543  36.6068769  19.7980845   4.0653110
  36.5240479 -13.8622248   1.4926732  36.1242771 -12.8562891   1.3486525
  35.8563828 -14.5719242   0.9997085  37.5040674 -13.9149868   1.0138816
  36.6386294 -14.1774428   2.9917109  35.6626439 -14.0413010   3.4622231
  37.3109555 -13.4554470   3.4598565  37.1595621 -15.5982769   3.2699263
  38.1566644 -15.7027030   2.8370896  36.5109730 -16.3290465   2.7823091
  37.2211957 -15.8957958   4.7800827  36.2118101 -15.8632982   5.1954740
  37.8021383 -15.1157427   5.2765542  37.8532887 -17.2678304   5.0790656
  38.8495994 -17.3119617   4.6342298  37.2536922 -18.0519879   4.6121135
  37.9676366 -17.5413442   6.5892917  36.9631934 -17.5439918   7.0177168
  38.5310650 -16.7357624   7.0647371  38.6613250 -18.8873351   6.8762970
  39.6604681 -18.8737202   6.4358521  38.1049633 -19.6870494   6.3829559
  38.7912822 -19.2210448   8.3756423  39.4655442 -18.5049129   8.8499755
  39.2499375 -20.2078342   8.4670079  37.4355125 -19.2163360   9.1107213
  36.6917181 -19.7101641   8.4819382  37.1032953 -18.1860328   9.2541456
  37.4616957 -19.9418819  10.4690695  37.7090192 -20.9909630  10.2937794
  36.4559531 -19.9247086  10.8941019  38.4522033 -19.3745208  11.5041113
  39.4654608 -19.3929791  11.0973823  38.4497452 -20.0426245  12.3678803
  38.1128979 -17.9487562  11.9835472  37.0627737 -17.9133737  12.2809577
  38.2501960 -17.2344959  11.1690247  38.9939237 -17.5480258  13.1835461
  40.0337648 -17.4575448  12.8626072  38.9546537 -18.3507395  13.9228523
  38.5454082 -16.2384975  13.8603926  37.4621511 -16.2675500  13.9952064
  38.7679291 -15.3870332  13.2138968  39.2315459 -16.0555494  15.2333713
  40.2919292 -15.8338022  15.0959647  39.1544461 -16.9824207  15.8055854
  38.5928059 -14.9628782  16.0528612  39.1779041 -13.9618993  16.4292026
  37.3099709 -15.2316165  16.3384879  36.5410733 -14.2279506  17.0503759
  36.5015078 -13.3247960  16.4360499  37.0490479 -13.9926481  17.9891217
  35.0926971 -14.6810746  17.3695922  34.5701885 -13.7821901  17.7066994
  34.9890471 -15.7404101  18.4975922  33.9344501 -15.9516096  18.6921966
  35.4254246 -15.3328753  19.4130898  35.6877303 -16.9768918  18.1894493
  34.8925781 -18.3311498  17.8371286  34.4761252 -18.1458640  16.3095915
  35.4718399 -18.0168271  15.2830064  36.2222672 -17.2950840  15.6155634
  34.9877787 -17.6243627  14.3850625  36.1462331 -19.3696725  14.9679732
  36.6429615 -19.7234750  15.8726096  36.9034076 -19.2168450  14.1975141
  35.2797222 -20.5082226  14.4996965  34.3922591 -20.9934092  15.5938888
  34.9977422 -21.1145735  16.4933288  33.9133453 -21.9278622  15.2977240
  33.6455393 -20.2191257  15.7760370  34.4374776 -20.1064825  13.3351088
  35.0783610 -19.7000337  12.5513053  33.7339234 -19.3527305  13.6916888
  33.8889623 -20.9813762  12.9830086  36.1669755 -21.6373920  14.0954971
  36.8054914 -21.3081741  13.2744050  35.5444646 -22.4777842  13.7848520
  36.7696285 -21.9135261  14.9620068  35.8141208 -19.4807661  17.8865707
  33.6498451 -18.3784938  18.6292946  34.4636440 -15.1952386  16.1733711
  33.1914973 -14.8515999  15.9140992  32.5511384 -14.0312183  16.5496230
  32.6311398 -15.6266975  14.7511995  32.6662946 -16.6851735  15.0173867
  31.5821052 -15.3520322  14.6225584  33.3964181 -15.4140365  13.4281766
  33.3217478 -14.3706775  13.1146669  34.4557548 -15.6373310  13.5710549
  32.8185415 -16.3351846  12.3359692  32.7570248 -17.3513508  12.7310491
  31.7987752 -16.0166585  12.1099615  33.6354661 -16.3700902  11.0299170
  33.6876345 -15.3651249  10.6059051  34.6541500 -16.6974771  11.2480164
  32.9869628 -17.3379350  10.0176096  32.8003597 -18.2885134  10.5216372
  32.0124388 -16.9428694   9.7231734  33.8090897 -17.6393998   8.7463605
  34.7786975 -18.0563629   9.0264773  33.2827687 -18.4210575   8.1945777
  34.0129733 -16.4494491   7.7888173  34.2710209 -16.8579948   6.8095487
  33.0690050 -15.9140170   7.6675975  35.1457763 -15.5407631   8.2226568
  36.0963368 -16.0442936   8.3790582  35.0962687 -14.2185974   8.3522391
  36.0047817 -13.6877894   8.6250353  33.8734007 -13.3351326   8.2025582
  32.9445004 -13.9089715   8.2203662  33.8369179 -12.6616645   9.0613794
  33.9410448 -12.4735057   6.9270164  33.2129645 -11.6639650   7.0107371
  34.9283504 -12.0098233   6.8751657  33.6845922 -13.2302070   5.6076276
  33.8958430 -12.5510645   4.7790134  34.3823195 -14.0663266   5.5267322
  32.2345281 -13.7406647   5.4715961  32.0622635 -14.5531309   6.1806005
  31.5490937 -12.9333818   5.7379359  31.8734646 -14.2212391   4.0513936
  30.8414340 -14.5781028   4.0562475  31.9146872 -13.3663881   3.3731651
  32.7899647 -15.3333902   3.5051623  33.8120675 -14.9564815   3.4296161
  32.8092575 -16.1748493   4.2008895  32.3502207 -15.8294570   2.1161108
  31.3435078 -16.2477064   2.1798338  32.3124695 -14.9857843   1.4238285
  33.3088660 -16.8940938   1.5568404  32.9588294 -17.2457230   0.5840628
  33.3706689 -17.7495849   2.2326945  34.3112922 -16.4792705   1.4322278
 -21.6935015  36.7972493  -0.0562920 -21.6286588  37.2818470  -1.0327266
 -20.7476282  36.9498849   0.4676263 -22.4901462  37.2793961   0.5141070
 -21.9776464  35.2974343  -0.2334049 -21.2170506  34.8723626  -0.8916377
 -22.9424882  35.1739120  -0.7296776 -21.9789505  34.5125818   1.0922313
 -21.0107756  34.6344566   1.5823829 -22.1038008  33.4521079   0.8636075
 -23.0961061  34.9414182   2.0585699 -24.0560198  34.8167205   1.5531233
 -22.9782081  35.9990430   2.3035119 -23.1165719  34.1131377   3.3556721
 -22.1835399  34.2685390   3.9013511 -23.1620336  33.0545783   3.0913791
 -24.3218088  34.4347143   4.2659321 -24.3041849  33.7551332   5.1205218
 -25.2409434  34.2149210   3.7188086 -24.3981910  35.8950377   4.7640800
 -25.3761172  36.0614491   5.2206171 -24.3509817  36.5702701   3.9071676
 -23.3047199  36.2928510   5.7769406 -23.0114961  37.3243928   5.5710107
 -22.4153948  35.6765127   5.6296569 -23.7492347  36.2202573   7.2536337
 -24.5662212  36.9294357   7.4021727 -22.9241490  36.5481162   7.8894049
 -24.2126775  34.8234391   7.7101326 -23.3967876  34.1071558   7.5929850
 -25.0339246  34.4959712   7.0692104 -24.7054434  34.8144245   9.1700101
 -25.3720784  35.6655979   9.3235272 -23.8592863  34.9407840   9.8486221
 -25.4635954  33.5150599   9.5080304 -24.7645521  32.6761675   9.5160365
 -26.1959291  33.3177590   8.7223959 -26.2030149  33.5928512  10.8580172
 -26.8489456  34.4733214  10.8610976 -25.4807973  33.7114263  11.6684544
 -27.0634866  32.3403263  11.1051226 -26.4121222  31.4656377  11.1608374
 -27.7375412  32.2013021  10.2573085 -27.8994131  32.4295068  12.3940396
 -28.5147405  33.3315229  12.3798430 -27.2444296  32.4890614  13.2657707
 -28.8034987  31.2328410  12.5411606 -29.9800634  31.2314487  12.2145104
 -28.1622076  30.1662731  13.0424523 -28.9688563  29.0789461  13.5863662
 -29.3971920  28.5141420  12.7543974 -29.7846746  29.4905925  14.1860664
 -28.1158042  28.1489420  14.4987357 -28.6885047  27.2507143  14.7433770
 -27.7498841  28.8308358  15.8418119 -27.0453453  28.2112741  16.4025414
 -28.6616373  28.9341950  16.4356709 -27.1934247  30.1567125  15.6372190
 -26.7774892  31.0991359  16.8573344 -25.3090167  30.5513024  17.1919465
 -24.1444945  31.2938118  16.7834044 -23.2526946  30.7948446  17.1711838
 -24.2118263  32.2933865  17.2204053 -24.0872025  31.4026713  15.2410769
 -23.3885312  32.1909285  14.9568474 -25.0779438  31.7028832  14.8967099
 -23.7175012  30.1839256  14.4409764 -22.2517276  29.9323010  14.5182574
 -21.7089796  30.8071518  14.1572309 -22.0312643  29.0414906  13.9282298
 -22.0176244  29.7063994  15.5596256 -24.4137979  28.9590335  14.9004638
 -25.4872847  29.1082907  14.7754407 -24.1748738  28.8042903  15.9536731
 -24.0573740  28.1017447  14.3274939 -24.1184473  30.4173613  13.0261397
 -25.2027392  30.5378914  13.0180216 -23.8320827  29.5433807  12.4392569
 -23.6298203  31.3218641  12.6609027 -26.6313744  32.4625254  16.3221145
 -27.6549697  30.8295727  18.0076730 -26.9128323  27.7238655  13.7897432
 -27.0961380  26.8945217  12.7464426 -28.1299305  26.3167167  12.4977565
 -25.8848453  26.8052053  11.8587661 -24.9819469  26.8130946  12.4729109
 -25.9227300  25.8551073  11.3217914 -25.8516622  27.9709458  10.8483291
 -25.7782698  28.9156055  11.3911903 -24.9544597  27.8735614  10.2335060
 -27.0821953  28.0224395   9.9213016 -27.1515703  27.0875216   9.3613219
 -27.9893136  28.1141353  10.5222940 -27.0298338  29.2068911   8.9408392
 -26.9537902  30.1394296   9.5039141 -26.1374021  29.1227627   8.3171803
 -28.2784486  29.2566252   8.0450505 -28.2617593  28.3875227   7.3841053
 -29.1727471  29.1730261   8.6661023 -28.3978677  30.5356026   7.1915668
 -29.2734432  30.4342103   6.5469325 -28.5903502  31.3854766   7.8496927
 -27.1686721  30.8620238   6.3179588 -27.4208951  31.6842508   5.6450635
 -26.3570023  31.2209105   6.9542396 -26.6815948  29.6722293   5.5184317
 -25.8660102  29.1112614   5.9675473 -27.1136618  29.3294549   4.3106300
 -26.6629553  28.4791088   3.8053134 -28.2736945  29.9642706   3.5666496
 -28.7540913  29.1970778   2.9558340 -29.0354586  30.3165007   4.2652997
 -27.8592992  31.1397886   2.6569688 -28.6727357  31.3211393   1.9513495
 -27.7599931  32.0421958   3.2638142 -26.5435672  30.9182906   1.8812941
 -25.7047749  31.0802174   2.5614956 -26.4860153  29.8801184   1.5476052
 -26.3787746  31.8330717   0.6518219 -25.3544664  31.7413974   0.2845951
 -27.0390248  31.4829588  -0.1443902 -26.6895533  33.3136415   0.9394699
 -27.7582932  33.4260368   1.1334450 -26.1546350  33.6259890   1.8387820
 -26.2939167  34.2271686  -0.2337386 -25.2066898  34.2312241  -0.3356513
 -26.7010641  33.8110232  -1.1575991 -26.8022513  35.6750011  -0.0951904
 -26.4001870  36.2509584  -0.9312994 -27.8904033  35.6755137  -0.1868051
 -26.4136171  36.3957214   1.2068774 -26.8693042  37.3878145   1.2307313
 -25.3310585  36.5224600   1.2737061 -26.7628765  35.8396101   2.0793581
  41.8953323  -1.9210385  -2.1587820  41.1626101  -1.9167948  -2.9684535
  42.0434713  -2.9548663  -1.8398491  42.8402281  -1.5396111  -2.5514016
  41.4042854  -1.0519738  -0.9864666  40.4649353  -1.4520538  -0.5991405
  41.1739159  -0.0503746  -1.3555063  42.4333477  -0.9373676   0.1558185
  42.0520926  -0.2393312   0.9040521  43.3516073  -0.4973293  -0.2386886
  42.7773523  -2.2793595   0.8381776  43.4599781  -2.0837651   1.6677725
  43.3192539  -2.9116622   0.1317799  41.5561581  -3.0611172   1.3671201
  41.9114304  -3.9867443   1.8247890  40.9188986  -3.3524647   0.5295758
  40.7202959  -2.2795533   2.4007003  40.3802109  -1.3369222   1.9668208
  41.3556385  -2.0321199   3.2536843  39.4860649  -3.0781338   2.8647518
  39.7900319  -4.0846425   3.1597233  38.8058257  -3.1842723   2.0171244
  38.7200904  -2.4208793   4.0300640  37.7583170  -2.9265812   4.1383463
  38.5112190  -1.3767232   3.7880433  39.4700265  -2.4953353   5.3738582
  40.4263115  -1.9737311   5.2969950  39.6792054  -3.5441461   5.5945396
  38.6555886  -1.8851334   6.5281445  37.6781654  -2.3692884   6.5801275
  38.4865069  -0.8304697   6.3010794  39.3396091  -1.9797517   7.9066586
  38.7056112  -1.4656036   8.6320287  40.2899456  -1.4429370   7.8726774
  39.5901179  -3.4265867   8.3810890  40.2843142  -3.9122272   7.6920998
  38.6572695  -3.9929882   8.3430010  40.1947021  -3.5064211   9.7983778
  41.1193371  -2.9258609   9.8200798  40.4710245  -4.5435628   9.9994957
  39.2721558  -3.0128524  10.9334552  39.0327024  -1.9567123  10.7931185
  39.8208785  -3.0909568  11.8743408  37.9706669  -3.8293827  11.0499275
  38.2219911  -4.8920208  11.0598171  37.3214173  -3.6493921  10.1905441
  37.2177100  -3.4966004  12.3122036  36.7249584  -2.4128368  12.5475049
  37.1551943  -4.5423740  13.1615806  36.6550112  -4.3134108  14.5106614
  36.4664268  -5.2880603  14.9679840  35.7033014  -3.7776574  14.4674444
  37.6716757  -3.5481873  15.4068136  37.7461791  -4.1122618  16.3400435
  37.1786356  -2.1234262  15.7547379  36.7176151  -1.6635114  14.8769081
  38.0156231  -1.4950253  16.0697198  36.1920643  -2.2013509  16.8215728
  36.6062450  -2.0228389  18.3578622  37.5475287  -3.2758632  18.6235404
  38.0896735  -3.5306576  19.9298143  38.4701419  -4.5550340  19.9531960
  37.2908735  -3.4437010  20.6707644  39.2147326  -2.5194743  20.2591753
  39.5557451  -2.6941320  21.2806845  38.7997079  -1.5121619  20.2012300
  40.4530954  -2.5024623  19.3966854  40.1653242  -1.9469632  18.0457306
  39.4822860  -2.6391587  17.5511503  41.0946083  -1.8511637  17.4822342
  39.6675038  -0.9835839  18.1655681  41.4682817  -1.6133963  20.0332832
  41.7149258  -2.0069593  21.0204792  41.0381937  -0.6140717  20.1148796
  42.3558283  -1.5897085  19.3992639  41.0339022  -3.8699993  19.2486751
  41.2349653  -4.2854449  20.2372384  41.9494867  -3.8008785  18.6594307
  40.3087234  -4.4840547  18.7126374  37.4236584  -0.8080845  18.4978664
  35.3966546  -2.1953672  19.1792667  38.9832425  -3.4606045  14.7701013
  40.0352383  -4.0720618  15.3416622  40.0130033  -4.5947564  16.4380324
  41.2959194  -4.0008307  14.5218253  41.2106276  -3.2263777  13.7567031
  42.1058512  -3.7104216  15.1942384  41.6116142  -5.3634757  13.8709772
  41.1194801  -6.1561471  14.4383740  41.1966133  -5.3895140  12.8612423
  43.1186390  -5.6864274  13.8378978  43.4719276  -5.7809603  14.8668349
  43.2633162  -6.6633278  13.3718526  43.9955330  -4.6377683  13.1237924
  43.8838482  -3.6702120  13.6175799  45.0416565  -4.9271369  13.2436097
  43.7086964  -4.4655079  11.6203499  42.6927423  -4.0925303  11.4747846
  44.3871641  -3.7004378  11.2371898  43.9000893  -5.7694930  10.8173966
  44.8372269  -6.2454009  11.1136222  43.0925846  -6.4641237  11.0580039
  43.9201355  -5.5403548   9.2960626  43.9443588  -6.5143800   8.8029569
  42.9935408  -5.0502008   8.9900565  45.1479530  -4.7552869   8.8766479
  46.0967731  -5.2401382   9.0916735  45.1657724  -3.5865238   8.2443565
  46.1294651  -3.1578183   7.9815394  43.9614105  -2.7571464   7.8520191
  43.1071949  -2.9748046   8.4965390  44.1951466  -1.6999468   7.9940009
  43.5655928  -2.9848289   6.3807547  42.7463341  -2.3056674   6.1357683
  44.4035864  -2.7229598   5.7314074  43.1186056  -4.4327655   6.0927808
  43.9470863  -5.1242238   6.2600130  42.3242807  -4.6925294   6.7956555
  42.6056242  -4.5964924   4.6522939  41.8371534  -3.8412184   4.4748765
  43.4194374  -4.3962342   3.9522442  42.0007277  -5.9795260   4.3418458
  41.5925694  -5.9452486   3.3295739  42.7890301  -6.7352015   4.3419057
  40.8975506  -6.3975644   5.3376424  41.3720417  -6.8082428   6.2313235
  40.3282213  -5.5217683   5.6559324  39.9079633  -7.4334103   4.7788414
  40.4660892  -8.2674551   4.3483445  39.3152857  -7.8250587   5.6081831
  38.9418983  -6.8537980   3.7287417  38.2200336  -7.6123846   3.4190282
  39.4836950  -6.5176296   2.8422263  38.3905840  -6.0062522   4.1412741
  20.1382327  17.3217762  -2.6137850  20.1734877  17.1501827  -3.6916426
  19.0922916  17.4363768  -2.3216578  20.6642914  18.2541215  -2.3982412
  20.7978535  16.1463916  -1.8693623  21.8194818  16.0341084  -2.2383218
  20.2676678  15.2212191  -2.1047881  20.8465171  16.3381565  -0.3406578
  21.3187599  17.2976446  -0.1196739  21.4860773  15.5594277   0.0800674
  19.4607174  16.2788892   0.3379264  19.0332937  15.2825260   0.2074149
  18.7875426  16.9844580  -0.1534719  19.5041680  16.6295314   1.8394461
  18.4818280  16.6799593   2.2198939  19.9407601  17.6236510   1.9559695
  20.3070092  15.6336784   2.6951414  21.3151002  15.5277026   2.2889574
  19.8258328  14.6543956   2.6511237  20.4050159  16.0852194   4.1630873
  19.4209933  16.0103679   4.6305925  20.7048273  17.1347880   4.1943961
  21.4351320  15.2576721   4.9526426  22.3961377  15.3134274   4.4370624
  21.1378074  14.2069578   4.9605876  21.6262984  15.7542694   6.3989151
  21.8444490  16.8242240   6.3905066  22.4970984  15.2514517   6.8247604
  20.4129696  15.4728091   7.3006165  20.1546550  14.4153345   7.2140980
  19.5514977  16.0466444   6.9527072  20.6755304  15.7871318   8.7867093
  21.6168761  15.3251123   9.0914553  19.8873770  15.3287029   9.3876427
  20.7121420  17.2948349   9.0987533  19.7512531  17.7417183   8.8352126
  21.4781594  17.7782357   8.4888315  21.0071564  17.5557566  10.5878675
  21.9864869  17.1401048  10.8340585  20.2669477  17.0374560  11.2009907
  20.9915781  19.0547538  10.9363854  19.9995840  19.4614315  10.7289577
  21.6977453  19.5812941  10.2909815  21.3614631  19.3071067  12.4118948
  22.3069954  18.8086057  12.6353443  20.6059384  18.8831925  13.0766809
  21.5072656  20.7778692  12.7222943  20.6704283  21.6145325  12.4503064
  22.6843119  21.0343933  13.3160877  22.9742479  22.3776865  13.8023388
  22.5250745  23.1349683  13.1547141  24.0584207  22.5140810  13.7774503
  22.5084424  22.5397921  15.2747989  22.8461599  23.5089755  15.6506717
  23.1275415  21.4179826  16.1369300  24.2137265  21.4737964  16.0285950
  22.7846932  20.4453039  15.7749915  22.8088880  21.5461159  17.5501418
  21.7450905  20.5955005  18.2981670  21.0803628  21.6149354  19.3305969
  20.0395584  22.5066328  18.9088440  19.0804040  22.0887160  19.2251050
  20.0301528  22.5933170  17.8193271  20.2776861  23.8853979  19.5667446
  20.3864479  23.7597680  20.6450152  19.4074988  24.5122910  19.3665826
  21.4586568  24.6998715  19.0983856  21.4014006  24.8457599  17.6286197
  21.6026044  23.8644195  17.1964526  22.1670365  25.5561614  17.3133242
  20.4059362  25.1996303  17.3563993  21.3993883  26.0575032  19.6983862
  21.4521527  25.9660435  20.7842636  20.4587245  26.5207338  19.3969727
  22.2502375  26.6221118  19.3142545  22.7807665  24.1201186  19.4696605
  22.8655314  24.0883636  20.5568981  23.5557580  24.7481132  19.0277421
  22.8411913  23.1124520  19.0558517  20.7221460  20.1457095  17.3410189
  22.5104666  19.5947683  19.0656555  21.0622501  22.4383116  15.3754246
  20.2998590  23.4229922  14.8757935  20.7497478  24.4693661  14.4569254
  18.8113868  23.1615424  14.9084365  18.3774412  23.7018037  15.7523990
  18.3910501  23.5787153  13.9909685  18.4356880  21.6678834  15.0059295
  19.1058969  21.0818601  14.3735862  18.5725272  21.3223910  16.0327578
  16.9837868  21.4232111  14.5540965  16.3135362  22.0446944  15.1515806
  16.8762732  21.7441463  13.5158741  16.5367639  19.9538958  14.6784067
  16.4840460  19.6924937  15.7373464  15.5227959  19.8630655  14.2833340
  17.4536526  18.9325631  13.9728343  18.4169531  18.8987708  14.4860339
  17.0087337  17.9420781  14.0887928  17.6994991  19.1706073  12.4701226
  18.2528090  20.1016164  12.3303676  18.3336568  18.3629000  12.0987499
  16.4127874  19.2132068  11.6286516  15.8013475  18.3409989  11.8691850
  15.8266449  20.0973916  11.8877208  16.7241311  19.1974437  10.1473701
  16.6736746  18.2201767   9.6741122  17.0227969  20.2503037   9.3934447
  17.2164357  20.0971556   8.3348513  17.1690786  21.6857219   9.8598611
  16.5582490  22.3380232   9.2322838  16.8170822  21.8033957  10.8868539
  18.6373115  22.1459961   9.7854543  18.7186205  23.1566858  10.1908636
  19.2273140  21.4940906  10.4330492  19.2463934  22.1186423   8.3681017
  19.0464365  21.1490130   7.9073393  18.7681067  22.8830385   7.7521431
  20.7714796  22.3470640   8.3981633  20.9849167  23.2754850   8.9319670
  21.2382460  21.5387917   8.9649850  21.4279366  22.4188089   7.0037782
  21.1020446  23.3330822   6.5034151  22.5096083  22.4936509   7.1335661
  21.1070013  21.2135315   6.0969132  21.3018990  20.2826405   6.6334951
  20.0447083  21.2327099   5.8446670  21.9281697  21.2271595   4.7938600
  21.9214940  22.2319102   4.3661979  22.9686213  20.9800982   5.0149572
  21.3727522  20.2419329   3.7524736  21.9563937  20.2950549   2.8310603
  20.3344202  20.4806972   3.5130531  21.4161420  19.2204034   4.1359553
   9.1538173  38.4251261  -2.5151324   8.9080256  39.3102932  -3.1054986
   9.2019510  37.5643802  -3.1854010  10.1399672  38.5727334  -2.0699534
   8.0971915  38.2043624  -1.4210273   7.1073836  38.1612921  -1.8802528
   8.1064445  39.0641689  -0.7478943   8.3540100  36.9105721  -0.6251695
   9.3676817  36.9291973  -0.2194775   8.3032393  36.0591269  -1.3070258
   7.3645216  36.6773319   0.5319559   7.5757647  35.6955814   0.9609187
   6.3450146  36.6451454   0.1420418   7.4705362  37.7411103   1.6442627
   7.0971227  38.7008286   1.2809932   8.5239494  37.8687310   1.9021335
   6.6901040  37.3469663   2.9104951   6.8291348  36.2775850   3.0824193
   5.6211776  37.5060105   2.7537638   7.1512997  38.1114388   4.1680580
   6.8669146  39.1631079   4.0933692   8.2407320  38.0781579   4.2350912
   6.5423894  37.4822688   5.4348719   6.6955280  36.4018297   5.3940624
   5.4642272  37.6549935   5.4208398   7.1510959  38.0029416   6.7547745
   6.9039547  39.0568089   6.8988264   8.2389218  37.9310775   6.6920537
   6.6833413  37.1784186   7.9722553   7.2501355  37.4814415   8.8550830
   6.9290930  36.1312461   7.7838451   5.1744431  37.3016620   8.2762247
   4.6134171  37.4370265   7.3491925   4.9911028  38.1883597   8.8866490
   4.6039951  36.0530090   8.9706808   4.8064259  35.1812148   8.3450127
   3.5183850  36.1570144   9.0263391   5.1464516  35.7982850  10.3896141
   4.8331544  36.6154289  11.0427511   6.2381685  35.7741666  10.3835773
   4.6005830  34.4596338  10.9216535   5.1208609  33.6350417  10.4299021
   3.5511833  34.3866229  10.6285810   4.6687466  34.2775798  12.4487054
   4.0005183  33.4612274  12.7306712   4.3182367  35.1806521  12.9527533
   6.0430199  33.9299965  12.9466581   6.3380677  32.8394556  13.3931780
   6.9018281  34.9628162  12.8551972   8.2401383  34.8222804  13.4096789
   8.9457959  35.2424383  12.6884568   8.5084409  33.7733817  13.5595918
   8.3480334  35.5931163  14.7520995   9.3347353  35.4228687  15.1903737
   7.2832662  35.1033735  15.7525647   7.1701705  34.0196157  15.6669784
   6.3152081  35.5680895  15.5487263   7.7226776  35.4148269  17.0948446
   6.9366956  34.8805189  18.3785391   6.3976783  36.2266827  19.0433705
   5.2903348  36.9454479  18.4694922   4.7787669  37.4921846  19.2657506
   4.5740023  36.2479305  18.0279207   5.7712436  37.9207850  17.3801386
   4.8860142  38.4069943  16.9675255   6.2863010  37.3766041  16.5871286
   6.6730320  39.0449214  17.7893674   8.0448997  38.5373640  18.0894339
   7.9764074  37.8714037  18.9508808   8.7028515  39.3810129  18.3030534
   8.3949614  37.9665685  17.2280800   6.7511517  40.0014687  16.6514373
   5.7569361  40.4223824  16.4944351   7.0627588  39.4509912  15.7625306
   7.4599314  40.7946014  16.8940306   6.1170262  39.7708488  18.9686739
   5.0804621  40.0242758  18.7415314   6.7080021  40.6695032  19.1515601
   6.1490470  39.0985179  19.8272943   5.7679552  34.0981960  17.9306483
   7.9190946  34.2426467  19.2648542   8.1581533  37.0232010  14.5230079
   9.1475791  37.6557398  13.8581407  10.2373433  37.1688890  13.6408675
   8.7635708  39.0379333  13.4024537   8.2749730  39.5704818  14.2210650
   9.6734220  39.5847344  13.1462479   7.8298640  38.9850974  12.1771872
   8.3176619  38.4339476  11.3704956   6.9132888  38.4502363  12.4346316
   7.4786454  40.4012871  11.6874993   6.9971842  40.9540653  12.4968767
   8.4039468  40.9244728  11.4373887   6.5462625  40.3890753  10.4623139
   7.0151919  39.8310494   9.6491843   5.6275201  39.8588514  10.7216227
   6.1732334  41.8041420   9.9754441   5.4903972  41.7057562   9.1289705
   5.6257558  42.3133516  10.7713342   7.3517752  42.6999664   9.5429575
   6.9517308  43.6578512   9.2040056   7.9934043  42.9073048  10.4019034
   8.1929451  42.0878839   8.4104562   8.6003542  41.1257219   8.7278324
   7.5476533  41.8896580   7.5521040   9.3098074  43.0147600   7.9827422
   9.0346873  43.7571859   7.2379720  10.5826759  42.9148912   8.3553994
  11.3107097  43.6052132   7.9370791  11.1239183  41.9847393   9.4221354
  11.7473793  42.5767088  10.0954366  10.3188431  41.5716553  10.0334263
  11.9899166  40.8332062   8.8672775  12.7753377  41.2361670   8.2244706
  12.5017226  40.3797913   9.7187084  11.2183452  39.7018433   8.1462920
  11.8645370  38.8222051   8.1126082  10.3535092  39.4208217   8.7508982
  10.7498300  39.9882364   6.7042470  10.2460897  39.0967941   6.3247210
  10.0089085  40.7904148   6.7022926  11.8922698  40.3530788   5.7392496
  12.3868096  41.2610388   6.0906708  12.6329708  39.5507145   5.7328898
  11.3727117  40.5837727   4.3077037  10.8143651  39.7026610   3.9846656
  10.6766987  41.4252186   4.3075293  12.4979699  40.8562279   3.2921350
  13.1803501  40.0040245   3.2683247  12.0717216  40.9544325   2.2915699
  13.3104253  42.1145201   3.6065876  14.0799165  42.2592545   2.8454059
  13.8152051  42.0119858   4.5694727  12.6655555  42.9954910   3.6288577
 -15.5159020  35.8809280   1.4255883 -14.4982576  36.1147046   1.1058854
 -16.1034250  36.8010426   1.3996755 -15.9494722  35.1720142   0.7171222
 -15.5035758  35.2892113   2.8425774 -14.9965155  35.9843016   3.5150370
 -14.9286425  34.3608356   2.8367254 -16.9237542  35.0113988   3.3682489
 -17.4277508  34.3118787   2.6980823 -17.4950111  35.9420204   3.3597004
 -16.8993580  34.4287729   4.7947001 -16.4294291  35.1460719   5.4707998
 -16.2743008  33.5333657   4.7983399 -18.2942963  34.0481210   5.3315502
 -18.1789792  33.6283827   6.3330418 -18.7078547  33.2558584   4.7040537
 -19.3117440  35.2061868   5.3935063 -20.2488685  34.8097110   5.7898253
 -19.5238435  35.5620217   4.3831304 -18.8642228  36.3931727   6.2726206
 -17.9586267  36.8409061   5.8580154 -18.6191499  36.0220385   7.2699475
 -19.9664414  37.4691606   6.3590217 -20.8785534  37.0186853   6.7559940
 -20.1923656  37.7989578   5.3428245 -19.6257257  38.7176514   7.2001296
 -20.1810050  39.5574498   6.7772001 -18.5684383  38.9687610   7.0926511
 -20.0163960  38.6222148   8.6931992 -21.0805106  38.3862162   8.7597430
 -19.8950016  39.6093249   9.1441333 -19.2396569  37.5876856   9.5340037
 -19.4733965  36.5853739   9.1690403 -19.6002650  37.6303577  10.5638611
 -17.7102172  37.7851605   9.5312405 -17.3465526  37.8011918   8.5016996
 -17.2481418  36.9219351  10.0147617 -17.2500694  39.0605879  10.2651620
 -17.4521935  38.9453506  11.3320875 -17.8208697  39.9234724   9.9157560
 -15.7529044  39.3409014  10.0348294 -15.6204939  39.6472669   8.9950830
 -15.1824450  38.4206223  10.1766980 -15.1739550  40.4382610  10.9489548
 -15.9411943  41.1736679  11.1999190 -14.3731463  40.9591341  10.4199338
 -14.5905566  39.8504710  12.2086632 -13.3955538  39.7666454  12.4070287
 -15.5366659  39.4419408  13.0807996 -15.1209569  38.7210774  14.2729414
 -15.8468187  38.9461350  15.0585127 -14.1358674  39.0550733  14.6086454
 -15.1271141  37.1909308  14.0304267 -16.0900736  36.9206381  13.5896289
 -14.9285173  36.4109516  15.3551853 -14.8362625  35.3403139  15.1555061
 -15.8106363  36.5555525  15.9841585 -13.7413776  36.8595457  16.0631728
 -13.8425612  37.5028610  17.5229990 -14.4028771  38.9712286  17.2539604
 -14.2041647  39.9988699  18.2388234 -14.5005047  40.9611320  17.8135157
 -13.1420398  40.0431061  18.4929574 -15.0427115  39.6721554  19.4984460
 -14.7353458  40.3284407  20.3139806 -14.8260081  38.6433148  19.7896636
 -16.5477967  39.7676921  19.4144285 -17.1170306  38.8932180  18.3482146
 -16.7143738  39.2190361  17.3880112 -18.2058811  38.9606166  18.3601427
 -16.7867458  37.8717828  18.5428071 -17.1169472  39.3099785  20.7147455
 -16.7326546  39.9456906  21.5137887 -16.8057966  38.2754326  20.8670068
 -18.2048869  39.3729925  20.6628156 -16.9822466  41.1765146  19.1713548
 -16.5798223  41.8118906  19.9616921 -18.0727005  41.2105656  19.1770172
 -16.6053617  41.4921618  18.1973898 -14.8870420  36.8002081  18.2848787
 -12.4827552  37.6366496  18.0706620 -14.0687621  36.8542194  13.0973697
 -14.1056836  35.6656408  12.4768710 -14.9257314  34.8003650  12.7194417
 -12.9747081  35.5061746  11.4930081 -12.5751138  36.4906025  11.2406361
 -12.1758568  34.9571443  11.9958663 -13.3854306  34.7533512  10.2105451
 -12.4768507  34.4514537   9.6853739 -13.9170015  33.8382411  10.4797530
 -14.2443192  35.5656171   9.2256874 -14.5753551  34.8984408   8.4270918
 -15.1386237  35.9400344   9.7281766 -13.4585464  36.7346454   8.6040556
 -13.2630408  37.4932861   9.3647820 -12.4909055  36.3721776   8.2508504
 -14.2030990  37.3766208   7.4226481 -14.3299437  36.6362333   6.6300571
 -15.2000511  37.6903176   7.7391034 -13.4255874  38.5855055   6.8743789
 -13.3253050  39.3433070   7.6542151 -12.4181592  38.2636905   6.6023725
 -14.0883350  39.2115092   5.6386340 -13.4179020  39.9842954   5.2568203
 -14.1897154  38.4539509   4.8587036 -15.4145479  39.8598409   5.9702343
 -15.3939354  40.5305862   6.8253613 -16.5433609  39.7419381   5.2781123
 -17.4134457  40.3075218   5.6015879 -16.7801321  38.8667321   4.0632942
 -16.1725307  37.9603386   4.1049200 -17.8225160  38.5415101   4.0746653
 -16.5200818  39.6172214   2.7408171 -17.0486283  39.1026974   1.9356048
 -16.9448888  40.6207323   2.8112864 -15.0243759  39.6927786   2.3688993
 -14.4577408  40.1223278   3.1976792 -14.6493697  38.6794448   2.2108243
 -14.7361493  40.5316591   1.1122347 -13.7206697  40.3164244   0.7732064
 -15.4156280  40.2459574   0.3065381 -14.8510003  42.0395708   1.3968179
 -15.8797777  42.2835875   1.6698289 -14.2089474  42.2842169   2.2455710
 -14.4339299  42.8918457   0.1887922 -13.3876681  42.6925135  -0.0521801
 -15.0248837  42.5802326  -0.6749980 -14.6316767  44.4037962   0.4051936
 -14.3532014  44.9255991  -0.5127602 -15.6886971  44.6106482   0.5851486
 -13.7978864  44.9646664   1.5685032 -13.9046919  46.0502100   1.6199440
 -12.7426183  44.7245121   1.4229080 -14.1247153  44.5457649   2.5225306
  37.5367141 -11.1281943  -1.3383234  37.2708178 -11.4400840  -2.3504928
  37.0181513 -10.1930761  -1.1167166  37.1847582 -11.8959367  -0.6461076
  39.0592718 -10.9382772  -1.2185481  39.4092345 -10.3038716  -2.0355675
  39.5513105 -11.9070709  -1.3271782  39.4851494 -10.3065932   0.1183587
  39.0908027  -9.2897540   0.1730507  40.5749464 -10.2419102   0.1433564
  38.9910793 -11.1032999   1.3379316  39.2446017 -12.1572471   1.2060782
  37.9027057 -11.0360479   1.3961229  39.5886588 -10.6071019   2.6652163
  39.3185353  -9.5597279   2.8152290  40.6782579 -10.6701136   2.6296979
  39.0526462 -11.4554143   3.8284764  39.2578149 -12.5061262   3.6131302
  37.9687715 -11.3321412   3.8783109  39.6557069 -11.1214435   5.2008533
  39.5026875 -10.0641763   5.4271984  40.7315207 -11.3080657   5.1846123
  38.9839411 -11.9665945   6.2964046  38.9910507 -13.0198789   6.0083014
  37.9360294 -11.6705036   6.3780969  39.6564102 -11.8181181   7.6692325
  39.7346330 -10.7589722   7.9233122  40.6672430 -12.2296655   7.6329863
  38.8308525 -12.5407255   8.7458551  38.7452459 -13.6001146   8.4951937
  37.8240776 -12.1179903   8.7330520  39.4422722 -12.3959625  10.1511931
  39.6393919 -11.3404322  10.3498459  40.4033232 -12.9137194  10.1789689
  38.5348463 -12.9499710  11.2670267  39.0493226 -12.8256476  12.2221828
  38.3757186 -14.0200305  11.1183119  37.1746397 -12.2279632  11.3248718
  36.5644383 -12.5114012  10.4647660  37.3455667 -11.1510694  11.2653124
  36.3918853 -12.5319040  12.6105988  37.0223522 -12.2834182  13.4668875
  36.1626625 -13.5978150  12.6718879  35.0882006 -11.7101526  12.6709294
  34.3342280 -12.1363127  12.0058155  35.2865052 -10.6915569  12.3309267
  34.5421672 -11.6301143  14.0721548  34.6812081 -12.4930978  14.9119961
  33.9141369 -10.4631889  14.3076074  33.5903883 -10.1281512  15.6881642
  33.0359316 -10.9483540  16.1513031  32.9597712  -9.2354614  15.6794202
  34.8811007  -9.8317057  16.4975286  35.3988290 -10.7710123  16.7080319
  34.5560622  -9.1444117  17.8412271  33.5625696  -9.4554567  18.1741989
  34.5566773  -8.0609500  17.6971519  35.5003357  -9.5065385  18.8909018
  36.8638325  -8.6898208  19.1675150  37.7969766  -9.7725201  19.8963249
  37.8997588 -11.1299098  19.4154239  36.8985987 -11.5683854  19.4070482
  38.5155320 -11.7022967  20.1138830  38.5004187 -11.1896479  17.9944706
  37.9566431 -10.4811859  17.3678374  38.3564305 -12.1847057  17.5709081
  39.9541426 -10.8715820  17.7868176  40.3062439  -9.5125717  18.2902801
  39.6598125  -8.7948614  17.7830279  41.3577700  -9.3084377  18.0831552
  40.0948620  -9.4782192  19.3600559  40.8135033 -11.8975616  18.4458196
  40.5349827 -12.8718972  18.0416191  40.6389999 -11.8607306  19.5221436
  41.8573523 -11.6790438  18.2157922  40.2245712 -10.9107852  16.3216007
  39.9854803 -11.9116318  15.9590745  41.2734127 -10.6728864  16.1382461
  39.5660949 -10.1867902  15.8393967  37.4983501  -8.3482593  17.8853226
  36.5450191  -7.6081139  20.1164174  35.6988358  -8.9093333  15.7286274
  36.8820500  -9.3535662  15.2642179  37.2457337 -10.5145347  15.2989781
  37.7322030  -8.2723111  14.6539807  37.2050071  -7.3178703  14.7137201
  38.6480975  -8.1802416  15.2414525  38.0592465  -8.5986775  13.1861413
  38.4774685  -9.6045995  13.1107938  37.1244645  -8.5876966  12.6217604
  39.0632629  -7.5948304  12.5900400  38.7117290  -6.5792179  12.7834785
  40.0204849  -7.7069867  13.1034684  39.2928815  -7.7585465  11.0755241
  39.9809670  -6.9777644  10.7447958  39.7705626  -8.7198645  10.8751464
  37.9832006  -7.6612842  10.2722669  37.4004030  -8.5702997  10.4350662
  37.3871803  -6.8265742  10.6470788  38.2084084  -7.4737000   8.7603217
  38.8819075  -6.6303301   8.5942161  38.6907530  -8.3631575   8.3496231
  36.8899965  -7.2090942   8.0095476  36.4624906  -6.2731242   8.3751476
  37.1061349  -7.0562899   6.9501150  35.8920193  -8.3299071   8.2358527
  35.4806161  -8.3735836   9.2410433  35.4892659  -9.2286557   7.3438811
  34.7609997  -9.9764723   7.6471424  35.9263182  -9.3209112   5.8962631
  36.6598940  -8.5546499   5.6370878  36.3943863 -10.2900481   5.7114673
  34.7027683  -9.1928661   4.9797925  34.0597129 -10.0666749   5.1039016
  34.1305995  -8.3142483   5.2849478  35.0860071  -9.0325642   3.5007930
  35.6739950  -8.1171584   3.4071827  35.7172537  -9.8628867   3.1774411
  33.8323522  -8.9571416   2.6096928  33.4802270  -9.9734575   2.4210821
  33.0355549  -8.4446335   3.1527543  34.0388632  -8.2348377   1.2633473
  34.9214101  -8.6227047   0.7503822  33.1785631  -8.4724122   0.6341363
  34.1127419  -6.6959465   1.3954027  33.5510778  -6.2548780   0.5692922
  33.6107421  -6.3857037   2.3142123  35.5379725  -6.1092663   1.3670823
  36.1487103  -6.5407139   2.1628937  36.0104346  -6.3730872   0.4185880
  35.5393744  -4.5789173   1.5258595  36.5615225  -4.1963470   1.4895308
  35.0991583  -4.2920440   2.4831355  34.9674201  -4.1087148   0.7232132
  -5.8130544  39.3669224   1.9849508  -4.9789268  39.8581529   1.4795926
  -5.8667266  39.7555351   3.0040500  -6.7346948  39.6285367   1.4609264
  -5.6080174  37.8416371   1.9858307  -4.6765292  37.6035476   2.5036207
  -5.4900789  37.5005865   0.9551805  -6.7721117  37.0634508   2.6304942
  -6.5598804  35.9943271   2.5641805  -7.6782197  37.2449851   2.0487058
  -7.0554096  37.4222684   4.1024265  -7.8925413  36.8138099   4.4509307
  -7.3766172  38.4641457   4.1639072  -5.8536333  37.2044420   5.0438076
  -5.0093293  37.8123498   4.7120520  -5.5491328  36.1564755   5.0049698
  -6.2075484  37.6019049   6.4878315  -7.0565611  37.0032811   6.8244165
  -6.5411657  38.6416650   6.4800441  -5.0370634  37.4911761   7.4876827
  -5.3359151  37.9428124   8.4359324  -4.2194408  38.1046605   7.1035033
  -4.4863549  36.0727572   7.7598643  -3.4515277  36.1878252   8.0890399
  -4.4500753  35.4892373   6.8375570  -5.2243137  35.2811575   8.8628340
  -5.3414011  35.9191656   9.7412980  -4.5852816  34.4474363   9.1611814
  -6.5927213  34.7053051   8.4451115  -6.4651418  34.1338897   7.5233352
  -7.2937602  35.5146670   8.2307684  -7.2113675  33.7790322   9.5113879
  -6.4876354  33.0005121   9.7615451  -8.0785644  33.2779670   9.0762269
  -7.6393002  34.4771075  10.8161414  -6.7933995  35.0424790  11.2127125
  -7.8873086  33.7115717  11.5543222  -8.8652152  35.3937411  10.6328583
  -9.6900105  34.7865009  10.2541280  -8.6580884  36.1541748   9.8770124
  -9.3344301  36.0878992  11.9280291  -9.3861419  35.3691864  12.7485394
 -10.3514636  36.4470482  11.7573833  -8.4922117  37.3110104  12.3382401
  -9.0435296  37.9036331  13.0712545  -8.3433056  37.9473543  11.4633954
  -7.1525943  36.9673133  12.9354572  -6.9791269  36.0605073  13.7272835
  -6.1850798  37.8093052  12.5343847  -4.8566034  37.7269244  13.1351995
  -4.1370744  38.1119633  12.4081016  -4.6013802  36.6845775  13.3426094
  -4.7240916  38.5771823  14.4286597  -3.6711770  38.5639048  14.7216499
  -5.5760789  38.0130529  15.5895114  -5.2574563  36.9883204  15.7970035
  -6.6312677  38.0061293  15.3045976  -5.4623091  38.8146567  16.7943037
  -5.6309241  38.1570506  18.2484639  -7.0118654  37.3652554  18.1269312
  -8.2720357  38.0339861  18.2652378  -8.3867347  38.7818480  17.4764442
  -8.2950169  38.5350180  19.2363656  -9.3798614  36.9575524  18.2008207
 -10.3307950  37.4057770  18.4925425  -9.1395658  36.1698461  18.9164031
  -9.6487999  36.2664866  16.8840468 -10.1702988  37.2419930  15.8833194
 -11.0610521  37.7045202  16.3109982 -10.4311109  36.7005610  14.9727643
  -9.4004530  37.9901052  15.6885278  -8.4464651  35.5767322  16.3316417
  -8.0756837  34.8533368  17.0593107  -7.6728368  36.3223910  16.1425030
  -8.7110651  35.0771141  15.3985572 -10.6954801  35.2302170  17.0940471
 -10.3293562  34.4868922  17.8037679 -10.9160495  34.7591829  16.1350071
 -11.5824413  35.7258177  17.4914885  -4.5553246  37.1679592  18.4346807
  -5.7815504  39.2487597  19.2225814  -5.1565140  39.9306369  14.1238451
  -4.4338480  40.9688807  14.5781732  -3.3875102  40.8650589  15.1899743
  -5.0522155  42.3066807  14.2521715  -4.3520567  43.0835724  14.5663035
  -5.1718706  42.3966217  13.1704795  -6.3997132  42.5251722  14.9776840
  -6.3478994  42.0699358  15.9689140  -6.5456575  43.5960770  15.1336622
  -7.6300633  41.9722080  14.2255104  -7.4518049  40.9322357  13.9441824
  -8.4826219  41.9735575  14.9078643  -8.0008012  42.8074121  12.9798365
  -8.2419968  43.8216782  13.3047271  -7.1425265  42.8889418  12.3096275
  -9.2097694  42.2459984  12.2017956 -10.0420868  42.1107101  12.8956318
  -9.5311379  42.9846430  11.4645052  -8.9397508  40.9101248  11.4790606
  -8.5447079  40.1822519  12.1908236  -9.8905426  40.5143356  11.1159992
  -7.9738629  41.0381699  10.2840137  -8.3894098  41.7327833   9.5510048
  -7.0228416  41.4594078  10.6165552  -7.7124262  39.6884227   9.6505386
  -6.8653518  39.1467738  10.0636399  -8.3958715  39.1549110   8.6427099
  -8.1040990  38.1789780   8.2632476  -9.6061915  39.7644663   7.9670238
 -10.3713703  38.9955521   7.8415775 -10.0442851  40.5499744   8.5863090
  -9.2415619  40.3446484   6.5871000  -8.4694445  41.1066198   6.7123860
  -8.8282305  39.5538926   5.9575558 -10.4692256  40.9704876   5.8989054
 -11.2034106  40.1883268   5.6947941 -10.9334052  41.6733837   6.5938437
 -10.1568425  41.7234230   4.5913327 -11.0654724  42.2436190   4.2810935
  -9.3978983  42.4849176   4.7826222  -9.6921116  40.8055782   3.4440321
  -8.7774897  40.2891970   3.7428302 -10.4524505  40.0416470   3.2686645
  -9.4165415  41.5582418   2.1254702  -8.6100703  42.2767305   2.2862318
  -9.0600514  40.8387899   1.3853553 -10.6440842  42.2966003   1.5516168
 -11.4766872  41.5986300   1.4417481 -10.9629536  43.0816603   2.2404361
 -10.3395379  42.9360580   0.1878031 -11.2126660  43.4742260  -0.1870113
 -10.0707495  42.1677685  -0.5401716  -9.5106566  43.6418867   0.2728211
  29.5366311  26.4274192  -0.2545851  30.1491237  26.9423628  -0.9976532
  29.1949439  27.1650815   0.4745014  28.6684036  26.0007548  -0.7611452
  30.3562784  25.3251457   0.4327008  31.2212801  25.7779670   0.9217712
  30.7381606  24.6536541  -0.3391331  29.5641351  24.5009661   1.4674702
  30.2018762  23.6903548   1.8261622  28.7006950  24.0408182   0.9824973
  29.1036201  25.3431273   2.6734829  28.4412456  26.1417651   2.3330446
  29.9806976  25.8189201   3.1171259  28.3645797  24.5148945   3.7452710
  28.9683938  23.6507368   4.0300584  27.4328518  24.1356730   3.3203739
  28.0354261  25.3409529   5.0031787  27.2465014  24.8441267   5.5717111
  27.6536345  26.3186812   4.7019345  29.2705750  25.5078387   5.9062004
  30.1390457  25.7283020   5.2820098  29.4734216  24.5658946   6.4200646
  29.1274571  26.6418195   6.9326603  28.2632589  26.4534998   7.5731015
  28.9508128  27.5778222   6.3986564  30.4006433  26.7782402   7.7901191
  31.2777090  26.7209625   7.1420926  30.4599643  25.9388542   8.4860915
  30.4725528  28.1030083   8.5699916  30.4970360  28.9320660   7.8596896
  31.4168859  28.1206179   9.1180706  29.2996860  28.3085132   9.5486230
  29.2952681  27.4979568  10.2803612  28.3581161  28.2580519   8.9978373
  29.3534636  29.6664262  10.2747059  28.4317923  29.8032331  10.8441532
  29.3930531  30.4654408   9.5314205  30.5538440  29.8158097  11.2252259
  31.4836597  29.6085262  10.6914282  30.4652429  29.0857601  12.0324695
  30.6337667  31.2411952  11.8026865  29.7104526  31.4726281  12.3378420
  30.7141376  31.9525623  10.9780872  31.8398261  31.4375997  12.7397490
  31.8922138  32.4802899  13.0599248  32.7644300  31.2127090  12.2040296
  31.7405081  30.5656648  13.9636171  30.9377050  30.7523990  14.8549449
  32.6331139  29.5614100  13.9600074  32.6696134  28.6627102  15.1040399
  32.5864172  29.2369699  16.0302985  33.6399531  28.1596684  15.0978136
  31.5646935  27.5769067  15.0433815  30.5864716  28.0635214  15.0128055
  31.6765738  26.6878772  16.3120210  30.9720826  27.0244002  17.0769346
  32.6869154  26.7742801  16.7199326  31.4443088  25.2850127  16.0254848
  31.8565249  24.1517758  17.0815027  30.4573488  23.8721967  17.8035879
  29.5737839  22.8804350  17.2631228  28.8658810  22.5767636  18.0385590
  30.1443911  21.9948721  16.9718504  28.8399243  23.4673715  16.0406041
  28.3957720  22.6474428  15.4742813  29.5623589  23.9675331  15.3939152
  27.7203918  24.4380188  16.2795544  28.2491350  25.7695246  16.6929305
  28.8147140  25.6362748  17.6163197  27.4228549  26.4683247  16.8315613
  28.9201999  26.1261535  15.9101343  26.9655848  24.5697021  15.0081027
  26.6556931  23.5684633  14.7051585  27.6355767  25.0101614  14.2682469
  26.0962558  25.1975417  15.2090132  26.7529678  23.9446402  17.3002768
  26.4631248  22.9316998  17.0170403  25.8903480  24.6125913  17.3033845
  27.2570372  23.9404488  18.2678390  32.2400260  22.9471612  16.3202465
  32.7694774  24.7439718  18.0731869  31.7687774  26.7860293  13.8403594
  30.7305050  26.0971808  13.3361328  29.5713449  26.2053609  13.7001610
  31.1407304  25.1618624  12.2316337  30.5384541  25.3886724  11.3494301
  32.1876836  25.3384662  11.9763684  30.9487200  23.6943817  12.6660967
  31.5351582  23.5136843  13.5693705  29.9013400  23.5190606  12.9204988
  31.3882375  22.6908493  11.5845430  32.4249482  22.9082012  11.3191152
  31.3675284  21.6841364  12.0071137  30.4999709  22.7179575  10.3224647
  29.4717574  22.4920726  10.6126630  30.4861712  23.7224412   9.8943430
  30.9427357  21.7078733   9.2420870  30.8894682  20.7003355   9.6598136
  30.2358294  21.7451859   8.4106088  32.3683786  21.9470811   8.7020624
  33.0800343  21.8923235   9.5285058  32.6209044  21.1421323   8.0086994
  32.5388932  23.2920837   7.9741180  31.9139695  23.2889009   7.0786160
  32.1809793  24.1009045   8.6145627  33.9934969  23.5695028   7.6488578
  34.6242738  23.7511420   8.5152858  34.5126486  23.7055898   6.4326954
  35.5610204  23.9737678   6.3299131  33.7855911  23.4518361   5.1297826
  34.5180511  23.2794881   4.3384159  33.1917906  22.5388503   5.2092969
  32.8639483  24.6170425   4.7210690  32.3741174  24.3531013   3.7814608
  32.0740294  24.7214317   5.4677910  33.5639668  25.9816718   4.5622784
  33.9558291  26.3151217   5.5254602  34.4048333  25.8818603   3.8727546
  32.5725651  27.0238566   4.0138334  32.2157931  26.6541505   3.0502498
  31.7096281  27.0937538   4.6793535  33.1681705  28.4341788   3.8442379
  33.4395719  28.8334346   4.8237282  34.0871859  28.3693290   3.2580078
  32.2136068  29.4203639   3.1412646  31.3363099  29.5893502   3.7691629
  32.7243686  30.3793263   3.0318207  31.7621064  28.9298916   1.7505786
  32.6386023  28.6621404   1.1568390  31.1453104  28.0349994   1.8563937
  30.9406114  29.9774742   0.9923526  30.6034660  29.5744920   0.0350640
  31.5386629  30.8717799   0.8052260  30.0612831  30.2582264   1.5758076
  24.5036149  34.0863609  -1.2388153  24.8085737  33.3608127  -1.9958119
  24.7856259  35.0840354  -1.5817097  23.4167957  34.0451193  -1.1408835
  25.1772428  33.7644029   0.1053341  26.2610364  33.7799501  -0.0273825
  24.8924851  32.7525997   0.4013646  24.7873497  34.7602534   1.2148728
  23.7065434  34.7293425   1.3677411  25.0272536  35.7696700   0.8743049
  25.5137372  34.5089841   2.5555256  25.1835966  35.2553034   3.2811153
  26.5840292  34.6659446   2.4061733  25.3109455  33.1041145   3.1595349
  25.9202790  33.0290914   4.0626124  25.6833148  32.3521352   2.4607286
  23.8501143  32.7898788   3.5329255  23.1908345  33.0745554   2.7102634
  23.5729885  33.3876395   4.4037551  23.6173844  31.2983298   3.8352895
  24.2445803  30.9692740   4.6664405  23.9259195  30.7249331   2.9586554
  22.1385622  30.9744740   4.1281748  21.9128323  30.0216317   3.6448541
  21.4948559  31.7215252   3.6591089  21.7725110  30.8368349   5.6211644
  22.2988367  29.9697804   6.0257155  20.7044339  30.6227589   5.6976217
  22.0850658  32.0758343   6.4823413  21.6592073  32.9587436   6.0011172
  23.1657124  32.2260642   6.5281719  21.5184426  31.9826269   7.9168499
  20.4293013  32.0397735   7.8623188  21.8521929  32.8586054   8.4769744
  21.9016218  30.7108235   8.7077409  21.4071465  29.8444152   8.2635587
  21.5230060  30.8056283   9.7276062  23.4207177  30.4582834   8.7524486
  23.9208436  31.3468981   9.1432232  23.7798452  30.3024650   7.7330309
  23.8245630  29.2355323   9.6008319  23.2524681  28.3611989   9.2834812
  23.5868025  29.4265509  10.6493771  25.3305054  28.9399672   9.4502890
  25.9089470  29.8344660   9.6905804  25.5542183  28.6687827   8.4164250
  25.8010769  27.8229761  10.3418958  25.8819127  26.6651654   9.9916244
  26.1257982  28.2594824  11.5699744  26.9668412  27.4078655  12.4005115
  28.0044270  27.4933553  12.0677090  26.6545796  26.3639712  12.3143280
  26.8637586  27.8400350  13.8784683  27.5532341  27.2359419  14.4737363
  25.4230261  27.6401687  14.3855321  25.1032948  26.6150331  14.1817701
  24.7500968  28.3249426  13.8631320  25.3612638  27.8899860  15.8126223
  24.1736913  27.3117876  16.6998911  22.9005814  28.0655050  16.0893321
  22.9483485  29.4895458  15.8564103  22.8335357  29.6483922  14.7811270
  23.9181495  29.8985744  16.1510825  21.8062091  30.2186418  16.5920782
  20.8692765  29.6937680  16.3998604  21.7113876  31.2188935  16.1668885
  21.8850517  30.4074740  18.0825448  23.2329965  30.8800387  18.5184062
  23.9412093  30.0725794  18.3267605  23.2011724  31.0874581  19.5890343
  23.5000563  31.7730379  17.9513860  20.8472514  31.4021349  18.4876895
  19.8660707  31.0314178  18.1874681  21.0378933  32.3537421  17.9893100
  20.8724523  31.5274763  19.5711720  21.5881109  29.1435218  18.7898660
  20.6456351  28.7564564  18.3997428  21.5125990  29.3311238  19.8619592
  22.3937869  28.4402585  18.5740364  24.0623832  25.8679128  16.4218986
  24.2978859  27.7781677  18.0901098  27.2060776  29.2425680  13.9743125
  27.8296137  29.6893740  15.0793397  28.2423663  28.9838028  15.9790623
  27.9088020  31.1949635  15.0684488  28.4996247  31.5350485  15.9215236
  28.4320045  31.4958549  14.1584015  26.5087271  31.8427467  15.0893843
  25.8579612  31.3289046  14.3787980  26.0705066  31.7223859  16.0823298
  26.5658069  33.3358145  14.7128475  27.2773099  33.8394117  15.3705823
  26.9471049  33.4366798  13.6945629  25.2045488  34.0511441  14.8249185
  24.8785448  34.0091395  15.8662748  25.3446937  35.1078916  14.5880449
  24.0757322  33.4772205  13.9398372  23.8726115  32.4451137  14.2330217
  23.1647325  34.0403390  14.1530108  24.3220067  33.5240316  12.4153566
  25.1227641  32.8319383  12.1465433  23.4173059  33.1708837  11.9160914
  24.6691895  34.9306870  11.8876314  24.0477347  35.6704950  12.3964977
  25.7066011  35.1713610  12.1291220  24.4237900  35.0484228  10.3979754
  23.4556961  35.4627705  10.1283872  25.2795005  34.7528648   9.4242251
  24.9807048  34.9299693   8.3942127  26.6722775  34.1702247   9.5814937
  27.3963690  34.8390484   9.1115701  26.9492173  34.0870857  10.6345165
  26.7944431  32.7790475   8.9244878  27.8160071  32.4195576   9.0646160
  26.1348248  32.0879674   9.4534290  26.4485073  32.7580571   7.4182612
  25.4312682  33.1317043   7.2838229  27.1095037  33.4403110   6.8796730
  26.5141559  31.3494968   6.7899764  25.9068441  30.6726766   7.3945820
  26.0424781  31.3863802   5.8057904  27.9238033  30.7385731   6.6514897
  28.4224224  30.7623291   7.6227140  27.8304148  29.6875882   6.3701159
  28.8140225  31.4521480   5.6181252  28.8204288  32.5235510   5.8291233
  29.8408222  31.0987449   5.7332641  28.3811164  31.2120342   4.1600379
  28.6511445  30.1951075   3.8677949  27.2965598  31.2958479   4.0642658
  29.0362549  32.2156405   3.2010823  28.6898947  32.0510054   2.1786383
  30.1226425  32.1080160   3.2264706  28.7849879  33.2385874   3.4890217
  21.6096282   9.4417626  -0.6864849  21.1854911   8.5025978  -1.0477906
  21.8115807   9.3357390   0.3814276  22.5570369   9.6091491  -1.2030710
  20.6342959  10.6026590  -0.9573072  19.6854579  10.4125798  -0.4513044
  20.4147530  10.6253588  -2.0267697  21.1781406  11.9864166  -0.5456037
  20.4218006  12.7402163  -0.7740769  22.0395732  12.2119212  -1.1777014
  21.6147399  12.1526992   0.9274731  22.0631313  13.1445646   1.0147212
  22.4045825  11.4380610   1.1681081  20.5010605  12.0586288   1.9904202
  19.5939803  12.5339806   1.6113253  20.8336091  12.6395345   2.8532195
  20.1815629  10.6313491   2.4799322  21.0865688  10.1716673   2.8825775
  19.8676610  10.0158584   1.6342975  19.0566385  10.5948091   3.5356897
  18.8161707   9.5525223   3.7554109  18.1598139  11.0430467   3.1029636
  19.3761194  11.3103437   4.8623782  18.4836328  11.2812972   5.4909384
  19.5996606  12.3628473   4.6760175  20.5349779  10.6560922   5.6352490
  21.4389563  10.6678200   5.0227541  20.2896285   9.6111351   5.8360767
  20.8302498  11.3831913   6.9581711  19.9218547  11.4664519   7.5584632
  21.1590934  12.3979568   6.7245543  21.9397616  10.6841016   7.7639085
  22.4054527  11.4178753   8.4250993  22.7188540  10.3408182   7.0800710
  21.4766359   9.4801146   8.6031663  22.3682928   8.9388418   8.9263338
  20.8925462   8.7868857   7.9942858  20.6760979   9.9134362   9.8457789
  19.6575439  10.1847112   9.5604318  21.1402965  10.8056438  10.2711582
  20.6480622   8.8168049  10.9244955  21.6569400   8.4229249  11.0640931
  20.0157547   7.9897803  10.5948246  20.1443791   9.3671691  12.2697926
  19.1133738   9.7137201  12.1728790  20.7586360  10.2154267  12.5790071
  20.2087617   8.3111030  13.3368838  19.2712379   7.5907069  13.6168182
  21.3837218   8.2812637  13.9768744  21.5694952   7.2501391  14.9913967
  21.7595649   6.2945700  14.4960082  20.6633806   7.1683872  15.5971384
  22.7374816   7.5683457  15.9503746  23.0906081   6.6262239  16.3774061
  22.3238492   8.4724832  17.1226895  23.2151604   8.8761729  17.6097703
  21.7877102   7.8685153  17.8591847  21.4461136   9.5348328  16.6708481
  20.8482933  10.6023693  17.6807642  21.8827891  11.8125618  17.5784314
  23.2097054  11.7316115  18.1402254  23.2285857  11.0187542  18.9685547
  23.4644532  12.7170563  18.5385370  24.2473030  11.3358104  17.0585930
  24.1703129  10.2777088  16.8040824  25.2474666  11.4783061  17.4704754
  24.2338610  12.0663595  15.7421875  23.1291556  11.5604234  14.8754430
  23.2172251  10.4742074  14.8238516  23.2174611  12.0103288  13.8854599
  22.1801162  11.8228507  15.3452706  24.1013765  13.5401845  15.9324753
  24.9345398  13.8694620  16.5551293  23.1468320  13.7285912  16.4260638
  24.1359925  14.0241277  14.9552941  25.5150843  11.8063879  15.0350666
  26.3303590  12.1711624  15.6616032  25.5122089  12.3102009  14.0673661
  25.6211829  10.7264042  14.9225533  19.5534647  11.0010850  17.0903003
  20.8810711  10.0098920  19.0285778  23.8166070   8.1931406  15.2269411
  24.5734954   7.3915297  14.4560981  24.5356035   6.1745751  14.5110321
  25.3520060   8.1868237  13.4455848  25.9621716   8.9154869  13.9833665
  26.0220385   7.5247270  12.8931856  24.3869710   8.9091456  12.4797666
  24.0136266   8.1995744  11.7384255  23.5215473   9.2754298  13.0359471
  25.0143433  10.1206827  11.7763281  25.4990244  10.7582724  12.5186372
  25.7728577   9.7762048  11.0703170  23.9554644  10.9584832  11.0469353
  23.4662199  10.3247535  10.3043139  23.1912208  11.2752521  11.7597139
  24.5240641  12.2029519  10.3440475  23.6879134  12.7600920   9.9163663
  25.0058770  12.8555763  11.0750759  25.5297661  11.8398774   9.2330527
  26.4578247  11.4858854   9.6867681  25.1273584  11.0157716   8.6402786
  25.8528709  13.0152273   8.2923537  26.2693954  13.8403428   8.8738638
  26.6266441  12.7106321   7.5845689  24.6300006  13.4910440   7.5367701
  24.1429520  14.3704379   7.9503137  24.1865540  12.9700518   6.3971376
  23.3270049  13.4138548   5.9013706  24.7492099  11.7353821   5.7241207
  25.4496908  11.2121511   6.3783532  23.9407539  11.0353351   5.5032247
  25.4582739  12.0622253   4.4058508  26.2385750  12.8063059   4.5788887
  25.9484982  11.1450994   4.0726498  24.4951296  12.5543666   3.3081621
  23.6598086  11.8574500   3.2132497  24.0731192  13.5170925   3.6040169
  25.1965594  12.7196121   1.9466394  24.4774532  13.0894566   1.2127697
  25.9570074  13.4937441   2.0686848  25.8826971  11.4508879   1.3926160
  26.3717747  11.7096114   0.4511661  26.6759157  11.1358023   2.0737834
  24.9127531  10.2763915   1.1454829  24.2511892  10.1503885   2.0050871
  24.2859125  10.5157685   0.2839533  25.6102920   8.9264762   0.9009966
  26.1170363   8.6143345   1.8165524  24.8496270   8.1740296   0.6826485
  26.6230297   8.9592558  -0.2521570  27.0049167   7.9553431  -0.4490955
  27.4708271   9.6024150  -0.0071035  26.1483407   9.3336213  -1.1615437
  24.7571111 -12.0639539   0.4454147  23.7957191 -12.3847628   0.0388759
  24.9943280 -12.6994658   1.3011689  25.5196834 -12.2198737  -0.3205067
  24.6947193 -10.5774319   0.8446131  23.9051819 -10.4253066   1.5835004
  24.4108319 -10.0079775  -0.0428519  26.0316205 -10.0118732   1.3730364
  26.0920358  -8.9628482   1.0757820  26.8638611 -10.5213332   0.8828390
  26.2134314 -10.0685775   2.9054210  25.4363251  -9.4600415   3.3725971
  27.1713448  -9.6082848   3.1564087  26.1744046 -11.4850593   3.5054517
  26.8978167 -12.1158302   2.9846153  25.1829457 -11.9094622   3.3341259
  26.4680266 -11.5371585   5.0192332  27.4762750 -11.1654234   5.2134395
  26.4456367 -12.5820220   5.3358150  25.4537773 -10.7369053   5.8594042
  24.4445229 -10.9793293   5.5201447  25.6043577  -9.6679258   5.6948680
  25.5598164 -11.0390115   7.3660713  26.5671802 -10.8059478   7.7173007
  25.3969812 -12.1082473   7.5166798  24.5304489 -10.2333832   8.1855315
  23.5324144 -10.4055798   7.7771914  24.7417665  -9.1681045   8.0715555
  24.5160460 -10.5800843   9.6883833  23.7923288  -9.9303335  10.1848888
  25.4952812 -10.3637862  10.1205647  24.1336918 -12.0468342   9.9673498
  24.9548697 -12.6984036   9.6614301  23.2671762 -12.3124385   9.3581980
  23.7895846 -12.3390973  11.4402068  23.5933375 -13.4093547  11.5324032
  22.8629017 -11.8258858  11.7054176  24.8764324 -11.9117522  12.4454796
  24.6959543 -10.8755267  12.7389538  25.8598995 -11.9482648  11.9722736
  24.8930502 -12.8007126  13.7024581  23.8708997 -12.9951537  14.0339136
  25.4091144 -12.2764540  14.5094860  25.6240439 -14.1237760  13.4086907
  26.6743016 -13.9002085  13.2101095  25.2106071 -14.6021020  12.5183332
  25.5644560 -15.1097739  14.5445526  25.1060343 -16.2280095  14.4311440
  26.1265182 -14.6392703  15.6691015  26.3537645 -15.6140566  16.7229676
  27.0250869 -16.3889503  16.3441312  25.4053569 -16.0875201  16.9894385
  26.9850516 -14.9611557  17.9852402  27.5526237 -15.7311594  18.5140169
  25.9011388 -14.4072127  18.9430690  26.3759947 -14.0982699  19.8777962
  25.1684785 -15.1846027  19.1744268  25.2073455 -13.2681692  18.3668208
  24.2380667 -12.3619604  19.2484117  25.2416039 -11.3678682  19.9853361
  25.7066822 -10.1782274  19.3262935  24.9115753  -9.4288874  19.3570054
  25.9449911 -10.4019988  18.2833242  26.9591379  -9.6868169  20.0867128
  26.7594981  -9.7464705  21.1576295  27.1726108  -8.6459631  19.8390532
  28.2516766 -10.4261184  19.8483229  28.7815809 -10.0670815  18.5045290
  28.0799127 -10.4016888  17.7390361  29.7620463 -10.5280685  18.3762348
  28.9024806  -8.9831525  18.4768713  29.2482448 -10.0269365  20.8807421
  28.9462781 -10.4330683  21.8472576  29.2690468  -8.9367622  20.9177089
  30.2290416 -10.3957045  20.5768847  28.0975199 -11.9041657  19.9304175
  27.6754570 -12.1538401  20.9049964  29.0711546 -12.3736370  19.7823870
  27.4077725 -12.2108674  19.1427207  23.3604097 -11.5901875  18.3569300
  23.6058378 -13.2163346  20.2762485  27.8911138 -13.8675034  17.6500273
  28.8978553 -14.0945971  16.7856860  29.2649889 -15.1982284  16.4458001
  29.4904804 -12.8002667  16.2855291  28.8332939 -11.9754577  16.5688288
  30.4558158 -12.6391041  16.7699015  29.6414590 -12.8018296  14.7555912
  30.2587557 -13.6541665  14.4641662  28.6587119 -12.9304481  14.2971897
  30.2914023 -11.5100968  14.2292798  29.7502708 -10.6472242  14.6230960
  31.3161659 -11.4502966  14.6017659  30.3032947 -11.4248824  12.6915121
  29.2691565 -11.4084232  12.3411596  30.7648015 -10.4805064  12.3954868
  31.0536742 -12.5872707  12.0119512  32.0715499 -12.6290584  12.4052036
  30.5702257 -13.5343277  12.2605944  31.1198545 -12.4694324  10.4779327
  31.6916513 -11.5797424  10.2059710  31.6615081 -13.3356082  10.0921690
  29.7356629 -12.4097490   9.8054564  29.1454911 -13.2726479  10.1209986
  29.1931033 -11.5217710  10.1364982  29.8614669 -12.4177170   8.2981277
  29.9316263 -13.4048164   7.8483683  29.8483419 -11.3502491   7.5058436
  29.9142289 -11.4994967   6.4311552  29.7811294  -9.8987252   7.9446870
  28.8313627  -9.4696939   7.6185924  29.8139572  -9.8090130   9.0324998
  30.9351325  -9.0590930   7.3555028  30.7845116  -8.0144054   7.6355141
  31.8714452  -9.3782324   7.8180331  31.0950589  -9.1478598   5.8228791
  31.9140530  -8.4918320   5.5206519  31.3887405 -10.1658094   5.5583137
  29.8312926  -8.7425476   5.0391155  28.9796162  -9.3414611   5.3683800
  29.5978761  -7.6997417   5.2639180  29.9779487  -8.9039272   3.5140374
  29.0977955  -8.4715611   3.0335683  30.8394289  -8.3318615   3.1632414
  30.1146722 -10.3782690   3.0810967  31.0453153 -10.7969773   3.4697509
  29.2918468 -10.9552646   3.5082942  30.0967455 -10.5378687   1.5518291
  29.1955400 -10.0689793   1.1512811  30.9578133 -10.0189793   1.1254731
  30.1258373 -12.0121884   1.1168231  30.0643778 -12.0866048   0.0290967
  29.2825270 -12.5565612   1.5468787  31.0532761 -12.4890471   1.4407457
  16.0090303  23.1894422   0.6126931  16.7345071  22.5416851   1.1092385
  15.2362370  22.5636196   0.1614711  15.5492949  23.8254166   1.3720635
  16.7077971  24.0273929  -0.4691911  17.1620297  23.3581209  -1.2028199
  17.5249863  24.5829129  -0.0043686  15.7772470  25.0057149  -1.2117275
  15.0400877  24.4350386  -1.7804030  16.3710558  25.5664492  -1.9365925
  15.0425041  26.0116482  -0.3051903  14.2822504  25.4795313   0.2704223
  14.5222366  26.7337799  -0.9378916  15.9784234  26.7694545   0.6563482
  16.8225014  27.1731710   0.0933125  16.3853240  26.0730863   1.3925323
  15.2880085  27.9293323   1.3961442  15.0447261  28.7014866   0.6633037
  15.9996045  28.3778453   2.0925149  13.9958346  27.5562549   2.1550299
  13.2177365  27.3062778   1.4307816  13.6546516  28.4494162   2.6825908
  14.1087949  26.4079165   3.1808579  14.3078315  25.4629040   2.6711529
  13.1504977  26.3050318   3.6942241  15.2131355  26.6794801   4.2121166
  15.1110351  27.7073479   4.5664209  16.1767137  26.6029811   3.7040541
  15.2231562  25.7353520   5.4304874  15.3910506  24.7046518   5.1112115
  14.2558813  25.7796144   5.9353477  16.3348651  26.1792541   6.3990146
  16.2391973  27.2596598   6.5256488  17.3065424  25.9880781   5.9388423
  16.3113880  25.5108404   7.7863163  16.4153516  24.4303226   7.6674145
  15.3465629  25.6952071   8.2633770  17.4428093  26.0306668   8.7026054
  18.4068143  25.7713389   8.2599926  17.3803949  25.5129027   9.6620268
  17.3871827  27.5582290   8.9383525  16.4186382  27.8215861   9.3685013
  17.4670625  28.0800557   7.9824346  18.5138357  28.1044698   9.8348528
  18.4865594  29.1961217   9.8308814  19.4791186  27.8107333   9.4172275
  18.4361696  27.6389027  11.2669873  17.3976588  27.3561811  11.8465185
  19.6636891  27.5756383  11.8105745  19.8288596  26.9424796  13.1062007
  20.8295226  26.5030169  13.1201077  19.1020143  26.1345792  13.2230163
  19.7416544  27.9430652  14.2856991  20.6721807  28.5162425  14.3011320
  19.6190453  27.1479249  15.6019580  20.5749178  26.6656208  15.8218181
  18.8613498  26.3717556  15.4673839  19.2412639  27.9815125  16.7292941
  18.3646929  27.3882723  17.9338324  16.8905711  27.8805876  17.5701189
  16.5904558  29.2779374  17.3473823  15.5300224  29.3641710  17.0970035
  17.1742618  29.6250844  16.4910483  16.9115531  30.1705694  18.5626602
  16.7869389  31.2142444  18.2702684  17.9583907  30.0326753  18.8372409
  16.1274111  30.0336170  19.8364532  15.8711708  28.6137247  20.2105427
  15.2898574  28.1583476  19.4074321  15.3333914  28.5829735  21.1592937
  16.8397832  28.1173205  20.2857280  16.9275010  30.6699729  20.9180808
  17.1022487  31.7078137  20.6306148  17.8732312  30.1307034  20.9892154
  16.3669753  30.6248713  21.8529892  14.8320055  30.7569504  19.7281265
  15.0478768  31.7993402  19.4891632  14.3001485  30.6886649  20.6782556
  14.2574739  30.3063965  18.9174497  18.4079719  25.9187555  17.8513551
  18.7950158  28.0399060  19.1847193  18.5817838  28.8143444  14.1254473
  18.7847662  30.1454043  14.1681278  19.8236561  30.6864095  14.4868529
  17.5594962  30.9247065  13.7705505  16.6684949  30.3778172  14.0859735
  17.5710773  31.8805432  14.2984712  17.5005555  31.1797857  12.2506940
  17.5279307  30.2242160  11.7228711  16.5338087  31.6371059  12.0299625
  18.6243379  32.0993543  11.7194927  18.5658514  33.0678344  12.2205794
  19.5938253  31.6660786  11.9741154  18.5842073  32.3121643  10.1906574
  19.4499123  32.9106379   9.8993659  18.6909938  31.3410378   9.7028339
  17.3083878  33.0146527   9.6808940  16.4227211  32.5174809  10.0819874
  17.2970510  34.0390444  10.0589859  17.1704638  33.0523634   8.1455648
  16.2693918  33.6197901   7.9035705  18.0155754  33.5875773   7.7076197
  17.0642304  31.6477728   7.5166118  18.0484211  31.1747527   7.5074512
  16.4063990  31.0390568   8.1404597  16.4638317  31.7171288   6.1302966
  15.7263303  32.5042081   5.9955239  16.7558658  30.9377003   5.0947571
  16.2511086  31.1154962   4.1486189  17.7214015  29.7734046   5.0812620
  18.3482075  29.7480369   5.9750938  17.1331584  28.8535404   5.0645626
  18.6114502  29.8211861   3.8242859  17.9777920  29.8883009   2.9374728
  19.2116666  30.7328033   3.8582551  19.5521677  28.6066866   3.6753947
  20.2110982  28.7682939   2.8197330  20.1807284  28.5162973   4.5637670
  18.7781668  27.2992682   3.4601769  18.1375265  27.1288681   4.3279356
  18.1368887  27.4088192   2.5831226  19.6640635  26.0581470   3.2821530
  20.3365874  26.2150621   2.4362491  20.2770615  25.9151745   4.1744855
  18.7911725  24.8099518   3.0443507  18.0858147  24.7072649   3.8716292
  18.2018006  24.9514246   2.1360061  19.5895612  23.5020232   2.9228154
  20.1590848  23.3520198   3.8423833  18.8877451  22.6697516   2.8377184
  20.5403209  23.4739375   1.7145401  21.0289669  22.5002623   1.6394247
  21.3157129  24.2369628   1.8095419  19.9860036  23.6553502   0.7913469
  18.1865692 -34.7644281   3.6445931  19.0215135 -35.4672194   3.6069655
  17.4398863 -35.1724386   4.3290299  18.5503125 -33.8143730   4.0415198
  17.5938058 -34.5735431   2.2374426  17.2237146 -35.5368710   1.8803808
  18.3910453 -34.2701435   1.5556628  16.4531660 -33.5355854   2.1608172
  16.1049342 -33.4989357   1.1264793  16.8324673 -32.5399351   2.4001402
  15.2479362 -33.8666940   3.0627400  15.1743710 -34.9503374   3.1757256
  14.3373215 -33.5423017   2.5547886  15.2956676 -33.1762457   4.4434622
  15.1770055 -32.1010303   4.2941451  16.2674630 -33.3260727   4.9184665
  14.1836607 -33.6741734   5.3856581  13.2508862 -33.7075067   4.8188391
  14.0290260 -32.9479766   6.1864018  14.4531548 -35.0693679   5.9925205
  14.8063827 -35.7481122   5.2134198  13.5054862 -35.4753733   6.3524455
  15.4486060 -35.0967717   7.1696299  16.3966632 -34.6461630   6.8686277
  15.6541014 -36.1397910   7.4193305  14.9001992 -34.3840528   8.4224385
  13.8996863 -34.7624183   8.6421609  14.8035872 -33.3157587   8.2178015
  15.7869434 -34.5801401   9.6664941  16.8159485 -34.2986035   9.4333655
  15.7877243 -35.6372786   9.9402159  15.2874815 -33.7373519  10.8562160
  14.2166007 -33.9038253  10.9902573  15.4290247 -32.6804113  10.6210434
  16.0084903 -34.0762377  12.1744990  17.0885229 -33.9847445  12.0417488
  15.8016777 -35.1195621  12.4218190  15.5554891 -33.1912231  13.3548415
  15.8719194 -33.6679387  14.2849374  14.4646919 -33.1440592  13.3748531
  16.1400151 -31.7638731  13.3145523  15.8649564 -31.2730670  12.3786473
  17.2298074 -31.8286490  13.3394957  15.6544232 -30.9048700  14.5004833
  15.8448482 -31.4225173  15.4429495  14.5775270 -30.7398486  14.4261324
  16.3595903 -29.5735240  14.5371675  17.4781251 -29.4271135  14.9965262
  15.6390202 -28.5937428  13.9734805  16.0815024 -27.2061539  14.0287805
  16.1698961 -26.8668747  12.9935408  17.0605922 -27.1147156  14.5059299
  15.0527275 -26.2923312  14.7551191  15.1874590 -25.2666259  14.4023848
  15.2106440 -26.3272619  16.2918496  14.6418774 -25.5065060  16.7362761
  16.2635756 -26.1911178  16.5515554  14.7600710 -27.6031399  16.8168926
  13.3689320 -27.7663541  17.6070392  13.9200318 -28.1289816  19.0614188
  14.4093728 -29.4567609  19.3233347  14.5721686 -29.9936581  18.3853102
  13.6479080 -29.9965382  19.8920715  15.7309043 -29.3719840  20.1255822
  16.0435975 -30.3857255  20.3801942  15.5463541 -28.8225508  21.0498905
  16.9324470 -28.7198496  19.4765306  17.1863353 -29.2650557  18.1137884
  17.3865175 -30.3352332  18.1840062  18.0505168 -28.7359071  17.7094710
  16.3145077 -29.0650582  17.4891293  16.7829609 -27.2397423  19.3823636
  16.6633761 -26.8276930  20.3854561  15.9057248 -27.0208645  18.7717652
  17.6839578 -26.8457723  18.9098442  18.1494510 -28.9821649  20.2987647
  18.0014920 -28.5655570  21.2961721  18.9869153 -28.4839630  19.8081207
  18.3286679 -30.0574040  20.3437448  12.6778948 -26.4623904  17.7026939
  12.6549041 -28.9374018  17.0813668  13.7392235 -26.7567015  14.3913698
  12.6880670 -25.9379101  14.3698537  12.7406609 -24.7260451  14.4823551
  11.4137578 -26.6886091  14.0935218  11.2729609 -27.4565125  14.8570442
  10.5910385 -25.9744811  14.1684544  11.4098454 -27.3249960  12.6864731
  10.3709555 -27.4717712  12.3837709  11.8577302 -26.6213608  11.9816625
  12.1331084 -28.6844301  12.5708902  13.1560826 -28.6047912  12.9445803
  11.6203797 -29.4217992  13.1920648  12.1937919 -29.1759729  11.1116683
  11.1815464 -29.2582583  10.7103550  12.7263582 -28.4314156  10.5162919
  12.9088748 -30.5349088  10.9834802  13.9084017 -30.4608536  11.4169824
  12.3629010 -31.2741327  11.5733314  13.0141330 -31.0476923   9.5299250
  13.4011865 -32.0685697   9.5514202  12.0092821 -31.1090708   9.1068733
  13.8975739 -30.2072930   8.5801268  13.8764954 -30.6678009   7.5902027
  13.4467673 -29.2190766   8.4675956  15.3201115 -30.0316811   9.0853912
  15.4022908 -29.4493937   9.9995899  16.4378834 -30.4732347   8.5104519
  17.3926926 -30.2457285   8.9775181  16.5473032 -31.3140082   7.2511911
  16.8133211 -32.3322392   7.5425738  15.6004584 -31.3664246   6.7097116
  17.6466203 -30.8157682   6.2936473  18.5835636 -30.7078671   6.8440640
  17.8053093 -31.5799141   5.5298656  17.3039532 -29.4840217   5.6006736
  16.4257288 -29.6186733   4.9658066  17.0312762 -28.7471175   6.3590157
  18.4644580 -28.9116645   4.7583887  18.1956935 -27.8885698   4.4872630
  19.3724263 -28.8501644   5.3619421  18.7601697 -29.6787286   3.4542653
  17.8398037 -30.1441026   3.0953559  19.0651822 -28.9437056   2.7064866
  19.8691034 -30.7448792   3.5457134  20.8194757 -30.2607656   3.7800062
  19.6501851 -31.4392734   4.3595648  20.0135231 -31.5547609   2.2409895
  20.7992244 -32.3013186   2.3743695  19.0850317 -32.0976019   2.0520744
  20.3445482 -30.7043576   1.0030521  20.4947639 -31.3488507   0.1344167
  21.2608671 -30.1335812   1.1674832  19.5328808 -30.0116944   0.7709330
 -22.3579597 -20.4354978   3.6067152 -22.3853993 -19.7649884   2.7452460
 -22.4769807 -19.8368216   4.5121908 -23.1999397 -21.1265993   3.5298321
 -21.0324121 -21.2147355   3.6311951 -20.2004385 -20.5097342   3.6882466
 -20.9202194 -21.7610860   2.6923779 -20.9366870 -22.2185850   4.7944954
 -20.0502443 -22.8372312   4.6397129 -21.7986465 -22.8888249   4.7781122
 -20.8418870 -21.5273762   6.1680466 -21.8032622 -21.0747719   6.4197868
 -20.1063085 -20.7220840   6.1142457 -20.4264450 -22.5044513   7.2820562
 -19.4912064 -22.9941916   7.0028579 -21.1882424 -23.2803774   7.3823965
 -20.2319670 -21.7771459   8.6249375 -21.1871076 -21.3596249   8.9502770
 -19.5504129 -20.9366083   8.4784997 -19.6647882 -22.6776028   9.7386903
 -19.5031118 -22.0523643  10.6192601 -18.6909926 -23.0686569   9.4365901
 -20.5983949 -23.8502645  10.0967443 -20.6530309 -24.5393014   9.2513400
 -21.6070819 -23.4621167  10.2528071 -20.1545835 -24.6434093  11.3444686
 -19.1966856 -25.1237249  11.1342478 -20.8723211 -25.4452729  11.5297461
 -20.0018048 -23.8016725  12.6262307 -19.1241539 -23.1604981  12.5209212
 -19.8005772 -24.4747329  13.4622681 -21.2254286 -22.9335713  12.9780972
 -22.0884848 -23.5827112  13.1400084 -21.4629817 -22.2699094  12.1440804
 -20.9560227 -22.0687795  14.2250133 -20.0656104 -21.4707613  14.0200686
 -20.7253671 -22.7045608  15.0823617 -22.0907927 -21.0887957  14.5833576
 -22.5691605 -20.7284069  13.6702597 -21.6389489 -20.2176094  15.0622487
 -23.1576300 -21.6393566  15.5497777 -23.8677216 -20.8347940  15.7520461
 -22.6859069 -21.8918133  16.5017259 -23.9258051 -22.8703260  15.0278473
 -23.2576609 -23.7330866  14.9867702 -24.3034744 -22.6856112  14.0200233
 -25.0947642 -23.2052493  15.9181178 -25.8655214 -22.3675561  16.3417590
 -25.1703000 -24.5208240  16.1844766 -26.2740684 -24.9822807  17.0201576
 -27.1971393 -24.9676347  16.4350319 -26.3949704 -24.3047285  17.8692472
 -26.0388517 -26.4153194  17.5711071 -27.0067644 -26.9135308  17.6689780
 -25.4029965 -26.4145350  18.9748764 -24.9629569 -27.3914289  19.1909528
 -26.1952567 -26.2581062  19.7114241 -24.3891859 -25.3806877  19.1184306
 -23.6904168 -25.1033092  20.5315566 -24.5267963 -23.8698077  21.1055660
 -25.9364939 -24.0067077  21.3554311 -26.0993552 -24.6905088  22.1924138
 -26.4321232 -24.4068122  20.4672217 -26.5378094 -22.6182532  21.6358829
 -26.2450194 -22.2801304  22.6309848 -27.6234794 -22.7192926  21.5985727
 -26.1979556 -21.5074778  20.6715608 -26.1189461 -21.9765234  19.2610264
 -25.3440452 -22.7412510  19.1903269 -25.8781910 -21.1403370  18.6029148
 -27.0863724 -22.4018097  18.9899194 -27.2581720 -20.4634905  20.7415318
 -27.3223567 -20.0907445  21.7648697 -28.1947637 -20.9425855  20.4524803
 -27.0046592 -19.6672821  20.0400591 -24.8882914 -20.8961201  21.0322952
 -24.9407077 -20.5261517  22.0573092 -24.6853518 -20.0883865  20.3275537
 -24.1277838 -21.6728640  20.9396720 -23.9300728 -26.2768269  21.3842463
 -22.3116064 -24.6632314  20.2532649 -25.2085972 -27.1860862  16.6594577
 -25.7597923 -27.5225019  15.4816628 -26.9594026 -27.5683117  15.2812612
 -24.7202468 -27.7209234  14.4065893 -23.7285209 -27.5909495  14.8448253
 -24.7818303 -28.7368488  14.0109062 -24.9439573 -26.6781473  13.2930863
 -25.7642937 -27.0186329  12.6578057 -25.2558970 -25.7367110  13.7500894
 -23.7025213 -26.3906407  12.4318147 -22.8692245 -26.1315989  13.0883062
 -23.4074998 -27.2865629  11.8815923 -23.9353728 -25.2188993  11.4552581
 -24.1598201 -24.3213916  12.0354021 -23.0030298 -25.0186563  10.9231877
 -25.0598025 -25.4199243  10.4182208 -26.0160923 -25.5368662  10.9323180
 -25.1418257 -24.5080972   9.8229831 -24.8579097 -26.6074538   9.4568276
 -24.9181676 -27.5380659  10.0249743 -25.6912732 -26.6277552   8.7514508
 -23.5328364 -26.5849161   8.6640292 -22.6879311 -26.6375136   9.3538326
 -23.4755516 -27.4865079   8.0505860 -23.3915758 -25.3568649   7.7855462
 -22.8058219 -24.5471907   8.2131988 -23.8815165 -25.2271533   6.5553159
 -23.6982799 -24.3111396   5.9995168 -24.7468686 -26.2489152   5.8443582
 -24.4213557 -26.3658333   4.8085809 -24.6473789 -27.2299528   6.3135391
 -26.2295151 -25.8350801   5.8967930 -26.8536472 -26.7243671   5.7868415
 -26.4402986 -25.4282236   6.8880057 -26.6509485 -24.8041821   4.8326010
 -27.6161313 -24.3850446   5.1245123 -25.9335160 -23.9814806   4.8022863
 -26.7952752 -25.4288125   3.4319738 -25.8218455 -25.7754016   3.0787420
 -27.4527454 -26.2983465   3.4960642 -27.3848677 -24.4412827   2.4113697
 -28.3396363 -24.0645456   2.7841300 -26.7108631 -23.5885930   2.3060048
 -27.6030946 -25.0960612   1.0358816 -26.6462541 -25.4575920   0.6534992
 -28.2624817 -25.9590173   1.1498244 -28.2189655 -24.1183877   0.0206040
 -29.1305280 -23.6898923   0.4423949 -27.5216699 -23.2977343  -0.1604183
 -28.5628963 -24.7989964  -1.3136789 -28.9883876 -24.0740800  -2.0107561
 -29.2929029 -25.5964112  -1.1597766 -27.6675510 -25.2295256  -1.7669611
  12.5794840 -23.6342192  -1.6430530  12.0859206 -23.1677747  -0.7878985
  12.4094903 -24.7116256  -1.5905543  12.1127737 -23.2568049  -2.5553051
  14.0851367 -23.3146977  -1.6504863  14.2135119 -22.2315574  -1.5976621
  14.5152044 -23.6392260  -2.6003221  14.8764312 -23.9717555  -0.5013841
  15.8773422 -23.5355163  -0.4830347  14.9977064 -25.0372529  -0.7074816
  14.2160726 -23.8060093   0.8818784  13.4043694 -24.5303178   0.9766383
  13.7749076 -22.8103852   0.9629595  15.2174461 -23.9933300   2.0369977
  15.9207594 -23.1580234   2.0282616  15.7932973 -24.9074078   1.8778713
  14.5183432 -24.0765548   3.4077433  14.1057956 -25.0815296   3.5186172
  13.6771560 -23.3805561   3.4290794  15.4228294 -23.7674689   4.6183559
  14.9028659 -24.1052508   5.5172467  15.5430293 -22.6858139   4.7080007
  16.8121338 -24.4299006   4.5591566  17.3554707 -24.0609741   3.6867222
  16.6848767 -25.5067110   4.4297352  17.6812398 -24.1829824   5.8082563
  18.5932517 -24.7716260   5.6891066  17.1651149 -24.5666099   6.6908157
  18.0840099 -22.7104783   6.0454446  17.1998262 -22.1122313   6.2751895
  18.5220289 -22.3082042   5.1295960  19.1127717 -22.5894332   7.1908092
  19.9764287 -23.2014155   6.9224077  18.7032044 -23.0193162   8.1072801
  19.6295190 -21.1554885   7.4492514  19.6633554 -20.6084061   6.5047842
  20.6627941 -21.2318969   7.7941698  18.8550675 -20.3207159   8.4945917
  17.8355634 -20.1398611   8.1476557  19.3423486 -19.3463206   8.5692668
  18.8194025 -20.9689236   9.8952854  19.7835195 -21.4479733  10.0781918
  18.0627120 -21.7559910   9.9154913  18.5661364 -19.9795306  11.0534883
  18.7366819 -20.4972959  11.9996893  19.2866993 -19.1604924  11.0042000
  17.1720099 -19.4029927  11.0771239  16.8690634 -18.3328402  10.5850351
  16.3028741 -20.1585364  11.7777336  14.9710870 -19.6295691  11.9912148
  14.4395292 -19.5825851  11.0373342  15.0827873 -18.6178267  12.3893976
  14.1524637 -20.4566073  13.0186522  13.2657826 -19.8715663  13.2758939
  14.9011719 -20.7143331  14.3406248  15.9734893 -20.5277348  14.2408085
  14.7716808 -21.7592859  14.6338105  14.3430412 -19.8424113  15.3603351
  13.9400172 -20.3915954  16.8151271  12.4215055 -20.8712006  16.6081202
  12.1674752 -22.1505928  15.9951091  12.6477420 -22.9366589  16.5834093
  12.6029694 -22.1652031  14.9927211  10.6481576 -22.4194074  15.9111810
  10.2558470 -22.5942683  16.9140744  10.5106962 -23.3299947  15.3261876
   9.7557944 -21.3718367  15.2868044   8.5297596 -22.0375872  14.7531438
   8.8210505 -22.8012300  14.0304542   7.8958714 -21.2866044  14.2793393
   7.9965025 -22.5055838  15.5819368   9.3643594 -20.3595304  16.3074970
  10.2818596 -19.8957717  16.6727364   8.8336766 -20.8556128  17.1214747
   8.7300569 -19.6040857  15.8414018  10.4121852 -20.6415248  14.1677487
  11.3497865 -20.2215981  14.5349669   9.7581410 -19.8352754  13.8323843
  10.5904126 -21.3441801  13.3524024  14.7550988 -21.5718651  17.1163464
  13.9363694 -19.2338610  17.7302456  13.7203872 -21.7401695  12.4990273
  12.5390196 -21.7837358  11.8631911  11.9133627 -20.7942605  11.5356112
  12.0127118 -23.1856203  11.6989732  12.8561890 -23.8791680  11.6999936
  11.3967907 -23.4376836  12.5647509  11.1888409 -23.3418298  10.4071081
  10.2087855 -22.8758883  10.5289948  11.6972601 -22.8230262   9.5917463
  11.0292101 -24.8166943  10.0164473  12.0211256 -25.2731061  10.0004518
  10.4361033 -25.3314281  10.7752216  10.3608310 -24.9883723   8.6415732
   9.3197876 -24.6663690   8.7123215  10.8441174 -24.3366647   7.9106998
  10.4046822 -26.4439297   8.1387001   9.9248785 -27.0906973   8.8762248
   9.8114121 -26.5101218   7.2243083  11.8163550 -26.9979167   7.8573215
  12.4013126 -27.0119977   8.7793243  11.7165792 -28.0357790   7.5327480
  12.5970435 -26.2224126   6.7823166  12.7698398 -25.1922059   7.1005613
  13.5755682 -26.6926360   6.6646582  11.8703103 -26.2650132   5.4615730
  11.6164780 -27.2581410   5.0998610  11.5627754 -25.1889634   4.7487885
  11.8314064 -24.2042184   5.1225317  10.9071743 -25.2006602   3.3774981
   9.9335223 -24.7120309   3.4530333  11.5000200 -24.5865393   2.6964304
  10.7115400 -26.5948129   2.7383649  10.0926411 -27.2117567   3.3932009
  10.1530206 -26.4634633   1.8092433  12.0311403 -27.3351693   2.4242046
  12.6915479 -26.6879106   1.8433587  12.5635326 -27.5549245   3.3519596
  11.8089414 -28.6728692   1.6937606  12.7219009 -29.2665792   1.7742492
  11.0242486 -29.2334032   2.2061288  11.4426482 -28.5492849   0.2037018
  11.3720703 -29.5565820  -0.2120328  10.4563880 -28.0921531   0.0998458
  12.4801147 -27.7408147  -0.6001240  12.4066198 -26.6819906  -0.3433108
  13.4833884 -28.0737448  -0.3261491  12.2964692 -27.9058313  -2.1154165
  12.2627401 -28.9699411  -2.3583066  11.3398099 -27.4696851  -2.4104482
  13.4267282 -27.2491717  -2.9230544  13.3441544 -27.5243807  -3.9765745
  14.4029713 -27.5796247  -2.5622028  13.3837688 -26.1605525  -2.8487208
  30.9289813 -20.9462142  -1.1128493  31.9809890 -21.2036109  -1.2524433
  30.7080388 -20.0633526  -1.7163420  30.3159523 -21.7772102  -1.4679642
  30.6614995 -20.6705832   0.3729096  31.3463402 -19.8938179   0.7194506
  30.8654499 -21.5751505   0.9496469  29.2139339 -20.2145195   0.6100422
  28.5279274 -20.9569120   0.1968659  29.0515780 -19.2745376   0.0784997
  28.8918400 -20.0031757   2.0964079  29.6115208 -19.3002212   2.5211164
  28.9922690 -20.9505486   2.6301298  27.4712801 -19.4464254   2.2843155
  26.7635155 -20.0927806   1.7610954  27.4097800 -18.4561145   1.8282807
  27.0619845 -19.3592823   3.7630278  27.7848077 -18.7456703   4.3047583
  27.0894527 -20.3622484   4.1940376  25.6546187 -18.7525725   3.9226922
  24.9303508 -19.3506694   3.3657524  25.6561852 -17.7548778   3.4787723
  25.2013183 -18.6394215   5.3902119  24.2698932 -18.0707753   5.4296505
  25.9518313 -18.0716813   5.9441650  24.9752045 -20.0128412   6.0548055
  25.9023976 -20.5893469   6.0343450  24.2377424 -20.5711722   5.4743922
  24.4909215 -19.9233794   7.5145239  24.3195367 -20.9411240   7.8712994
  23.5330677 -19.4003892   7.5527370  25.5046868 -19.2127252   8.4351367
  25.5829811 -18.1627941   8.1453449  26.4914227 -19.6583152   8.2927841
  25.1486945 -19.2745757   9.9322158  24.1839004 -18.7920141  10.1018226
  25.8991694 -18.6938035  10.4725456  25.1018715 -20.7160473  10.4815543
  25.9588623 -21.2725210  10.0963688  24.2072678 -21.2158203  10.1042283
  25.0994205 -20.8024716  12.0230281  25.0497055 -21.8537045  12.3144042
  24.1973639 -20.3243303  12.4105084  26.3306117 -20.1806831  12.7103066
  26.3358235 -20.4514670  13.7681890  26.2764239 -19.0912950  12.6577723
  27.6315022 -20.6276679  12.0904148  28.2209420 -19.9757230  11.2490964
  28.0628181 -21.8183303  12.5522304  29.4887805 -22.0915246  12.4225390
  29.8677802 -21.7007279  11.4747584  29.6444368 -23.1733775  12.4190032
  30.2973223 -21.4961386  13.6060584  31.3358164 -21.4070010  13.2770634
  30.2523232 -22.3697281  14.8792982  30.8920431 -21.9175053  15.6414652
  30.6600356 -23.3585072  14.6540570  28.9082694 -22.5280619  15.4021168
  28.4414721 -21.7666388  16.7351699  29.2552543 -22.5740767  17.8260326
  29.1881490 -22.1813631  19.2029774  28.6226892 -22.9424739  19.7466826
  28.6646342 -21.2269044  19.3009067  30.6151056 -22.0843148  19.7794247
  31.1383605 -23.0136013  19.5493948  30.5461359 -22.0069408  20.8654881
  31.5138960 -20.9570956  19.3308413  32.7392554 -20.9618735  20.1804709
  32.4533224 -20.7827258  21.2179828  33.3960247 -20.1666617  19.8246944
  33.2292747 -21.9305444  20.0716686  31.9521952 -21.1097193  17.9239047
  31.0726190 -20.9454608  17.2996902  32.3560715 -22.1149325  17.7946413
  32.6956224 -20.3351712  17.7297962  30.8474565 -19.6279871  19.4372869
  30.0347924 -19.6081853  18.7096405  31.5892506 -18.8721514  19.1751134
  30.4853439 -19.4872141  20.4567647  28.9827704 -20.3957319  16.7779446
  27.0084262 -22.0234895  16.9761169  29.7778940 -20.1861358  13.9091635
  30.5461645 -19.2788708  14.5256722  31.7276525 -19.4652593  14.7661448
  29.8213601 -17.9669011  14.7042298  29.0020514 -18.0943620  15.4148281
  30.5106306 -17.2255409  15.1138079  29.2686176 -17.5254595  13.3355641
  30.0293517 -17.7635264  12.5891924  28.3900237 -18.1341946  13.1120038
  28.8807607 -16.0474122  13.1727195  28.2216215 -15.7462251  13.9895928
  29.7856402 -15.4394603  13.2363546  28.1820774 -15.7810783  11.8181467
  27.1672487 -16.1826146  11.8549657  28.1045723 -14.7035754  11.6586316
  28.9234281 -16.4242566  10.6315160  29.9620247 -16.0869455  10.6329834
  28.9329982 -17.5075400  10.7688868  28.3186722 -16.1551344   9.2439413
  27.2385597 -16.3149142   9.2610824  28.5071564 -15.1211321   8.9476693
  28.9674091 -17.1255302   8.2427472  30.0461173 -17.1227288   8.4125763
  28.6022615 -18.1323981   8.4557039  28.6646128 -16.7772436   6.8033785
  27.6995301 -16.3126600   6.6180557  29.5182753 -16.9515610   5.7992935
  29.2341781 -16.6442072   4.7961017  30.8706021 -17.6311362   5.9100062
  31.6567540 -16.8733823   5.8947027  30.9672141 -18.1862736   6.8453950
  31.0944676 -18.6055684   4.7439355  30.3151631 -19.3701017   4.7691858
  30.9977245 -18.0634427   3.8009596  32.4745178 -19.2876065   4.7948727
  33.2556820 -18.5284352   4.7180188  32.5980997 -19.7910237   5.7559985
  32.6414132 -20.3145814   3.6591277  31.8948746 -21.1018443   3.7830687
  32.4464083 -19.8260653   2.7021599  34.0532279 -20.9316945   3.6263976
  34.7848272 -20.1291132   3.5119894  34.2622280 -21.4149666   4.5830745
  34.2561793 -21.9429111   2.4771591  34.1192794 -21.4287901   1.5235329
  35.2906823 -22.2917843   2.5007284  33.3210135 -23.1701875   2.5153524
  32.2873306 -22.8560710   2.3563042  33.5819173 -23.8318324   1.6867276
  33.4117055 -23.9662337   3.8286686  32.8222322 -24.8823309   3.7528589
  33.0286527 -23.3814597   4.6675819  34.4498324 -24.2368770   4.0324029
 -20.9888268  -5.9504759   1.4874282 -19.9000835  -6.0211456   1.4415222
 -21.2619019  -4.8932368   1.4755930 -21.4021945  -6.4268357   0.5959847
 -21.5112448  -6.6413999   2.7593794 -21.1046314  -6.1334103   3.6363488
 -21.1355877  -7.6664245   2.7852622 -23.0479550  -6.6735595   2.8600180
 -23.3262968  -7.2240788   3.7610835 -23.4519744  -7.2240311   2.0078360
 -23.6883998  -5.2728623   2.9083669 -23.4678745  -4.7375098   1.9824995
 -23.2522821  -4.7064561   3.7338659 -25.2150488  -5.3530908   3.0884805
 -25.4395127  -5.8134288   4.0529326 -25.6255651  -6.0098553   2.3186760
 -25.9244537  -3.9887169   2.9815766 -26.9990516  -4.1477948   3.0929321
 -25.7664013  -3.5971898   1.9745070 -25.4741454  -2.9176074   3.9965823
 -26.0220575  -1.9971597   3.7843740 -24.4147992  -2.6976332   3.8487211
 -25.7280564  -3.3188221   5.4641461 -25.0867367  -4.1610005   5.7323033
 -26.7608571  -3.6608049   5.5581200 -25.5141521  -2.1637775   6.4660931
 -25.7362199  -2.5228861   7.4731636 -26.2426209  -1.3797978   6.2488967
 -24.1048908  -1.5343355   6.4465308 -24.0881133  -0.6904142   7.1393365
 -23.9145279  -1.1216287   5.4536062 -22.9561257  -2.4972180   6.8097323
 -22.0123887  -1.9815882   6.6201156 -22.9793286  -3.3658445   6.1483598
 -22.9647183  -2.9628733   8.2811117 -23.8995504  -3.4812862   8.5042757
 -22.9029679  -2.0894000   8.9335656 -21.7761898  -3.9011106   8.5643917
 -20.8647442  -3.4337032   8.1858945 -21.9186950  -4.8281077   8.0050772
 -21.5421534  -4.2326164  10.0500941 -21.2855887  -3.3169436  10.5869198
 -20.6727839  -4.8908263  10.1085687 -22.7297401  -4.9138427  10.7583427
 -23.0939484  -5.7574821  10.1683521 -23.5569930  -4.2111090  10.8778441
 -22.3017812  -5.4276544  12.1097887 -21.5428400  -6.3656276  12.2525704
 -22.7665281  -4.6836668  13.1322527 -22.5075817  -5.1247931  14.4945645
 -22.4950576  -4.2318317  15.1247334 -21.5305781  -5.6079435  14.5762932
 -23.6108065  -6.0773683  15.0195682 -24.5945811  -5.6391627  14.8329890
 -23.4455085  -6.2557787  16.5401614 -23.5409117  -5.2903253  17.0435965
 -22.4581361  -6.6677600  16.7638052 -24.4474673  -7.1662217  17.0557749
 -24.5901060  -7.4131197  18.6279702 -25.9625125  -6.6625476  18.9495540
 -25.9651780  -5.2374297  19.1340947 -25.2398610  -4.7819859  18.4550250
 -25.6624651  -5.0134766  20.1601839 -27.3729968  -4.6740273  18.8358164
 -27.3255253  -3.5842004  18.8532591 -28.0686212  -4.9901640  19.6145618
 -28.0321264  -5.0490022  17.5293708 -28.8056660  -6.3087147  17.7157855
 -28.1281877  -7.0753479  18.0947030 -29.2332101  -6.5958631  16.7540002
 -29.6117711  -6.1058098  18.4224033 -28.9800668  -3.9711779  17.1326637
 -28.4264517  -3.0768237  16.8429780 -29.6320939  -3.7688205  17.9836595
 -29.5923519  -4.3494862  16.3127422 -27.0636559  -5.2376568  16.4077485
 -26.4976287  -4.3154541  16.2683475 -27.6340938  -5.4848832  15.5112207
 -26.4103222  -6.0724002  16.6658902 -24.7723079  -8.8553327  18.8521862
 -23.4990311  -6.6807789  19.2927992 -23.5203314  -7.4001431  14.4261396
 -24.3489933  -7.7116054  13.4109235 -24.9812555  -6.8878126  12.7804697
 -24.4135594  -9.1978991  13.1500244 -24.6750307  -9.6942270  14.0869105
 -25.2108359  -9.4078130  12.4339581 -23.0705094  -9.7620004  12.6440060
 -22.2761917  -9.4489872  13.3248472 -23.1021142 -10.8528459  12.6830339
 -22.7012825  -9.3217212  11.2146306 -22.8669524  -8.2480073  11.1043775
 -21.6323638  -9.4950324  11.0737872 -23.4692430 -10.0822556  10.1155794
 -23.3685374 -11.1546385  10.2953482 -24.5336938  -9.8427212  10.1606631
 -22.9165912  -9.7705483   8.7107313 -21.8304181  -9.8798585   8.7379807
 -23.2921243 -10.5135012   8.0040067 -23.2916927  -8.3661401   8.1919390
 -24.3607044  -8.3496106   7.9696685 -23.1133246  -7.6198208   8.9688915
 -22.5094414  -7.9552251   6.9289672 -22.5948644  -8.7347740   6.1690521
 -22.9719806  -7.0593876   6.5094477 -21.0598135  -7.6451474   7.2534800
 -20.8910155  -6.6611016   7.6832831 -20.0120592  -8.4293848   7.0205963
 -19.0201831  -8.0684662   7.2803795 -20.0540090  -9.8350739   6.4582545
 -19.4428730 -10.4906297   7.0821327 -21.0686612 -10.2384710   6.4728105
 -19.5175934  -9.8666888   5.0178921 -20.1298499  -9.2033422   4.4034174
 -18.4952414  -9.4834667   4.9979183 -19.5377302 -11.2910771   4.4316044
 -18.9401627 -11.9448888   5.0702798 -20.5583715 -11.6785812   4.4559875
 -18.9886081 -11.3728964   2.9917410 -17.9317808 -11.0980511   2.9979977
 -19.0432644 -12.4122059   2.6611170 -19.7215211 -10.4859340   1.9628115
 -19.5363605  -9.4335330   2.1878244 -19.2973542 -10.6759548   0.9746620
 -21.2406540 -10.7390952   1.9198070 -21.4262724 -11.8052208   1.7735647
 -21.6810727 -10.4584897   2.8788465 -21.9490218  -9.9493635   0.8050558
 -21.7073870  -8.8876188   0.8873659 -21.5972495 -10.2927065  -0.1700528
 -23.4707212 -10.1310480   0.8952522 -23.9787531  -9.5873326   0.0960400
 -23.8463736  -9.7660464   1.8534395 -23.7223983 -11.1896622   0.8033006
  -4.1042557 -30.0289488  -1.2346792  -4.7856963 -29.5941496  -1.9688806
  -4.3982539 -29.6822643  -0.2417846  -4.2130190 -31.1148357  -1.2731779
  -2.6578489 -29.6098876  -1.5496691  -2.6094928 -28.5197067  -1.5900436
  -2.3877999 -29.9797058  -2.5410178  -1.6265637 -30.1126456  -0.5196942
  -1.8763360 -29.7172689   0.4670955  -0.6473087 -29.7120285  -0.7899315
  -1.5346733 -31.6489601  -0.4480625  -1.3577458 -32.0408607  -1.4518423
  -2.4846195 -32.0580530  -0.0977658  -0.4065815 -32.1221256   0.4863766
   0.5280596 -31.6401076   0.1921511  -0.6382119 -31.8031979   1.5047558
  -0.2113028 -33.6504030   0.4520986  -0.0489834 -33.9645195  -0.5810753
  -1.1229070 -34.1428018   0.7970402   0.9788671 -34.1366839   1.3034679
   1.9010668 -33.6906123   0.9252710   1.0678266 -35.2176666   1.1768678
   0.8384356 -33.8257098   2.8066152  -0.1172479 -34.2158294   3.1629002
   0.8289109 -32.7439761   2.9557028   1.9836226 -34.4425488   3.6353099
   2.9281139 -33.9654613   3.3655179   2.0731571 -35.5006027   3.3804241
   1.7669231 -34.3368173   5.1570493   2.5739017 -34.8691034   5.6649065
   0.8330634 -34.8423743   5.4115701   1.7159019 -32.8867412   5.6711060
   0.8743192 -32.3624158   5.2136290   2.6289329 -32.3752975   5.3592354
   1.5947717 -32.7766514   7.2028327   1.5854977 -31.7163587   7.4638951
   2.4853872 -33.2085586   7.6640522   0.3370571 -33.4498382   7.7912515
   0.4049020 -34.5302534   7.6478606  -0.5490339 -33.1051350   7.2541422
   0.1743769 -33.1543636   9.2965877   0.1119005 -32.0766401   9.4611257
   1.0705426 -33.5011601   9.8153192  -1.0747016 -33.8304257   9.9018157
  -1.1424809 -34.8650646   9.5591897  -1.9736309 -33.3115816   9.5624208
  -1.0404583 -33.8489079  11.4126301  -0.0737501 -34.1966414  12.0586908
  -2.2099353 -33.4891582  11.9813669  -2.3075476 -33.5745168  13.4370446
  -1.9648153 -34.5566225  13.7726808  -3.3607984 -33.4718728  13.7104964
  -1.4895688 -32.4543500  14.1422963  -0.4370933 -32.5146079  13.8536549
  -1.5437053 -32.5645280  15.6831396  -1.2104099 -31.6219711  16.1248946
  -0.8579892 -33.3528662  16.0040247  -2.8941590 -32.8453040  16.1484826
  -3.2719901 -34.2159295  16.8849695  -4.1087419 -33.7541461  18.1567574
  -5.4517412 -33.2660341  18.0009449  -5.7624716 -33.3164692  16.9542587
  -5.4750496 -32.2174501  18.3084786  -6.4176828 -34.0817499  18.8841224
  -7.3992115 -33.6103487  18.8158381  -6.0798776 -34.0243793  19.9199188
  -6.6414922 -35.5415082  18.5780096  -7.7578437 -36.0405135  19.4273639
  -7.4841446 -35.9194064  20.4765081  -7.9085165 -37.0922017  19.1793036
  -8.6511523 -35.4641342  19.1822791  -7.0341855 -35.7727575  17.1647012
  -6.2261981 -35.4389858  16.5119886  -7.9630202 -35.2381420  16.9604158
  -7.2031951 -36.8432570  17.0392227  -5.4333001 -36.3621140  18.8616133
  -4.6791446 -36.0901332  18.1216431  -5.7078242 -37.4119830  18.7489319
  -5.0827384 -36.1446404  19.8716080  -4.1683733 -34.9866414  16.0077667
  -2.0513743 -34.8644996  17.3825693  -2.0267788 -31.1546755  13.7835884
  -1.5394241 -30.5331755  12.6948202  -0.5492620 -30.8687377  12.0792258
  -2.3563287 -29.3265891  12.3232567  -2.3594768 -28.6253619  13.1603551
  -1.8912864 -28.8317227  11.4680934  -3.7990800 -29.7422361  11.9892788
  -3.7989759 -30.6011057  11.3148832  -4.2817819 -30.0581765  12.9164481
  -4.6225151 -28.5930586  11.3922215  -5.6858134 -28.8181663  11.4979923
  -4.4270498 -27.7024746  11.9931483  -4.3274051 -28.3031893   9.9069393
  -4.8547435 -27.3900509   9.6231204  -3.2605404 -28.1131983   9.7721595
  -4.7900626 -29.4338799   8.9661890  -4.1950262 -30.3326893   9.1409427
  -5.8270168 -29.6832371   9.2007333  -4.7120038 -29.0487695   7.4749774
  -5.1265216 -29.8625326   6.8762863  -5.3447849 -28.1757784   7.3019522
  -3.2924014 -28.7429667   6.9646037  -3.3843157 -28.4274244   5.9232354
  -2.8701851 -27.9004502   7.5162935  -2.4028322 -29.9693584   7.0131999
  -2.7399367 -30.7916260   6.3872576  -1.2883015 -30.1272917   7.7216715
  -0.7559201 -31.0718536   7.6445919  -0.6392230 -29.1212058   8.6503100
  -1.0644933 -28.1224990   8.5311788  -0.8297943 -29.4326472   9.6794599
   0.8919206 -29.0607834   8.4696859   1.2919234 -28.2877231   9.1291094
   1.3201018 -30.0085831   8.8025546   1.3493313 -28.7766600   7.0233989
   0.9124133 -29.5230556   6.3567197   0.9816575 -27.7970362   6.7109686
   2.8816715 -28.8044548   6.8723309   3.3202544 -28.1137824   7.5955731
   3.2424852 -29.8034811   7.1257615   3.3958498 -28.4319973   5.4633093
   3.2112822 -27.3739600   5.2659380   4.4789749 -28.5709143   5.4609942
   2.8126335 -29.2865896   4.3209100   3.5770884 -29.4174409   3.5521764
   2.5733089 -30.2812839   4.7027099   1.5717901 -28.6658216   3.6534664
   0.8939271 -28.2685995   4.4118726   1.8828033 -27.8280807   3.0258313
   0.8063924 -29.6913862   2.8050205  -0.0026105 -29.2078424   2.2535108
   0.3737880 -30.4631448   3.4451056   1.4746837 -30.1727009   2.0879522
   5.8401287 -26.3017941   2.5053111   6.2068665 -27.2972417   2.2463718
   6.3347793 -25.5754900   1.8570310   4.7643211 -26.2758684   2.3197593
   6.1300695 -26.0090470   3.9825600   7.2091424 -26.0405493   4.1471034
   5.6862390 -26.8059897   4.5828611   5.5766433 -24.6627450   4.4831988
   5.7961577 -24.5993161   5.5510253   4.4898093 -24.6528935   4.3775609
   6.1738700 -23.4435797   3.7480104   5.8146834 -23.4383631   2.7167872
   7.2605926 -23.5431123   3.7081176   5.8231866 -22.0900679   4.4008026
   4.7382951 -21.9827676   4.4637412   6.1898345 -21.2873626   3.7576082
   6.4474523 -21.9322062   5.8019960   7.5261045 -22.0856285   5.7282722
   6.0555357 -22.7018094   6.4702612   6.1802328 -20.5584168   6.4406449
   5.1024419 -20.4010677   6.5185678   6.5885609 -19.7724307   5.8019292
   6.8266779 -20.4803181   7.8380561   7.8891766 -20.7155156   7.7472699
   6.3893968 -21.2463713   8.4818047   6.6989899 -19.1047823   8.5180455
   7.2403771 -18.3658969   7.9235607   7.1974266 -19.1598248   9.4880939
   5.2565885 -18.6058855   8.7260181   4.7812018 -18.4748936   7.7516913
   5.2967137 -17.6195717   9.1929656   4.3866715 -19.5361018   9.5955724
   4.8715031 -19.6985459  10.5604625   4.2903438 -20.5089092   9.1089183
   2.9868361 -18.9317596   9.8078758   2.5522241 -18.7318039   8.8262486
   3.0825105 -17.9693127  10.3148341   2.0037271 -19.8322845  10.5804718
   1.8882495 -20.7790661  10.0487435   1.0202224 -19.3577516  10.5807018
   2.4054977 -20.1289153  12.0346701   3.3654469 -20.6489730  12.0570970
   1.6680335 -20.8128166  12.4599838   2.4785297 -18.8589120  12.9070640
   1.5934266 -18.2409203  12.7423167   3.3587787 -18.2694268  12.6422453
   2.5360170 -19.2142844  14.3677223   1.6943914 -18.8565826  15.1724982
   3.5689622 -20.0288749  14.6754289   3.4132826 -20.7388020  15.9244120
   2.4884850 -21.3153076  15.8405185   3.3066800 -20.0186753  16.7397058
   4.5828816 -21.6999602  16.2465584   4.2859191 -22.3130131  17.1013260
   5.8547652 -20.9243274  16.6332221   5.6086940 -20.0791764  17.2811556
   6.3240677 -20.5435610  15.7224977   6.7727458 -21.8066740  17.3347783
   6.7097658 -21.9459748  18.9288414   7.6533556 -23.2045031  19.2196381
   7.1676922 -24.5560527  19.0912449   7.0235497 -24.8074985  18.0373716
   6.2044054 -24.6427774  19.6003699   8.1677294 -25.5207229  19.7710145
   7.7654451 -26.5308022  19.6805274   8.2386261 -25.2917051  20.8353472
   9.5834577 -25.6068802  19.2511773  10.4047656 -24.4305730  19.6494925
   9.9168801 -23.5309291  19.2714870  11.3935328 -24.5658803  19.2086792
  10.4655910 -24.4128299  20.7386518  10.2389407 -26.8162203  19.8279345
   9.6018982 -27.6813745  19.6382844  10.3647411 -26.6831136  20.9034514
  11.2022090 -26.9516683  19.3339217   9.6114075 -25.7112145  17.7681732
   9.0401185 -26.6013694  17.5007200  10.6513476 -25.8269072  17.4592674
   9.1592973 -24.8127890  17.3454356   7.3728508 -20.7473087  19.4704032
   5.3118557 -22.2593284  19.3044019   4.8913431 -22.5845480  15.1326811
   4.0254536 -23.5826945  14.8721802   2.9522631 -23.6963415  15.4335237
   4.5585331 -24.5513248  13.8436127   5.1792461 -24.0156412  13.1223488
   5.2113611 -25.2467871  14.3752253   3.4549049 -25.3567052  13.1198704
   3.9051756 -26.2522268  12.6865530   2.7252746 -25.7098007  13.8516009
   2.7187631 -24.5969152  11.9956183   1.8680738 -25.2046728  11.6803026
   2.3169342 -23.6569118  12.3795342   3.6106423 -24.3244481  10.7651532
   4.3612257 -23.5720587  11.0161495   4.1410914 -25.2405095  10.4969788
   2.7993450 -23.8496518   9.5432305   2.0500012 -24.6040940   9.2947054
   2.2638907 -22.9345870   9.8047799   3.6915413 -23.6016202   8.3074319
   4.4496047 -22.8546977   8.5521942   4.2200452 -24.5251894   8.0621397
   2.9103330 -23.1379557   7.0603085   3.6097872 -23.0653739   6.2248689
   2.1654290 -23.8993764   6.8198556   2.2488910 -21.7950416   7.2879422
   2.5786680 -21.2981510   8.1967407   1.2549962 -21.2327290   6.6022450
   0.8626188 -20.2946186   6.9863796   0.6455352 -21.6005206   5.2550858
  -0.3935536 -21.9013858   5.4042077   0.5764978 -20.6814122   4.6694806
   1.3513121 -22.6718068   4.3968219   2.3877399 -22.3830175   4.2100552
   1.3528036 -23.6270690   4.9259064   0.6119493 -22.8693175   3.0591258
  -0.4472032 -23.0293512   3.2713723   0.6720513 -21.9590807   2.4588564
   1.1220307 -24.0639377   2.2316572   1.2082678 -24.9451137   2.8708422
   0.3685147 -24.2950058   1.4758228   2.4632759 -23.8097525   1.5185872
   2.3962691 -22.8876066   0.9375326   3.2588533 -23.6799908   2.2552577
   2.8087121 -24.9789572   0.5762666   2.9438412 -25.8887696   1.1648639
   1.9663715 -25.1599741  -0.0946719   4.0644369 -24.7184920  -0.2750907
   3.9040983 -23.8362598  -0.8983271   4.9171495 -24.5097971   0.3743635
   4.3941635 -25.9176469  -1.1769946   5.2254117 -25.6795526  -1.8439288
   3.5316929 -26.1799192  -1.7932899   4.6678960 -26.7864466  -0.5747307
 -23.2193804   2.7110130  -1.0720982 -23.6445355   3.0987817  -2.0001829
 -22.8763080   1.6896093  -1.2495761 -22.3559999   3.3258602  -0.8094165
 -24.2654920   2.7379572   0.0547261 -25.0950980   2.0758599  -0.2018785
 -24.6691394   3.7485158   0.1458560 -23.6494589   2.3007749   1.3949201
 -22.7663469   2.9144439   1.5846260 -23.3174324   1.2641761   1.3072523
 -24.6229124   2.4256064   2.5850320 -25.5587626   1.9203715   2.3372658
 -24.8584580   3.4794009   2.7478170 -24.0660858   1.8168904   3.8901150
 -23.9487052   0.7400393   3.7519932 -24.7971511   1.9598472   4.6885967
 -22.7142096   2.4194878   4.3236700 -22.8333759   3.4943354   4.4752136
 -21.9836974   2.2816217   3.5237890 -22.1519685   1.7727132   5.6053036
 -22.2391820   0.6874875   5.5207866 -22.7517009   2.0773898   6.4655101
 -20.6646657   2.1123125   5.8395004 -20.0950885   1.7660567   4.9745423
 -20.3041267   1.5450309   6.7001200 -20.3662086   3.6121643   6.0524786
 -20.8670926   4.1960964   5.2774936 -19.2969537   3.7847802   5.9133351
 -20.7904768   4.1452560   7.4380487 -21.5504384   3.4970284   7.8793204
 -21.2534571   5.1247317   7.3011523 -19.6156681   4.3110362   8.4239125
 -20.0001574   4.7769088   9.3336344 -18.8932157   5.0037879   7.9873115
 -18.8853765   2.9999349   8.7838012 -18.5475326   2.5124979   7.8668880
 -19.5833468   2.3185273   9.2747045 -17.6528740   3.2164544   9.6874857
 -16.9434977   3.8713628   9.1772461 -17.1536517   2.2573151   9.8401082
 -18.0070162   3.8169369  11.0589898 -18.7494791   3.1804571  11.5448976
 -18.4596550   4.8008183  10.9191334 -16.7910576   3.9656886  11.9925034
 -16.0270667   4.5952827  11.5316403 -16.3496125   2.9891703  12.2022688
 -17.2420788   4.5890906  13.2855654 -17.6609337   3.9248416  14.2088604
 -17.1533751   5.9323281  13.2465541 -17.9423201   6.7137462  14.1892803
 -17.3779762   7.6146322  14.4433856 -18.1430435   6.1551195  15.1070476
 -19.2617738   7.1433508  13.5022247 -18.9852095   7.5920957  12.5447333
 -20.0467324   8.1882387  14.3292916 -21.1012864   8.1996632  14.0421820
 -19.6260273   9.1749412  14.1193473 -19.9331546   7.9278034  15.7514405
 -19.8636067   9.1274148  16.8068767 -21.3457632   9.7174102  16.7693341
 -22.4088502   8.9817464  17.4059534 -22.4103618   9.1827893  18.4803045
 -22.2338176   7.9134834  17.2548616 -23.7504745   9.3542582  16.7421985
 -24.4896483   8.5951525  17.0023167 -23.6238980   9.3419164  15.6586373
 -24.3931198  10.6746304  17.0873630 -23.4560323  11.8189871  16.8964243
 -22.6056910  11.6840053  17.5664842 -23.9939666  12.7401412  17.1253002
 -23.1165981  11.8180788  15.8595717 -25.5812263  10.8883297  16.2169409
 -26.2781525  10.0686717  16.3978755 -25.2587199  10.9003925  15.1747692
 -26.0360336  11.8396771  16.4968884 -24.8988628  10.6698096  18.4879124
 -25.5997014   9.8387855  18.5801518 -25.4118824  11.6185927  18.6519384
 -24.0563154  10.5518889  19.1709101 -19.6162987   8.5480630  18.1365395
 -18.8971508  10.1153040  16.2849998 -20.0880647   5.9720045  13.2509899
 -20.8972645   5.9820819  12.1759570 -20.9782910   6.9139010  11.4020824
 -21.6480207   4.6793970  12.0258248 -20.9410453   3.9138925  11.6992497
 -22.0190358   4.3784323  13.0077779 -22.8289700   4.7577342  11.0328507
 -23.5831547   5.4440808  11.4234912 -22.4824691   5.1554799  10.0767124
 -23.4559894   3.3664691  10.8087254 -22.7348328   2.7310130  10.2904654
 -23.6466980   2.9054502  11.7800927 -24.7803426   3.3749732  10.0182831
 -25.1293874   2.3442262   9.9277675 -25.5343318   3.9166597  10.5932081
 -24.6851206   3.9941904   8.6098778 -24.4618988   5.0595003   8.6979121
 -23.8655543   3.5282779   8.0587888 -25.9969497   3.7996253   7.8197932
 -26.1603236   2.7312833   7.6635307 -26.8360353   4.1686776   8.4132570
 -26.0059643   4.5080504   6.4519083 -25.1649547   4.1585881   5.8493763
 -26.9185090   4.2179993   5.9269375 -26.0028076   6.0142553   6.6201633
 -26.8028307   6.4025897   7.2452468 -25.1485395   6.8693691   6.0675377
 -25.2678585   7.9316384   6.2648124 -23.9814067   6.5215963   5.1704216
 -23.1651139   7.2211206   5.3622419 -23.5977197   5.5230677   5.3899372
 -24.3947172   6.6098928   3.6906591 -25.1578307   5.8557332   3.4872735
 -24.8432183   7.5869143   3.4989807 -23.2058716   6.4047801   2.7359492
 -22.4447656   7.1601421   2.9423645 -22.7570486   5.4264194   2.9198843
 -23.6291909   6.5012413   1.2587906 -24.3696856   5.7272804   1.0463890
 -24.1092944   7.4647689   1.0755447 -22.4258733   6.3431144   0.3118139
 -21.7069244   7.1391088   0.5166777 -21.9303107   5.3922790   0.5186800
 -22.8377557   6.3865161  -1.1722504 -23.5885620   5.6150126  -1.3553777
 -23.3057928   7.3479205  -1.3938470 -21.6520047   6.1596233  -2.1313533
 -21.1442137   5.2280211  -1.8730319 -22.0375204   6.0387248  -3.1458610
 -20.6342936   7.3140389  -2.1206219 -19.8801804   7.1570057  -2.8946492
 -20.1298332   7.3810804  -1.1544490 -21.1318731   8.2655948  -2.3191617
  -7.8688365 -30.6163478   2.3124510  -7.0823282 -31.0564041   1.6958328
  -8.1805730 -31.3617897   3.0470249  -7.4535173 -29.7532201   2.8368428
  -9.0531296 -30.1944900   1.4273401  -9.4750035 -31.0877824   0.9620290
  -8.6782002 -29.5579123   0.6231897 -10.1649344 -29.4382954   2.1811143
 -10.8967054 -29.0738058   1.4571512  -9.7328597 -28.5632896   2.6711565
 -10.8883882 -30.3094578   3.2253626 -10.1597476 -30.7076716   3.9345670
 -11.3498867 -31.1619186   2.7225754 -11.9606066 -29.5208693   4.0022850
 -12.7754045 -29.2371249   3.3329141 -11.5121555 -28.5986567   4.3776304
 -12.5154448 -30.3079224   5.2036530 -13.1341016 -29.6441436   5.8112109
 -11.6706955 -30.6081748   5.8271188 -13.3527827 -31.5490055   4.8350984
 -12.9206765 -32.0664048   3.9760035 -14.3548417 -31.2258506   4.5454198
 -13.4505820 -32.5416732   6.0090894 -14.2675221 -33.2395387   5.8140147
 -13.6978030 -32.0017266   6.9254977 -12.1408427 -33.3401299   6.1892807
 -11.2971127 -32.6612210   6.3295078 -11.9472110 -33.8940096   5.2683085
 -12.1920681 -34.3442297   7.3551422 -11.3757932 -35.0610256   7.2439492
 -13.1244504 -34.9076939   7.2800791 -12.1123159 -33.7202430   8.7609476
 -12.2910047 -34.5125246   9.4908977 -12.9124153 -32.9871798   8.8831049
 -10.7565892 -33.0561972   9.0757751 -10.6132007 -32.1864414   8.4312379
  -9.9498039 -33.7619853   8.8673842 -10.6957865 -32.6142645  10.5494738
 -10.9046876 -33.4728742  11.1910450 -11.4913750 -31.8876219  10.7269382
  -9.3606377 -31.9817615  10.9834361  -9.4780582 -31.6502476  12.0172513
  -9.1675603 -31.0930228  10.3790128  -8.1328398 -32.9115152  10.9051132
  -7.8037459 -33.0376863   9.8715556  -8.3884126 -33.8974166  11.2989938
  -7.0063168 -32.3372841  11.7271519  -6.4435530 -31.2997365  11.4520895
  -6.7541867 -33.0709815  12.8263533  -6.0750329 -32.4446011  13.9571178
  -5.3175306 -31.7316794  13.6215866  -5.5695701 -33.2338929  14.5194113
  -7.1075410 -31.7629862  14.9003649  -6.6088825 -31.4449286  15.8195102
  -8.2199740 -32.7825379  15.2629125  -7.8080744 -33.5462880  15.9274936
  -8.5736936 -33.2662225  14.3488133  -9.3890274 -32.1969032  15.8857131
  -9.3138188 -31.4336181  17.2803259  -9.3513399 -29.9132705  16.8083179
 -10.5510926 -29.4005895  16.2093139 -11.3210118 -30.1754785  16.1716259
 -10.3229451 -29.1088343  15.1809776 -11.0398495 -28.1811476  17.0122015
 -11.8310738 -27.6828718  16.4500916 -10.2090216 -27.4868274  17.1460903
 -11.5997922 -28.4105635  18.3914626 -12.6955223 -29.4272566  18.4097719
 -13.4912336 -29.1156435  17.7315235 -13.0802643 -29.5217943  19.4262934
 -12.2734058 -30.3826380  18.0945814 -10.5308425 -28.7993765  19.3556499
  -9.7132462 -28.0829310  19.2633212 -10.1787257 -29.7956228  19.0840161
 -10.9413397 -28.8149667  20.3663564 -12.1557403 -27.1168137  18.8548529
 -11.3264251 -26.4081097  18.8388419 -12.5555921 -27.2520256  19.8608923
 -12.9409325 -26.8032336  18.1653452 -10.5530667 -31.6873813  18.0346012
  -8.0067170 -31.7010641  17.9038572  -7.7224225 -30.6124473  14.2619479
  -7.1214825 -29.4102812  14.3683696  -6.0460728 -29.2055607  14.8990321
  -7.9095030 -28.2903647  13.7211728  -8.6412132 -27.8981590  14.4305646
  -7.2134268 -27.4865222  13.4726131  -8.6127269 -28.7777400  12.4419034
  -7.9002672 -29.4021225  11.8987572  -9.4609559 -29.4134545  12.7042747
  -9.0819919 -27.6726222  11.4850140 -10.0047457 -27.2172546  11.8505692
  -8.3159703 -26.8973804  11.4166367  -9.2954582 -28.3006597  10.0975657
  -8.3854276 -28.8468790   9.8407501 -10.1084316 -29.0282822  10.1434326
  -9.5824039 -27.2952843   8.9743066 -10.6598866 -27.1439099   8.8816893
  -9.1494006 -26.3288760   9.2408091  -8.9771712 -27.7633405   7.6342988
  -9.2033756 -27.0299244   6.8575138  -7.8910363 -27.7928996   7.7433896
  -9.4529873 -29.1548824   7.1759677  -9.3727416 -29.8702478   7.9971111
 -10.5097485 -29.0914917   6.9081974  -8.6472797 -29.6188545   5.9798819
  -8.7555546 -29.0070820   5.0879282  -7.8218395 -30.6624460   5.9469461
  -7.2841471 -30.8788228   5.0273609  -7.5728738 -31.6487575   7.0722640
  -6.7277038 -31.3050485   7.6722765  -8.4368223 -31.7223644   7.7360690
  -7.2293544 -33.0556273   6.5451562  -6.3506824 -32.9967427   5.8994532
  -6.9604123 -33.6842012   7.3966432  -8.3846080 -33.7269759   5.7773668
  -9.2786252 -33.7142539   6.4042914  -8.6039966 -33.1557369   4.8729229
  -8.0576682 -35.1876855   5.4110080  -7.1735710 -35.2190304   4.7708097
  -7.7980661 -35.7213140   6.3276929  -9.2314368 -35.9281445   4.7343016
  -8.9845866 -36.9899440   4.6701998 -10.1139212 -35.8505511   5.3727877
  -9.5922446 -35.4208732   3.3223906 -10.4961360 -35.9363604   2.9911533
  -9.8249614 -34.3544555   3.3549485  -8.4734571 -35.6812835   2.2960438
  -7.5651795 -35.1537061   2.5946328  -8.2466078 -36.7493653   2.2817053
  -8.8514900 -35.2401996   0.8752353  -9.7620577 -35.7443595   0.5448513
  -8.0477703 -35.4901695   0.1795236  -9.0125215 -34.1606712   0.8413372
 -20.6626844  14.7946393   2.0367764 -20.7173467  15.6583261   1.3708036
 -20.5682588  15.1547945   3.0633408 -21.5966344  14.2354500   1.9501165
 -19.4710469  13.9048743   1.6538268 -18.5525334  14.4949985   1.6772859
 -19.6031332  13.5777617   0.6203795 -19.3299377  12.6584804   2.5514838
 -18.5620868  12.0105577   2.1236268 -20.2642083  12.0937622   2.5250736
 -18.9599037  12.9411781   4.0212384 -18.9390695  11.9912493   4.5594439
 -19.7364998  13.5530233   4.4849297 -17.5934517  13.6397970   4.1690615
 -17.6241493  14.5981181   3.6464337 -16.8162787  13.0382800   3.6929911
 -17.2058666  13.9117873   5.6320173 -18.0495512  14.3823266   6.1411840
 -16.3840365  14.6307731   5.6429470 -16.7650974  12.6534343   6.4036918
 -15.8854222  12.2378743   5.9077621 -17.5466859  11.8912995   6.3766026
 -16.4234948  12.9787290   7.8709185 -17.3429775  13.0532992   8.4552592
 -15.9354985  13.9546299   7.9149759 -15.4821241  11.9318676   8.4947711
 -14.6017253  11.8358564   7.8559089 -15.9739316  10.9572363   8.5209501
 -15.0266159  12.3278832   9.9124730 -15.8430922  12.1654820  10.6191957
 -14.7937644  13.3947420   9.9200362 -13.7768459  11.5386844  10.3512442
 -12.9672790  11.7430019   9.6474546 -13.9794266  10.4673672  10.2903914
 -13.2802808  11.8673289  11.7710757 -12.3306906  11.3516390  11.9285750
 -13.9835310  11.4754379  12.5088608 -13.0852330  13.3753240  12.0072961
 -14.0596271  13.8344526  12.1867943 -12.6650357  13.8362551  11.1109471
 -12.1396112  13.6545122  13.1880498 -11.1354101  13.3433986  12.8926647
 -12.4238837  13.0443978  14.0479434 -12.1009433  15.1442051  13.5918152
 -12.3196185  15.7742143  12.7270997 -11.1032891  15.4099762  13.9475036
 -13.0807579  15.4535651  14.6948409 -12.7365899  15.8619809  15.7896543
 -14.3540514  15.3030384  14.2989039 -15.4320872  15.4668212  15.2589071
 -16.3205850  15.7726800  14.7006321 -15.1956773  16.2726152  15.9585178
 -15.7645500  14.1585445  16.0379350 -16.6755486  14.3440604  16.6126668
 -14.6646917  13.7357450  17.0507205 -15.1480687  13.1335330  17.8242409
 -14.2425549  14.6168447  17.5407326 -13.5749805  12.9658103  16.4481974
 -12.8315604  11.7842710  17.2455108 -13.3514988  10.4110551  16.6129243
 -14.6701491  10.2575958  16.0349417 -14.7419655   9.2667496  15.5791831
 -14.7886801  10.9954691  15.2373564 -15.7887137  10.4061580  17.0864594
 -16.7455912  10.5238914  16.5757668 -15.6068218  11.3006401  17.6840341
 -16.0013235   9.2926615  18.0711520 -14.7578394   8.9769149  18.8240659
 -14.0390325   8.5994935  18.0952656 -14.9905562   8.2129633  19.5673704
 -14.3880808   9.9005252  19.2718434 -17.0432472   9.7329736  19.0382230
 -17.9163349  10.0376403  18.4592772 -16.6620815  10.5665457  19.6299577
 -17.3301911   8.8841712  19.6607018 -16.4864361   8.0631751  17.3835671
 -17.3646677   8.3370215  16.7970526 -16.7674053   7.3234785  18.1346905
 -15.6875932   7.6770383  16.7487216 -11.3903916  11.8828106  16.9429708
 -13.2286131  11.8388450  18.6665034 -16.0229671  13.0486453  15.1404285
 -17.1422517  13.0470014  14.3894291 -17.9461586  13.9570606  14.3873274
 -17.2184348  11.7963386  13.5515857 -16.2962794  11.7237759  12.9712188
 -17.2363615  10.9393930  14.2281842 -18.4309375  11.7152870  12.5998616
 -19.3554485  11.7106378  13.1810009 -18.4507573  12.5792217  11.9322622
 -18.3152485  10.4164302  11.7804348 -17.4313772  10.4779851  11.1421192
 -18.1383002   9.5961106  12.4791670 -19.5239425  10.0317323  10.9124815
 -19.3549156   9.0159422  10.5490732 -20.4284906  10.0022793  11.5235364
 -19.7440016  10.9489655   9.6976936 -20.2298617  11.8715560  10.0220871
 -18.7808084  11.2167883   9.2583835 -20.5933857  10.2335966   8.6275613
 -20.0317860   9.3770051   8.2489836 -21.5030885   9.8395222   9.0853941
 -20.9744501  11.1345994   7.4412704 -20.0756598  11.5854359   7.0153761
 -21.4063859  10.5023098   6.6627425 -22.0028210  12.1658838   7.8601682
 -22.9668927  11.7489183   8.1399477 -21.8470883  13.4843099   7.9028654
 -22.6833439  14.1014111   8.2213497 -20.6063104  14.2484033   7.5065017
 -19.7461402  13.5873485   7.3816997 -20.8154345  14.7106445   6.5395147
 -20.2526331  15.3402007   8.5369110 -21.1286068  15.9658086   8.7206203
 -20.0038338  14.8609233   9.4860458 -19.0692949  16.2343848   8.1052214
 -18.8882816  16.9805396   8.8817215 -18.1678748  15.6219471   8.0357510
 -19.3062592  16.9537210   6.7601472 -19.5368898  16.2157536   5.9889954
 -20.1689363  17.6170290   6.8511218 -18.0923712  17.7678585   6.2845010
 -17.8487349  18.5128152   7.0448583 -17.2276497  17.1085382   6.1844122
 -18.3462954  18.4814954   4.9402478 -19.1786337  19.1788435   5.0559264
 -17.4650860  19.0716481   4.6801478 -18.6366510  17.5314260   3.7655947
 -17.8136790  16.8207908   3.6647135 -19.5511770  16.9657362   3.9555931
 -18.7983096  18.3006263   2.4479094 -18.9452314  17.6057661   1.6184233
 -17.9097259  18.9029872   2.2477964 -19.6624720  18.9661634   2.5003260
   8.5771352 -34.3398023   0.4362362   7.8212005 -35.0651550   0.7442788
   9.2639130 -34.8291397  -0.2575562   8.0726463 -33.5248470  -0.0870270
   9.3306381 -33.8025951   1.6629876   9.7531670 -34.6420813   2.2190432
   8.6091942 -33.3074307   2.3162819  10.4563892 -32.8170371   1.2879086
  10.0210798 -31.9549751   0.7781858  11.1327338 -33.2995296   0.5792316
  11.2810779 -32.3232174   2.4962282  12.0080292 -31.5885043   2.1438055
  11.8477452 -33.1580663   2.9138151  10.4190099 -31.6981554   3.6100951
   9.7876823 -32.4725223   4.0508294   9.7613931 -30.9480858   3.1658006
  11.2552404 -31.0485697   4.7312146  11.7933667 -30.1840401   4.3369129
  12.0037007 -31.7644453   5.0773263  10.3995168 -30.6206489   5.9399140
  11.0576940 -30.2488971   6.7279917   9.8924440 -31.5049744   6.3314611
   9.3436682 -29.5481467   5.6123543   8.7139076 -29.8912621   4.7888634
   9.8479182 -28.6376166   5.2820069   8.4350699 -29.2247939   6.8133128
   9.0520597 -28.8740897   7.6432490   7.9245239 -30.1341081   7.1372759
   7.3922384 -28.1556535   6.4362001   6.8734264 -28.5016966   5.5397898
   7.9099250 -27.2341704   6.1617333   6.3223332 -27.8306103   7.5015801
   5.7680964 -28.7362719   7.7566534   5.6079090 -27.1457696   7.0399988
   6.8364298 -27.1529579   8.7867606   6.0419434 -26.5121889   9.1749233
   7.6769894 -26.4992118   8.5448122   7.2289002 -28.1534910   9.8896849
   7.9158396 -28.9003754   9.4862735   6.3371032 -28.6909151  10.2188361
   7.9006404 -27.4964547  11.1074638   8.8440681 -27.0402002  10.8004820
   8.1485546 -28.2951379  11.8096793   7.0401573 -26.4333510  11.8232644
   6.0103208 -26.7894602  11.8945789   7.0390469 -25.4962349  11.2626588
   7.5594831 -26.2003160  13.2189655   8.1471854 -25.1959491  13.5821283
   7.2979534 -27.2600555  13.9957643   7.9771727 -27.4198508  15.2701890
   7.4021333 -26.9117022  16.0484946   8.9768195 -26.9805169  15.2218354
   8.1281531 -28.9348912  15.5497420   7.1342671 -29.3780327  15.6520498
   9.0037823 -29.2585230  16.7854929  10.0313330 -28.9338994  16.6027093
   9.0224129 -30.3402567  16.9409025   8.5371155 -28.6351943  18.0093288
   7.0513457 -28.7769055  18.5946417   6.6157401 -30.2631235  18.1980681
   7.1286070 -31.4119554  18.9027536   6.5170032 -31.6190767  19.7846222
   8.1510955 -31.2043357  19.2284274   7.1495861 -32.6038885  17.9181921
   7.7508569 -33.4071350  18.3466220   7.6289403 -32.2819185  16.9925380
   5.8411860 -33.2441974  17.5142717   4.8021150 -32.2455287  17.1348822
   4.6118674 -31.6085219  17.9999304   3.9024368 -32.7814746  16.8289030
   5.2059865 -31.6461062  16.3176548   6.0756648 -34.1033745  16.3221264
   6.8644339 -34.8150897  16.5702820   6.3958400 -33.4784913  15.4870868
   5.1537043 -34.6352196  16.0825193   5.3194547 -34.1088581  18.6143327
   6.1196876 -34.7909045  18.9054036   4.4646898 -34.6820855  18.2522953
   5.0440878 -33.4795642  19.4619429   7.1847284 -28.6599064  20.0538421
   6.2358671 -27.7882981  17.8688562   8.8013214 -29.4889498  14.3915820
   8.6607605 -30.7964611  14.1318107   8.1740934 -31.6049004  14.8991859
   9.1653615 -31.1371970  12.7560925   9.5508868 -30.2350903  12.2764730
   9.9949151 -31.8425083  12.8387880   8.0157071 -31.7089343  11.9119227
   7.6554036 -32.6357722  12.3631585   7.1833676 -31.0021186  11.9212365
   8.4068197 -31.9774389  10.4528987   7.5049281 -32.2881866   9.9214005
   8.7471306 -31.0483050   9.9909878   9.5019358 -33.0508709  10.2967465
  10.4345095 -32.6891351  10.7348299   9.2138875 -33.9564657  10.8346963
   9.7490174 -33.3926797   8.8189054   9.8546374 -32.4611831   8.2588869
  10.6911314 -33.9364243   8.7228531   8.6167848 -34.2472076   8.2169890
   8.6799937 -35.2587819   8.6234218   7.6405078 -33.8511753   8.5042256
   8.6755776 -34.2941689   6.6840744   8.4763187 -33.2969046   6.2863022
   9.6822190 -34.5646191   6.3585109   7.6807845 -35.2985668   6.1498761
   8.0141830 -36.3329029   6.1735660   6.4964271 -35.0046515   5.6259799
   5.8729029 -35.8059645   5.2378005   5.8930957 -33.6213827   5.5490851
   4.8040718 -33.6914539   5.5888498   6.2091410 -33.0154109   6.4007765
   6.3234884 -32.9456615   4.2405128   7.4145854 -32.9197264   4.2044899
   5.9823054 -33.5590267   3.4039465   5.7873952 -31.5112472   4.0949374
   4.6987697 -31.5341973   4.0122870   6.0366011 -30.9438491   4.9940589
   6.3906175 -30.7891774   2.8754288   6.0756946 -29.7439027   2.9016894
   7.4791944 -30.7999849   2.9611471   5.9810442 -31.4108729   1.5240398
   6.1295372 -32.4925184   1.5453352   4.9148896 -31.2376046   1.3635515
   6.7778414 -30.8575726   0.3281923   7.8146976 -31.1914587   0.4050890
   6.3698393 -31.2840772  -0.5905521   6.7608607 -29.3234420   0.2300071
   5.7304561 -28.9621854   0.2449303   7.2786075 -28.8945889   1.0905219
   7.4515027 -28.8323689  -1.0463686   7.4052167 -27.7425528  -1.0975472
   6.9582063 -29.2416072  -1.9304769   8.4996402 -29.1386008  -1.0560955
  24.6779132   1.0368863   0.9040494  24.7654176   0.6469225  -0.1121865
  24.0187192   0.3733829   1.4676878  25.6675553   1.0191838   1.3653070
  24.1178346   2.4684440   0.8775812  23.1233859   2.4539797   0.4266626
  24.7530508   3.0815199   0.2348507  24.0375066   3.1283438   2.2692555
  23.6587191   4.1447565   2.1432084  25.0421953   3.2102823   2.6891991
  23.1308889   2.3737729   3.2633170  23.5752439   1.4052004   3.5018140
  22.1633172   2.1838003   2.7940857  22.9152918   3.1673270   4.5671099
  22.5152016   4.1534349   4.3221956  23.8793826   3.3163619   5.0578058
  21.9435811   2.4563132   5.5299711  22.3785353   1.5057349   5.8456928
  21.0210443   2.2224227   4.9945417  21.5913582   3.2858938   6.7814928
  20.8056879   2.7638116   7.3315996  21.1877608   4.2553273   6.4818716
  22.7926111   3.5062316   7.7170807  23.5673690   4.0782177   7.2022545
  23.2165742   2.5328830   7.9726422  22.3998833   4.2380533   9.0139520
  21.5718198   3.7008977   9.4811130  22.0499992   5.2459902   8.7813359
  23.5938644   4.3123171   9.9850112  24.3773508   4.9270409   9.5369864
  24.0145922   3.3110172  10.0983620  23.2613945   4.8783508  11.3815272
  23.0017614   5.9344471  11.2829566  24.1679978   4.8376957  11.9888806
  22.1185780   4.1620532  12.1372604  21.1655664   4.4391447  11.6817939
  22.0917058   4.5436388  13.1600678  22.2025514   2.6195791  12.1847665
  22.0086026   2.2179776  11.1879897  21.4010096   2.2482839  12.8267419
  23.5365987   2.0378028  12.6881647  24.3251848   2.2636305  11.9673336
  23.4472823   0.9499897  12.7220690  23.9649463   2.5461826  14.0758932
  23.1849289   2.3251532  14.8074543  24.1225219   3.6266398  14.0602410
  25.2516556   1.8846409  14.4936240  26.3136768   2.0713986  13.9420640
  25.0851417   1.0450226  15.5279994  26.2266946   0.2203769  15.9086466
  26.8561172   0.0124795  15.0395930  25.8307576  -0.7357078  16.2604773
  27.0826745   0.8460472  17.0475864  28.0624342   0.3620868  17.0251656
  26.5216875   0.5569882  18.4576845  26.8188286   1.3477151  19.1513026
  26.9379234  -0.3834818  18.8276994  25.0797677   0.4278118  18.4464538
  24.2671084   0.2276648  19.8005569  23.9007354   1.7291953  20.1694560
  22.7768087   2.3419110  19.5140779  21.8702984   2.1210805  20.0833964
  22.6535463   1.9334784  18.5077786  23.0250192   3.8588598  19.4458735
  23.2782459   4.2145643  20.4456878  22.0985293   4.3339458  19.1200066
  24.0934110   4.3693602  18.5121047  23.7937880   3.9858499  17.1030939
  23.9080238   2.9043779  17.0156288  24.4909477   4.4976357  16.4380193
  22.7671528   4.2827830  16.8836939  24.1235447   5.8545053  18.6078429
  24.4254565   6.1358494  19.6177804  23.1147528   6.2061238  18.3865190
  24.8353767   6.2418175  17.8773856  25.4433346   3.8595930  18.8662767
  25.6417680   4.0699929  19.9182439  26.1804318   4.3285155  18.2127631
  25.4287863   2.7816972  18.6983192  23.0229259  -0.4919572  19.4888282
  25.1922989  -0.3340933  20.7972884  27.2462177   2.2893178  16.8850660
  28.3996892   2.7546123  16.3564968  29.3473244   2.0511107  16.0612130
  28.4277916   4.2631367  16.2617850  27.9509974   4.6821705  17.1503460
  29.4673944   4.5973077  16.2663519  27.7155924   4.7993106  15.0031555
  26.6873002   4.4321445  14.9868238  27.6625443   5.8883756  15.0630605
  28.4323263   4.4093943  13.6956418  29.4213605   4.8721102  13.6827195
  28.5764027   3.3272111  13.6714792  27.6521134   4.8499286  12.4421227
  26.6387630   4.4442463  12.4739015  27.5595188   5.9378427  12.4603558
  28.3385372   4.4429699  11.1213350  27.8135204   4.9187073  10.2903736
  29.3546462   4.8429272  11.1260676  28.4205127   2.9267210  10.8523417
  29.0526462   2.7626926   9.9771470  28.9039373   2.4262363  11.6939342
  27.0535970   2.2725783  10.5974293  26.4193892   2.4431007  11.4698756
  26.5786028   2.7514786   9.7386521  27.2108626   0.7816740  10.3823006
  27.9917836   0.3121872  10.9750187  26.5368319   0.0510685   9.5009357
  26.7680621  -1.0064559   9.4022214  25.3934360   0.5478551   8.6416990
  24.6290874  -0.2291841   8.5750186  24.9180007   1.4133170   9.1079617
  25.8550954   0.9292816   7.2223419  25.0034189   1.3438620   6.6789871
  26.6103196   1.7150721   7.2904170  26.4181399  -0.2703582   6.4347506
  27.3378921  -0.6248112   6.9047350  25.6961513  -1.0879324   6.4873594
  26.6886353   0.0391977   4.9500296  26.9154453  -0.9031576   4.4470507
  25.7831383   0.4418462   4.4913229  27.8524256   1.0239697   4.7295436
  27.6588726   1.9492689   5.2761900  28.7653565   0.5879678   5.1405495
  28.0852246   1.3765861   3.2472870  27.2003198   1.8827422   2.8558630
  28.9113069   2.0882964   3.1879553  28.4096837   0.1548975   2.3638444
  29.2592144  -0.3856509   2.7864209  27.5587606  -0.5293216   2.3484866
  28.7395024   0.5558065   0.9177399  28.9533830  -0.3330470   0.3205313
  29.6172571   1.2049595   0.8930513  27.9014230   1.0863131   0.4609573
 -32.7871680  -8.6791998  -0.1728645 -32.1615744  -8.6149937  -1.0655984
 -33.6241174  -7.9878438  -0.2912161 -33.1796074  -9.6955460  -0.0987375
 -31.9669366  -8.3255595   1.0766803 -31.4863658  -7.3593056   0.9097400
 -31.1741376  -9.0651596   1.2067882 -32.8290963  -8.2633412   2.3537427
 -33.2704639  -9.2453992   2.5360042 -33.6590505  -7.5702918   2.2010294
 -32.0340705  -7.8326970   3.6038575 -31.1692595  -8.4885836   3.7237588
 -32.6692176  -7.9701900   4.4814393 -31.5775108  -6.3589978   3.5479581
 -32.4542189  -5.7308698   3.3767703 -30.9022617  -6.2066823   2.7033859
 -30.8849096  -5.8699697   4.8343673 -31.5374660  -6.0585332   5.6893981
 -30.7574916  -4.7881496   4.7576010 -29.5021915  -6.5029645   5.0866044
 -28.8511467  -6.2836438   4.2377788 -29.5968270  -7.5883210   5.1608258
 -28.8576508  -5.9605563   6.3773996 -29.4864774  -6.2356263   7.2267389
 -28.8288522  -4.8699936   6.3293540 -27.4250507  -6.4887798   6.5933371
 -26.8232083  -6.2179470   5.7233381 -27.4383831  -7.5798506   6.6363627
 -26.7393398  -5.9155834   7.8540695 -26.7466068  -4.8253676   7.7920914
 -25.6917143  -6.2236881   7.8578717 -27.3865223  -6.3326782   9.1905636
 -28.4338212  -6.0234439   9.1928011 -26.8950438  -5.7906079  10.0011635
 -27.2755694  -7.8461027   9.4708741 -26.2197042  -8.1206578   9.5181131
 -27.7192950  -8.4102535   8.6478883 -27.9581571  -8.2822442  10.7806563
 -27.5155830  -7.7449393  11.6220212 -27.7588058  -9.3438387  10.9410846
 -29.4800425  -8.0465436  10.7642090 -29.9049950  -8.4135467   9.8276252
 -29.6603489  -6.9702429  10.8033204 -30.2047443  -8.7290776  11.9428980
 -29.6090841  -8.6199212  12.8515983 -30.3214598  -9.7984624  11.7551339
 -31.5632677  -8.1328917  12.2048783 -32.1241784  -7.3591644  11.4573479
 -32.0380664  -8.4942681  13.4134066 -33.0416799  -7.6409972  14.0308154
 -33.5993147  -8.2405406  14.7548604 -33.7420464  -7.2547936  13.2858419
 -32.3355293  -6.4828855  14.7801089 -31.6248536  -6.9146097  15.4894781
 -33.3321452  -5.6224757  15.5672765 -33.9533854  -6.2758428  16.1851907
 -33.9755630  -5.0765198  14.8725867 -32.5843859  -4.6846837  16.3879788
 -32.7336335  -4.6237779  17.9863536 -33.1900001  -3.1033337  18.1968343
 -34.5824718  -2.7236515  18.1857085 -34.6916485  -1.7583388  18.6866093
 -35.1670957  -3.4487903  18.7575817 -35.1095223  -2.6232642  16.7359722
 -36.1773944  -2.4071334  16.7927027 -34.9723244  -3.5812709  16.2323070
 -34.5348454  -1.5574060  15.8351505 -33.1708980  -1.9105856  15.3533721
 -32.5287485  -2.0134717  16.2293506 -32.8277135  -1.1090579  14.6975839
 -33.2245350  -2.8622091  14.8225081 -35.4150605  -1.3981578  14.6438646
 -36.4101958  -1.1099063  14.9857712 -35.4471302  -2.3344976  14.0848327
 -35.0131440  -0.6028927  14.0143430 -34.4533467  -0.2418140  16.5250647
 -35.4404163  -0.0209222  16.9339418 -34.1613007   0.5099984  15.7903755
 -33.7223959  -0.3176475  17.3314404 -33.8357353  -5.5201274  18.3840096
 -31.3901377  -4.8075622  18.5614157 -31.6775107  -5.6049681  13.8238764
 -30.3415895  -5.4883182  13.8454986 -29.6061826  -6.0225630  14.6519804
 -29.8111463  -4.5901886  12.7615499 -28.7213182  -4.6590140  12.7624905
 -30.1710391  -4.9507815  11.7956746 -30.2492738  -3.1276503  12.9720211
 -31.2989044  -3.0223677  12.6897836 -30.1780581  -2.8766620  14.0323973
 -29.3912315  -2.1204555  12.1801686 -29.8410559  -1.1301535  12.2772360
 -28.4047723  -2.0636082  12.6450682 -29.1981912  -2.4513716  10.6850898
 -28.5876679  -1.6663340  10.2340460 -28.6320734  -3.3804950  10.5917943
 -30.5105591  -2.5775895   9.8877978 -31.1389732  -3.3549932  10.3273439
 -31.0609341  -1.6363381   9.9477786 -30.2352595  -2.9343823   8.4127766
 -29.6350169  -2.1471627   7.9518437 -29.6428633  -3.8511875   8.3811724
 -31.5112495  -3.1516254   7.5780815 -31.2214255  -3.5371625   6.5983754
 -32.1174359  -3.9187387   8.0644369 -32.3205400  -1.8774112   7.4505484
 -32.4313736  -1.3113984   8.3719140 -32.8844285  -1.4026591   6.3440454
 -33.4407735  -0.4704820   6.3996667 -32.8904438  -2.0403855   4.9707127
 -32.2501397  -2.9227668   4.9084613 -33.9105129  -2.3664899   4.7572196
 -32.4976873  -1.0292756   3.8808900 -32.7469254  -1.4513369   2.9050785
 -33.0919623  -0.1214230   4.0037903 -30.9995866  -0.6806074   3.8897306
 -30.6847739  -0.4109843   4.9000078 -30.4390311  -1.5719789   3.6004207
 -30.6860209   0.4833571   2.9287103 -31.0877085   0.2583805   1.9385101
 -31.2074113   1.3756198   3.2815289 -29.1826439   0.8097792   2.8157139
 -29.0581679   1.6520885   2.1319848 -28.8170290   1.1370814   3.7912467
 -28.3080125  -0.3628978   2.3259746 -27.2734523  -0.0203132   2.2568294
 -28.3240199  -1.1637057   3.0682108 -28.7397337  -0.9264925   0.9571763
 -29.7787189  -1.2603833   0.9957911 -28.6720181  -0.1418130   0.2007658
 -27.8666711  -2.1165335   0.5371046 -28.1667948  -2.4792589  -0.4481970
 -27.9793262  -2.9372481   1.2485824 -26.8149185  -1.8258786   0.4947058
  24.9555612 -22.3325229   1.7436358  25.9831762 -22.2313809   1.3883261
  24.6139646 -21.3626385   2.1111900  24.3295693 -22.6260400   0.8983875
  24.8841405 -23.3888960   2.8552148  25.5373573 -23.0915332   3.6782271
  25.2604246 -24.3361068   2.4632159  23.4528732 -23.5936379   3.3823854
  22.7890825 -23.8151145   2.5440568  23.1006765 -22.6710963   3.8485825
  23.3883953 -24.7474813   4.3985856  24.0664291 -24.5301890   5.2265447
  23.7428117 -25.6633067   3.9209688  21.9713569 -24.9850702   4.9550000
  21.2862134 -25.2185583   4.1373664  21.6147733 -24.0748477   5.4416299
  21.9777036 -26.1448312   5.9650826  22.7104998 -25.9239173   6.7439741
  22.2994184 -27.0527577   5.4506624  20.6161165 -26.4086795   6.6281199
  19.8877203 -26.6885448   5.8641970  20.2695823 -25.4823995   7.0911366
  20.7139468 -27.5201130   7.6945782  21.4600134 -27.2331452   8.4385520
  21.0773826 -28.4344316   7.2208720  19.3864214 -27.8502178   8.4077173
  19.5850098 -28.5775781   9.1976368  18.7194049 -28.3437753   7.6978213
  18.6416256 -26.6423512   9.0088725  17.7889705 -27.0079517   9.5848769
  18.2346511 -26.0359478   8.1970179  19.5102882 -25.7421803   9.9063832
  18.9031005 -24.9117327  10.2726352  20.3030300 -25.3001022   9.2992681
  20.1290774 -26.4737868  11.1108315  20.8311200 -27.2284007  10.7500625
  19.3442428 -26.9914293  11.6662991  20.8676791 -25.5159950  12.0623100
  21.3106060 -26.0902619  12.8787029  20.1365280 -24.8378706  12.5073147
  21.9750023 -24.7013927  11.3596570  21.5421987 -24.0834475  10.5701721
  22.6817107 -25.3857064  10.8855844  22.7430511 -23.7773800  12.3199892
  23.2628250 -24.3783784  13.0690527  23.4994149 -23.2250333  11.7584836
  21.8359995 -22.7897906  13.0145848  20.8819437 -22.2529197  12.4861777
  22.1947670 -22.6080155  14.2987418  21.2915301 -21.8882322  15.1837361
  20.7599330 -21.1007285  14.6434641  21.8979979 -21.4140797  15.9596384
  20.2971292 -22.8662157  15.8713400  19.6934247 -22.3198056  16.6004670
  21.0556388 -23.9866805  16.6215456  21.5886450 -23.5823107  17.4858594
  21.7879891 -24.4345999  15.9450221  20.1561069 -25.0355744  17.0686829
  20.7586741 -26.4421344  17.5198150  21.1924434 -27.0758748  16.1215127
  20.2320027 -27.7277112  15.2811360  19.9764943 -27.0557070  14.4578636
  19.3157816 -27.9551768  15.8319974  20.8688712 -29.0265107  14.7503984
  21.7930269 -28.7826371  14.2243373  20.1699018 -29.4853210  14.0495300
  21.2198162 -30.1107860  15.7418525  21.6437459 -31.3156962  14.9732196
  20.8788395 -31.5588951  14.2342675  21.7546797 -32.1398044  15.6794918
  22.6098204 -31.1143231  14.5079982  22.3323774 -29.7335935  16.6608346
  22.0482373 -28.8429499  17.2232389  23.2402349 -29.5563912  16.0823274
  22.4854302 -30.5688357  17.3458374  20.0540304 -30.4767561  16.5906572
  19.8458362 -29.6245360  17.2392392  20.3435063 -31.3484907  17.1793592
  19.2030692 -30.6972146  15.9444821  21.9938684 -26.2095499  18.2843173
  19.6846986 -27.2933483  18.0757439  19.4118273 -23.4873772  14.9017429
  18.3720231 -22.7684069  14.4448304  18.2339013 -21.5706444  14.6091819
  17.3535073 -23.6550641  13.7711430  17.6407313 -24.6961975  13.9324045
  16.3911378 -23.4925437  14.2609322  17.2199595 -23.3880901  12.2625434
  16.7273211 -22.4241853  12.1188200  18.2135701 -23.3252382  11.8139303
  16.4020932 -24.4800401  11.5462303  16.9479275 -25.4210567  11.6411746
  15.4341507 -24.6099734  12.0347679  16.1904705 -24.2099166  10.0447786
  17.1135807 -23.8163304   9.6141732  15.9925616 -25.1625633   9.5490354
  15.0275755 -23.2555437   9.7199327  14.0870214 -23.7461209   9.9790722
  15.1154518 -22.3351622  10.3009975  15.0197947 -22.9208684   8.2222950
  15.9059036 -22.3202920   8.0064684  15.1309288 -23.8546753   7.6672101
  13.7602675 -22.2072697   7.6873988  13.9101517 -21.9963670   6.6264945
  12.9186153 -22.9014730   7.7339399  13.3822870 -20.9272528   8.4122205
  12.5183856 -21.0010886   9.0678060  13.8991809 -19.7262108   8.1760639
  13.4853041 -18.8560963   8.6792290  15.1489413 -19.4659305   7.3685288
  15.6499636 -18.5772145   7.7579176  15.8430779 -20.2983332   7.5017250
  14.8905671 -19.2882478   5.8619106  14.3437898 -20.1497340   5.4728878
  14.2817998 -18.3980858   5.6902194  16.2418711 -19.1550481   5.1361561
  16.7632687 -18.2883978   5.5478889  16.8614149 -20.0241804   5.3668863
  16.1573684 -19.0129650   3.6052898  15.5167246 -18.1698120   3.3385810
  17.1603656 -18.7865782   3.2375848  15.6356537 -20.2821255   2.9102442
  16.1330402 -21.1558914   3.3363900  14.5664096 -20.3852129   3.1065986
  15.8788931 -20.2774096   1.3901953  15.2533507 -21.0460687   0.9315840
  15.5730820 -19.3182373   0.9671924  17.3504615 -20.5661201   1.0367991
  17.9929698 -19.7754288   1.4298061  17.6602721 -21.5041018   1.5022816
  17.5591493 -20.6690097  -0.4778482  18.6051869 -20.8824563  -0.7074297
  17.2926748 -19.7198153  -0.9474058  16.9400799 -21.4608479  -0.9047071
 -13.2794571  34.7279143  -1.6830865 -14.0452886  34.6339297  -2.4558304
 -12.3918295  35.1744318  -2.1360788 -13.6542547  35.4027271  -0.9106775
 -12.9471052  33.3507514  -1.0835895 -12.6283312  32.6853681  -1.8886447
 -13.8509977  32.9249477  -0.6429856 -11.8406630  33.4284043  -0.0142860
 -12.2095251  33.9762259   0.8553682 -11.0074580  34.0057421  -0.4203796
 -11.3063014  32.0458651   0.4171278 -10.4672921  32.1891212   1.1012365
 -10.9059727  31.5386248  -0.4631609 -12.3505592  31.1205506   1.0751333
 -11.9097364  30.1304364   1.2085970 -13.1873298  30.9850216   0.3867224
 -12.8901875  31.6271996   2.4312210 -13.6689842  30.9420133   2.7724835
 -13.3716917  32.5966311   2.2869283 -11.8339074  31.7529821   3.5505804
 -12.3311889  32.1442032   4.4405919 -11.0743093  32.4828720   3.2629365
 -11.1568892  30.4088855   3.8931558 -10.6449306  30.0312138   3.0056164
 -11.9233441  29.6776438   4.1582936 -10.1217091  30.4872751   5.0329530
  -9.3251044  31.1771154   4.7465894  -9.6686548  29.5002866   5.1472414
 -10.7045412  30.9251952   6.3907838 -11.5652847  30.2967596   6.6287977
 -11.0557377  31.9566870   6.3190114  -9.6611279  30.8238888   7.5232416
  -8.7550747  31.3498688   7.2152179  -9.3884152  29.7772431   7.6736593
 -10.1378238  31.4272046   8.8601661 -10.3735626  32.4816537   8.7019509
  -9.3071657  31.3879347   9.5679283 -11.3626182  30.7246327   9.4823796
 -11.1155963  29.6882367   9.7218108 -12.1746206  30.7055950   8.7524790
 -11.8776691  31.4461374  10.7437813 -12.8575110  31.0434985  11.0088384
 -12.0187306  32.5009966  10.4991686 -10.9473157  31.3450003  11.9673097
  -9.9230635  31.6025329  11.6897380 -10.9505749  30.3202534  12.3445976
 -11.3806164  32.2789502  13.0703115 -10.7190192  33.2330418  13.4268999
 -12.5633287  31.9367194  13.6209965 -13.0637240  32.7070665  14.7536719
 -14.1551340  32.6529789  14.7302496 -12.7756631  33.7579703  14.6683705
 -12.5666821  32.1078825  16.0959935 -12.8445756  31.0512614  16.1272335
 -13.2408965  32.8099489  17.3029888 -14.3200946  32.6378393  17.2840619
 -13.0650461  33.8875532  17.2530675 -12.7150178  32.3209691  18.5674977
 -12.9799783  30.8222127  19.0636861 -11.7658019  30.0291562  18.4216678
 -11.2369812  28.8718772  19.0713000 -11.8540788  28.5863233  19.9270451
 -10.2323461  29.1100955  19.4299221 -11.1907625  27.7326632  18.0352533
 -10.7135427  26.8668008  18.4965801 -10.5897593  28.0643344  17.1872723
 -12.4946630  27.2391772  17.4514735 -13.5672903  27.0779800  18.4788716
 -13.1768680  26.5010905  19.3185425 -14.4006503  26.5397787  18.0248535
 -13.8763070  28.0719686  18.8056457 -12.9835212  28.1441450  16.3732576
 -12.1843636  28.2984853  15.6467545 -13.2260537  29.1009355  16.8380296
 -13.8682890  27.7046371  15.9103334 -12.2578716  25.9067392  16.8396211
 -11.5180564  26.0141921  16.0450089 -13.2162917  25.5592227  16.4511025
 -11.9245470  25.2258325  17.6241839 -12.8403437  30.7189965  20.5221128
 -14.1826105  30.2818727  18.3941698 -11.1242855  32.2641182  16.2077439
 -10.3241110  31.2194014  15.9171009 -10.7191145  30.1097393  15.5961919
  -8.8633311  31.6033721  15.9969294  -8.7216955  32.5498319  15.4709840
  -8.6141008  31.7810678  17.0451522  -7.9028618  30.5419469  15.4110134
  -6.8744057  30.8375788  15.6286001  -8.0727357  29.5895934  15.9176016
  -8.0515087  30.3478861  13.8870120  -9.0907007  30.0994086  13.6616230
  -7.8225130  31.2836790  13.3728957  -7.1605444  29.2150855  13.3406103
  -6.1077505  29.4945216  13.4181035  -7.3052764  28.3304524  13.9642584
  -7.5115699  28.8349819  11.8866420  -7.0590276  27.8691292  11.6525531
  -8.5923135  28.6961579  11.8146300  -7.0719862  29.8584986  10.8206975
  -7.6167929  29.6451712   9.8986673  -7.3493689  30.8686781  11.1290133
  -5.5626744  29.7967505  10.5159926  -4.9966282  30.0435257  11.4166355
  -5.2874875  28.7772083  10.2380180  -5.1936603  30.7602048   9.4089127
  -4.8436072  31.7356157   9.7369486  -5.2952045  30.5104375   8.1073749
  -5.0241679  31.2843585   7.3938245  -5.7160318  29.1845179   7.5078797
  -5.2096784  28.3675051   8.0261075  -6.7913222  29.0429282   7.6350272
  -5.3791392  29.0924096   6.0069096  -4.3302280  29.3513370   5.8481491
  -5.5040604  28.0549026   5.6899899  -6.2828505  29.9832845   5.1307762
  -7.3226720  29.7068000   5.3173023  -6.1670023  31.0317898   5.4130453
  -5.9826356  29.8211241   3.6284468  -5.0102079  30.2623844   3.4001106
  -5.9223765  28.7572742   3.3895817  -7.0681608  30.4638720   2.7445060
  -8.0326575  30.0163126   2.9933071  -7.1373355  31.5326214   2.9577073
  -6.7949945  30.2508903   1.2445249  -5.9073836  30.8144116   0.9494784
  -6.5781200  29.1956854   1.0657155  -7.9874527  30.6721401   0.3690472
  -8.8866991  30.1554894   0.7109402  -8.1599700  31.7445397   0.4815732
  -7.7626473  30.3450561  -1.1151099  -8.6480129  30.6082058  -1.6976415
  -7.5731361  29.2781878  -1.2505229  -6.9112206  30.9057236  -1.5065035
 -35.2997327   6.4349359  -0.0470435 -35.4889870   7.0637882  -0.9195068
 -35.5350685   7.0150781   0.8476724 -35.9709930   5.5747950  -0.0921080
 -33.8278723   5.9874570  -0.0296036 -33.1926370   6.8728763  -0.1001329
 -33.6210799   5.3723961  -0.9078983 -33.4446573   5.2068031   1.2402012
 -33.6834574   5.8164060   2.1141705 -32.3628569   5.0578874   1.2394999
 -34.1342759   3.8299519   1.3497569 -33.8846660   3.2421282   0.4639678
 -35.2199960   3.9461204   1.3631673 -33.6837053   3.0556309   2.6029146
 -32.5939775   3.0986950   2.6586536 -33.9569998   2.0040132   2.4939473
 -34.3132186   3.5944346   3.9053315 -35.3656173   3.3040050   3.9292642
 -34.2865038   4.6860683   3.9145967 -33.6231470   3.0784667   5.1826048
 -33.5676265   1.9883193   5.1516151 -34.2411637   3.3490652   6.0412639
 -32.2154188   3.6825392   5.3740209 -32.2866893   4.7693548   5.2951777
 -31.5514565   3.3480847   4.5741713 -31.5764308   3.3365202   6.7312253
 -32.2432661   3.6729720   7.5278395 -30.6431317   3.8950974   6.8282115
 -31.2804222   1.8339857   6.8987370 -30.6922650   1.4958660   6.0430443
 -32.2188258   1.2755783   6.8923658 -30.5040073   1.4968035   8.1864899
 -29.5322561   1.9940454   8.1562537 -30.3156590   0.4214234   8.2098669
 -31.2442040   1.9070864   9.4738376 -32.2180271   1.4139509   9.5046020
 -31.4183235   2.9851085   9.4701093 -30.4554629   1.5411133  10.7414591
 -29.4589138   1.9828351  10.6763721 -30.3347158   0.4571412  10.7951987
 -31.1521435   2.0540634  12.0150328 -32.1230459   1.5676253  12.1298766
 -31.3418102   3.1223953  11.8919218 -30.3082108   1.8220191  13.2851112
 -29.2485070   1.8301323  13.0216253 -30.5307412   0.8442635  13.7174726
 -30.5416512   2.8952026  14.3221009 -31.6388178   3.2572070  14.6948886
 -29.3770838   3.3964673  14.7805095 -29.3706656   4.5961902  15.6102419
 -28.4223437   4.6093658  16.1535275 -30.1851201   4.5739296  16.3388133
 -29.4565558   5.8735842  14.7308278 -28.8985443   5.6841010  13.8103020
 -28.7817097   7.1026611  15.3732693 -29.2405486   8.0271167  15.0134134
 -27.7330446   7.0931935  15.0652671 -28.8384986   7.0557076  16.8215358
 -27.7545094   7.8351814  17.7092946 -28.3826709   9.2866445  17.7731347
 -29.4069624   9.5629662  18.7337577 -28.9571428   9.5659661  19.7299016
 -30.1677203   8.7791383  18.6948872 -30.0169897  10.9402263  18.4163940
 -29.2241669  11.6889286  18.4503984 -30.7565689  11.1896646  19.1786826
 -30.7073164  11.1326861  17.0896685 -31.7584085  10.0985289  16.8583715
 -31.2869167   9.1147369  16.8468916 -32.2510839  10.3089511  15.9079635
 -32.4918890  10.1809847  17.6617956 -31.3585949  12.4675465  17.1198380
 -30.5817509  13.2061756  17.3228729 -32.1132660  12.4557889  17.9076314
 -31.8413782  12.6477218  16.1582065 -29.7442007  11.1213684  15.9493971
 -28.9973164  11.8922412  16.1448514 -30.2803993  11.3264740  15.0216579
 -29.2609930  10.1435959  15.9219801 -27.7537894   7.2880292  19.0717793
 -26.5006948   7.9531318  16.9437754 -30.8452415   6.2021500  14.4323134
 -31.3273668   5.8762759  13.2163882 -30.6303072   5.4723322  12.3065412
 -32.8217673   6.0668796  13.0984652 -33.3013630   5.1083660  13.3075190
 -33.1630063   6.7767221  13.8548672 -33.2159472   6.5676427  11.6942704
 -32.8561640   7.5922799  11.5796471 -32.7103353   5.9533304  10.9463120
 -34.7324371   6.5118206  11.4242625 -35.0594735   5.4727364  11.5005076
 -35.2543473   7.0586604  12.2123230 -35.1864243   7.0611322  10.0504804
 -36.2252665   6.7600143   9.9001366 -35.1818252   8.1529021  10.0723791
 -34.3563604   6.5771127   8.8404006 -33.9938116   5.5642474   9.0278250
 -35.0015020   6.5261322   7.9608244 -33.1798768   7.5257230   8.5239476
 -33.5677361   8.4309620   8.0521715 -32.6963043   7.8386527   9.4516838
 -32.1057034   6.9057047   7.6180136 -31.8218017   5.9367007   8.0338192
 -32.5218368   6.7389780   6.6222733 -30.8827162   7.8007889   7.5983071
 -30.5745244   8.1599486   8.5768735 -30.1926422   8.1944948   6.5334612
 -29.3435431   8.8575798   6.6781008 -30.4425335   7.8026444   5.0937659
 -31.2665272   7.0926875   4.9965113 -30.7077050   8.6944777   4.5221180
 -29.1676354   7.1887821   4.4930294 -28.3388972   7.8890562   4.6166161
 -28.9133525   6.2796378   5.0419027 -29.3305159   6.8574220   3.0003166
 -30.1534057   6.1518383   2.8681433 -29.5904493   7.7740699   2.4667858
 -28.0379868   6.2570918   2.4161583 -27.2128701   6.9519597   2.5858802
 -27.7991581   5.3366011   2.9529291 -28.1226110   5.9450465   0.9105162
 -27.1861482   5.4669416   0.6156981 -28.9248538   5.2263963   0.7304846
 -28.3566046   7.2051829   0.0511753 -29.3441772   7.6169711   0.2693391
 -27.6225257   7.9660684   0.3243884 -28.2666707   6.9480383  -1.4640014
 -29.0339708   6.2297899  -1.7603675 -28.4888625   7.8785491  -1.9905412
 -26.8830442   6.4429069  -1.9085637 -26.7981005   6.4916700  -2.9961622
 -26.7285061   5.4077011  -1.5972255 -26.0931420   7.0577806  -1.4721581
  38.3114457   0.7072354   1.3827313  38.7142348   1.7047584   1.1951850
  38.6350751   0.0474898   0.5749784  38.7316704   0.3435979   2.3227541
  36.7766809   0.7574356   1.4597842  36.3885903   1.1782224   0.5298445
  36.4907956   1.4309125   2.2704394  36.1543584  -0.6359068   1.6841795
  36.5472865  -1.0660877   2.6077685  36.4609838  -1.2930459   0.8677146
  34.6135926  -0.6218231   1.7541924  34.2574668  -1.6537282   1.7826632
  34.2170906  -0.1697258   0.8426783  34.0613866   0.1281398   2.9834542
  34.3948746   1.1676119   2.9561213  34.4643927  -0.3247296   3.8917267
  32.5215816   0.1073126   3.0313674  32.1644831  -0.9242826   3.0588731
  32.1389508   0.5510911   2.1098918  31.9418740   0.8854103   4.2287371
  30.8842063   1.0762199   4.0353593  32.4321246   1.8587290   4.2977890
  32.0631528   0.1236251   5.5649519  33.1105280  -0.0983114   5.7799262
  31.5442824  -0.8317798   5.4627788  31.4452457   0.8851862   6.7546088
  31.3273430   0.1944262   7.5921130  30.4449463   1.2295307   6.4838815
  32.2930360   2.0864785   7.2122931  32.4762726   2.7483082   6.3632530
  33.2614613   1.7263991   7.5657880  31.6053796   2.8950202   8.3271343
  31.4294767   2.2616184   9.1991001  30.6299520   3.2256028   7.9641992
  32.4164891   4.1365600   8.7397957  31.7497921   4.8089710   9.2837089
  32.7432370   4.6667540   7.8428042  33.6330771   3.8245142   9.6346718
  34.2414165   3.0351785   9.1882008  33.2796288   3.4345645  10.5914772
  34.5043230   5.0759077   9.8657435  33.8780737   5.9089464  10.1918137
  34.9471569   5.3678089   8.9111978  35.6369686   4.8752981  10.8918762
  36.3313699   5.7149041  10.8188665  36.1942554   3.9645383  10.6629395
  35.1345229   4.8127103  12.3142982  35.1798463   3.8083234  12.9974473
  34.6835947   6.0029757  12.7643800  34.2693400   6.1179137  14.1554093
  34.4391513   7.1551484  14.4553387  34.8932004   5.4794586  14.7861409
  32.7642798   5.8045715  14.3847942  32.1558356   6.4262384  13.7229967
  32.3645163   6.1350989  15.8389926  31.3741398   5.7226104  16.0479307
  32.3289394   7.2157234  15.9990883  33.3400965   5.5858964  16.7532098
  33.0167556   5.3689057  18.2958245  32.0966196   4.0488970  18.3109939
  32.1851492   3.0349118  17.2765923  31.7845225   3.4536558  16.3498771
  31.5523982   2.1880610  17.5542974  33.6422944   2.5697169  17.0404577
  34.2864442   3.4496820  17.0086277  33.7128162   2.0815295  16.0673296
  34.2751336   1.6310890  18.0310798  33.7712026   0.2429356  17.8227627
  32.6874995   0.2392334  17.9486752  34.2459559  -0.4052024  18.5608745
  34.0513945  -0.0828911  16.8199611  35.7451248   1.6497427  17.8013909
  36.0984635   2.6715976  17.9471493  35.9542489   1.3069835  16.7869627
  36.2180114   0.9795103  18.5207295  34.0345097   2.0246381  19.4491720
  34.4818616   3.0075547  19.6041942  34.4987535   1.2830219  20.1009083
  32.9585552   2.0895185  19.6176827  34.3040228   5.0445861  18.9377928
  32.2552514   6.5524274  18.7427080  32.4624610   4.3938786  14.1768730
  31.9687939   4.0268385  12.9795539  31.7761230   4.7980690  12.0646501
  31.6164684   2.5621250  12.8977787  30.9129143   2.3228772  13.6979270
  31.1090899   2.4010238  11.9443238  32.8471923   1.6365452  12.9933751
  33.5990047   1.9386962  12.2612906  33.3003497   1.7522533  13.9801502
  32.4950838   0.1491586  12.7778685  33.3542395  -0.4635588  13.0587423
  31.6849875  -0.1186814  13.4593904  32.0675445  -0.2037344  11.3342297
  31.6868734  -1.2271679  11.3225102  31.2337756   0.4347637  11.0348749
  33.1890392  -0.0881427  10.2785015  32.7383423  -0.1788681   9.2879939
  33.6563897   0.8976354  10.3263342  34.2591095  -1.1874466  10.4195678
  34.7363234  -1.1192341  11.3994038  33.7624311  -2.1585388  10.3671074
  35.3408408  -1.1420539   9.3247157  35.9055495  -2.0751341   9.3788296
  34.8695660  -1.1156166   8.3399999  36.3057852   0.0070259   9.5360839
  36.7432880   0.0511838  10.5301738  36.6943836   0.8924868   8.6228245
  37.4274921   1.6454382   8.9006484  36.1756587   1.0099063   7.2036552
  36.8604612   0.5125782   6.5136045  35.1954961   0.5407386   7.0958185
  36.0805798   2.4869284   6.7922890  35.4459286   3.0170566   7.5054812
  37.0704508   2.9453671   6.8418109  35.5042195   2.6759231   5.3801513
  36.2336969   2.3409459   4.6398020  34.6061707   2.0656544   5.2637804
  35.1464868   4.1509721   5.1410627  34.3711090   4.4515145   5.8488244
  36.0272312   4.7637120   5.3442895  34.6617270   4.4280177   3.7092346
  35.4534936   4.1557619   3.0082017  33.7933373   3.8043270   3.4870338
  34.2851567   5.9124607   3.5410473  33.4333587   6.1319155   4.1881508
  35.1113987   6.5422469   3.8774338  33.9213920   6.3059640   2.1006280
  33.0962849   5.6808388   1.7529549  33.5623837   7.3371881   2.1129499
  35.0953579   6.2085986   1.1101110  34.7831297   6.5561891   0.1231167
  35.4430437   5.1780885   1.0119803  35.9299779   6.8292975   1.4426859
 -15.0940967  23.2303548   0.5109511 -14.9330831  23.6705971  -0.4753176
 -16.1458111  23.3594394   0.7749525 -14.8811162  22.1610665   0.4499341
 -14.1817546  23.9055037   1.5471619 -14.4602811  24.9583578   1.6270648
 -13.1532586  23.8729715   1.1816464 -14.2367780  23.2546258   2.9439831
 -13.5926521  23.8200092   3.6206719 -13.8261032  22.2446752   2.8822544
 -15.6604779  23.1998992   3.5323122 -16.2881422  22.5587654   2.9098591
 -16.1015451  24.1985083   3.5058007 -15.7167149  22.6803803   4.9803919
 -16.7590559  22.7155662   5.3040439 -15.1542115  23.3473539   5.6370521
 -15.1875484  21.2395692   5.1275736 -14.0989292  21.2458062   5.2132064
 -15.4396069  20.6774330   4.2259452 -15.8141780  20.4996705   6.3218206
 -15.4946566  19.4556403   6.3025939 -16.8976343  20.5101514   6.1859012
 -15.5059838  21.0920024   7.7044088 -15.7046342  22.1657467   7.6957333
 -14.4487500  20.9468746   7.9360509 -16.3814580  20.4277658   8.7855613
 -16.1463690  19.3635380   8.8535082 -17.4287879  20.4949951   8.4838295
 -16.2344766  21.1056995  10.1583683 -17.1913528  21.0787392  10.6838441
 -15.9825909  22.1591473  10.0195599 -15.1801133  20.4435372  11.0531449
 -14.9305248  21.1670351  11.8320656 -14.2727375  20.2463984  10.4784536
 -15.6916475  19.1382098  11.7051065 -16.0003960  18.4283030  10.9349298
 -16.5791965  19.3711805  12.2970903 -14.6559560  18.4579694  12.6225770
 -13.8915503  17.9664457  12.0171404 -15.1586711  17.6878035  13.2112920
 -13.9896715  19.4807220  13.5551786 -14.7602046  20.1005983  14.0183187
 -13.3634222  20.1349235  12.9450166 -13.1048572  18.8870311  14.6608210
 -12.4112034  18.1572008  14.2381454 -13.7195492  18.3995378  15.4204047
 -12.3142838  20.0004935  15.2877510 -11.1010611  20.0880933  15.2097869
 -13.0917764  20.9125876  15.8953619 -12.5889874  22.2693110  16.0554612
 -11.5271688  22.2486115  16.3138425 -13.1198883  22.7274632  16.8938470
 -12.7941895  23.1357026  14.7739244 -12.1547496  24.0179944  14.8595083
 -14.2247868  23.6726451  14.5088351 -14.4666088  23.5482407  13.4502065
 -14.2697465  24.7417259  14.7317469 -15.2376711  22.9902864  15.2768934
 -15.9191787  23.6833167  16.5432715 -16.5013325  22.4267697  17.3401260
 -17.2608960  21.4180565  16.6303360 -16.6509402  20.5119252  16.5912199
 -17.4447107  21.7361808  15.6009388 -18.6064303  21.1048889  17.3269522
 -18.4343457  20.8627748  18.3767366 -19.0509367  20.2372408  16.8371701
 -19.6883833  22.1519923  17.2965419 -20.9556222  21.5698266  17.8148556
 -21.2477136  20.7185602  17.1981633 -21.7422533  22.3243904  17.7687418
 -20.8284092  21.2314177  18.8442135 -19.3422246  23.3292937  18.1378746
 -18.4409857  23.7818265  17.7216244 -19.1862249  22.9987407  19.1658235
 -20.1699328  24.0364575  18.0664754 -19.9427402  22.6086378  15.9070301
 -19.0704966  23.1754971  15.5781782 -20.8181739  23.2594490  15.9254980
 -20.1403332  21.7398620  15.2773774 -14.8350632  24.3410134  17.3060215
 -17.0424771  24.4936633  16.0547364 -12.4100399  22.4117732  13.5826147
 -11.1795807  22.5655222  13.0746245 -10.2435005  23.0193257  13.7077868
 -11.1292481  22.1378684  11.6249287 -10.1366580  22.3415160  11.2178004
 -11.3068151  21.0615730  11.5747166 -12.2135234  22.8797889  10.8024728
 -13.1791711  22.7738476  11.3012362 -11.9907832  23.9486384  10.7821679
 -12.4078095  22.3689938   9.3644273 -12.4770415  21.2791896   9.3646127
 -13.3645093  22.7534914   9.0047729 -11.3145530  22.8211117   8.3831805
 -11.2040555  23.9046669   8.4616977 -10.3599823  22.3681331   8.6589867
 -11.6832972  22.4427700   6.9334620 -11.8153584  21.3606691   6.8695658
 -12.6453698  22.8935909   6.6811931 -10.6378162  22.8739643   5.8839691
  -9.7100574  22.3243666   6.0562152 -10.9994364  22.5803757   4.8962939
 -10.3193760  24.3828464   5.8669388  -9.9275041  24.6871328   6.8397236
  -9.5105726  24.5625234   5.1555908 -11.5415227  25.2179527   5.5336964
 -12.2263908  25.3793788   6.3622296 -11.8161380  25.7747459   4.3570000
 -12.7211022  26.3675046   4.2509508 -10.9944689  25.6385088   3.0915192
 -10.0853908  25.0581241   3.2623792 -11.5774679  25.0982404   2.3427302
 -10.6329453  27.0155048   2.5087756 -11.5426195  27.4942398   2.1403040
 -10.2263951  27.6537681   3.2960519  -9.6137613  26.9152594   1.3582943
  -9.8966241  26.1034489   0.6849304  -9.6445459  27.8406453   0.7793491
  -8.1770146  26.7070174   1.8790321  -7.9051572  27.5773859   2.4798790
  -8.1304532  25.8404088   2.5418156  -7.1451217  26.5542912   0.7464049
  -7.3865062  27.2598648  -0.0513193  -6.1599064  26.8346047   1.1248761
  -7.0530009  25.1367521   0.1527085  -8.0452561  24.7798753  -0.1310726
  -6.4606827  25.1993966  -0.7625493  -6.3848895  24.1291332   1.1093498
  -5.4660809  24.5640278   1.5082496  -7.0465100  23.9282751   1.9545588
  -6.0338807  22.8033853   0.4153220  -5.5787438  22.1135616   1.1290837
  -5.3260660  22.9766107  -0.3979766  -6.9284195  22.3331285   0.0016528
 -23.3553815 -16.0782373  -0.0628417 -22.8443384 -15.6750941   0.8139564
 -22.6696491 -16.0439289  -0.9119938 -23.6081123 -17.1217215   0.1364853
 -24.6271849 -15.2691495  -0.3653539 -25.3162050 -15.3669548   0.4761626
 -25.1196361 -15.6817245  -1.2483826 -24.3020177 -13.7850988  -0.6093589
 -23.5792208 -13.7164617  -1.4250281 -23.8043690 -13.3761680   0.2724487
 -25.5292869 -12.9237318  -0.9735195 -25.9386158 -13.2810152  -1.9207588
 -25.1941633 -11.8974066  -1.1372621 -26.6592193 -12.9205287   0.0764500
 -27.0760012 -13.9264762   0.1590567 -27.4636912 -12.2702980  -0.2735354
 -26.1923885 -12.4456263   1.4631563 -25.8923388 -11.3975668   1.3998610
 -25.3151369 -13.0276227   1.7532776 -27.2609401 -12.5908220   2.5600931
 -27.5991702 -13.6280525   2.6071885 -28.1283593 -11.9796526   2.3021761
 -26.7357922 -12.1697748   3.9482081 -27.5684404 -12.2337723   4.6518156
 -26.4206529 -11.1246669   3.9181790 -25.5576444 -13.0370831   4.4486022
 -24.7080135 -12.9324687   3.7706292 -25.8559632 -14.0874243   4.4326264
 -25.0666904 -12.6779103   5.8637559 -24.6906400 -11.6527617   5.8747435
 -24.2324686 -13.3346832   6.1190760 -26.1731672 -12.8313780   6.9183087
 -26.6439605 -13.8091254   6.7965555 -26.9370437 -12.0716441   6.7400968
 -25.6565881 -12.7070880   8.3607686 -25.2487278 -11.7058980   8.5148275
 -24.8449135 -13.4209490   8.5158610 -26.7586923 -12.9756165   9.4012803
 -26.3023424 -12.9469824  10.3929389 -27.1517372 -13.9842749   9.2577899
 -27.9180455 -11.9554818   9.3371874 -28.3565831 -11.9528520   8.3371168
 -27.5178313 -10.9548163   9.5131445 -29.0524101 -12.2444499  10.3389382
 -29.5203924 -13.1965911  10.0803196 -29.8195148 -11.4705288  10.2678061
 -28.5441184 -12.3125339  11.7550504 -28.3260393 -11.3426590  12.4545205
 -28.3126593 -13.5771418  12.1444762 -27.6058555 -13.7423515  13.3975267
 -28.2827806 -13.5051203  14.2222345 -26.7522860 -13.0600977  13.4219837
 -27.0804739 -15.1836860  13.5334694 -27.9214072 -15.8779931  13.4598553
 -26.3659620 -15.3418529  14.8913765 -25.9763122 -16.3566387  15.0055289
 -27.0971656 -15.1689291  15.6851578 -25.2755404 -14.3833983  14.9985468
 -24.9199915 -13.6533523  16.3716209 -25.3753972 -12.1421456  16.1470640
 -26.7510867 -11.7396688  16.2257791 -27.4086976 -12.6093590  16.3022006
 -26.9884419 -11.2107885  15.2991736 -26.9446111 -10.7739091  17.4169230
 -27.8856015 -10.2411103  17.2722077 -26.1346102 -10.0430369  17.4195409
 -27.0047092 -11.3261282  18.8223159 -25.6678152 -11.7525661  19.3259239
 -25.3205442 -12.5911307  18.7205398 -25.7607985 -12.0529521  20.3706241
 -24.9850011 -10.9078312  19.2236090 -27.4812889 -10.2349830  19.7203887
 -28.4695029  -9.9109125  19.3907094 -26.7620468  -9.4179404  19.6467865
 -27.5158453 -10.6131768  20.7431555 -27.9549646 -12.4745071  18.9275551
 -28.9259052 -12.1777117  18.5282230 -28.0390811 -12.7663505  19.9754250
 -27.5381637 -13.3024621  18.3521843 -25.7693911 -14.2063177  17.4422109
 -23.4618378 -13.6247432  16.5478349 -26.1377263 -15.4241836  12.4555135
 -25.8315730 -16.6966462  12.1621633 -26.2531471 -17.6561379  12.7767599
 -24.9013710 -16.7762947  10.9774017 -25.2787995 -16.1013424  10.2063942
 -23.9191842 -16.4097905  11.2830830 -24.7662520 -18.2070792  10.4253674
 -24.3150592 -18.8434732  11.1894941 -25.7664347 -18.6020994  10.2354741
 -23.9221025 -18.3054399   9.1367495 -22.8949404 -18.0066502   9.3561178
 -23.8841677 -19.3527937   8.8300318 -24.4441175 -17.4628663   7.9528779
 -24.2233586 -16.4086986   8.1330490 -23.8994837 -17.7530539   7.0519739
 -25.9578466 -17.6178825   7.7075350 -26.2122703 -18.6771274   7.6318121
 -26.4995885 -17.2147834   8.5657251 -26.4295745 -16.8941760   6.4329892
 -26.0007882 -15.8904088   6.4004928 -26.0532570 -17.4309683   5.5596608
 -27.9636908 -16.7899060   6.3413817 -28.2386208 -16.4501929   5.3406471
 -28.3945489 -17.7850747   6.4697021 -28.5259247 -15.8555818   7.3945129
 -28.3774662 -16.1764240   8.4224182 -29.2031145 -14.7353792   7.1590590
 -29.5834374 -14.1581404   7.9979384 -29.4971037 -14.1431928   5.7971627
 -29.5616651 -13.0567217   5.8859223 -28.6894321 -14.3590486   5.0946432
 -30.8218384 -14.6993339   5.2510524 -30.7478189 -15.7868087   5.1848346
 -31.6189671 -14.4765985   5.9633994 -31.2151647 -14.1488063   3.8680992
 -30.4261184 -14.3671107   3.1454581 -32.1064138 -14.6821046   3.5308602
 -31.4943027 -12.6348341   3.8523626 -32.0545769 -12.3440289   4.7434226
 -30.5418086 -12.1015060   3.8803315 -32.2728229 -12.2119510   2.5919911
 -32.1059656 -11.1472178   2.4160275 -31.8629074 -12.7558899   1.7384325
 -33.7909889 -12.4745893   2.6847643 -33.9677763 -13.5371327   2.8642333
 -34.1930151 -11.9313681   3.5425228 -34.5809007 -12.0560122   1.4292347
 -35.6444573 -12.2079170   1.6247810 -34.4417429 -10.9880769   1.2486470
 -34.1934514 -12.8473485   0.1658264 -33.1595469 -12.6455522  -0.1218998
 -34.8369098 -12.5658655  -0.6703502 -34.3042517 -13.9201939   0.3366778
  31.0124707  17.0357406  -0.2805223  31.7817092  16.5097857  -0.8498278
  30.3394532  16.2897146   0.1472077  31.5096974  17.5667381   0.5338937
  30.2359581  18.0139971  -1.1819234  29.8561883  17.4776697  -2.0540424
  30.9264040  18.7751806  -1.5511781  29.0538454  18.7061262  -0.4745856
  28.2469177  17.9843390  -0.3319160  28.6720252  19.4946134  -1.1264792
  29.4362378  19.3098414   0.8885358  30.3271556  19.9296772   0.7679737
  29.6990466  18.4929860   1.5639175  28.3132315  20.1592302   1.5188549
  27.4371767  19.5415199   1.7272398  28.0060983  20.9076953   0.7854145
  28.7604570  20.9043264   2.7965546  28.1397676  21.7978263   2.8907019
  29.7853184  21.2564492   2.6618829  28.6611319  20.1351333   4.1347185
  27.6096749  20.0412703   4.4141677  29.1375279  20.7430887   4.9066651
  29.2999578  18.7328339   4.1376439  30.2743936  18.7784553   3.6468729
  28.6678243  18.0563223   3.5586774  29.5076323  18.1557143   5.5511385
  28.6351085  18.3620334   6.1745155  30.3597879  18.6634064   6.0078079
  29.7598171  16.6327810   5.5182678  30.3261375  16.3784242   4.6199086
  28.8052440  16.1083674   5.4392666  30.5436635  16.1088741   6.7372119
  31.5564251  16.5158451   6.7032486  30.6376338  15.0242293   6.6524822
  29.9434233  16.4569306   8.1103528  29.8795867  17.5410140   8.2250333
  30.6409240  16.0993719   8.8706869  28.5583329  15.8290493   8.3517760
  28.6227584  14.7487521   8.2059276  27.8541803  16.2125158   7.6104349
  28.0018115  16.1153722   9.7609395  27.0038629  15.6780696   9.8339415
  27.8737259  17.1923304   9.8882890  28.8727093  15.5467665  10.9049594
  29.6043062  14.8287272  10.5285966  28.2334518  15.0111735  11.6099083
  29.5861983  16.6485322  11.6499853  30.5484438  17.2482944  11.2170804
  28.9743447  16.9189286  12.8167105  29.4541407  18.0574095  13.5870433
  30.5464745  18.0550909  13.6251676  29.0668130  17.9524529  14.6037090
  28.9500618  19.3897402  12.9824662  29.4615889  19.5582545  12.0313644
  29.2138290  20.5829954  13.9368379  28.7110853  21.4811707  13.5691726
  30.2881360  20.7839060  13.9491069  28.8032866  20.3098130  15.3084159
  27.2858763  20.4040360  15.8068013  26.7683101  18.8951993  15.7335615
  25.3798127  18.5947049  15.9352660  25.2278519  17.5185156  15.8196211
  24.8021913  19.1197610  15.1702023  24.9380136  19.0613806  17.3404396
  23.8581085  18.9488423  17.4472892  25.1462412  20.1299429  17.4118268
  25.5458140  18.4676790  18.5885537  26.9454384  17.9690301  18.4276199
  26.9718385  17.2524965  17.6053298  27.2855592  17.5312042  19.3672502
  27.5594950  18.8326311  18.1679821  25.5772328  19.5426846  19.6193886
  24.5555687  19.8984528  19.7605097  26.2007141  20.3449059  19.2219031
  25.9915018  19.1493750  20.5488873  24.6837020  17.3567986  19.0784478
  23.6916232  17.7786529  19.2460883  25.0987864  16.9817722  20.0151110
  24.6479249  16.5839171  18.3092594  27.3075461  20.7748628  17.2333813
  26.4883161  21.2371945  14.8875439  27.5210905  19.2740405  12.7600777
  26.9466209  20.1425385  11.9146740  27.5561476  20.9145141  11.2039709
  25.4461241  20.0155544  11.9379878  25.1775527  18.9836097  12.1734130
  25.0865364  20.6365108  12.7611339  24.7648978  20.4437637  10.6228483
  23.6845827  20.4233360  10.7808518  25.0295401  21.4756489  10.3827584
  25.1150608  19.5280290   9.4338489  26.1269855  19.7514343   9.0895218
  25.1014757  18.4888232   9.7690094  24.1179943  19.6943939   8.2708520
  23.1355119  19.3474066   8.5976446  24.0182257  20.7543921   8.0281335
  24.5089173  18.9341986   6.9901747  23.6592555  18.9610422   6.3047421
  25.3299236  19.4680393   6.5070319  24.9318719  17.4668539   7.2232926
  25.8768606  17.4528897   7.7703440  24.1877890  16.9677973   7.8475899
  25.1055694  16.6601682   5.9204453  25.5441809  15.6895304   6.1611629
  24.1260052  16.4599812   5.4813087  25.9976792  17.3674428   4.9262947
  27.0607877  17.3197222   5.1478535  25.5950093  17.9990673   3.8286626
  26.3396430  18.4645987   3.1880596  24.1633034  18.1836152   3.3746400
  23.4660816  18.0088699   4.1967160  24.0248561  19.2211998   3.0636507
  23.7897873  17.2564089   2.2010341  23.9241910  16.2132573   2.4946931
  22.7245760  17.3904371   2.0014685  24.5587802  17.5529659   0.8951584
  23.8269567  17.7007461   0.0982523  25.1022410  18.4946990   0.9964070
  25.5375385  16.4498687   0.4420942  24.9839067  15.5234563   0.2756092
  25.9694338  16.7405725  -0.5178123  26.6789269  16.1886215   1.4409754
  27.1834683  17.1284294   1.6747779  26.2612486  15.7949948   2.3699893
  27.7161145  15.1936793   0.8984407  27.2100306  14.2926538   0.5456029
  28.2188416  15.6354213   0.0355423  28.7553453  14.8115134   1.9678769
  29.3333459  15.6959999   2.2436766  28.2445431  14.4618130   2.8674626
  29.7081089  13.7096572   1.4792387  30.4798460  13.5277307   2.2300979
  30.1952934  14.0032148   0.5470701  29.1626120  12.7797592   1.3054922
 -19.7749257  31.9652915   1.4482969 -20.7706189  31.6056800   1.7161329
 -19.7946501  32.2600317   0.3970106 -19.5466375  32.8463864   2.0516373
 -18.7268591  30.8699203   1.6869614 -19.0488935  29.9589849   1.1780866
 -18.6668491  30.6537795   2.7556735 -17.3453474  31.2934828   1.1610536
 -17.0734715  32.2595119   1.5915643 -17.4094474  31.4286685   0.0793518
 -16.2244093  30.2866626   1.4664072 -16.0511029  30.2641940   2.5443327
 -15.3087211  30.6537485   0.9981916 -16.5106940  28.8621306   0.9514043
 -16.8158758  28.9196873  -0.0955032 -17.3444653  28.4235287   1.5035990
 -15.2848554  27.9339242   1.0497346 -14.4892490  28.3429909   0.4235238
 -15.5491078  26.9635344   0.6243183 -14.7241914  27.7134800   2.4712647
 -14.3892801  28.6586237   2.9037026 -13.8329279  27.0905781   2.3707438
 -15.6918573  26.9972110   3.4371796 -15.1060092  26.3147855   4.0564862
 -16.3926339  26.3851976   2.8655013 -16.4693189  27.9379225   4.3787733
 -17.0621955  28.6450934   3.7949303 -15.7599342  28.5148406   4.9757677
 -17.4088538  27.1550250   5.3149456 -16.8356812  26.3874745   5.8391631
 -18.1637931  26.6436744   4.7140706 -18.1054068  28.0631709   6.3480061
 -18.4846449  28.9548922   5.8445400 -17.3726618  28.4000635   7.0842475
 -19.2864990  27.3762465   7.0630413 -20.0802994  27.2094679   6.3319272
 -19.6912956  28.0570292   7.8147995 -18.9546990  26.0260677   7.7296454
 -18.5639679  25.3317094   6.9828784 -19.8910272  25.6001663   8.0961996
 -17.9698789  26.1196327   8.9118123 -18.4118795  26.7506480   9.6857107
 -17.0362234  26.5895176   8.5956496 -17.6680565  24.7252297   9.4967186
 -16.9935703  24.1720819   8.8397872 -18.6003625  24.1611075   9.5676607
 -17.0688200  24.8129416  10.8761489 -15.9650242  25.2687955  11.1084259
 -17.9028881  24.3209076  11.8154597 -17.6538587  24.6840310  13.2035339
 -16.5936685  24.8811722  13.3818030 -17.9450428  23.8361955  13.8288605
 -18.4983802  25.9200907  13.6104870 -18.1393290  26.2874126  14.5752692
 -19.9968994  25.5493498  13.6970758 -20.1363015  24.6270561  14.2668056
 -20.3688622  25.3767610  12.6839089 -20.7820559  26.6183901  14.2978346
 -21.0450554  26.7060828  15.8841956 -19.8579681  27.6241779  16.4120233
 -18.8016903  27.0937419  17.2352409 -18.6527836  26.0353398  17.0066333
 -19.0739131  27.1907330  18.2893467 -17.5000501  27.8473186  16.8997538
 -17.3435724  27.7573657  15.8237875 -16.6618681  27.3589492  17.3989785
 -17.4019277  29.3230033  17.2129202 -18.6214316  30.0925326  16.8315351
 -18.8027179  29.8992109  15.7732129 -18.4529865  31.1534166  17.0223987
 -19.4604635  29.7103930  17.4148655 -17.1227813  29.5376563  18.6627746
 -16.1495435  29.1021824  18.8939762 -17.9164159  29.0770388  19.2529082
 -17.0674133  30.6110549  18.8499272 -16.2772262  29.8924041  16.4241683
 -15.3617120  29.3813252  16.7256844 -16.1876523  30.9513521  16.6709173
 -16.4912105  29.7442603  15.3646660 -22.3046494  27.4298644  16.0966253
 -20.8835578  25.3678083  16.4712989 -18.3701777  26.9281316  12.5720012
 -18.3440030  28.2291603  12.8943658 -17.9822540  28.6809278  13.9632332
 -18.8474488  29.0909100  11.7665052 -18.8442826  30.1351357  12.0859528
 -18.1777346  28.9914918  10.9097302 -20.2734947  28.6580920  11.3725269
 -20.2397633  27.6476002  10.9599340 -20.8995605  28.6176968  12.2663248
 -20.9320712  29.5900369  10.3461063 -21.0969400  30.5721855  10.7940626
 -20.2605247  29.7178984   9.4945538 -22.2711015  28.9964986   9.8720104
 -22.0780587  28.0467582   9.3688285 -22.8930545  28.7758851  10.7420492
 -23.0600429  29.9101853   8.9189798 -23.9387393  29.3637466   8.5700363
 -23.4156013  30.7875657   9.4632638 -22.2342062  30.3638434   7.7034396
 -21.4805770  31.0871410   8.0217880 -21.7079735  29.5046020   7.2824305
 -23.1081057  30.9940195   6.6085410 -23.8257909  30.2571678   6.2418789
 -23.6849475  31.8226790   7.0245260 -22.2473407  31.4974666   5.4746234
 -21.9756389  32.5485110   5.5298775 -21.8904924  30.7896948   4.4090611
 -21.3103533  31.2756968   3.6287999 -22.1623659  29.3156767   4.1886520
 -22.3289227  28.7970066   5.1350683 -23.0637574  29.2032743   3.5825810
 -20.9856296  28.6650753   3.4393165 -20.8716679  29.1655660   2.4754778
 -20.0626683  28.8260961   4.0002808 -21.1742425  27.1558428   3.1972003
 -21.1499023  26.6286707   4.1532123 -22.1532917  26.9777250   2.7475315
 -20.0835872  26.5957785   2.2642595 -20.1529264  27.1074414   1.3020447
 -19.0986347  26.8203807   2.6788491 -20.2100372  25.0739455   2.0551322
 -20.1407409  24.5804501   3.0267930 -21.1942863  24.8411584   1.6433980
 -19.1204333  24.4932723   1.1312377 -18.1368911  24.7570133   1.5256359
 -19.1932571  23.4038615   1.1497778 -19.2352390  24.9724412  -0.3300757
 -20.2109981  24.6862459  -0.7281315 -19.1677225  26.0614657  -0.3740055
 -18.1335413  24.3776846  -1.2213115 -18.2994187  24.6518922  -2.2652267
 -17.1546185  24.7542429  -0.9173731 -18.1249392  23.2883835  -1.1450882
 -30.3591394  12.3660314   2.5298953 -31.3985610  12.3550725   2.8644827
 -30.0153327  11.3322461   2.4553941 -30.3241730  12.8209054   1.5377606
 -29.4949841  13.1666911   3.5192195 -29.5625782  12.7067590   4.5073277
 -29.9111485  14.1723251   3.6085051 -28.0149722  13.2849836   3.0997807
 -27.4875307  13.8902235   3.8400197 -27.9612446  13.8310027   2.1556196
 -27.2764134  11.9406712   2.9296532 -26.2340403  12.1515596   2.6817673
 -27.6961970  11.4071071   2.0743436 -27.3199987  11.0100830   4.1598591
 -26.7763329  10.0946426   3.9172441 -28.3535695  10.7164955   4.3548006
 -26.7157388  11.6234243   5.4405260 -27.2527814  12.5372779   5.7030505
 -25.6739545  11.8959308   5.2591741 -26.7939138  10.6341422   6.6185582
 -26.2852573   9.7110283   6.3329148 -27.8407240  10.3832650   6.8021685
 -26.1709762  11.1643219   7.9254150 -26.7145276  12.0507443   8.2589906
 -25.1380754  11.4615571   7.7324671 -26.2079072  10.0844049   9.0282285
 -25.6374979   9.2181742   8.6865515 -27.2387981   9.7507375   9.1638422
 -25.6549597  10.5256069  10.4001880 -25.6591940   9.6569568  11.0619223
 -26.3232398  11.2695217  10.8388841 -24.2266822  11.1003733  10.3264070
 -24.2707753  12.1199203   9.9377620 -23.6521125  10.5050981   9.6136767
 -23.4542322  11.0931802  11.6611683 -22.5121593  11.6273832  11.5211952
 -23.1950307  10.0604475  11.9035339 -24.1985798  11.6958225  12.8680229
 -23.5431528  11.6240990  13.7385011 -25.0792599  11.0869551  13.0828428
 -24.6347117  13.1638730  12.6954222 -25.3576779  13.2381797  11.8804002
 -23.7723660  13.7798226  12.4319255 -25.2705216  13.6969018  13.9936244
 -24.5211482  13.7591004  14.7854781 -26.0520768  13.0137992  14.3327498
 -25.8887458  15.0568759  13.8088441 -25.2757597  16.1013329  13.9354014
 -27.1902323  14.9682784  13.4685862 -28.0208206  16.1607361  13.5538280
 -28.3457518  16.4230764  12.5437558 -27.4637508  17.0050311  13.9679396
 -29.2693233  15.9106278  14.4440162 -29.8849487  16.8100083  14.3617511
 -28.9594817  15.7099569  15.9561276 -29.5954490  14.9104166  16.3446236
 -29.2185593  16.6274345  16.4906943 -27.5738287  15.3861153  16.2378514
 -27.1707916  14.3792546  17.4170732 -27.2836542  15.3162837  18.6945868
 -26.3658905  16.4034033  18.8921046 -26.0782552  16.8356717  17.9303038
 -25.4673100  16.0219908  19.3837643 -27.0640564  17.4672472  19.7689569
 -26.3433814  18.2529056  20.0005770 -27.3844504  17.0085347  20.7055521
 -28.2752633  18.1757689  19.2083287 -29.4498158  17.2674894  19.1237772
 -29.1730738  16.3541591  18.5950816 -30.2387714  17.8024900  18.5931098
 -29.8011661  17.0424044  20.1318312 -28.6421633  19.3146956  20.0940919
 -27.7777719  19.9769986  20.1609159 -28.9218879  18.9251339  21.0740280
 -29.4908309  19.8287618  19.6404588 -28.0194902  18.7585104  17.8637099
 -27.2168493  19.4887424  17.9768920 -28.9404702  19.2450309  17.5390935
 -27.7210140  17.9594362  17.1835089 -28.2232499  13.3534360  17.5130653
 -25.7677412  13.9681256  17.2393131 -30.0593567  14.8099101  13.9016688
 -31.3328290  14.6881723  14.3158734 -31.7783952  15.2505863  15.2946961
 -32.1763349  13.7902462  13.4502566 -31.6713905  13.6251462  12.4961936
 -32.2605753  12.8158152  13.9359021 -33.5876966  14.3865418  13.2280338
 -34.1712284  13.7065983  12.6038313 -34.0960002  14.4207716  14.1939116
 -33.6515760  15.8032560  12.6062608 -34.6879387  16.1408722  12.6728237
 -33.0657315  16.5076613  13.2004511 -33.2353210  15.9009302  11.1234057
 -33.7125897  15.0917065  10.5667770 -33.6383462  16.8324256  10.7204807
 -31.7135477  15.8918941  10.8657765 -31.4319468  16.8212593  10.3663301
 -31.1707091  15.8721077  11.8130863 -31.2792826  14.7056198   9.9859214
 -31.7061520  13.7803268  10.3784466 -31.6846371  14.8438299   8.9814067
 -29.7533822  14.5403838   9.9045706 -29.2981029  15.4791522   9.5822388
 -29.3546104  14.3162346  10.8961368 -29.4089580  13.4167373   8.9507800
 -29.4037461  12.4189770   9.3820769 -29.1183758  13.5740948   7.6637673
 -28.8922501  12.7014399   7.0563877 -29.1183186  14.8974633   6.9278532
 -29.5084238  14.7537160   5.9180921 -29.7784877  15.6146777   7.4200350
 -27.6935530  15.4725194   6.8595791 -27.2659397  15.4817808   7.8643304
 -27.0671082  14.8162627   6.2518293 -27.6284790  16.9019210   6.2939596
 -28.1729841  17.5789511   6.9554806 -26.5826035  17.2157252   6.3055956
 -28.1754112  17.0447755   4.8618644 -27.7755046  16.2394989   4.2421311
 -29.2627811  16.9447994   4.8714584 -27.7837229  18.4000742   4.2416173
 -28.1460547  19.2112815   4.8765361 -26.6944313  18.4706616   4.2111591
 -28.3404946  18.5848856   2.8175381 -28.0919838  17.7106738   2.2121781
 -29.4299793  18.6458397   2.8596008 -27.7744722  19.8453510   2.1362153
 -28.0683732  20.7288504   2.7067542 -26.6834021  19.8005807   2.1410695
 -28.2584643  19.9914980   0.6839199 -27.8364205  20.8918095   0.2324952
 -29.3474340  20.0640488   0.6472111 -27.9477620  19.1297483   0.0895168
  31.3639092   7.9354179   0.3489349  31.7404175   7.0225167  -0.1172367
  30.3702259   8.1418681  -0.0540989  31.2755656   7.7607566   1.4232498
  32.3181129   9.1075790   0.0582496  32.4256563   9.2021620  -1.0243177
  33.3112168   8.8867027   0.4550109  31.8133998  10.4482567   0.6267457
  30.8074665  10.6350839   0.2450942  32.4465966  11.2555742   0.2528922
  31.7878509  10.5377996   2.1630566  31.1894655   9.7208202   2.5716445
  31.2862563  11.4694774   2.4329478  33.1836009  10.5288363   2.8159299
  33.8540101  11.1740124   2.2442974  33.5931325   9.5170921   2.7824396
  33.1315017  11.0358751   4.2715502  32.4127102  10.4419911   4.8399740
  32.7558374  12.0612180   4.2682698  34.4994879  11.0259652   4.9869370
  34.3877602  11.5070689   5.9608573  35.2011800  11.6444862   4.4234449
  35.1180863   9.6240413   5.1836848  36.0465074   9.7319996   5.7483482
  35.3907633   9.2096347   4.2108646  34.2024612   8.6186963   5.9141254
  34.7364879   7.6734155   6.0312772  33.3265257   8.4117544   5.2957600
  33.7443113   9.1048765   7.3016274  33.2408500  10.0686002   7.2005081
  34.6163249   9.2534083   7.9419345  32.7687263   8.1228930   7.9714358
  33.2424283   7.1431702   8.0620539  31.8927813   8.0113596   7.3289824
  32.3409295   8.6199802   9.3659800  31.8893027   9.6103317   9.2782271
  33.2409859   8.7297434   9.9745160  31.3688135   7.6777416  10.1039088
  31.1488199   8.0926687  11.0897601  31.8744683   6.7260456  10.2801180
  30.0460219   7.4006593   9.3591470  29.5101690   6.6051412   9.8811400
  30.2562737   7.0196044   8.3576208  29.1194630   8.6264819   9.2569649
  28.2768679   8.3974224   8.6011994  29.6599054   9.4665831   8.8158143
  28.5754776   9.0152138  10.6078482  27.8519011   8.3010089  11.2706125
  28.9573693  10.2422094  11.0059524  28.5953116  10.6824255  12.3460102
  27.5516176  10.4342937  12.5552344  28.7194705  11.7674530  12.3901582
  29.4966388  10.0373769  13.4200370  29.4153690   8.9499581  13.3454299
  29.0743041  10.4940295  14.8345244  28.8033342  11.5528488  14.8457313
  29.9156284  10.3470266  15.5165899  27.9535151   9.6820277  15.2834070
  27.4706745   9.6798742  16.8116856  28.6533809   8.9439148  17.5872040
  28.8599205   9.1929919  18.9894509  28.3718562   8.3963984  19.5567966
  28.4076238  10.1462758  19.2746317  30.3709626   9.2331195  19.3087375
  30.8000684   8.2431990  19.1468501  30.5005050   9.4897932  20.3611708
  31.2401056  10.1914668  18.5298657  30.5427742  11.4550114  18.1425846
  29.6450853  11.2092388  17.5733447  31.2243867  12.0355988  17.5192034
  30.2875042  12.0160782  19.0427637  32.4260831  10.5777895  19.3439722
  32.9252505   9.6671230  19.6783340  32.0954442  11.1835968  20.1889300
  33.0799317  11.1792994  18.7107646  31.7408442   9.4976938  17.3163652
  32.3069477   8.6201566  17.6321769  32.3602247  10.1951814  16.7505348
  30.8840728   9.1762459  16.7223155  27.4336004  11.0879910  17.2515130
  26.2384725   8.8776064  16.9263697  30.8558440  10.4442775  13.1380284
  31.8524384   9.6458924  13.5508120  31.7157030   8.7735093  14.3820810
  33.1403017   9.8964590  12.8226566  33.8294125   9.0648592  12.9840052
  32.8958750   9.9197674  11.7586195  33.7948847  11.2219429  13.2479370
  33.0259466  11.9732022  13.4397888  34.3269253  11.0756242  14.1902685
  34.7712255  11.7594647  12.1825290  35.1961446  12.6957262  12.5503886
  35.6042147  11.0615456  12.0752847  34.1481900  12.0050490  10.7866871
  34.8389459  12.6339388  10.2211630  34.0742326  11.0622418  10.2406931
  32.7559781  12.6749003  10.8252108  31.9899344  11.9199514  11.0141373
  32.7073431  13.3573818  11.6762781  32.4140477  13.4697688   9.5462775
  31.7290282  14.2792034   9.8070967  33.3165956  13.9409935   9.1515404
  31.7630315  12.6146734   8.4482336  31.7520976  13.1830633   7.5158834
  32.3780775  11.7260182   8.2917911  30.3593707  12.2117162   8.8511109
  30.1895332  12.1438050   9.9226111  29.3383861  12.0102966   8.0270833
  28.3691311  11.7563224   8.4485251  29.4082451  11.9923270   6.5161097
  28.8388419  12.8315115   6.1111253  30.4370761  12.0865548   6.1624265
  28.8092709  10.6778705   5.9885037  29.3387604   9.8446989   6.4553338
  27.7599859  10.6109977   6.2834513  28.9256930  10.5622685   4.4592601
  28.4588242  11.4346099   3.9971790  29.9845552  10.5867398   4.1934228
  28.2824159   9.2882013   3.8742885  27.2155786   9.2903793   4.1073444
  28.3743739   9.3324131   2.7870661  28.9003992   7.9685807   4.3848047
  29.9563265   7.9252768   4.1098350  28.8481903   7.9419786   5.4752314
  28.1730127   6.7180258   3.8490385  28.5512710   5.8403111   4.3772435
  27.1093512   6.7981958   4.0828365  28.3485222   6.4936900   2.3347498
  28.0431271   7.3852986   1.7831780  29.4057822   6.3267034   2.1184632
  27.5280905   5.2947730   1.8284205  27.6877999   5.1540154   0.7573722
  26.4622378   5.4605323   1.9985548  27.8260851   4.3800440   2.3450781
  31.9648218  -3.9485702   2.9447550  32.4757051  -4.3422854   2.0635909
  32.7000022  -3.4212592   3.5562429  31.2121964  -3.2329613   2.6072329
  31.3053417  -5.0925428   3.7367412  32.0747423  -5.7676703   4.1171223
  30.6808972  -5.6722248   3.0537328  30.4224348  -4.5896235   4.8963386
  29.8840094  -5.4377753   5.3243560  29.6712494  -3.9096838   4.4890690
  31.1832261  -3.8676649   6.0263091  30.4554534  -3.3445102   6.6501027
  31.8439221  -3.1073347   5.6045932  31.9950604  -4.8224309   6.9234073
  32.7009273  -5.3952873   6.3183844  31.3090253  -5.5320096   7.3906529
  32.7711368  -4.0491611   8.0075759  32.0896959  -3.3759412   8.5318649
  33.5221243  -3.4239236   7.5201762  33.4727955  -4.9514365   9.0422195
  34.1234541  -4.3168139   9.6474969  34.1140318  -5.6713456   8.5293728
  32.4798536  -5.7005757   9.9582493  31.9572997  -6.4597189   9.3724990
  31.7187881  -5.0023866  10.3128934  33.1364751  -6.3896960  11.1747754
  33.8163424  -7.1658742  10.8172941  32.3572469  -6.8972582  11.7471814
  33.9178872  -5.4454356  12.1170747  34.8195910  -5.1042026  11.6042829
  34.2544365  -6.0152465  12.9857039  33.1305265  -4.2080063  12.6009429
  32.8056002  -3.6233321  11.7377841  33.8042784  -3.5670412  13.1733823
  31.9040346  -4.5402676  13.4732366  32.2355986  -5.0411797  14.3851674
  31.2435341  -5.2274215  12.9403007  31.1121702  -3.2695800  13.8377512
  30.7325673  -2.8120610  12.9217589  31.7827678  -2.5491452  14.3107617
  29.9339914  -3.5572803  14.7856319  30.3233624  -3.9522415  15.7263029
  29.2945099  -4.3291140  14.3522716  29.0923214  -2.2954950  15.0640893
  28.6264181  -1.9432610  14.1414154  29.7303200  -1.4951654  15.4447377
  28.0176449  -2.5951654  16.0739577  26.9192815  -3.0238464  15.7904434
  28.4068918  -2.3125659  17.3351264  27.7159786  -2.9839408  18.4315395
  26.6354966  -2.9828113  18.2665968  27.9195094  -2.4316259  19.3525028
  28.2567668  -4.4326207  18.5987318  27.8179026  -4.8852792  19.4915640
  29.7997808  -4.4212252  18.7609506  30.0586510  -4.1113687  19.7766399
  30.2340841  -3.7044346  18.0593526  30.4120398  -5.7074773  18.4769702
  30.3250575  -6.9124776  19.5166743  31.2788653  -6.3934314  20.6950140
  32.5572062  -7.0135081  20.9442711  32.4045420  -8.0897808  21.0581994
  32.9668570  -6.6243535  21.8798971  33.5338593  -6.7593360  19.7774673
  33.0351949  -7.0308155  18.8458478  34.3945265  -7.4171185  19.9072909
  34.1125059  -5.3877527  19.5702195  35.0239849  -5.4204881  18.3919442
  35.8443856  -6.1040097  18.6156023  35.4076147  -4.4106877  18.2389343
  34.4636631  -5.7608479  17.5198936  33.0659080  -4.3676797  19.3031144
  32.3955750  -4.3413755  20.1634860  32.5221920  -4.6696880  18.4067631
  33.5618687  -3.4066135  19.1593885  34.9070311  -4.9672493  20.7538533
  34.2529297  -4.9451250  21.6267467  35.3036571  -3.9735481  20.5404854
  35.7092571  -5.6956834  20.8807421  28.9472461  -7.0269775  20.0292397
  30.9624028  -8.0966115  18.9110303  27.9095578  -5.2255392  17.4366081
  26.6540432  -5.6953228  17.3499370  25.7895875  -5.5176401  18.1922626
  26.4245343  -6.4780009  16.0880864  25.3812337  -6.3710845  15.7838523
  27.0451260  -6.0392570  15.3039730  26.7747211  -7.9646480  16.2975979
  27.8181505  -8.0449730  16.6094732  26.1616683  -8.3598864  17.1102595
  26.5538645  -8.8287467  15.0400090  26.7628479  -9.8731190  15.2810001
  25.5055761  -8.7663555  14.7405672  27.4491453  -8.3905256  13.8664174
  27.2597265  -7.3343134  13.6639428  28.4986854  -8.4895998  14.1512299
  27.1881580  -9.1855359  12.5767815  27.3535776 -10.2444673  12.7859795
  26.1404753  -9.0736628  12.2898805  28.0814767  -8.7723446  11.3860810
  29.1319084  -8.7984115  11.6833627  27.9556537  -9.5267755  10.6066787
  27.7551675  -7.3995477  10.7599294  28.2459903  -7.3569930   9.7853798
  26.6820240  -7.3384196  10.5673409  28.2558966  -6.2243587  11.5824199
  29.3366599  -6.1698967  11.6851771  27.5090551  -5.2539653  12.1073329
  27.9950190  -4.4410041  12.6407194  25.9926343  -5.1804680  12.0934260
  25.5536699  -6.1688590  11.9422436  25.6427479  -4.8350608  13.0684841
  25.4691744  -4.2162034  11.0095954  24.3776321  -4.2073277  11.0399079
  25.8108401  -3.2032940  11.2326288  25.9387279  -4.6139607   9.5975304
  27.0298743  -4.5880064   9.5630223  25.6265402  -5.6424499   9.4046235
  25.3958535  -3.7045681   8.4819138  24.3173957  -3.8478848   8.3878160
  25.5606508  -2.6592952   8.7515622  26.0783744  -3.9780813   7.1266317
  25.6198311  -3.3501348   6.3598961  27.1282244  -3.6850598   7.1931058
  25.9971714  -5.4489022   6.6798228  26.5221882  -6.0832143   7.3970878
  24.9533963  -5.7689345   6.6557443  26.6259122  -5.6547260   5.2940363
  26.0832644  -5.0635087   4.5534554  27.6574159  -5.2965891   5.3081173
  26.6120362  -7.1331280   4.8850128  27.1111369  -7.2619593   3.9223263
  25.5845666  -7.4925917   4.7980732  27.1314478  -7.7410889   5.6286913
 -21.4675832  18.5602343  -0.1437695 -20.7530475  18.0641639  -0.8039317
 -22.4771929  18.3419514  -0.4980420 -21.3510633  18.1379294   0.8565026
 -21.2123227  20.0780034  -0.1411834 -21.2735629  20.4445720  -1.1679946
 -20.1961541  20.2707076   0.2091479 -22.2093511  20.8730507   0.7239637
 -23.2241678  20.7146120   0.3531475 -21.9865680  21.9369841   0.6196645
 -22.1609163  20.5036831   2.2142908 -21.1507845  20.7008243   2.5792956
 -22.3624134  19.4380569   2.3419696 -23.1829882  21.3033962   3.0441174
 -24.1843486  21.1311245   2.6440364 -22.9791355  22.3712254   2.9409170
 -23.1752443  20.9181952   4.5361274 -23.5496688  19.8970151   4.6333849
 -23.8746071  21.5642834   5.0708497 -21.7875433  21.0038900   5.2045804
 -21.1006951  20.3127837   4.7115546 -21.8791103  20.6624269   6.2377703
 -21.1912131  22.4261332   5.1913393 -21.8082285  23.0796838   5.8115232
 -21.2224507  22.8299880   4.1772449 -19.7281039  22.4862003   5.6692386
 -19.4203949  23.5332179   5.7084000 -19.0950835  21.9998884   4.9240872
 -19.4587302  21.8323350   7.0377207 -18.4216595  22.0425177   7.3074836
 -19.5580518  20.7487893   6.9453931 -20.3760481  22.3430204   8.1645364
 -21.4152360  22.0945883   7.9390806 -20.3128672  23.4324980   8.2034224
 -20.0231171  21.7771435   9.5524144 -20.5823112  22.3518300  10.2936971
 -18.9625776  21.9449258   9.7513276 -20.3517795  20.2769136   9.7093248
 -19.8357725  19.7008872   8.9383548 -21.4225078  20.1368165   9.5469105
 -19.9818063  19.6876466  11.0879362 -18.8995755  19.5621514  11.1620367
 -20.4205751  18.6896682  11.1510563 -20.4735494  20.5506253  12.2699523
 -21.3623595  21.1073351  11.9657290 -19.7111547  21.2771273  12.5587678
 -20.8740163  19.7257805  13.4647667 -20.2340961  19.6661711  14.4997966
 -22.0449734  19.1094315  13.2349300 -22.7815723  18.4940147  14.3268895
 -22.1062756  17.9312479  14.9764419 -23.4987831  17.7987087  13.8832629
 -23.5644412  19.5563543  15.1429164 -22.8726196  20.1271248  15.7676184
 -24.6107101  18.8694251  16.0443616 -24.1476703  18.0675852  16.6251338
 -25.3927827  18.4371126  15.4149818 -25.2166700  19.8291850  16.9518459
 -24.4635582  20.2969193  18.2856500 -24.3174982  21.8726802  18.0873740
 -25.3513885  22.7367687  18.5968602 -25.3623199  22.6763701  19.6881366
 -26.3259220  22.4049401  18.2296717 -25.0749421  24.1861796  18.1526649
 -24.1394806  24.5429850  18.5861170 -25.8898258  24.8065233  18.5287249
 -25.0038481  24.4627023  16.6732860 -26.0136843  23.6724114  15.9130013
 -25.7929897  22.6112580  16.0376024 -25.9896994  23.9580536  14.8603320
 -26.9940376  23.9058137  16.3309848 -25.2555346  25.9127545  16.4383674
 -24.4335580  26.4858866  16.8698275 -26.2033892  26.1556339  16.9209290
 -25.3231406  26.0885715  15.3637516 -23.6494541  24.1381264  16.1604643
 -22.9289913  24.7391462  16.7172325 -23.5959315  24.3817806  15.0983691
 -23.4651923  23.0752516  16.3236415 -25.3850508  20.0473404  19.4060588
 -23.1094265  19.7129250  18.2782423 -24.3029165  20.4311180  14.2451596
 -23.7461233  21.5903115  13.8653386 -22.6675081  22.0060539  14.2507136
 -24.5971346  22.3416829  12.8767359 -25.6041360  21.9193840  12.8680182
 -24.6735048  23.3841372  13.1928420 -23.9849162  22.2560954  11.4691806
 -22.9509759  22.6055861  11.5050149 -23.9719415  21.2092948  11.1585283
 -24.7519732  23.1064343  10.4413176 -25.7990170  22.7978945  10.4101801
 -24.7337246  24.1467166  10.7728910 -24.1353011  23.0416465   9.0299547
 -24.6655965  23.7409210   8.3801341 -23.1006217  23.3862615   9.0860409
 -24.1604781  21.6415930   8.3833539 -23.5997963  21.6859031   7.4473333
 -23.6495137  20.9205174   9.0247822 -25.5853105  21.1526465   8.0674678
 -26.1958742  21.1488771   8.9728194 -26.0375786  21.8567753   7.3659539
 -25.6230378  19.7517848   7.4368477 -26.6443634  19.5681131   7.0968133
 -24.9849463  19.7337508   6.5508580 -25.2416015  18.6709809   8.4301156
 -25.9013844  18.5858715   9.2897743 -24.2456698  17.8009343   8.2920158
 -24.0995455  17.0392728   9.0536523 -23.2172251  17.8060532   7.1818155
 -22.9162121  18.8318288   6.9590116 -22.3217487  17.2815967   7.5217110
 -23.7437892  17.1325064   5.9023911 -24.1016388  16.1277759   6.1367506
 -24.5957303  17.7071667   5.5330366 -22.6812625  17.0570695   4.7893521
 -22.1252251  17.9963160   4.7561827 -21.9639349  16.2661779   5.0182527
 -23.3043480  16.8170166   3.4012645 -23.9948320  17.6360142   3.1892815
 -22.5140643  16.8665552   2.6492938 -24.0413785  15.4671848   3.2701108
 -23.3395195  14.6573460   3.4799209 -24.8379087  15.4012787   4.0141937
 -24.6484399  15.2533758   1.8681394 -23.8776350  15.4001069   1.1086699
 -24.9902034  14.2192769   1.7887656 -25.8404279  16.1903799   1.5926826
 -26.6042089  16.0108876   2.3522110 -25.5287027  17.2333050   1.6798568
 -26.4692903  15.9847224   0.2062210 -27.3598909  16.6076660   0.1002322
 -26.7599225  14.9417019   0.0644319 -25.7632709  16.2671351  -0.5775162
 -18.7635088 -17.5924695   1.7314999 -18.0313575 -16.7921722   1.8577683
 -18.2320964 -18.5464144   1.7387836 -19.4518065 -17.5687504   2.5789359
 -19.5269430 -17.4057221   0.4106214 -18.8243353 -17.4533641  -0.4239661
 -19.9685776 -16.4070606   0.4007423 -20.6539989 -18.4358561   0.2061233
 -21.1585879 -18.2127821  -0.7362641 -21.3956094 -18.3078396   0.9973816
 -20.2035499 -19.9106491   0.1877916 -21.0909104 -20.5242395   0.0187963
 -19.8026454 -20.1927543   1.1635766 -19.1631365 -20.2288127  -0.9028853
 -18.1916630 -19.8222184  -0.6141254 -19.4691205 -19.7311294  -1.8254621
 -19.0413415 -21.7469954  -1.1566967 -20.0133252 -22.1284389  -1.4764002
 -18.8136590 -22.2559214  -0.2177517 -17.9839742 -22.1447945  -2.2116669
 -18.1959319 -23.1662369  -2.5344571 -16.9952643 -22.1574187  -1.7482479
 -17.9310465 -21.2154078  -3.4429848 -17.3607707 -20.3219914  -3.1801951
 -18.9399564 -20.8894491  -3.7043515 -17.3041081 -21.8805385  -4.6835738
 -18.0115592 -22.6023006  -5.0971395 -16.4165699 -22.4409819  -4.3825039
 -16.9000876 -20.8717632  -5.7798713 -16.4695990 -21.4289117  -6.6145736
 -16.1143029 -20.2229214  -5.3874308 -18.0497849 -19.9808919  -6.2942481
 -18.5165417 -19.4665718  -5.4515880 -18.8214445 -20.6024027  -6.7532992
 -17.5764513 -18.9074433  -7.2970635 -16.8598807 -18.2532704  -6.7960155
 -18.4313488 -18.2872629  -7.5745350 -16.9198930 -19.4450843  -8.5826790
 -16.0273695 -20.0208020  -8.3288801 -16.5878069 -18.5934162  -9.1800433
 -17.8617454 -20.3136325  -9.4344807 -18.7775779 -19.7568512  -9.6435547
 -18.1360281 -21.2124348  -8.8782573 -17.2010827 -20.7170105 -10.7642734
 -16.2647402 -21.2471271 -10.5779922 -16.9638681 -19.8186958 -11.3380504
 -18.0972731 -21.5993404 -11.5917885 -18.6376214 -22.5983405 -11.1655211
 -18.2149029 -21.1636567 -12.8601480 -19.0384722 -21.9570160 -13.7561858
 -20.0074458 -22.1467376 -13.2874155 -18.5504711 -22.9197550 -13.9283502
 -19.2449522 -21.2298751 -15.1122606 -19.8961866 -21.8507886 -15.7327509
 -17.9113412 -21.0147095 -15.8554888 -17.0799625 -21.4759684 -15.3163230
 -17.7062595 -19.9447966 -15.9442329 -17.9998147 -21.6052985 -17.1767509
 -16.8721759 -21.3238049 -18.2720780 -17.3753452 -19.9674881 -18.9516759
 -18.2926607 -19.9782920 -20.0577974 -18.5191810 -21.0027957 -20.3639531
 -17.8216815 -19.4681692 -20.9019566 -19.5980299 -19.2651165 -19.6474636
 -20.1003289 -19.8414266 -18.8691044 -20.2603793 -19.2147636 -20.5129337
 -19.5161271 -17.8648877 -19.0968120 -18.4452009 -17.0492721 -19.7401452
 -17.4889636 -17.5235665 -19.5144510 -18.4902287 -16.0482383 -19.3086505
 -18.6255836 -17.0197773 -20.8157253 -20.8201122 -17.1787810 -19.3343902
 -21.5807462 -17.6622033 -18.7195575 -21.0855103 -17.2508121 -20.3901625
 -20.7300854 -16.1344624 -19.0317774 -19.2552745 -17.9181862 -17.6297152
 -20.0595522 -18.4928560 -17.1680093 -19.2431295 -16.8992770 -17.2398973
 -18.2991326 -18.4177351 -17.4668550 -15.6096363 -21.0268641 -17.5745261
 -16.9428229 -22.4187112 -19.2592299 -19.8713064 -19.9297202 -14.9563372
 -21.1559319 -19.8833776 -14.5560932 -21.8151879 -20.8750486 -14.3177497
 -21.6547728 -18.4688151 -14.3919885 -21.2193227 -17.8463638 -15.1764631
 -22.7364111 -18.4633374 -14.5419502 -21.3346052 -17.8850877 -12.9966855
 -21.7029262 -16.8578577 -12.9566693 -21.8969965 -18.4460068 -12.2473180
 -19.8432136 -17.8968835 -12.5914562 -19.7537410 -17.4607611 -11.5943325
 -19.5089865 -18.9331698 -12.5085843 -18.9111960 -17.1372139 -13.5608196
 -19.1002905 -17.4553025 -14.5882070 -19.1306973 -16.0686433 -13.5114181
 -17.4148202 -17.3579025 -13.2684302 -17.1916854 -18.4237134 -13.3504224
 -16.8321896 -16.8528342 -14.0416777 -16.9773448 -16.8358588 -11.8830121
 -17.3460007 -15.8154929 -11.7588747 -17.4396265 -17.4412203 -11.1005175
 -15.4480910 -16.8236828 -11.6793072 -15.0092936 -16.1717451 -12.4375272
 -15.2306485 -16.3831043 -10.7040775 -14.8361766 -18.2075608 -11.7898774
 -15.3210735 -18.8760352 -12.4966919 -13.8212562 -18.6696732 -11.0658979
 -13.4915948 -19.6948469 -11.2139237 -12.9671407 -17.8531015 -10.1175082
 -11.9152069 -18.0820107 -10.3005338 -13.0889452 -16.7856443 -10.3128636
 -13.2850075 -18.1297708  -8.6352682 -12.6648152 -17.4672747  -8.0278760
 -14.3253207 -17.8662455  -8.4333605 -13.0313456 -19.5871913  -8.1964391
 -13.7484622 -20.2509284  -8.6839455 -12.0323145 -19.8920250  -8.5149956
 -13.1359124 -19.7355902  -6.6662180 -12.3795831 -19.0969849  -6.2051195
 -14.1113842 -19.3723440  -6.3361084 -12.9383576 -21.1860013  -6.1798745
 -13.8262248 -21.7719626  -6.4264661 -12.0989418 -21.6330838  -6.7164963
 -12.6512682 -21.2898850  -4.6663493 -12.5652599 -22.3445582  -4.3966609
 -11.6832507 -20.8280945  -4.4610322 -13.7120545 -20.6230879  -3.7697279
 -13.8173699 -19.5689249  -4.0345117 -14.6774793 -21.1065269  -3.9331439
 -13.3631051 -20.7188725  -2.2773381 -14.1233575 -20.2086139  -1.6822617
 -12.3954678 -20.2540779  -2.0770660 -13.3237553 -21.7640090  -1.9633265
 -17.5373983 -36.4746380  -0.1345736 -17.1076882 -35.4977679   0.0968042
 -17.5507581 -37.0761156   0.7767495 -18.5664940 -36.3260627  -0.4682679
 -16.7131197 -37.1703720  -1.2286510 -15.6923914 -37.3128009  -0.8676913
 -16.6664255 -36.5181375  -2.1032228 -17.3149061 -38.5340261  -1.6209000
 -18.3240771 -38.3873510  -2.0114410 -17.4038935 -39.1509986  -0.7242996
 -16.4753973 -39.3030214  -2.6596570 -16.9160092 -40.2926207  -2.7975780
 -15.4708230 -39.4522285  -2.2583698 -16.3949788 -38.6004353  -4.0305242
 -15.9165740 -37.6241302  -3.9284471 -17.4103010 -38.4248400  -4.3921205
 -15.6371725 -39.4231462  -5.0903767 -15.7391775 -38.9190292  -6.0536653
 -16.1041605 -40.4059696  -5.1822418 -14.1324925 -39.5872712  -4.8183241
 -13.9764237 -40.0409222  -3.8373524 -13.6692345 -38.5984373  -4.8104665
 -13.4590292 -40.4697847  -5.8850282 -13.6922634 -40.0893736  -6.8816990
 -13.8874876 -41.4724350  -5.8251882 -11.9311523 -40.5674171  -5.7124007
 -11.5499008 -41.3447046  -6.3779336 -11.7103922 -40.8863688  -4.6916163
 -11.1716771 -39.2562628  -5.9851319 -10.1068056 -39.4361210  -5.8233809
 -11.4770865 -38.5012960  -5.2576607 -11.3663316 -38.6923957  -7.4061632
 -10.7946026 -37.7666020  -7.4983352 -12.4145627 -38.4232187  -7.5518245
 -10.9196234 -39.6704316  -8.5110837 -11.6331780 -40.4941750  -8.5800034
  -9.9516726 -40.1008892  -8.2460546 -10.7902575 -38.9962697  -9.8881793
 -10.5348408 -39.7582769 -10.6274831  -9.9619466 -38.2854390  -9.8552132
 -12.0682323 -38.2599425 -10.3320587 -12.2684336 -37.4243903  -9.6580887
 -12.9193437 -38.9413118 -10.2703536 -11.9353843 -37.7219748 -11.7696667
 -11.7296875 -38.5443020 -12.4580944 -11.1044586 -37.0153141 -11.8212318
 -13.1709719 -37.0081258 -12.2509038 -14.2265654 -36.9640517 -11.6528630
 -12.9610026 -36.4069819 -13.4361100 -14.0477765 -35.6345272 -14.0199530
 -14.9676657 -36.2248230 -14.0172696 -13.7857115 -35.4180002 -15.0587428
 -14.2669797 -34.3012261 -13.2565057 -14.4973290 -34.5329618 -12.2134864
 -15.4508615 -33.5062742 -13.8505435 -15.4130733 -32.4618673 -13.5304856
 -16.3796020 -33.9423680 -13.4738314 -15.4695415 -33.5997844 -15.2987230
 -15.1194918 -32.3539114 -16.2419617 -13.5196447 -32.3067832 -16.2294376
 -12.7520835 -33.2244468 -17.0319879 -13.4066081 -33.7123680 -17.7587473
 -12.3122919 -33.9904118 -16.3881481 -11.6666925 -32.4418902 -17.8012705
 -12.1376157 -31.5614700 -18.2410109 -11.2790442 -33.0611873 -18.6115038
 -10.4572630 -31.9307089 -17.0546830  -9.6545416 -33.0448008 -16.4682949
 -10.2353728 -33.5291743 -15.6819761  -8.7381393 -32.6157069 -16.0604107
  -9.3953907 -33.7441158 -17.2645843  -9.5860702 -31.1907244 -18.0100262
 -10.1525950 -30.3360367 -18.3826458  -9.3043333 -31.8599820 -18.8242722
  -8.6918116 -30.8678699 -17.4749100 -10.8311927 -30.9792376 -15.9749126
 -11.3231182 -30.1332378 -16.4571762  -9.9191433 -30.6609297 -15.4678369
 -11.5198553 -31.4876151 -15.2984691 -15.6182539 -32.6933599 -17.5838828
 -15.6457233 -31.1458063 -15.5906117 -13.0454397 -33.5148954 -13.3074045
 -12.8589427 -32.6270700 -12.3167038 -13.7306905 -32.2863817 -11.5415406
 -11.4422798 -32.1096492 -12.2591794 -10.7788038 -32.8175759 -12.7602816
 -11.3864172 -31.1666512 -12.8069925 -10.9743381 -31.9027829 -10.8028293
  -9.9834037 -31.4440107 -10.8091378 -11.6473019 -31.1947560 -10.3146899
 -10.9196126 -33.2210183  -9.9971712 -11.9061852 -33.6890459  -9.9877614
 -10.2465963 -33.9194179 -10.4989195 -10.4527652 -33.0422163  -8.5392511
 -10.3601015 -34.0298319  -8.0826396  -9.4627196 -32.5817823  -8.5227859
 -11.4319646 -32.1955800  -7.7044713 -11.4337718 -31.1668873  -8.0708754
 -12.4387753 -32.5949049  -7.8435326 -11.0877252 -32.1916914  -6.2010342
 -11.0815334 -33.2188344  -5.8303595 -10.0813639 -31.7909336  -6.0628521
 -12.0775473 -31.3581800  -5.3617364 -11.7605472 -31.3600564  -4.3167624
 -12.0391452 -30.3189373  -5.6948507 -13.4972775 -31.8711162  -5.5004853
 -14.0300596 -31.4984655  -6.3716018 -14.1189694 -32.7140307  -4.6818548
 -15.1415300 -33.0056334  -4.9074799 -13.5353541 -33.3583832  -3.4429678
 -12.4977732 -33.0581403  -3.2825243 -14.1072893 -33.0344605  -2.5709426
 -13.6031055 -34.8920989  -3.5392153 -14.6283579 -35.2023792  -3.7514624
 -12.9808712 -35.2222180  -4.3736681 -13.1272078 -35.5701065  -2.2415332
 -12.1572256 -35.1605129  -1.9519955 -13.8334560 -35.3433871  -1.4401121
 -12.9959595 -37.0943880  -2.3967889 -13.9501834 -37.5030518  -2.7357775
 -12.2503877 -37.3150587  -3.1635299 -12.5962675 -37.7848864  -1.0818047
 -11.6644239 -37.3514509  -0.7126653 -13.3689249 -37.5930166  -0.3343761
 -12.4148822 -39.3041301  -1.2646429 -13.3282423 -39.7371840  -1.6778019
 -11.6195261 -39.4810534  -1.9916721 -12.0681500 -40.0358152   0.0447387
 -11.7870867 -41.0642290  -0.1915356 -11.2055838 -39.5561838   0.5120702
 -13.2278740 -40.0629282   1.0509241 -12.9530060 -40.6502008   1.9295724
 -14.1106844 -40.5165005   0.5955322 -13.4825766 -39.0534401   1.3803543
  -8.6147994 -40.5328178   0.4182764  -8.9170551 -39.8770595   1.2374733
  -7.6652044 -41.0035992   0.6811458  -9.3663377 -41.3172293   0.3071129
  -8.4745187 -39.7300529  -0.8864079  -7.7605528 -38.9168882  -0.7398421
  -9.4347030 -39.2784095  -1.1443404  -7.9974586 -40.6287003  -2.0380989
  -8.6939639 -41.4616585  -2.1544230  -7.0275497 -41.0520267  -1.7687736
  -7.8885621 -39.8775363  -3.3792317  -7.2528291 -38.9968204  -3.2667744
  -8.8825482 -39.5284700  -3.6666489  -7.3324519 -40.7813597  -4.4961101
  -7.5423038 -40.3283310  -5.4672909  -7.8690618 -41.7321825  -4.4747967
  -5.8167148 -41.0548067  -4.3719885  -5.6140751 -42.0634365  -4.7381347
  -5.5075371 -41.0456133  -3.3247119  -4.9639627 -40.0443459  -5.1652509
  -5.0778651 -39.0560985  -4.7148514  -5.3346747 -39.9875212  -6.1908275
  -3.4704563 -40.4197598  -5.1884377  -3.3452466 -41.3927364  -5.6681252
  -3.1259882 -40.5251503  -4.1575649  -2.5772795 -39.3766403  -5.8927673
  -1.5341836 -39.6664405  -5.7498348  -2.7051935 -38.4133410  -5.3946155
  -2.8242519 -39.1861343  -7.4052346  -2.1859367 -38.3688498  -7.7473801
  -3.8592541 -38.8828063  -7.5761855  -2.5220972 -40.4363871  -8.2513112
  -3.2817924 -41.1967564  -8.0585355  -1.5661225 -40.8530283  -7.9272938
  -2.4237339 -40.1577711  -9.7691834  -2.0787828 -41.0706472 -10.2592075
  -1.6504215 -39.4060850  -9.9407053  -3.7147036 -39.7071862 -10.4852247
  -3.4983388 -39.6414495 -11.5535533  -3.9987770 -38.7044096 -10.1593304
  -4.9013728 -40.6629133 -10.2744114  -5.3293377 -40.4889679  -9.2849404
  -4.5233199 -41.6871834 -10.2947938  -6.0114861 -40.5611706 -11.3417089
  -6.7361456 -41.3589668 -11.1660469  -5.5845052 -40.7331467 -12.3319483
  -6.7760193 -39.2578268 -11.3723004  -6.5846187 -38.3072686 -10.6411290
  -7.7764642 -39.3125892 -12.2718346  -8.5127234 -38.1011295 -12.5818431
  -8.7002242 -37.5211692 -11.6745722  -9.4767505 -38.4238815 -12.9832518
  -7.8390199 -37.2196317 -13.6743200  -8.6345237 -36.7762041 -14.2786336
  -6.9388747 -38.0193973 -14.6431899  -6.7760664 -37.4310517 -15.5498278
  -7.4314821 -38.9565301 -14.9147952  -5.6467670 -38.3219719 -14.0599585
  -4.6371952 -39.2663097 -14.8376060  -4.3374112 -38.4008574 -16.1432147
  -3.0776519 -37.7193713 -16.2779748  -2.3603620 -38.4052157 -16.7359698
  -2.6919034 -37.4444652 -15.2929497  -3.2481396 -36.4258361 -17.1033669
  -2.2536100 -36.0101271 -17.2718203  -3.8282183 -35.7018661 -16.5292108
  -3.9052579 -36.5007496 -18.4559131  -5.3863937 -36.4692354 -18.3007801
  -5.6650716 -37.3049331 -17.6571751  -5.8392739 -36.5655375 -19.2886591
  -5.6558359 -35.5130053 -17.8498816  -3.5088405 -35.3091311 -19.2549241
  -2.4198411 -35.2431536 -19.2518353  -3.9645472 -34.4301033 -18.7967479
  -3.8868874 -35.4323483 -20.2708864  -3.5129833 -37.7200580 -19.2156303
  -2.4336897 -37.7210236 -19.3750215  -4.0276650 -37.7502656 -20.1771235
  -3.7672845 -38.5989022 -18.6212850  -3.3969358 -39.3757439 -14.0520573
  -5.3282964 -40.5184603 -15.1943326  -7.0600140 -36.1380839 -13.0929112
  -7.7194172 -35.0819135 -12.5913978  -8.9353937 -35.0004315 -12.5739372
  -6.7848474 -34.0085983 -12.0827687  -6.1043108 -34.4592023 -11.3573134
  -6.1848545 -33.6546874 -12.9237330  -7.5356472 -32.8233242 -11.4415395
  -8.2634419 -32.4493694 -12.1646845  -8.0937463 -33.1748605 -10.5712461
  -6.6296220 -31.6448188 -11.0339618  -6.0054296 -31.3761258 -11.8887424
  -7.2617853 -30.7792020 -10.8252895  -5.7225507 -31.8873358  -9.8094934
  -5.0644684 -32.7382064  -9.9976683  -5.0759983 -31.0150290  -9.6932393
  -6.4957994 -32.1109152  -8.4919345  -7.2976172 -31.3738585  -8.4125572
  -6.9622272 -33.0981469  -8.5087454  -5.5851179 -31.9813824  -7.2521174
  -4.6788269 -32.5738525  -7.3938179  -5.2728033 -30.9397101  -7.1529084
  -6.2687856 -32.4131751  -5.9422719  -7.2249705 -31.8933058  -5.8533388
  -6.4915568 -33.4818006  -5.9718686  -5.4065871 -32.0720005  -4.7424722
  -5.5439007 -31.0639215  -4.3597338  -4.5605415 -32.8839445  -4.1149303
  -4.0149790 -32.5069189  -3.2536614  -4.1854009 -34.2918921  -4.5313713
  -4.5990530 -34.5286846  -5.5138600  -3.0994821 -34.3517995  -4.6296346
  -4.6425134 -35.3737354  -3.5295188  -5.7335597 -35.4035926  -3.4950370
  -4.3194675 -36.3391280  -3.9246428  -4.0929571 -35.2424073  -2.0920286
  -4.0630615 -36.2410450  -1.6512397  -3.0654240 -34.8739958  -2.1222420
  -4.9435973 -34.3431139  -1.1730333  -4.9258220 -33.3147240  -1.5398593
  -5.9812921 -34.6823001  -1.1976399  -4.4476277 -34.3635178   0.2836757
  -4.5316941 -35.3792357   0.6757387  -3.3899865 -34.0925860   0.3049775
  -5.2505022 -33.3964658   1.1761962  -5.1001900 -32.3744345   0.8221880
  -6.3148826 -33.6170411   1.0717712  -4.8783696 -33.4740615   2.6706153
  -5.5233884 -32.7904391   3.2265612  -5.0816846 -34.4802451   3.0430716
  -3.4097880 -33.1158376   2.9612502  -2.7355719 -33.8478065   2.5116768
  -3.2312611 -33.1077313   4.0385276  -3.1696561 -32.1274042   2.5640067
   5.4996037 -21.2231612   0.5010381   4.9973303 -22.1806574   0.6539550
   4.9999753 -20.4683852   1.1118960   6.5309536 -21.3214326   0.8461831
   5.4568446 -20.8277869  -0.9855932   4.4383648 -20.9474874  -1.3608730
   6.0887039 -21.5122747  -1.5554118   5.9132689 -19.3793917  -1.2455537
   5.1500618 -18.6985111  -0.8629569   5.9771657 -19.2223084  -2.3243061
   7.2694629 -19.0394795  -0.5934001   7.9921645 -19.8203349  -0.8392269
   7.1577877 -19.0315354   0.4928456   7.8474528 -17.6839662  -1.0388441
   8.1224382 -17.7537763  -2.0933451   8.7696093 -17.5026727  -0.4827665
   6.8955344 -16.4885163  -0.8321311   6.5837926 -16.4536858   0.2138460
   5.9923458 -16.6305184  -1.4292492   7.5339514 -15.1342022  -1.2044249
   8.3140987 -14.9019158  -0.4764982   6.7741281 -14.3547893  -1.1169742
   8.1547683 -15.0676239  -2.6141185   9.0404087 -15.7056355  -2.6464760
   8.4974700 -14.0454566  -2.7878848   7.1917695 -15.4862440  -3.7442264
   6.3241118 -14.8237240  -3.7706748   6.8135488 -16.4926970  -3.5532710
   7.8627551 -15.4932845  -5.1252961   7.1443200 -15.8694458  -5.8566087
   8.6999899 -16.1935401  -5.0914890   8.3874041 -14.1282558  -5.5970073
   9.2112201 -13.8052452  -4.9571204   7.5896955 -13.3866203  -5.5189031
   8.8707626 -14.1774178  -7.0545125   9.2763996 -13.2000470  -7.3240817
   8.0014431 -14.3522763  -7.6918280   9.9277270 -15.2753162  -7.3085797
   9.4645905 -16.2562609  -7.1832156  10.7146215 -15.1969779  -6.5555054
  10.5547476 -15.2254164  -8.7142807  11.1363196 -16.1347711  -8.8795477
  11.2377846 -14.3770814  -8.7933600   9.4559151 -15.1004910  -9.7790331
   9.0497667 -14.0871036  -9.7555578   8.6438054 -15.7924557  -9.5463830
   9.9302697 -15.3738129 -11.1791575  10.8712316 -14.8101366 -11.6946113
   9.1477025 -16.2908387 -11.7688525   9.3512499 -16.5715528 -13.1786644
  10.4193115 -16.6112018 -13.4074032   8.9250028 -15.7499921 -13.7600422
   8.6756802 -17.9279280 -13.5524857   9.0012145 -18.2246315 -14.5528078
   7.1326208 -17.8295803 -13.5228539   6.8045151 -17.0621586 -12.8171206
   6.7369270 -18.7945211 -13.1958008   6.5768182 -17.5710094 -14.8377240
   6.6055697 -16.1137795 -15.4980493   8.0959183 -16.0619318 -16.0826516
   8.5368031 -16.9715810 -17.1156800   8.2818055 -17.9929662 -16.8217432
   9.6247131 -16.9018102 -17.1946347   7.8844190 -16.6462433 -18.4800673
   6.8001646 -16.7084062 -18.3760953   8.2047319 -17.3901069 -19.2110562
   8.1613350 -15.3040528 -19.1020417   7.4824780 -15.2334762 -20.4282832
   7.8445858 -16.0441315 -21.0623145   7.7231419 -14.2708004 -20.8817387
   6.4060664 -15.3083944 -20.2670217   7.6244253 -14.1910779 -18.2714498
   8.1669265 -14.1790462 -17.3249674   6.5681124 -14.3875420 -18.0820119
   7.7731401 -13.2564783 -18.8143015   9.6226668 -15.1114690 -19.3129098
  10.1294982 -15.1536143 -18.3477008   9.7632408 -14.1326463 -19.7738063
   9.9972594 -15.9064829 -19.9593699   5.6639373 -16.0600209 -16.6266191
   6.5058649 -15.1193023 -14.4115901   9.0096033 -19.0107584 -12.6327622
  10.2953541 -19.3289077 -12.4040663  11.2414110 -18.7581682 -12.8938413
  10.4521096 -20.4445338 -11.4102960   9.5776719 -21.0979629 -11.4394832
  11.3167846 -21.0421228 -11.7064154  10.6822574 -19.8696303 -10.0010049
  10.9198749 -20.6881380  -9.3183291  11.5599704 -19.2216527 -10.0479853
   9.5025843 -19.0485036  -9.4393867   9.8091966 -18.5731816  -8.5052979
   9.2750007 -18.2381427 -10.1350749   8.2304299 -19.8842502  -9.1971660
   8.1247962 -20.6371546  -9.9810284   8.3245718 -20.4207063  -8.2506907
   6.9420600 -19.0445602  -9.2017770   6.9278777 -18.4385264 -10.1100647
   6.0970145 -19.7328424  -9.2698044   6.7544252 -18.1206095  -7.9801965
   7.7277040 -17.8410065  -7.5715238   6.2829149 -17.1962643  -8.3203852
   5.8675301 -18.7184477  -6.8647712   5.7785743 -17.9973567  -6.0495549
   4.8566884 -18.8621533  -7.2520852   6.3825506 -20.0430870  -6.3381267
   5.8728951 -20.9229946  -6.7222917   7.3650098 -20.1945043  -5.4560888
   7.6542073 -21.1927080  -5.1374686   8.1932014 -19.0803969  -4.8661873
   7.7746606 -18.1150222  -5.1583064   8.1502241 -19.1290057  -3.7761173
   9.6559495 -19.1526365  -5.3447056   9.6589482 -19.2651415  -6.4308900
  10.1475346 -18.2008445  -5.1328069  10.4729855 -20.3101158  -4.7320163
   9.9632841 -21.2525368  -4.9429864  11.4407575 -20.3703070  -5.2342677
  10.7123375 -20.1869917  -3.2123211   9.7561789 -20.1077771  -2.6908338
  11.1838651 -21.1100626  -2.8687117  11.6137743 -18.9920712  -2.8322467
  12.6093888 -19.1506803  -3.2518405  11.2208521 -18.0754042  -3.2769915
  11.7299759 -18.7588573  -1.3133782  12.3836970 -17.9007471  -1.1437858
  10.7458210 -18.4952164  -0.9204466  12.2734451 -19.9656224  -0.5264826
  11.6103661 -20.8230186  -0.6593723  13.2564783 -20.2420044  -0.9134218
  12.3855317 -19.6625638   0.9760174  12.7589297 -20.5393457   1.5092090
  11.4075851 -19.4013584   1.3857190  13.0713940 -18.8307083   1.1494324
 -26.0204625 -27.8291821  -0.8865976 -26.4082241 -27.8930092   0.1322411
 -25.7283592 -26.7947841  -1.0793566 -25.1304293 -28.4573197  -0.9623992
 -27.0879674 -28.2897902  -1.8901579 -27.9453111 -27.6161265  -1.8301003
 -27.4382710 -29.2843723  -1.6063288 -26.5661430 -28.3338237  -3.3393419
 -25.7947612 -29.1021037  -3.4240818 -26.1100936 -27.3766494  -3.6006767
 -27.7035785 -28.6395788  -4.3259075 -28.4550762 -27.8504848  -4.2548680
 -28.1867456 -29.5696068  -4.0192071 -27.2417235 -28.8003826  -5.7868230
 -28.0653095 -29.2445874  -6.3497162 -26.4217710 -29.5209360  -5.8175623
 -26.7969155 -27.5220013  -6.5248138 -26.5081716 -27.8064203  -7.5388145
 -25.9072614 -27.1094894  -6.0443836 -27.8871059 -26.4344859  -6.6059893
 -27.9934621 -25.9743142  -5.6214112 -28.8472772 -26.8839860  -6.8676829
 -27.5484657 -25.3499031  -7.6452446 -27.5167155 -25.7918382  -8.6433172
 -26.5403247 -24.9852610  -7.4375147 -28.5204983 -24.1487980  -7.6124448
 -27.9654121 -23.2594490  -7.9180586 -28.8419843 -23.9752817  -6.5833664
 -29.7562337 -24.2449260  -8.5259026 -30.4359174 -23.4249854  -8.2846785
 -30.2898574 -25.1807070  -8.3469403 -29.3535399 -24.1324091 -10.0047123
 -28.7469959 -24.9978328 -10.2796865 -28.7210298 -23.2514811 -10.1326180
 -30.5373454 -24.0216112 -10.9808624 -31.0707712 -23.0843043 -10.8094621
 -31.2398219 -24.8436975 -10.8286667 -29.9822640 -24.0654445 -12.4122322
 -29.6594191 -25.0867796 -12.6246202 -29.0952325 -23.4295869 -12.4486160
 -30.9494615 -23.5952497 -13.5146582 -31.1378932 -22.5269127 -13.3897066
 -31.9035792 -24.1129994 -13.3960760 -30.4252052 -23.8556099 -14.9465919
 -30.4738164 -24.9249601 -15.1624417 -31.0679698 -23.3465648 -15.6678331
 -29.0059257 -23.3886123 -15.1429975 -28.6699224 -22.3363519 -15.6566393
 -28.1161261 -24.2866802 -14.6675491 -26.7709208 -23.8130355 -14.3888116
 -26.4596605 -24.2417860 -13.4328103 -26.7653799 -22.7260733 -14.2742300
 -25.7544827 -24.2411327 -15.4706824 -24.8966122 -23.5690689 -15.3867841
 -26.3301039 -24.1395068 -16.8991077 -26.6937470 -23.1282187 -17.0983791
 -27.1586967 -24.8437214 -17.0093811 -25.3018737 -24.4694376 -17.8580129
 -25.6607199 -24.8647785 -19.3695486 -26.1351156 -26.3648534 -19.2192638
 -25.2162671 -27.3526978 -18.7355828 -24.2769408 -26.8874598 -18.4259558
 -24.9891496 -28.0780363 -19.5210433 -25.8870625 -28.0008411 -17.5139797
 -26.1658525 -27.2215915 -16.8031192 -25.1519895 -28.6497951 -17.0356476
 -27.1145439 -28.8435292 -17.7456343 -26.8843722 -29.8093247 -18.8583076
 -26.7731762 -29.2399049 -19.7822547 -27.7312183 -30.4944468 -18.9194608
 -25.9597921 -30.3455925 -18.6395645 -27.4218559 -29.6185923 -16.5074801
 -27.6192713 -28.9164925 -15.6960857 -26.5506387 -30.2285504 -16.2641323
 -28.2848787 -30.2610517 -16.6883576 -28.3002377 -27.9931688 -18.0663347
 -28.4595394 -27.2979975 -17.2407198 -29.1710854 -28.6336946 -18.2133973
 -28.0781960 -27.4337101 -18.9762723 -26.8003511 -24.0276861 -19.7705638
 -24.3981814 -24.8332095 -20.1243901 -25.3709078 -25.6250930 -15.2228832
 -24.0813041 -25.9072661 -14.9367690 -23.1852913 -25.0862002 -14.9719071
 -23.8302469 -27.3487806 -14.5440745 -23.4317780 -27.8647494 -15.4201233
 -23.0586004 -27.3714423 -13.7717354 -25.0743818 -28.1231904 -14.0491724
 -25.8372784 -28.0976534 -14.8300660 -24.7957683 -29.1715956 -13.9239311
 -25.7026267 -27.6337671 -12.7283978 -25.0271058 -27.8459668 -11.8970692
 -25.8566236 -26.5532970 -12.7648675 -27.0609188 -28.3275771 -12.4983013
 -27.7114987 -28.0972576 -13.3445668 -26.9194603 -29.4102931 -12.4849451
 -27.7680230 -27.8970170 -11.1994255 -27.2194099 -28.2824969 -10.3375125
 -27.7604604 -26.8069243 -11.1353540 -29.2298794 -28.3929634 -11.1659193
 -29.7488928 -27.9901910 -12.0381939 -29.2545533 -29.4812751 -11.2521422
 -30.0042295 -27.9617739  -9.9061680 -29.8050547 -26.9043517  -9.7200173
 -31.0741925 -28.0658150 -10.0980604 -29.6167898 -28.7739730  -8.6898655
 -28.6275768 -29.2238402  -8.7153214 -30.4274750 -29.0388632  -7.6705140
 -30.0802398 -29.6785378  -6.8631649 -31.7988753 -28.4333968  -7.4642056
 -31.8556809 -27.4324298  -7.8969890 -32.5263071 -29.0533543  -7.9923707
 -32.1932244 -28.3926296  -5.9712344 -33.2475519 -28.1214762  -5.8855879
 -32.0908356 -29.3971086  -5.5553037 -31.3713312 -27.4134779  -5.1122224
 -31.6028237 -27.5882721  -4.0594542 -30.3085828 -27.6246548  -5.2479976
 -31.6504073 -25.9369111  -5.4487979 -31.3830495 -25.7481527  -6.4906007
 -32.7195525 -25.7377529  -5.3501618 -30.8677769 -24.9617815  -4.5499074
 -31.1328244 -25.1266074  -3.5034627 -29.7983742 -25.1587200  -4.6502051
 -31.1579061 -23.4989643  -4.9313852 -31.0464168 -23.3819509  -6.0113585
 -32.1979117 -23.2722759  -4.6875274 -30.2280164 -22.4952722  -4.2245275
 -30.4134202 -22.5214577  -3.1487006 -29.1887188 -22.7880597  -4.3876222
 -30.4246354 -21.0602355  -4.7440740 -29.7096014 -20.3828931  -4.2724863
 -31.4336610 -20.7055092  -4.5238402 -30.2704740 -21.0205293  -5.8244079
  15.6865335 -35.8351088  -0.8922596  16.4267242 -35.0339627  -0.8398281
  16.0689819 -36.6138554  -1.5553962  15.5630982 -36.2592912   0.1063873
  14.3473256 -35.2916503  -1.4166452  14.5082200 -34.8484874  -2.4016236
  13.9934671 -34.5039487  -0.7482339  13.2851577 -36.4014697  -1.5152468
  13.2006371 -36.8913913  -0.5429831  13.6270523 -37.1581554  -2.2244702
  11.8848896 -35.9066463  -1.9260655  11.5261471 -35.2034926  -1.1715178
  11.1997330 -36.7568946  -1.9158040  11.7991734 -35.2304506  -3.3077878
  12.3917270 -34.3132043  -3.3073977  10.7570255 -34.9429083  -3.4617630
  12.2470188 -36.1232066  -4.4810578  11.6584790 -37.0429468  -4.4682696
  13.2918990 -36.4099336  -4.3451265  12.1057248 -35.4522061  -5.8638513
  12.4091935 -36.1676431  -6.6310012  12.8094041 -34.6192837  -5.9233606
  10.6936467 -34.9215317  -6.1966348  10.7025087 -34.5194268  -7.2118670
  10.4675293 -34.0787625  -5.5400717   9.5601064 -35.9640622  -6.0725313
   8.6134750 -35.4847574  -6.3306367   9.4685167 -36.2732625  -5.0292331
   9.7429359 -37.2255731  -6.9429958   8.8830084 -37.8812504  -6.7910874
  10.6165719 -37.7785373  -6.5916365   9.9018776 -36.9606590  -8.4537011
  10.0507891 -37.9221964  -8.9494145  10.8010519 -36.3674212  -8.6326402
   8.6824942 -36.2476730  -9.0725547   8.5180879 -35.2998948  -8.5556889
   7.7883345 -36.8542767  -8.9145195   8.8279885 -35.9500408 -10.5762661
   9.6185154 -35.2080917 -10.7068133   7.8995901 -35.4981852 -10.9317470
   9.1221350 -37.1860981 -11.4479136   8.3643186 -37.9457855 -11.2452924
  10.0914633 -37.6141715 -11.1840546   9.1029388 -36.8641496 -12.9572475
   8.1706780 -36.3605499 -13.2213306   9.1302460 -37.7995443 -13.5200572
  10.2655923 -36.0164785 -13.4210384  11.1107421 -35.5273461 -12.7005482
  10.2609169 -35.8744979 -14.7565973  11.4131892 -35.2556920 -15.4037440
  11.5792310 -34.2611861 -14.9818027  11.1809361 -35.1370573 -16.4651728
  12.6979375 -36.1133456 -15.2375424  13.0446482 -35.9959698 -14.2076564
  13.8257992 -35.6415462 -16.1937857  14.7793698 -35.8401322 -15.6978881
  13.7516320 -34.5661068 -16.3742852  13.8509679 -36.3642836 -17.4604356
  12.8885877 -35.9922004 -18.6841190  11.6242218 -36.9522357 -18.5564446
  10.9536898 -37.3591328 -19.7610164  11.3861847 -38.3019376 -20.1055670
  11.1135256 -36.6058564 -20.5366969   9.4373941 -37.4992585 -19.4978547
   9.2643362 -38.3572388 -18.8465476   8.9367247 -37.6768351 -20.4507852
   8.7242353 -36.3327765 -18.8547075   9.2532063 -35.0099349 -19.3076456
  10.2863419 -34.9133587 -18.9706206   8.6478269 -34.2315483 -18.8408327
   9.1917509 -34.9459314 -20.3950310   7.2687149 -36.3736868 -19.1792345
   6.8501687 -37.3187208 -18.8299334   7.1395743 -36.2501478 -20.2554965
   6.8010253 -35.5408478 -18.6520457   8.8478589 -36.4365768 -17.3761129
   8.3174527 -37.3248458 -17.0298111   8.4106505 -35.5379295 -16.9384348
   9.9078351 -36.5029693 -17.1264696  12.4029529 -34.6190810 -18.4777844
  13.5817969 -36.3206458 -19.9384463  12.4005949 -37.5162530 -15.4825056
  13.3382654 -38.4085274 -15.1143181  14.3312740 -38.1158614 -14.4754398
  12.9968929 -39.8059511 -15.5822337  12.2176278 -40.2286148 -14.9446106
  12.5671506 -39.7101307 -16.5815353  14.2124689 -40.7592630 -15.6716430
  14.0208721 -41.4475679 -16.4974713  15.1052129 -40.1958942 -15.9510922
  14.5123744 -41.6304874 -14.4277918  13.6372161 -42.2356939 -14.1822565
  15.2986443 -42.3324013 -14.7133839  14.9981332 -40.8841753 -13.1673610
  15.6437671 -41.5572119 -12.5993431  15.6193709 -40.0344896 -13.4581566
  13.8560832 -40.4313326 -12.2360146  13.1032419 -39.8771644 -12.8004563
  13.3655941 -41.3202524 -11.8338919  14.3606699 -39.5425510 -11.0806394
  15.1456487 -40.0681114 -10.5328667  14.8065042 -38.6372662 -11.4979601
  13.2437694 -39.1415095 -10.0974190  13.6431932 -38.4386778  -9.3632847
  12.4585032 -38.6128592 -10.6418002  12.6579130 -40.3650379  -9.4233191
  11.9704688 -40.9369993 -10.0412619  12.9221189 -40.7881784  -8.1920880
  12.4578774 -41.7068911  -7.8427851  13.8667297 -40.1579857  -7.1889454
  14.5569503 -40.9259653  -6.8336046  14.4798613 -39.3792176  -7.6472592
  13.1132519 -39.5665717  -5.9780496  13.8504303 -39.2281508  -5.2469534
  12.5657117 -38.6819506  -6.3098770  12.1260238 -40.5499935  -5.3062296
  11.3752282 -40.8564568  -6.0375631  12.6595104 -41.4496374  -4.9923947
  11.3880634 -39.9802947  -4.0844652  10.9241676 -39.0308261  -4.3597391
  10.5712414 -40.6568003  -3.8244599  12.2800875 -39.7822905  -2.8418681
  13.1868899 -39.2388821  -3.1155097  11.7344999 -39.1522384  -2.1362986
  12.6521850 -41.1085844  -2.1437743  11.7531371 -41.7187119  -2.0345804
  13.3414006 -41.6715145  -2.7766675  13.2826316 -40.9341240  -0.7462586
  12.5301862 -40.5430555  -0.0582516  13.5736346 -41.9175148  -0.3711190
  14.5112932 -40.0088882  -0.7151353  14.9618769 -40.0178862   0.2795292
  14.2303014 -38.9805412  -0.9517866  15.2635860 -40.3353691  -1.4361984
 -23.4142494  10.1757872   4.4182613 -23.1717110  10.7687151   5.3026122
 -22.6781154   9.3752623   4.3196186 -24.3997335   9.7294509   4.5668221
 -23.4080195  11.0693181   3.1686437 -22.3990917  11.4609480   3.0231977
 -24.0664816  11.9236243   3.3390921 -23.8677287  10.3086317   1.9091104
 -24.8531938   9.8785406   2.0997518 -23.1859803   9.4769132   1.7195682
 -23.9627337  11.2029636   0.6559449 -24.6017432  12.0584810   0.8844665
 -24.4587421  10.6468725  -0.1423046 -22.6067400  11.7205465   0.1357941
 -22.0313334  12.1553588   0.9557388 -22.8052497  12.5269949  -0.5732169
 -21.7731214  10.6320107  -0.5698766 -22.3287058  10.2700591  -1.4375058
 -21.6372681   9.7813630   0.1012462 -20.3816962  11.1114597  -1.0305563
 -19.8972774  10.2917516  -1.5652329 -19.7678971  11.3184249  -0.1514204
 -20.4142213  12.3692632  -1.9268864 -20.7474732  13.2157993  -1.3229156
 -21.1467981  12.2445703  -2.7270406 -19.0380013  12.7259493  -2.5288054
 -18.2435000  12.3254502  -1.8956921 -18.9281487  13.8123560  -2.5178865
 -18.8384426  12.2474289  -3.9828202 -17.8235662  12.5003672  -4.2966858
 -19.5224607  12.8031158  -4.6276423 -19.0687323  10.7362807  -4.1821119
 -20.1125932  10.4980969  -3.9674273 -18.4568000  10.1827323  -3.4668586
 -18.7372041  10.2323043  -5.5995125 -18.9966559   9.1725761  -5.6456089
 -17.6604187  10.3031135  -5.7667935 -19.4715965  10.9835017  -6.7303032
 -19.0237081  11.9701970  -6.8655610 -20.5185151  11.1317456  -6.4574498
 -19.4001353  10.1951051  -8.0505830 -19.9096692   9.2400879  -7.9064268
 -18.3552945   9.9789715  -8.2830876 -20.0308061  10.9224427  -9.2534065
 -19.4668961  11.8333411  -9.4649094 -21.0583186  11.2199020  -9.0338618
 -20.0300622  10.0403857 -10.4807556 -20.3035426   8.8583565 -10.4655123
 -19.6526372  10.7108510 -11.5797615 -19.5789671   9.9941874 -12.8490579
 -19.0277636   9.0593624 -12.7189541 -19.0310371  10.6279266 -13.5510516
 -20.9726739   9.6912569 -13.4495735 -21.4527369   8.9091319 -12.8558826
 -20.8260417   9.2346531 -14.9234343 -21.8093848   9.0717667 -15.3719366
 -20.2876544   8.2835859 -14.9395299 -20.0628448  10.1940668 -15.7162368
 -20.7830405  11.3420558 -16.5862656 -20.9327912  12.5823128 -15.5893350
 -20.0417328  13.7031090 -15.6287587 -19.1271341  13.4768438 -16.1827993
 -19.7648823  13.9264417 -14.5952570 -20.7906795  14.9207282 -16.2147439
 -20.1790667  15.8059025 -16.0339785 -21.7332292  15.0366163 -15.6776702
 -21.1398005  14.9819517 -17.6853871 -22.1731043  13.9824355 -18.0878901
 -21.6846442  13.0164301 -18.2239914 -22.6279497  14.2935812 -19.0294755
 -22.9181337  13.8922620 -17.2960067 -21.7018414  16.3348091 -17.9701066
 -20.9728146  17.0964134 -17.6894665 -22.6131988  16.4744616 -17.3868346
 -21.9442964  16.4287615 -19.0296686 -19.9264395  14.8020077 -18.5317910
 -19.1852665  15.5471611 -18.2390654 -20.2169943  14.9184334 -19.5769238
 -19.5545876  13.7902486 -18.3634090 -19.8669779  11.7808819 -17.6576495
 -22.1573544  10.9473145 -16.9292402 -21.7596483  10.9040558 -13.4129167
 -23.0955982  10.8007288 -13.4927690 -23.7052917   9.7516775 -13.4153676
 -23.7646770  12.1477759 -13.6196780 -23.4332085  12.5870860 -14.5628631
 -24.8454928  12.0078659 -13.6884177 -23.4113288  13.1175101 -12.4655771
 -22.3322487  13.1049848 -12.2985661 -23.6562586  14.1294992 -12.7947462
 -24.1324306  12.8848183 -11.1180186 -23.6899924  13.5568953 -10.3797591
 -25.1792145  13.1796503 -11.2169313 -24.0719199  11.4430428 -10.5779076
 -24.6593118  10.7900584 -11.2267888 -23.0359173  11.0986590 -10.6016302
 -24.6217704  11.3284123  -9.1430598 -23.9918518  11.9175744  -8.4733176
 -25.6237984  11.7606235  -9.1030848 -24.6899247   9.8777801  -8.6227363
 -25.0309491   9.8992455  -7.5855738 -25.4350519   9.3206567  -9.1944563
 -23.3403587   9.1385937  -8.6989498 -23.0963469   8.9330119  -9.7432959
 -22.5505114   9.7868884  -8.3138323 -23.3795547   7.8318501  -7.9358149
 -23.8202047   7.0000976  -8.4794921 -22.8971696   7.6275820  -6.7130667
 -22.9608202   6.6327000  -6.2797922 -22.2628498   8.6694402  -5.8139902
 -21.2362313   8.3675921  -5.5962628 -22.2186732   9.6502697  -6.2919909
 -23.0168462   8.8114756  -4.4812903 -23.0345893   7.8446031  -3.9740384
 -22.4655890   9.5062745  -3.8442394 -24.4628119   9.3168938  -4.6368915
 -24.4608879  10.2570331  -5.1924074 -25.0472951   8.5934478  -5.2091414
 -25.1216340   9.5389265  -3.2646266 -25.0920224   8.6081833  -2.6942736
 -24.5382786  10.2735925  -2.7056757 -26.5794039  10.0207102  -3.3816350
 -26.6312861  10.8638072  -4.0737039 -27.1914387   9.2189240  -3.7999851
 -27.1497774  10.4522967  -2.0171434 -27.0805836   9.6187520  -1.3150904
 -26.5447640  11.2654662  -1.6107182 -28.6130548  10.9178448  -2.1221988
 -28.6714196  11.7753839  -2.7957588 -29.2213488  10.1201332  -2.5535896
 -29.1945744  11.3095224  -0.7543373 -30.2308917  11.6360044  -0.8635187
 -28.6196566  12.1268368  -0.3139604 -29.1721821  10.4587483  -0.0701253
   9.1257143  18.3983660  -1.3910665   8.7418222  18.7587631  -0.4344031
   9.9731481  19.0235126  -1.6800494   9.4780284  17.3731327  -1.2597775
   8.0252576  18.4566557  -2.4637179   7.6701373  19.4855213  -2.5519574
   7.1776909  17.8459620  -2.1456788   8.5261208  17.9639316  -3.8334638
   8.7973869  16.9090426  -3.7554339   9.4298309  18.5174465  -4.0968907
   7.4765468  18.1445932  -4.9486518   7.3083097  19.2112601  -5.1110721
   6.5275264  17.7171373  -4.6183386   7.8754050  17.4715710  -6.2791926
   7.0823896  17.6271701  -7.0136166   7.9362136  16.3943255  -6.1109418
   9.2193663  17.9481590  -6.8683422   9.4780028  17.3118627  -7.7172810
  10.0073862  17.7932441  -6.1284167   9.2461455  19.4216144  -7.3227429
  10.2747786  19.6843493  -7.5783736   8.9552540  20.0661135  -6.4905965
   8.3562720  19.7398889  -8.5383612   8.4698832  20.7997608  -8.7754852
   7.3073196  19.5766318  -8.2824165   8.7059009  18.9095592  -9.7872829
   8.4114939  17.8693628  -9.6330774   9.7860736  18.9294744  -9.9463272
   8.0056894  19.4563174 -11.0416138   8.3392501  20.4843092 -11.1979151
   6.9256842  19.4751942 -10.8813071   8.3257735  18.6216581 -12.2920299
   7.9746425  17.6032841 -12.1129084   9.4079357  18.5691607 -12.4285316
   7.6626748  19.1479564 -13.5813415   6.5824771  19.1888046 -13.4265220
   7.8380507  18.4311175 -14.3862319   8.1489128  20.5367565 -14.0432310
   7.9806817  21.2714720 -13.2530701   7.5329822  20.8383942 -14.8930001
   9.6240282  20.5705762 -14.4886255   9.7359782  19.9285090 -15.3647995
  10.2682710  20.1656604 -13.7053895  10.0975192  21.9991207 -14.8309159
  10.2770627  22.5663733 -13.9152479   9.3304735  22.5199103 -15.4078758
  11.3581431  21.9698596 -15.6511784  11.3771760  22.3452640 -16.8080103
  12.4120462  21.4555264 -14.9935162  13.5531902  20.9146643 -15.7437909
  14.3647242  20.7186460 -15.0383556  13.9136302  21.6481280 -16.4695764
  13.2007217  19.5706463 -16.4503133  14.1315556  19.0742302 -16.7362690
  12.3395514  19.8235726 -17.7046740  12.7003503  20.7333064 -18.1913519
  11.3016367  19.9708319 -17.3953259  12.3896444  18.7652934 -18.6875200
  11.1298013  17.8271592 -18.9574122   9.9597806  18.8782597 -19.2352045
   9.8531222  19.5505023 -20.4904485   9.8085290  18.8025510 -21.2862062
  10.7301295  20.1851201 -20.6413293   8.5507804  20.3804684 -20.4809761
   7.7103037  19.7048366 -20.3154445   8.4275335  20.8507681 -21.4576602
   8.3982438  21.4897275 -19.4643688   9.5760572  22.4059963 -19.4460905
  10.4404354  21.8680739 -19.0539539   9.3354321  23.2396793 -18.7847626
   9.7525972  22.7863884 -20.4532719   7.1946895  22.2923303 -19.8269975
   6.3105649  21.6535521 -19.8031723   7.3422211  22.7338767 -20.8136845
   7.0952600  23.0959773 -19.0958726   8.1898612  20.9608102 -18.0847681
   7.3053521  20.3221226 -18.0828381   8.0530560  21.8137217 -17.4183559
   9.0712017  20.3842187 -17.8000534  11.4248288  17.1129131 -20.2145815
  10.8095670  17.0887637 -17.7311134  12.4302816  18.7822545 -15.5019057
  12.7447808  17.4937642 -15.2980065  13.6165714  16.8829381 -15.8827698
  11.9674933  16.8866777 -14.1603279  12.5541055  16.0612190 -13.7517142
  11.8558574  17.6337671 -13.3717477  10.5796099  16.3763011 -14.5909810
   9.9604315  17.2186148 -14.9065590  10.6786609  15.6972337 -15.4404044
   9.9095827  15.6335092 -13.4217095  10.5050826  14.7497559 -13.1833303
   9.9271584  16.2886298 -12.5482285   8.4587222  15.1974142 -13.6945021
   7.8043163  16.0716057 -13.6970007   8.4019923  14.7739065 -14.6994328
   7.9166502  14.1479802 -12.6962328   6.9270390  13.8535476 -13.0518210
   8.5376209  13.2507300 -12.7386725   7.7665061  14.5915246 -11.2217283
   7.3284709  15.5910981 -11.1837602   7.0476854  13.9188778 -10.7491744
   9.0597528  14.5544648 -10.3775895   9.5208895  13.5684133 -10.4643083
   9.7711188  15.2921283 -10.7547784   8.7656879  14.8814106  -8.9287186
   7.8739738  15.4798901  -8.7606776   9.4588763  14.4424760  -7.8825533
   9.1310668  14.7078586  -6.8807143  10.7469833  13.6459422  -7.9442871
  10.5219293  12.5979066  -7.7358788  11.1989129  13.6938775  -8.9372247
  11.7671359  14.1301012  -6.8934309  11.3005757  14.1091752  -5.9063405
  12.5994098  13.4236455  -6.8669015  12.3241162  15.5432558  -7.1657127
  12.7887666  15.5611420  -8.1537640  11.5032911  16.2634075  -7.1751261
  13.3652234  15.9591043  -6.1066216  12.9032493  15.9602058  -5.1171553
  14.1513395  15.2015269  -6.0829210  14.0284717  17.3257542  -6.3795257
  14.8639655  17.4496222  -5.6873751  14.4544470  17.3164940  -7.3849726
  13.0952597  18.5474586  -6.2428021  13.6568892  19.4409704  -6.5232879
  12.2662079  18.4602821  -6.9481665  12.5461578  18.7347651  -4.8139459
  11.8756151  17.9095876  -4.5651114  13.3761334  18.7059152  -4.1048819
  11.7918706  20.0636935  -4.6352986  10.9544802  20.1313424  -5.3329116
  12.4543548  20.9136152  -4.8119617  11.3956273  20.1366043  -3.6203414
 -38.9345336  13.2779372  -4.3248972 -39.1685677  13.6352503  -3.3199003
 -38.9163733  14.1330624  -5.0037897 -37.9417515  12.8235424  -4.3056068
 -39.9825859  12.2542930  -4.7825736 -40.9699678  12.7204442  -4.7669625
 -39.9973774  11.4267492  -4.0702426 -39.6943045  11.7083597  -6.1914033
 -38.6657310  11.3426113  -6.2183785 -39.7728848  12.5223053  -6.9151300
 -40.6578445  10.5720615  -6.5899062 -41.6861343  10.9332943  -6.5220982
 -40.5581331   9.7520620  -5.8756781 -40.4237604  10.0301516  -8.0145234
 -40.6558895  10.8121574  -8.7405056 -41.1240482   9.2114633  -8.1928915
 -38.9875650   9.5244730  -8.2517809 -38.7313652   8.7962586  -7.4794281
 -38.2836461  10.3548801  -8.1658536 -38.8177705   8.8786727  -9.6376824
 -39.0313768   9.6193963 -10.4110920 -39.5459485   8.0737114  -9.7570765
 -37.3956990   8.3285177  -9.8337865 -37.1509433   7.6688623  -8.9986730
 -36.6926861   9.1636682  -9.8062187 -37.2188425   7.5444669 -11.1483634
 -37.5369120   8.1499499 -11.9996476 -37.8709865   6.6690505 -11.1197519
 -35.7644939   7.0674199 -11.3423204 -35.7879376   6.0559773 -11.7532921
 -35.2671456   6.9955182 -10.3728151 -34.9170136   7.9377568 -12.2904181
 -35.2560759   7.7531624 -13.3118987 -33.8804197   7.5977165 -12.2423661
 -34.9551725   9.4509637 -12.0012069 -34.7870636   9.6132195 -10.9344947
 -35.9445357   9.8485547 -12.2368860 -33.8838863  10.2460957 -12.7723825
 -32.8995252   9.9485701 -12.4049890 -33.9977217  11.3058865 -12.5350058
 -33.8963246  10.0755537 -14.3049109 -33.6843061   9.0375137 -14.5694613
 -33.0629587  10.6580865 -14.7031772 -35.1922059  10.5562115 -14.9979639
 -34.9350429  10.9117687 -15.9979165 -35.6333041  11.3933742 -14.4529366
 -36.2081409   9.4592768 -15.1879036 -35.9150290   8.3636749 -15.6225395
 -37.4608850   9.8183870 -14.8483038 -38.5131335   8.8149905 -15.0251031
 -38.5672808   8.1941199 -14.1271973 -38.2758212   8.1698239 -15.8748627
 -39.9035954   9.4334078 -15.3321493 -40.6614590   8.6590856 -15.1882052
 -40.0119066   9.9145430 -16.7968631 -40.9269333  10.4945171 -16.9417906
 -40.0607252   9.0330243 -17.4412167 -38.8533139  10.7023323 -17.1832430
 -38.5649514  11.0675490 -18.7065208 -39.2625213  12.5039089 -18.8631642
 -38.5066772  13.7330008 -18.7626755 -38.4909272  14.2116797 -19.7451556
 -37.4699879  13.5325742 -18.4802759 -39.1305971  14.6943796 -17.7295077
 -40.1161289  15.0065565 -18.0781448 -38.4861875  15.5731463 -17.6766908
 -39.2972755  14.2316449 -16.3015151 -39.4928551  15.4309320 -15.4368269
 -38.5923004  16.0407412 -15.5229712 -39.6266747  15.1036179 -14.4047236
 -40.3605604  15.9885991 -15.7923186 -40.4900742  13.3471179 -16.1691642
 -40.3522301  12.5113308 -16.8567252 -41.3834906  13.9130974 -16.4370394
 -40.5419731  12.9767299 -15.1442742 -38.0982256  13.5084307 -15.7916427
 -37.9370070  12.6245224 -16.4105082 -38.2803249  13.2161283 -14.7564244
 -37.2520018  14.1943228 -15.8527982 -37.1025467  11.2128973 -18.8446331
 -39.2536926  10.0834060 -19.5575535 -40.2012253  10.5404913 -14.4382274
 -40.3644514  10.2357435 -13.1364310 -40.4230213   9.1090703 -12.6927638
 -40.4276800  11.4704466 -12.2838390 -41.0779524  12.2044337 -12.7643299
 -40.8640146  11.2087977 -11.3176012 -39.0099430  12.0471537 -12.1075654
 -38.3776307  11.3225901 -11.5902150 -38.5624766  12.2017896 -13.0916011
 -38.9762974  13.3788538 -11.3433766 -37.9447222  13.7370622 -11.3445139
 -39.5776629  14.1192591 -11.8750012 -39.4835901  13.2493269  -9.8935598
 -40.5309820  12.9405355  -9.9028456 -38.9181232  12.4707758  -9.3772560
 -39.3794775  14.5610666  -9.0981758 -39.9230409  15.3445315  -9.6303272
 -39.8760605  14.4259119  -8.1350541 -37.9246044  15.0153255  -8.8613510
 -37.3818159  14.2536354  -8.2977265 -37.4147558  15.1389205  -9.8190790
 -37.8552365  16.3556194  -8.1174916 -36.8406057  16.7538309  -8.1839466
 -38.5158944  17.0546460  -8.6345559 -38.3068347  16.2264466  -6.6807044
 -39.3074727  15.8254325  -6.5411311 -37.5936127  16.5552008  -5.6100577
 -38.0241299  16.4274251  -4.6201593 -36.1777425  17.0900214  -5.6184888
 -36.0752869  17.8750706  -6.3705951 -35.9656978  17.5694561  -4.6605524
 -35.1414824  15.9785092  -5.8965874 -35.1896000  15.7508957  -6.9635177
 -34.1382670  16.3689935  -5.7134360 -35.3186989  14.6402299  -5.1398361
 -36.3346434  14.2657602  -5.2815872 -34.6679401  13.9088511  -5.6236339
 -34.9742532  14.6309006  -3.6357409 -34.9362540  13.5877931  -3.3148870
 -33.9743590  15.0437641  -3.4866798 -35.9814692  15.3668380  -2.7319947
 -35.9142780  16.4439118  -2.8989124 -36.9955301  15.0519276  -2.9868990
 -35.7328773  15.0893211  -1.2396568 -35.8096337  14.0160584  -1.0534348
 -34.7191286  15.3988874  -0.9770798 -36.7413068  15.8332908  -0.3458342
 -36.6561604  16.9085908  -0.5159642 -37.7573061  15.5369723  -0.6149147
 -36.5097928  15.5377400   1.1427081 -37.2296810  16.0910201   1.7494242
 -35.5021000  15.8350408   1.4404225 -36.6342735  14.4716740   1.3438801
 -16.4934790 -17.0833123  -3.6843190 -15.4678619 -17.1279263  -3.3120543
 -16.7242205 -18.0335569  -4.1703820 -17.1659350 -16.9559085  -2.8334159
 -16.6504288 -15.9179676  -4.6767718 -15.9511971 -16.0580349  -5.5037659
 -16.3847530 -14.9853361  -4.1746977 -18.0848706 -15.8210647  -5.2306372
 -18.7805247 -15.6511533  -4.4062239 -18.3581293 -16.7785454  -5.6789941
 -18.2694995 -14.7154057  -6.2895536 -19.2658603 -14.8251855  -6.7227703
 -17.5513077 -14.8553836  -7.1001524 -18.1326306 -13.2926786  -5.7128316
 -17.0981956 -13.1057978  -5.4170567 -18.7465715 -13.2202053  -4.8126724
 -18.5878170 -12.2089648  -6.7096835 -19.5564699 -12.4929047  -7.1262813
 -17.8819680 -12.1538365  -7.5410700 -18.7179255 -10.8299208  -6.0321379
 -17.7241600 -10.4403865  -5.8015800 -19.2432880 -10.9511423  -5.0825256
 -19.4989014  -9.8022997  -6.8735838 -19.6369374  -8.8982183  -6.2768877
 -20.4935408 -10.2005947  -7.0845819 -18.8151062  -9.4228274  -8.2004356
 -18.6722767 -10.3208411  -8.8051128 -17.8304827  -8.9980346  -7.9942071
 -19.6630526  -8.4034622  -8.9856666 -19.8711193  -7.5410205  -8.3489829
 -20.6224537  -8.8642526  -9.2299658 -19.0161991  -7.9059213 -10.2907884
 -18.0923498  -7.3706585 -10.0617433 -19.6955490  -7.1931535 -10.7629204
 -18.7215793  -9.0354741 -11.2912226 -19.6237302  -9.6351957 -11.4287746
 -17.9464865  -9.6858656 -10.8805084 -18.2714784  -8.4813619 -12.6553690
 -17.3837471  -7.8594542 -12.5226009 -19.0612280  -7.8373504 -13.0478084
 -17.9749238  -9.5788193 -13.6933291 -17.7360070  -9.1001076 -14.6452832
 -18.8747060 -10.1780283 -13.8476098 -16.8095362 -10.5017269 -13.2911408
 -17.0592117 -11.0505366 -12.3806834 -15.9145236  -9.9082601 -13.0931187
 -16.4964080 -11.4925802 -14.3812084 -15.7990825 -11.2303102 -15.3444958
 -17.0095360 -12.7132952 -14.1271091 -16.8492162 -13.7613392 -15.1227999
 -16.8499207 -14.7144151 -14.5877337 -15.8823454 -13.6651874 -15.6233644
 -17.9942012 -13.8162434 -16.1728072 -17.7445066 -14.6333599 -16.8544388
 -18.1580544 -12.5219214 -17.0111787 -18.7876487 -12.7473903 -17.8757155
 -17.1850073 -12.1897268 -17.3819554 -18.7751818 -11.4346170 -16.2670636
 -19.7403777 -10.3935671 -17.0082176 -18.8133788  -9.9605989 -18.2257164
 -17.6048839  -9.2290801 -17.9717731 -16.9565213  -9.8243886 -17.3237884
 -17.8375256  -8.2852334 -17.4720919 -16.9218385  -9.0006453 -19.3303049
 -16.9465494  -9.9416804 -19.8817778 -15.8738911  -8.7337101 -19.1859651
 -17.5062513  -7.9583430 -20.2468014 -17.1862650  -6.5932214 -19.7441852
 -17.6145768  -6.4885938 -18.7462461 -17.6785624  -5.8702034 -20.3962374
 -16.1033273  -6.4610571 -19.7365189 -16.8901479  -8.1094921 -21.5937281
 -15.8092225  -8.0078828 -21.4862227 -17.2954702  -7.3364645 -22.2482681
 -17.1291494  -9.1073495 -21.9644570 -18.9853895  -8.0887604 -20.3938103
 -19.2266178  -9.0819681 -20.7754207 -19.3521452  -7.2909057 -21.0412669
 -19.4352007  -7.9512542 -19.4094086 -20.8989143 -11.1375391 -17.5402486
 -19.9361217  -9.1916472 -16.1772537 -19.2467761 -14.1386318 -15.5139589
 -20.2844167 -14.5161152 -16.2831974 -20.1541567 -14.8193181 -17.4551105
 -21.6205478 -14.6133983 -15.5734074 -22.3537850 -14.0277469 -16.1318314
 -21.9413304 -15.6567228 -15.6055713 -21.6067863 -14.1418195 -14.1040850
 -22.5440097 -14.4385231 -13.6286497 -20.8072686 -14.6589625 -13.5694849
 -21.4367127 -12.6180351 -13.9464319 -20.7596183 -12.2315848 -14.7110629
 -22.4006176 -12.1292830 -14.1028833 -20.8678746 -12.2319221 -12.5701725
 -19.8494744 -12.6157331 -12.4806345 -20.8023548 -11.1431181 -12.5184488
 -21.7128253 -12.7599239 -11.3958132 -22.7626085 -12.5082612 -11.5603995
 -21.6418719 -13.8490462 -11.3605607 -21.2597156 -12.1693885 -10.0468314
 -20.2052522 -12.3975563  -9.8779887 -21.3532543 -11.0822380 -10.0894499
 -22.0937705 -12.6912534  -8.8630050 -21.8408585 -12.1045721  -7.9773962
 -23.1523752 -12.5352359  -9.0808934 -21.8337560 -14.1576314  -8.5908800
 -21.3531089 -14.7078049  -9.3957764 -22.0687532 -14.7681594  -7.4348164
 -21.8040752 -15.8165812  -7.3237926 -22.7874327 -14.1541946  -6.2525827
 -23.4530997 -13.3520627  -6.5780604 -23.4098816 -14.9141133  -5.7755673
 -21.7846847 -13.6090028  -5.2265298 -21.0781884 -14.4026184  -4.9745336
 -21.2211561 -12.7909851  -5.6801206 -22.4706364 -13.0967188  -3.9482984
 -23.2221365 -12.3516655  -4.2177582 -22.9957247 -13.9273429  -3.4720522
 -21.4795280 -12.4604416  -2.9530680 -20.9213281 -11.6744018  -3.4659207
 -22.0407414 -11.9800138  -2.1488951 -20.4926491 -13.4734952  -2.3385614
 -21.0399795 -14.1813922  -1.7126426 -20.0078940 -14.0487444  -3.1301194
 -19.4006848 -12.7823460  -1.5037362 -18.8944864 -12.0390010  -2.1231441
 -19.8632860 -12.2555757  -0.6664923 -18.3610535 -13.7859166  -0.9720970
 -18.8512850 -14.4949710  -0.3017406 -17.9450512 -14.3550932  -1.8060297
 -17.2140098 -13.0913126  -0.2212088 -16.5005302 -13.8324153   0.1450922
 -17.6000071 -12.5288308   0.6314837 -16.6863072 -12.4014688  -0.8831080
 -17.0756710  18.8363481  -0.6489366 -16.7285693  18.6207676   0.3637373
 -16.5710747  18.1532705  -1.3354145 -18.1498563  18.6445785  -0.6915402
 -16.7607963  20.2969098  -1.0129921 -15.6924891  20.4685450  -0.8655969
 -17.2939754  20.9708357  -0.3391894 -17.1038187  20.6343889  -2.4733166
 -16.6560340  19.8802030  -3.1238195 -16.6466963  21.5936637  -2.7249056
 -18.6173332  20.7098269  -2.7472946 -19.0358222  21.5867853  -2.2490251
 -19.1144490  19.8331666  -2.3268095 -18.9512849  20.7672596  -4.2467007
 -20.0271177  20.9208703  -4.3537235 -18.7182415  19.7966397  -4.6894777
 -18.2013917  21.8585253  -5.0354189 -17.1267784  21.6662073  -5.0092530
 -18.3778393  22.8354025  -4.5804024 -18.6715996  21.8769979  -6.4984268
 -19.7202623  22.1805596  -6.5233207 -18.6109805  20.8644986  -6.9029492
 -17.8523660  22.8235459  -7.3894155 -16.8368542  22.4343967  -7.4882257
 -17.7813768  23.7986827  -6.9030702 -18.4684384  23.0204415  -8.7881124
 -17.7994394  23.6478806  -9.3807518 -19.4072831  23.5678530  -8.6814648
 -18.7555850  21.7237520  -9.5651400 -19.2139840  21.9823933 -10.5219257
 -19.4953609  21.1429596  -9.0102732 -17.5237191  20.8339381  -9.8131794
 -17.8552866  19.9079669 -10.2876294 -17.0828032  20.5510998  -8.8550258
 -16.4390779  21.4851046 -10.6920946 -15.5574417  20.8409333 -10.6771159
 -16.1322141  22.4386525 -10.2573049 -16.8788469  21.6874266 -12.1563792
 -17.6424611  22.4660563 -12.2120059 -17.3301888  20.7637382 -12.5245547
 -15.6935513  22.0574689 -13.0682588 -14.8953545  21.3251090 -12.9304302
 -15.2984738  23.0329466 -12.7770221 -16.0912633  22.0862651 -14.5556629
 -16.8483341  22.8540206 -14.7284544 -16.5266550  21.1285782 -14.8484635
 -14.9011683  22.3605561 -15.4380512 -14.6348333  23.4651232 -15.8807802
 -14.1462708  21.2628055 -15.6649685 -13.1834006  21.2835598 -16.7625797
 -12.3638594  20.6089664 -16.5019560 -12.7596533  22.2839975 -16.8817723
 -13.7953961  20.7923865 -18.1077492 -13.0068052  20.8028030 -18.8644969
 -14.9553394  21.7057323 -18.5876107 -15.1255679  21.5431762 -19.6549654
 -14.6992350  22.7594471 -18.4507084 -16.1752474  21.4166451 -17.8620625
 -17.5996625  21.8453813 -18.4222031 -18.0734098  20.6014395 -19.3017542
 -17.7961564  20.5213475 -20.7114291 -17.9532230  19.4874108 -21.0291624
 -16.7512667  20.7818627 -20.8984756 -18.7351573  21.4665341 -21.5034056
 -18.6041892  21.2777543 -22.5699377 -18.4405696  22.4966288 -21.2974763
 -20.2193046  21.4028668 -21.2283230 -20.6702757  20.0179267 -20.8993554
 -20.3578591  19.3344998 -21.6903043 -21.7574024  20.0245786 -20.8077550
 -20.2298331  19.7419989 -19.9401057 -20.5765033  22.3268986 -20.1145291
 -20.2727199  23.3428931 -20.3709507 -20.0445223  22.0027876 -19.2188549
 -21.6535544  22.2698641 -19.9502563 -20.9833264  21.8616581 -22.4220848
 -20.6924939  22.8897595 -22.6427817 -22.0420623  21.8157768 -22.1627522
 -20.7644200  21.1980462 -23.2599258 -18.5395265  21.9753003 -17.2976315
 -17.4005365  22.9904318 -19.3308175 -14.2383146  19.4156539 -17.9297888
 -14.7583270  18.7431931 -18.9753139 -14.8001182  19.1754878 -20.1102328
 -15.2674711  17.3584604 -18.6292994 -16.0658765  17.1039140 -19.3294549
 -14.4510281  16.6518629 -18.7924087 -15.7871461  17.1885848 -17.1825945
 -16.1275864  16.1585236 -17.0579422 -14.9562073  17.3323154 -16.4888048
 -16.9342554  18.1409621 -16.7935276 -16.5801954  19.1734421 -16.8265021
 -17.7445412  18.0525291 -17.5202179 -17.4947059  17.8699684 -15.3860080
 -18.2712412  18.6113834 -15.1866138 -17.9673839  16.8856692 -15.3720462
 -16.4574373  17.9527295 -14.2505097 -15.6734657  17.2078896 -14.4023776
 -15.9854770  18.9374220 -14.2604148 -17.1232986  17.7128339 -12.8826261
 -17.9673874  18.3974409 -12.7763653 -17.5279117  16.6992784 -12.8444374
 -16.1761665  17.9290175 -11.6906619 -15.8358574  18.9665782 -11.7015278
 -16.7525518  17.7784801 -10.7754660 -14.9951243  16.9812059 -11.6864872
 -15.2083731  15.9715199 -12.0279944 -13.7653720  17.2882533 -11.2859023
 -12.9912853  16.5253258 -11.3032365 -13.3127034  18.6484098 -10.7983685
 -12.2228146  18.6998987 -10.8425903 -13.6905944  19.4322681 -11.4580870
 -13.7766194  18.9084387  -9.3520397 -14.8668838  18.8623273  -9.3112862
 -13.3919799  18.1165338  -8.7059724 -13.3102226  20.2790761  -8.8252717
 -12.2225583  20.2708721  -8.7284082 -13.5587335  21.0502052  -9.5574355
 -13.9461505  20.6665778  -7.4747348 -13.5993040  21.6652822  -7.2013366
 -15.0300479  20.7271862  -7.5928736 -13.6155272  19.6905422  -6.3288820
 -14.0232706  18.7047827  -6.5623075 -12.5315714  19.5880675  -6.2451941
 -14.1901040  20.1744509  -4.9828303 -13.8392913  21.1907840  -4.7918791
 -15.2787566  20.2202058  -5.0549757 -13.7964439  19.2871821  -3.7840852
 -12.7081120  19.2364979  -3.7104118 -14.1568398  19.7579825  -2.8670654
 -14.3616652  17.8581119  -3.8602167 -14.1050160  17.3045146  -2.9546097
 -13.9483595  17.3211002  -4.7165227 -15.4494417  17.8799736  -3.9536506
   2.3966919  23.3746457  -2.3386277   3.4843817  23.3026409  -2.2737478
   1.9681853  22.5198126  -1.8112686   2.0759211  24.2928553  -1.8421796
   1.9563250  23.3709145  -3.8103268   2.3316398  22.4630499  -4.2871770
   2.4021621  24.2227221  -4.3281263   0.4246416  23.4257960  -3.9468253
   0.0568538  24.3802071  -3.5643438  -0.0148597  22.6350451  -3.3352557
  -0.0327088  23.2367086  -5.4026258   0.4005374  22.3074412  -5.7784218
   0.3526562  24.0547943  -6.0147482  -1.5684804  23.1880784  -5.5241466
  -1.9755384  24.1591382  -5.2346468  -1.9619167  22.4520040  -4.8199689
  -2.0700793  22.8365755  -6.9397056  -1.7180783  23.5883975  -7.6491582
  -3.1612638  22.8786445  -6.9428706  -1.6179959  21.4380717  -7.4049264
  -1.8431972  20.7068896  -6.6257471  -0.5348693  21.4505124  -7.5432920
  -2.2952354  20.9945464  -8.7166321  -2.1099846  21.7415094  -9.4913548
  -3.3753946  20.9521556  -8.5619628  -1.8149702  19.6167636  -9.2177308
  -2.3711251  19.3636501 -10.1227665  -2.0464560  18.8542724  -8.4710807
  -0.3063777  19.5903087  -9.5289290   0.2610671  19.7282660  -8.6061954
  -0.0666619  20.4297614 -10.1849163   0.1606261  18.2872391 -10.2013671
  -0.4461579  18.1023359 -11.0902357   0.0130470  17.4465859  -9.5202023
   1.6496384  18.3937836 -10.5848610   2.2322741  18.5225391  -9.6703011
   1.8061988  19.2958319 -11.1800611   2.2148065  17.1800292 -11.3477111
   2.1353863  16.2940109 -10.7143641   3.2804132  17.3520207 -11.5131366
   1.5564853  16.8747652 -12.7102494   0.5562136  16.4672506 -12.5494611
   2.1371201  16.0796833 -13.1826603   1.4893079  18.0720115 -13.6890006
   1.6953266  17.7219856 -14.7026587   2.2474132  18.8199425 -13.4474659
   0.1193723  18.7038386 -13.7021148  -0.8590031  18.1207108 -14.1372681
   0.0912737  19.9365151 -13.1602418  -1.2115303  20.5793309 -13.0829597
  -1.7766701  20.1186872 -12.2686660  -1.7567611  20.4030776 -14.0137148
  -1.1684454  22.1143579 -12.8685582  -2.1998326  22.3882341 -12.6321685
  -0.7744285  22.9398942 -14.1187859  -0.5186348  23.9613342 -13.8257384
  -1.6552095  22.9999495 -14.7631967   0.3463998  22.3924017 -14.8617482
   0.1997730  21.9210505 -16.3878489   0.0753212  20.3396344 -16.2868536
   0.2554922  19.5499957 -17.4697542   1.2265931  19.0523744 -17.4066305
   0.2549827  20.1925635 -18.3539236  -0.8847519  18.5123754 -17.5598228
  -0.8556043  17.8902173 -16.6640818  -0.7207263  17.8815854 -18.4347391
  -2.3053092  19.0156519 -17.6562214  -3.2093483  17.9026914 -18.0601573
  -2.9395357  17.5664544 -19.0623677  -4.2269158  18.2960916 -18.0514157
  -3.1122375  17.0936990 -17.3346364  -2.7748644  19.5155847 -16.3384151
  -2.2503470  20.4511166 -16.1385584  -2.5429642  18.7752819 -15.5713058
  -3.8507682  19.6827972 -16.4073515  -2.4653217  20.1027250 -18.6634624
  -1.8743502  20.9588146 -18.3346021  -3.5228756  20.3702664 -18.6803329
  -2.1306670  19.7443295 -19.6380579  -1.1038581  22.3785877 -16.9176793
   1.4418067  22.2199202 -17.1180654  -0.3546937  22.5019312 -11.7270947
  -0.6828641  23.6605763 -11.1238241  -1.6397497  24.3454409 -11.4298332
   0.2559485  24.0402436 -10.0148022  -0.2706138  24.7209144  -9.3425792
   0.5222482  23.1447244  -9.4494730   1.5174741  24.7300673 -10.5725265
   2.1516688  23.9999366 -11.0796475   1.2226053  25.4614639 -11.3278902
   2.3174652  25.4696727  -9.4841182   3.2499397  25.8410287  -9.9142933
   1.7398123  26.3487124  -9.1907382   2.6293367  24.6744323  -8.1998825
   3.0141383  25.3900552  -7.4703097   1.7126471  24.2660618  -7.7693278
   3.6813018  23.5589242  -8.3394873   4.5175567  23.9226151  -8.9402133
   4.0619895  23.3729482  -7.3330313   3.1800088  22.2102833  -8.8993812
   2.3877361  21.8274331  -8.2527030   2.7499506  22.3475313  -9.8937029
   4.2990819  21.1552835  -9.0059674   3.8693598  20.2216911  -9.3750292
   5.0251245  21.4842892  -9.7523457   5.0064534  20.9553719  -7.6800543
   5.6133914  21.7966843  -7.3554188   4.9262294  19.8839307  -6.8997395
   5.4704833  19.8761725  -5.9588373   4.1580418  18.6155617  -7.2033530
   4.1974789  18.3862805  -8.2702821   4.6375301  17.7789271  -6.6909105
   2.6886550  18.7045693  -6.7487103   2.1665013  19.4440258  -7.3594660
   2.2110601  17.7391219  -6.9283754   2.5351089  19.0849364  -5.2632993
   3.2044804  18.4601736  -4.6682546   2.8385961  20.1243329  -5.1218230
   1.0894506  18.9007545  -4.7662240   0.4047274  19.4223070  -5.4382366
   0.8366253  17.8393936  -4.8115763   0.8548623  19.4117928  -3.3311141
   0.8382740  20.5036426  -3.3383518  -0.1365882  19.0820515  -3.0136868
   1.9182850  18.9445305  -2.3146830   2.1499996  17.8886342  -2.4691409
   2.8397498  19.5028937  -2.4924372   1.4921322  19.1558492  -0.8499864
   2.3740393  19.0816712  -0.2102977   1.0881411  20.1632237  -0.7297798
   0.4587284  18.1191480  -0.3756313   0.1580621  18.3286357   0.6530467
   0.8849145  17.1145391  -0.4155332  -0.4340581  18.1340373  -1.0042591
  18.1343019 -32.6200223  -1.5606074  17.4804783 -32.8515673  -0.7171825
  17.5343621 -32.6433206  -2.4727443  18.5266566 -31.6101241  -1.4241290
  19.2837191 -33.6403561  -1.6379564  18.8716805 -34.6324301  -1.8341152
  19.7783852 -33.6848283  -0.6654379  20.3381801 -33.3007693  -2.7109653
  21.1447668 -34.0342546  -2.6486671  20.7754970 -32.3260427  -2.4848494
  19.7860706 -33.2902312  -4.1515413  18.9897430 -32.5481081  -4.2386064
  19.3530715 -34.2663240  -4.3800557  20.8846521 -32.9660439  -5.1814204
  21.6741729 -33.7169814  -5.1092148  21.3275576 -31.9993472  -4.9328384
  20.3493738 -32.9326439  -6.6273463  19.5920026 -32.1514750  -6.7202389
  19.8531866 -33.8818479  -6.8401247  21.4590573 -32.7182412  -7.6794857
  21.0277772 -32.8284550  -8.6766392  22.1964788 -33.5164762  -7.5722760
  22.1950603 -31.3633394  -7.5874597  23.0172682 -31.3653350  -8.3060944
  22.6511574 -31.2660432  -6.6000521  21.3117647 -30.1270032  -7.8548110
  21.9056535 -29.2320776  -7.6576608  20.4732084 -30.1171541  -7.1553910
  20.7815886 -30.0606322  -9.3007278  20.1164746 -30.9052420  -9.4923544
  21.6239476 -30.1510549  -9.9897254  20.0348258 -28.7508440  -9.6168673
  19.8238838 -28.7348342 -10.6881797  20.6971955 -27.9071212  -9.4122767
  18.7247956 -28.5784888  -8.8159752  18.9811563 -28.4669375  -7.7603716
  18.1184494 -29.4826150  -8.9017802  17.8798020 -27.3551917  -9.2362571
  18.5412550 -26.5519071  -9.5674330  17.3561788 -26.9831848  -8.3531415
  16.8165946 -27.6298380 -10.3232706  16.3002014 -26.6915846 -10.5365407
  16.0694706 -28.3225155  -9.9302477  17.3913181 -28.1994486 -11.6368282
  17.7911174 -29.2012239 -11.4663219  18.2169187 -27.5726056 -11.9802129
  16.3790178 -28.2877588 -12.7530491  15.2551234 -27.8315735 -12.7089894
  16.8961489 -28.9200711 -13.8208318  16.0980213 -29.0366340 -15.0312042
  16.0898733 -28.0758619 -15.5522609  15.0716734 -29.3220973 -14.7867239
  16.7338908 -30.1374245 -15.9105098  17.8199792 -30.0251412 -15.8609438
  16.2857878 -30.0418019 -17.3861444  16.7353714 -30.8483648 -17.9709327
  16.6328597 -29.0915155 -17.7998447  14.8440886 -30.1005363 -17.5010192
  14.1075253 -29.8851180 -18.9078665  13.7903595 -31.3589644 -19.4196093
  14.3319750 -31.8500328 -20.6597233  14.2098534 -31.0805750 -21.4263177
  13.7688947 -32.7379513 -20.9583712  15.8267450 -32.1950078 -20.4793620
  16.3048184 -31.3636160 -19.9592483  16.2939394 -32.2929549 -21.4603877
  16.1643672 -33.4528661 -19.7219801  15.8356428 -34.6453166 -20.5519414
  14.7663152 -34.6312976 -20.7678652  16.0359871 -35.5483627 -19.9734521
  16.4188099 -34.6313071 -21.4738965  17.6269102 -33.4815478 -19.4291449
  17.8707898 -32.6378775 -18.7818241  18.1807399 -33.4175968 -20.3669405
  17.8558111 -34.4132161 -18.9096463  15.4247034 -33.5472941 -18.4325731
  15.6590307 -32.6709247 -17.8264832  15.6985438 -34.4787097 -17.9348218
  14.3573594 -33.5507631 -18.6585116  12.8415465 -29.1832376 -18.6626291
  15.0937283 -29.2891598 -19.8308432  16.3565528 -31.4197063 -15.3381872
  17.1035039 -32.4955630 -15.6187832  17.9541636 -32.5223970 -16.4847469
  16.7219293 -33.7007880 -14.7974288  15.6335545 -33.7613106 -14.7323263
  17.0731008 -34.5938540 -15.3185582  17.3287475 -33.6689067 -13.3784378
  17.2142649 -34.6624136 -12.9399157  18.4000230 -33.4658551 -13.4384787
  16.6518700 -32.6435184 -12.4452293  16.8437874 -31.6302228 -12.8042066
  15.5717027 -32.8015971 -12.4719572  17.1372366 -32.7591896 -10.9882474
  17.0266640 -33.7930965 -10.6546700  18.1979978 -32.5057578 -10.9332693
  16.3329875 -31.8409896 -10.0495446  16.4702213 -30.8007717 -10.3521609
  15.2720940 -32.0750976 -10.1598263  16.7435658 -32.0047450  -8.5719204
  16.6233552 -33.0496144  -8.2782191  17.8034723 -31.7633724  -8.4679925
  15.9309435 -31.1186814  -7.6059276  16.3556898 -31.2209010  -6.6051263
  16.0500896 -30.0736928  -7.8996414  14.4563258 -31.4782953  -7.6306957
  13.9845693 -31.3904572  -8.6060417  13.7237120 -31.9125104  -6.6096246
  12.6794934 -32.1571159  -6.7866755  14.1793466 -32.0645070  -5.1738936
  14.3912888 -33.1154346  -4.9662882  15.0922775 -31.4948487  -4.9881306
  13.0703998 -31.5881324  -4.2195660  12.8306711 -30.5485559  -4.4525349
  12.1667910 -32.1738648  -4.4008791  13.4427094 -31.6908669  -2.7280411
  12.5820029 -31.3700223  -2.1375267  13.6470687 -32.7303886  -2.4632838
  14.6623075 -30.8295441  -2.3596184  15.5680907 -31.2568831  -2.7948207
  14.5298946 -29.8371553  -2.7956176  14.8460162 -30.6907868  -0.8392785
  13.8875437 -30.4256272  -0.3881861  15.1564074 -31.6464925  -0.4117863
  15.8779633 -29.5999527  -0.5025608  16.8703544 -29.9114752  -0.8350954
  15.6245899 -28.6899161  -1.0503723  15.9103858 -29.2714334   0.9978833
  14.8939013 -29.1040635   1.3601130  16.3172650 -30.1237702   1.5459998
  16.7402804 -28.0097842   1.2781133  16.7527473 -27.7915382   2.3480088
  16.3123834 -27.1505094   0.7575255  17.7678573 -28.1451201   0.9342613
  -9.9832255 -18.0180931  -2.6544529  -9.9175644 -18.1872582  -1.5776353
 -11.0371101 -17.9365027  -2.9285625  -9.4867998 -17.0743740  -2.8898633
  -9.3176961 -19.1750801  -3.4158006  -9.8179150 -20.1085496  -3.1495672
  -8.2765973 -19.2518294  -3.0953544  -9.3602568 -18.9784360  -4.9429020
  -8.7149692 -18.1415319  -5.2179652 -10.3768098 -18.7100446  -5.2379429
  -8.9400619 -20.2349114  -5.7317340  -9.0404862 -20.0254512  -6.7987418
  -9.6385878 -21.0409617  -5.4976219  -7.4977612 -20.7041621  -5.4466617
  -7.3879731 -20.9468222  -4.3876410  -6.8093371 -19.8852456  -5.6655532
  -7.0888209 -21.9326067  -6.2833369  -6.0199982 -22.1102333  -6.1472088
  -7.2424185 -21.6956902  -7.3382026  -7.8579110 -23.2193828  -5.9054101
  -8.9337760 -23.0506253  -5.9860289  -7.6480597 -23.4589767  -4.8608905
  -7.4904650 -24.4383740  -6.7761439  -7.9702640 -25.3268719  -6.3604134
  -6.4117080 -24.6015477  -6.7300743  -7.9281551 -24.2750788  -8.2455307
  -7.4554753 -23.3780599  -8.6509830  -9.0088892 -24.1249037  -8.2893962
  -7.5467288 -25.4873371  -9.1177034  -8.0532336 -26.3762760  -8.7359929
  -6.4728254 -25.6593800  -9.0197480  -7.8880948 -25.3184175 -10.6146622
  -8.9651585 -25.1774645 -10.7265997  -7.6240462 -26.2373185 -11.1422658
  -7.1432924 -24.1342831 -11.2622905  -6.0695541 -24.2684317 -11.1154771
  -7.4337590 -23.2096553 -10.7591426  -7.4141204 -23.9544654 -12.7658546
  -8.4907615 -23.9300537 -12.9467201  -7.0005387 -24.8010111 -13.3179200
  -6.7807102 -22.6400995 -13.2627451  -5.7131070 -22.6496530 -13.0334067
  -7.2229236 -21.8032122 -12.7181959  -6.9615310 -22.4112439 -14.7745943
  -8.0216640 -22.4104452 -15.0364721  -6.4882153 -23.2329774 -15.3160667
  -6.3427293 -21.1148357 -15.2457857  -5.8558470 -20.2832747 -14.5029843
  -6.4383113 -20.9683275 -16.5796053  -5.5792809 -20.0087285 -17.2508812
  -5.4899663 -19.0964139 -16.6556025  -6.0663408 -19.7381198 -18.1911957
  -4.1735035 -20.5982423 -17.5960231  -3.6339331 -19.8581040 -18.1924367
  -4.2269173 -21.9185829 -18.4144902  -3.2323971 -22.1422887 -18.8088691
  -4.9048346 -21.7941356 -19.2627776  -4.6482012 -23.0521822 -17.6005697
  -5.6758678 -24.1573143 -18.1294310  -7.1044660 -23.5385489 -17.7900743
  -7.7921641 -22.6911759 -18.7203324  -7.0839047 -22.0128250 -19.2028868
  -8.5217440 -22.0945454 -18.1668031  -8.5014218 -23.5725641 -19.7688329
  -7.7398992 -24.0456033 -20.3906035  -9.1265517 -22.9394722 -20.4002500
  -9.3775731 -24.6886945 -19.2583871 -10.1902199 -24.2532635 -18.0827200
  -9.4960243 -24.0042186 -17.2787619 -10.8141553 -25.0951004 -17.7789152
 -10.8019841 -23.3946300 -18.3633804 -10.2985632 -25.1172447 -20.3492665
  -9.6974874 -25.4507446 -21.1964774 -10.9427691 -24.2792010 -20.6193781
 -10.8930433 -25.9460306 -19.9619794  -8.5578310 -25.8764720 -18.8707924
  -7.8900212 -26.1283517 -19.6959388  -9.2355198 -26.6997600 -18.6401045
  -7.9707718 -25.6228590 -17.9868674  -5.5883342 -24.2592955 -19.5980155
  -5.5449861 -25.3918457 -17.3362625  -3.3963716 -20.8719444 -16.4053822
  -2.9460210 -19.8453498 -15.6664145  -3.1599751 -18.6772764 -15.9154224
  -2.1309069 -20.3191423 -14.4958150  -1.3723360 -21.0091257 -14.8712564
  -1.6213264 -19.4712973 -14.0332687  -3.0169120 -21.0458302 -13.4721577
  -3.6395743 -20.3170776 -12.9490173  -3.6805171 -21.7396665 -13.9924324
  -2.1780242 -21.8529510 -12.4761891  -1.5769444 -22.5712729 -13.0375969
  -1.4795224 -21.1934566 -11.9569337  -3.0363631 -22.6173973 -11.4549923
  -3.7920144 -23.2154536 -11.9685912  -2.3707207 -23.3131933 -10.9399676
  -3.7041438 -21.6819191 -10.4268479  -2.9305750 -21.0371184 -10.0046110
  -4.4166130 -21.0264921 -10.9320867  -4.4292179 -22.3950243  -9.2652935
  -4.6301216 -21.6609931  -8.4821600  -5.4012775 -22.7450895  -9.6188694
  -3.6768210 -23.5912156  -8.6475635  -4.2481190 -23.9632344  -7.7945197
  -3.6488262 -24.3946981  -9.3865490  -2.2540712 -23.2384825  -8.2573318
  -1.7017868 -22.6709080  -9.0019196  -1.6479331 -23.5619164  -7.1218818
  -0.6162161 -23.2603741  -6.9600147  -2.2840978 -24.3188596  -5.9842622
  -3.0023924 -25.0510406  -6.3590002  -1.5202372 -24.8644376  -5.4262942
  -2.9919749 -23.3149385  -5.0686330  -2.2506134 -22.5878739  -4.7306651
  -3.7411985 -22.7726007  -5.6491464  -3.6719266 -23.9681983  -3.8546497
  -4.3393862 -24.7643471  -4.1909701  -2.9118237 -24.4279647  -3.2195726
  -4.4823709 -22.9475236  -3.0343547  -5.3789192 -22.6861382  -3.6003435
  -4.8010597 -23.4188414  -2.1022820  -3.6882496 -21.6613269  -2.7285936
  -2.6768371 -21.9450307  -2.4302319  -3.5986549 -21.0666800  -3.6400944
  -4.2646888 -20.7681704  -1.6169016  -4.2646214 -21.3320351  -0.6817433
  -3.5781014 -19.9303520  -1.4786282  -5.6733096 -20.1939011  -1.8690124
  -5.8050841 -19.3309486  -1.2129539  -5.7544053 -19.8267865  -2.8942513
  -6.8088144 -21.1865067  -1.5670066  -7.7528000 -20.6549978  -1.4296950
  -6.9414586 -21.9069004  -2.3768824  -6.5919262 -21.7404270  -0.6512583
   2.7282050 -42.2669983  -1.5074311   2.4343486 -42.9532194  -0.7104309
   2.9331660 -42.8571510  -2.4030721   1.8904951 -41.5969515  -1.7117429
   3.9720464 -41.4651346  -1.0850418   4.8150161 -42.1480608  -0.9606540
   3.7785542 -41.0125542  -0.1102613   4.3571830 -40.3474236  -2.0755343
   5.1994634 -39.7895503  -1.6610397   3.5216454 -39.6499634  -2.1643588
   4.7334838 -40.8511543  -3.4824669   3.8876545 -41.3877249  -3.9173570
   5.5651313 -41.5551233  -3.4099388   5.1220709 -39.6925211  -4.4198242
   6.0372353 -39.2268062  -4.0482756   4.3379354 -38.9327145  -4.4027272
   5.3341866 -40.1570749  -5.8732498   4.3904668 -40.5374718  -6.2696779
   6.0533476 -40.9786701  -5.8892351   5.8540672 -39.0117311  -6.7636710
   6.7957324 -38.6511731  -6.3444722   5.1521432 -38.1755543  -6.7396683
   6.0984027 -39.4355631  -8.2248235   6.6831231 -40.3576517  -8.2427526
   6.7046654 -38.6700201  -8.7135458   4.8018223 -39.6118426  -9.0384316
   4.2546955 -38.6668038  -9.0342969   4.1646692 -40.3635836  -8.5679156
   5.0965828 -40.0349188 -10.4912877   5.5812693 -41.0134220 -10.4831827
   5.8042097 -39.3357515 -10.9417260   3.8400501 -40.1262379 -11.3761008
   3.0627248 -40.6900263 -10.8561277   4.0911570 -40.6776524 -12.2845876
   3.3217877 -38.7325454 -11.7709053   4.1372502 -38.1812716 -12.2437513
   3.0319643 -38.1817627 -10.8736289   2.1385860 -38.7666202 -12.7521968
   2.4211411 -39.3579340 -13.6256814   1.9467770 -37.7526236 -13.1092489
   0.8411853 -39.3285465 -12.1371078   0.6443357 -38.8334656 -11.1838984
   0.9649799 -40.3939342 -11.9319594  -0.3731284 -39.1226149 -13.0631113
  -0.5755264 -38.0562067 -13.1825888  -1.2612568 -39.5776129 -12.6196396
  -0.1321282 -39.7342229 -14.4181478  -0.0478520 -40.9371853 -14.6077156
   0.0839520 -38.8182664 -15.3790689   0.5014767 -39.3380570 -16.6669071
  -0.1611760 -40.1660490 -16.9314253   1.5240693 -39.7159743 -16.5885997
   0.4279478 -38.2536292 -17.7614319  -0.6017361 -37.8958607 -17.8414369
   0.8923855 -38.8072014 -19.1305923   1.9835842 -38.8692331 -19.1398704
   0.5683197 -38.1380630 -19.9317694   0.3575040 -40.1407576 -19.3715239
  -1.1997899 -40.3503370 -19.6950698  -1.3422374 -41.9332600 -19.8719203
  -2.3875363 -42.6424646 -19.1752672  -2.5788450 -43.5803699 -19.7028840
  -3.3033374 -42.0465946 -19.2052376  -1.9869545 -42.9258680 -17.7046466
  -2.8006259 -43.4694862 -17.2222602  -1.8705496 -41.9740963 -17.1842039
  -0.7286789 -43.7212658 -17.4490130   0.4740610 -42.8479147 -17.5390160
   0.4852114 -42.3763609 -18.5227823   1.3674352 -43.4549952 -17.3853517
   0.3890662 -42.0916891 -16.7572343  -0.7551549 -44.2766380 -16.0676825
  -1.6436985 -44.8962116 -15.9376633  -0.7733673 -43.4402704 -15.3673720
   0.1404469 -44.8763657 -15.8988416  -0.5883402 -44.8580885 -18.4058309
  -1.4706045 -45.4935455 -18.3158946   0.3134153 -45.4175138 -18.1525326
  -0.5110536 -44.4393539 -19.4103050  -1.9182576 -39.9947333 -18.4631121
  -1.5261003 -39.6520376 -20.9433079   1.3213219 -37.1935987 -17.3449540
   0.8340274 -35.9444928 -17.2273445  -0.1439028 -35.5365658 -17.8310502
   1.6259101 -35.1093459 -16.2475467   1.3299847 -34.0626693 -16.3442969
   1.3509108 -35.4446316 -15.2453387   3.1547627 -35.2389359 -16.4366865
   3.4412366 -36.2926912 -16.4366221   3.4301868 -34.8314142 -17.4116373
   3.9825338 -34.5276928 -15.3492498   5.0383824 -34.6633291 -15.5926621
   3.7740287 -33.4560537 -15.3733528   3.7406549 -35.0561047 -13.9245594
   2.7280015 -34.7844863 -13.6192393   3.8166836 -36.1454535 -13.9258993
   4.7526059 -34.4777989 -12.9159045   5.7594627 -34.6544671 -13.2999492
   4.6231157 -33.3952475 -12.8543937   4.6812871 -35.0821853 -11.4968741
   4.8357773 -36.1621571 -11.5443909   5.5205059 -34.6751976 -10.9289515
   3.3935094 -34.7744274 -10.7074368   3.6051026 -34.9499297  -9.6506059
   3.1557691 -33.7164688 -10.8365273   2.2058430 -35.6135416 -11.1296964
   2.2688726 -36.0431433 -12.1262085   1.1455190 -35.8970785 -10.3811479
   0.3612623 -36.5282249 -10.7912278   0.8694217 -35.3407764  -9.0027559
   1.7343619 -34.8029828  -8.6089063   0.0531222 -34.6190119  -9.0747100
   0.4636758 -36.4290643  -7.9957014   0.0331689 -35.9200907  -7.1307898
  -0.3187118 -37.0599556  -8.4226769   1.6522637 -37.3057723  -7.5489676
   1.9962707 -37.9019451  -8.3967286   2.4815726 -36.6595078  -7.2539181
   1.3210921 -38.2463741  -6.3716966   0.5499728 -38.9559317  -6.6788888
   2.2163831 -38.8224649  -6.1287153   0.8519871 -37.4838161  -5.1148778
   1.5629438 -36.6819453  -4.9051017  -0.1182629 -37.0261621  -5.3189111
   0.7196142 -38.3636189  -3.8591740  -0.0182902 -39.1486812  -4.0370369
   1.6781460 -38.8485551  -3.6629182   0.3027193 -37.5696778  -2.6085028
   0.3972884 -38.2232046  -1.7387772   0.9895407 -36.7334533  -2.4619743
  -1.1398544 -37.0403767  -2.6649904  -1.3808665 -36.5244055  -1.7332448
  -1.8450591 -37.8637409  -2.7962232  -1.2705916 -36.3360643  -3.4891957
  27.0284700  29.1145825   1.3139443  26.7015839  28.0865502   1.4835292
  26.2984324  29.7917747   1.7621866  27.9887104  29.2535496   1.8150324
  27.1662712  29.3845415  -0.1923237  26.2068844  29.1902375  -0.6763570
  27.8881311  28.6803579  -0.6112588  27.6036334  30.8289385  -0.5019888
  28.5180449  31.0704732   0.0438835  26.8280292  31.5090609  -0.1437493
  27.8331757  31.0777378  -2.0043182  27.9012346  32.1537662  -2.1775076
  26.9626641  30.7242632  -2.5608489  29.1114879  30.4014778  -2.5397223
  29.0868878  29.3313956  -2.3234276  29.9730968  30.8143640  -2.0109347
  29.3227696  30.5944467  -4.0538013  30.3211880  30.2403378  -4.3188167
  29.2877007  31.6595578  -4.2920655  28.2882309  29.8503518  -4.9141675
  27.3073745  30.3121209  -4.7831967  28.2077575  28.8175654  -4.5687121
  28.6414337  29.8477101  -6.4122313  27.8970599  29.2369628  -6.9273585
  29.6119571  29.3689322  -6.5582383  28.6741495  31.2617064  -7.0268613
  29.4518661  31.8557453  -6.5423638  27.7197719  31.7534614  -6.8273479
  28.9339375  31.2712669  -8.5458195  29.9269557  30.8645248  -8.7481529
  28.9335728  32.3051381  -8.8973498  27.8846812  30.4651332  -9.3331987
  26.8869805  30.7309866  -8.9777017  28.0330110  29.4016385  -9.1345906
  27.9669976  30.7041287 -10.8526397  29.0128899  30.6564474 -11.1629629
  27.6002717  31.7043471 -11.0925102  27.1810389  29.6489501 -11.6517293
  27.5846481  28.6697292 -11.3858569  27.3849869  29.7918987 -12.7149487
  25.6562066  29.6278191 -11.4031029  25.4121995  30.1753640 -10.4903495
  25.3490257  28.5933065 -11.2361133  24.8218846  30.2038836 -12.5627792
  25.1813293  31.2038994 -12.8142345  23.7781811  30.2909398 -12.2536397
  24.8714495  29.3250847 -13.7866914  24.2427397  28.2943797 -13.8958538
  25.7076883  29.8019385 -14.7295070  25.8066654  29.1003537 -16.0067451
  25.8488297  28.0191565 -15.8522022  26.7390323  29.4209599 -16.4784980
  24.6330953  29.4539666 -16.9557106  23.6941695  29.0615296 -16.5568876
  24.8557329  28.8301992 -18.3571494  24.0106177  29.0789413 -19.0041101
  24.9018908  27.7413034 -18.2745242  26.0709310  29.3357754 -18.9729214
  27.3115659  28.3985305 -19.3384480  28.2352471  29.3956614 -20.1802206
  29.4340181  28.9352608 -20.8198786  29.7426820  29.6759629 -21.5619969
  29.2248750  27.9949236 -21.3362837  30.5424118  28.7393188 -19.7637308
  31.4247680  28.3018899 -20.2331853  30.1827240  28.0209970 -19.0255463
  31.0275936  29.9233770 -18.9667726  29.9628162  30.4736471 -18.0774248
  29.1858459  30.9185410 -18.7008572  30.3959155  31.2018466 -17.3900890
  29.5284009  29.6392846 -17.5247896  32.1513414  29.4739723 -18.0996883
  32.9122519  29.0014052 -18.7225664  31.7716670  28.7247896 -17.4033749
  32.5540471  30.3256917 -17.5495231  31.5303922  31.0032845 -19.8638129
  32.3176670  30.5828667 -20.4912901  31.9206834  31.8103456 -19.2420387
  30.6933618  31.3537717 -20.4694700  28.0485368  28.0574560 -18.1068718
  26.8953109  27.2946453 -20.2170944  24.5750666  30.9095216 -17.0886934
  23.8830972  31.6019487 -16.1668301  23.0261803  31.1154222 -15.4564738
  24.2730117  33.0653071 -16.1423826  25.2855754  33.1485605 -16.5426898
  23.6201215  33.6318374 -16.8096447  24.2616463  33.6843920 -14.7255981
  24.8324370  33.0342460 -14.0592873  24.7906208  34.6390128 -14.7622633
  22.8510380  33.9362097 -14.1453469  22.3040199  34.6100569 -14.8080456
  22.2889638  33.0005574 -14.1123426  22.8529096  34.5316005 -12.7227330
  23.2458997  35.5501437 -12.7470493  21.8149257  34.5977163 -12.3900461
  23.6655259  33.6956930 -11.7126226  23.5422182  32.6354027 -11.9429278
  24.7258615  33.9227271 -11.8414986  23.2823229  33.9346194 -10.2354503
  24.0102053  33.4218407  -9.6032238  23.3647156  35.0005579 -10.0130737
  21.8694997  33.4439635  -9.8460227  21.6944814  33.6758256  -8.7933731
  21.1283088  34.0070391 -10.4170251  21.6900301  31.9630313 -10.1268303
  21.9651961  31.6482759 -11.1302149  21.2247419  31.0406423  -9.2907029
  21.1518621  30.0146627  -9.6423101  20.7695317  31.2532759  -7.8620827
  21.2009454  32.1599555  -7.4328071  19.6831083  31.3630915  -7.8526205
  21.1430621  30.0421977  -6.9862258  20.8079505  29.1253304  -7.4756312
  22.2301221  29.9715304  -6.9102675  20.5098486  30.0953221  -5.5806941
  19.4277847  30.1986361  -5.6852221  20.6784558  29.1383576  -5.0824416
  21.0259628  31.2360573  -4.6787387  20.7342124  32.1986699  -5.1038551
  20.5268884  31.1584091  -3.7105659  22.5500417  31.2334323  -4.4434178
  23.0616856  31.5293074  -5.3616470  22.7872109  31.9858623  -3.6883909
  23.0864310  29.8643899  -3.9839810  22.5030494  29.5190907  -3.1278872
  22.9581571  29.1373444  -4.7886023  24.5722318  29.9128747  -3.5969511
  25.1285028  30.4416132  -4.3737802  24.6804070  30.4792571  -2.6696038
  25.1769543  28.5093236  -3.4175095  25.1741862  27.9708552  -4.3675131
  24.6051478  27.9270983  -2.6918948  26.2096882  28.5767365  -3.0691144
 -22.8853989 -29.1330051  -2.6683229 -23.0895543 -28.0604267  -2.6493350
 -22.0950222 -29.3469930  -1.9458435 -23.7892365 -29.6618176  -2.3586467
 -22.4570632 -29.5701170  -4.0791318 -21.5589428 -29.0141010  -4.3560538
 -23.2324624 -29.2996526  -4.7989032 -22.1541333 -31.0799122  -4.1646335
 -21.4567327 -31.3403535  -3.3657163 -21.6426921 -31.2911320  -5.1060563
 -23.3883429 -31.9952083  -4.0576944 -23.9229989 -31.7816401  -3.1297958
 -23.0400252 -33.0277133  -3.9865103 -24.3757391 -31.8921661  -5.2392340
 -24.7748828 -30.8778882  -5.3054541 -25.2273011 -32.5412750  -5.0248468
 -23.7794852 -32.3186135  -6.5982091 -24.5258641 -32.9133129  -7.1289760
 -22.9218793 -32.9727912  -6.4278299 -23.3825374 -31.1309195  -7.5013822
 -22.6242208 -30.5223894  -7.0042777 -24.2571902 -30.4936290  -7.6473498
 -22.8565216 -31.5621734  -8.8864726 -22.6964855 -30.6679678  -9.4924831
 -23.6207223 -32.1602058  -9.3872905 -21.5375519 -32.3579025  -8.8120902
 -21.6993403 -33.2819653  -8.2531649 -20.8010960 -31.7729950  -8.2571322
 -20.9411454 -32.7201390 -10.1869130 -20.0042796 -33.2544136 -10.0157535
 -20.6942487 -31.8068171 -10.7322109 -21.8672204 -33.5987282 -11.0523200
 -22.7051616 -33.0020261 -11.4187372 -22.2763610 -34.3985605 -10.4315627
 -21.1133051 -34.2269468 -12.2407663 -20.2928138 -34.8301625 -11.8465745
 -20.6704259 -33.4373665 -12.8514075 -22.0049548 -35.1178813 -13.1289291
 -22.7085161 -34.4933486 -13.6833882 -22.5888610 -35.7920432 -12.4988306
 -21.1629438 -35.9493732 -14.1161275 -20.4473567 -36.5441251 -13.5445786
 -20.5786633 -35.2784204 -14.7492969 -21.9848537 -36.9134641 -15.0015199
 -22.5581002 -37.5962353 -14.3709052 -21.2948084 -37.5182605 -15.5935729
 -22.9328418 -36.2270427 -15.9574902 -24.0560365 -36.6284347 -16.1762583
 -22.3945189 -35.1456285 -16.5604985 -23.1777096 -34.4394231 -17.5721431
 -23.4063864 -35.1305842 -18.3874059 -22.5478363 -33.6423445 -17.9753506
 -24.5087004 -33.8308954 -17.0394981 -25.2578664 -34.6251559 -16.9889927
 -25.0345325 -32.7243090 -18.0043066 -25.9035373 -32.2199297 -17.5740981
 -25.3608656 -33.2125092 -18.9261615 -24.0434408 -31.7218518 -18.3746600
 -23.4465408 -30.6574130 -17.3257661 -22.1857595 -31.4186788 -16.7514098
 -21.3719487 -30.8167195 -15.7463944 -21.9994926 -30.5875134 -14.8813498
 -20.9317636 -29.8931837 -16.1310613 -20.2948976 -31.8514585 -15.3638053
 -20.7998824 -32.7856684 -15.1137555 -19.7488415 -31.4980936 -14.4878852
 -19.2438400 -32.2055221 -16.3890612 -19.8140037 -32.7564883 -17.6515806
 -20.4212308 -33.6267877 -17.3983300 -18.9858067 -33.0289745 -18.3074176
 -20.4354596 -31.9850755 -18.1087434 -18.3904660 -31.0289383 -16.7178667
 -17.9134035 -30.6747746 -15.8028448 -19.0071583 -30.2558541 -17.1786356
 -17.6032901 -31.3644600 -17.3946702 -18.3727193 -33.2600713 -15.8145452
 -17.8689492 -32.8465080 -14.9396384 -17.6199114 -33.5169339 -16.5612626
 -18.9768636 -34.1319180 -15.5592573 -22.9782844 -29.4740963 -18.0594206
 -24.4216061 -30.4664230 -16.2380660 -24.3209863 -33.3098793 -15.6961775
 -25.4125190 -32.9233074 -15.0064635 -26.5542531 -32.9963231 -15.4292858
 -25.0580740 -32.4047637 -13.6329544 -24.2320704 -32.9947376 -13.2303238
 -24.6886253 -31.3829684 -13.7420642 -26.2467122 -32.4252939 -12.6484847
 -25.9201288 -31.9845939 -11.7042422 -27.0441937 -31.7871141 -13.0347693
 -26.8244767 -33.8293171 -12.3681962 -27.6280618 -33.7315202 -11.6352916
 -27.2822332 -34.2316604 -13.2743096 -25.7791042 -34.8337364 -11.8477261
 -25.0953698 -35.1022410 -12.6557338 -25.1918411 -34.3634844 -11.0562408
 -26.4516234 -36.1067533 -11.3015246 -27.0841956 -35.8342743 -10.4541349
 -27.1099901 -36.5217876 -12.0675290 -25.4574227 -37.2036576 -10.8677638
 -26.0127521 -38.0265594 -10.4128945 -24.9797916 -37.6113200 -11.7611516
 -24.3506837 -36.7526054  -9.8954922 -23.7976265 -37.6375031  -9.5737052
 -23.6560488 -36.1076808 -10.4377282 -24.8619509 -36.0249567  -8.6723727
 -25.9174776 -35.7653022  -8.6758852 -24.1177917 -35.7386208  -7.6104105
 -24.5689249 -35.2171564  -6.7701012 -22.6465368 -36.0667276  -7.4534696
 -22.1813822 -36.2520552  -8.4239066 -22.1342540 -35.2105951  -7.0095462
 -22.4589062 -37.3026514  -6.5536720 -22.9040933 -37.1196818  -5.5734712
 -23.0186844 -38.1361985  -6.9829839 -20.9903860 -37.7284694  -6.3588256
 -20.9749079 -38.6327577  -5.7468712 -20.5638623 -37.9958415  -7.3278737
 -20.0928473 -36.6665840  -5.6867307 -19.1270339 -37.1250057  -5.4642069
 -19.9045897 -35.8499002  -6.3867670 -20.6955218 -36.0900736  -4.3888175
 -21.5486288 -35.4571342  -4.6419162 -21.0654354 -36.9117665  -3.7720111
 -19.6864676 -35.2614570  -3.5701826 -18.9333045 -35.9326673  -3.1522268
 -19.1669106 -34.5656514  -4.2322826 -20.3419352 -34.4541574  -2.4302667
 -19.5549393 -33.9927292  -1.8301122 -20.9324813 -33.6434531  -2.8621000
 -21.2509346 -35.2872252  -1.5083474 -21.6097379 -34.6733141  -0.6795916
 -20.7097173 -36.1420178  -1.0974005 -22.1212959 -35.6580758  -2.0536937
  35.6888342 -11.2373471  -5.2497172  36.1570215 -10.5781543  -4.5157367
  34.9980783 -10.6447172  -5.8531332  36.4690304 -11.6312790  -5.9043723
  34.9498200 -12.3794389  -4.5335388  34.2512059 -11.9553220  -3.8092986
  35.6698036 -12.9666078  -3.9596742  34.1719747 -13.2992351  -5.4942673
  33.4256268 -12.7066743  -6.0274684  33.6313701 -14.0429199  -4.9050787
  35.0651002 -14.0252078  -6.5191984  35.8060503 -14.6302843  -5.9925681
  35.6047082 -13.2930171  -7.1235013  34.2379761 -14.9236119  -7.4555802
  33.4805703 -14.3100333  -7.9478443  33.7108707 -15.6825936  -6.8737096
  35.0915408 -15.6047726  -8.5398579  35.7218504 -14.8545384  -9.0218562
  34.4205213 -16.0094714  -9.3003947  35.9759188 -16.7510402  -8.0208826
  35.3378940 -17.4978614  -7.5437576  36.6764426 -16.3762248  -7.2717214
  36.7576480 -17.4113750  -9.1710198  37.4408388 -16.6763306  -9.6016312
  36.0526419 -17.6976633  -9.9542612  37.5444269 -18.6646628  -8.7346035
  36.8528032 -19.3677294  -8.2657546  38.2971549 -18.3988762  -7.9894710
  38.2147551 -19.3669248  -9.9303269  37.4728131 -19.4808316 -10.7234263
  38.5084796 -20.3767872  -9.6364391  39.4615269 -18.6251247 -10.4594469
  40.2956390 -18.8553488  -9.7933263  39.3187141 -17.5434816 -10.4134321
  39.8484135 -19.0231800 -11.9006550  39.5303273 -20.0478578 -12.1039283
  40.9380531 -19.0170443 -11.9721854  39.3057275 -18.0627310 -12.9852915
  39.6459746 -18.4066916 -13.9642644  39.7591281 -17.0823777 -12.8246677
  37.7734661 -17.8807783 -13.0203581  37.5394487 -17.0572424 -13.6982131
  37.4227309 -17.5746679 -12.0325589  36.9996166 -19.1344738 -13.4860075
  37.3584795 -20.0203800 -12.9579461  37.1613574 -19.2931640 -14.5542407
  35.5193257 -18.9975417 -13.2230330  34.8791337 -19.7907209 -12.5675464
  34.9850297 -17.8931868 -13.7834585  33.6023545 -17.5813460 -13.4337008
  33.4669256 -17.6805663 -12.3536718  32.9321694 -18.2811975 -13.9393759
  33.2613969 -16.1266911 -13.8368165  32.2594953 -15.8569789 -13.4931648
  33.3567476 -15.9020615 -15.3473592  34.3304682 -16.2564933 -15.6950545
  33.2758522 -14.8272252 -15.5285490  32.3197126 -16.5814638 -16.0849941
  31.9555068 -16.1004937 -17.5671136  33.2934141 -16.4438820 -18.3915854
  33.9526391 -15.4229343 -19.1700673  33.1906176 -14.8432684 -19.6972847
  34.5963502 -15.9000659 -19.9134612  34.7802544 -14.5063198 -18.2378650
  34.1875100 -14.3272614 -17.3396027  34.9321461 -13.5370624 -18.7150943
  36.1431074 -14.9717832 -17.7811301  36.4485693 -14.3705177 -16.4476049
  36.4290881 -13.2830858 -16.5336025  37.4346733 -14.7016001 -16.1185646
  35.6912518 -14.6815610 -15.7264936  36.2575221 -16.4609647 -17.6792288
  36.2431812 -16.8830717 -18.6851621  35.3998089 -16.8442619 -17.1245313
  37.1889377 -16.7142129 -17.1706879  37.1757603 -14.4880986 -18.7451291
  36.9725966 -14.9201548 -19.7261155  38.1596279 -14.7960305 -18.3881068
  37.1208477 -13.3994138 -18.7901771  30.8446431 -16.9098556 -18.0840600
  31.8371916 -14.6293604 -17.5480270  34.2540002 -15.2184057 -13.3002841
  34.1020179 -14.7393906 -12.0567393  33.1593990 -15.0058436 -11.3412440
  35.2468991 -13.8250887 -11.7020988  36.0121512 -14.4067788 -11.1839390
  35.6983972 -13.4583127 -12.6262689  34.8146415 -12.6183355 -10.8500099
  34.0312362 -12.0609879 -11.3677967  34.4059086 -12.9683554  -9.8998052
  36.0152578 -11.6941607 -10.5876172  36.7929745 -12.2781408 -10.0910413
  36.4201307 -11.3582051 -11.5445280  35.6653762 -10.4595006  -9.7337586
  34.8602986  -9.9056321 -10.2211392  35.2956843 -10.7805312  -8.7576795
  36.8684506  -9.5162648  -9.5371062  37.2781897  -9.2454368 -10.5124164
  36.5250945  -8.5951638  -9.0615600  37.9680300 -10.1512349  -8.6649591
  37.5312090 -10.3267586  -7.6796460  38.2669115 -11.1147642  -9.0829843
  39.2255712  -9.2700195  -8.5409206  39.4913411  -8.9339316  -9.5453483
  38.9940882  -8.3640283  -7.9769534  40.4608583  -9.9400443  -7.9535431
  41.3837099  -9.5250827  -8.3506876  40.5743217 -11.0228837  -7.1824574
  41.5750933 -11.3950455  -6.9786924  39.4947815 -11.7537558  -6.4136130
  38.6420751 -11.0995364  -6.2203509  39.1574335 -12.6155186  -6.9932902
  40.0206518 -12.2332537  -5.0484616  40.9079409 -12.8539312  -5.1896697
  40.3288698 -11.3594639  -4.4705719  38.9694071 -13.0173135  -4.2366296
  39.3066573 -13.0691564  -3.1993079  38.0258155 -12.4676788  -4.2374426
  38.7365532 -14.4482291  -4.7573200  38.3786917 -14.4017661  -5.7879698
  39.6926737 -14.9755371  -4.7729555  37.7341175 -15.2771425  -3.9288774
  36.7708015 -14.7634065  -3.9051700  37.5747037 -16.2231469  -4.4505337
  38.1737399 -15.5861294  -2.4828845  39.0899730 -16.1798525  -2.5046515
  38.3927822 -14.6603715  -1.9467334  37.0873165 -16.3629842  -1.7149518
  36.2227750 -15.7141721  -1.5597899  36.7536569 -17.2117925  -2.3154996
  37.5793433 -16.8899620  -0.3577472  36.7640114 -17.3821115   0.1765643
  37.9595184 -16.0727811   0.2588120  38.3814859 -17.6161957  -0.5047760
  30.1683784 -29.8299122   2.4192131  29.7679448 -29.3928504   3.3363244
  30.9712148 -29.1890502   2.0487867  30.5901170 -30.8081579   2.6592851
  29.0580106 -29.9660373   1.3649507  28.6491489 -28.9751148   1.1566986
  28.2518625 -30.5766129   1.7770019  29.5590162 -30.6102419   0.0578538
  30.0569963 -31.5526032   0.2954131  30.3060865 -29.9602056  -0.4023713
  28.4342265 -30.8967805  -0.9586292  27.7262235 -31.6007161  -0.5162809
  28.8749385 -31.3987303  -1.8225062  27.6744676 -29.6319342  -1.4166071
  28.3836102 -28.8796115  -1.7681563  27.1634603 -29.2036796  -0.5517752
  26.6140079 -29.8906302  -2.5095770  25.7602930 -29.2395067  -2.3104030
  26.2438130 -30.9155154  -2.4386635  27.0925570 -29.5986009  -3.9486369
  27.4724984 -28.5760283  -3.9981923  26.2257481 -29.6528268  -4.6105796
  28.1765294 -30.5646729  -4.4624797  27.7784920 -31.5815091  -4.4711858
  29.0224457 -30.5467510  -3.7721416  28.7227035 -30.2206945  -5.8613336
  29.4394851 -30.9934950  -6.1467683  29.2753339 -29.2806602  -5.8030289
  27.6546431 -30.1035285  -6.9643110  26.9778204 -29.2790842  -6.7305082
  27.0618367 -31.0200119  -6.9974959  28.3050585 -29.8533273  -8.3392084
  29.0879011 -30.5950570  -8.5108477  28.7934160 -28.8767242  -8.3244997
  27.3166299 -29.9054003  -9.5201510  26.9318175 -30.9216475  -9.6279663
  27.8616118 -29.6649432 -10.4353774  26.1419249 -28.9248300  -9.3531650
  26.5387464 -27.9732919  -8.9932090  25.4526353 -29.3000007  -8.5938281
  25.3714371 -28.6465907 -10.6538975  26.0561585 -28.1921959 -11.3730299
  24.5938635 -27.9090333 -10.4444945  24.7206974 -29.8922372 -11.2874889
  24.0130115 -30.3476310 -10.5915999  25.4818821 -30.6342936 -11.5373170
  23.9976335 -29.5003438 -12.5484693  22.7880931 -29.4342923 -12.6387537
  24.8553872 -29.1695738 -13.5274434  24.3247509 -28.6092949 -14.7585988
  23.5502648 -27.8721786 -14.5317066  23.8781166 -29.4053006 -15.3598809
  25.4644156 -27.9162788 -15.5502951  25.0239921 -27.2606635 -16.3058388
  26.3417888 -28.9592099 -16.2592030  26.2935567 -29.9174166 -15.7355964
  27.3841643 -28.6318326 -16.2896323  25.8566880 -29.1172600 -17.6120925
  26.4258409 -30.2955317 -18.5315883  27.8792048 -29.7209311 -18.8941824
  28.1794000 -29.2614770 -20.2240467  27.9399228 -30.0668001 -20.9231591
  29.2476511 -29.0396357 -20.2894187  27.3373246 -28.0081630 -20.5548310
  26.3107347 -28.2078052 -20.2441263  27.3340321 -27.8496599 -21.6342497
  27.7240872 -26.6944933 -19.9318624  28.9205432 -26.1364198 -20.6192994
  29.7621298 -26.8058610 -20.4352903  29.1225672 -25.1605463 -20.1752973
  28.7123203 -26.0361671 -21.6855407  26.5938973 -25.7391310 -20.0975585
  25.7253432 -26.1522889 -19.5825863  26.3973880 -25.6022859 -21.1619544
  26.8912125 -24.7958064 -19.6371019  28.0134153 -26.8036914 -18.4759700
  27.1226072 -27.1944261 -17.9819405  28.2665873 -25.8097911 -18.1040168
  28.8500667 -27.4923372 -18.3492255  26.5730524 -31.5014553 -17.7048457
  25.6187272 -30.3063560 -19.7670281  26.3380814 -27.1130276 -14.7096741
  25.8446836 -26.0378861 -14.0741491  24.6817899 -25.6883860 -14.1121805
  26.9203424 -25.3240848 -13.2964933  27.7269292 -26.0309052 -13.0908549
  27.3286915 -24.5321107 -13.9277530  26.4192486 -24.7433782 -11.9619846
  25.5721068 -24.0787172 -12.1437430  26.0696244 -25.5547547 -11.3201964
  27.5451994 -23.9610600 -11.2604654  28.3615041 -24.6417212 -11.0098493
  27.9536128 -23.2289624 -11.9602466  27.0894313 -23.2146549  -9.9942070
  27.9423094 -22.6578999  -9.6003991  26.3302922 -22.4789977 -10.2680349
  26.5257931 -24.1130877  -8.8770902  26.2841916 -23.4773159  -8.0227560
  25.5910206 -24.5670319  -9.2126465  27.4884939 -25.2289152  -8.4242600
  27.5528622 -25.9855914  -9.2089635  28.4904170 -24.8124838  -8.3009595
  27.0788884 -25.9036422  -7.0983362  27.7255416 -26.7703032  -6.9460225
  27.2686696 -25.2022171  -6.2831980  25.6265140 -26.3455248  -7.0696312
  25.1525688 -26.4601946  -8.0411237  24.9043918 -26.5237427  -5.9668458
  23.8581753 -26.8060112  -6.0524219  25.4489541 -26.4624786  -4.5547020
  25.1734161 -27.3787141  -4.0283412  26.5400624 -26.4199328  -4.5663187
  24.8922920 -25.2574921  -3.7754869  24.9260616 -24.3750119  -4.4177893
  23.8423967 -25.4387617  -3.5360613  25.6758404 -24.9395442  -2.4844134
  26.6454434 -24.5281911  -2.7727196  25.1578283 -24.1473651  -1.9398245
  25.9334493 -26.1317945  -1.5387408  26.5129685 -26.8916559  -2.0671642
  26.5645528 -25.7848144  -0.7179018  24.6764374 -26.7923713  -0.9381736
  24.0617657 -27.2155142  -1.7354138  25.0042486 -27.6223660  -0.3087961
  23.8330579 -25.8222389  -0.0876181  24.5040154 -25.2110028   0.5195642
  23.2865286 -25.1445007  -0.7467391  22.8400540 -26.5285110   0.8558980
  23.3939576 -27.1499300   1.5626444  22.3127079 -25.7730150   1.4420684
  21.8011570 -27.3961282   0.1293753  21.1162734 -27.8414297   0.8540165
  22.2817779 -28.2010889  -0.4305436  21.2156057 -26.7873287  -0.5626892
  15.3983176 -14.0096545   0.7297722  15.9884691 -13.1362104   1.0148691
  15.1710856 -14.5835102   1.6306156  14.4606340 -13.6613703   0.2916951
  16.1769557 -14.8683178  -0.2815581  17.1518230 -15.1307213   0.1346646
  16.3625550 -14.2714989  -1.1770041  15.4263151 -16.1545730  -0.6742349
  14.4507337 -15.8836949  -1.0832939  15.2504110 -16.7685425   0.2115210
  16.2034440 -16.9728315  -1.7218983  17.0823169 -17.4222124  -1.2548853
  16.5544295 -16.2910497  -2.4993600  15.3291357 -18.0629504  -2.3713960
  14.4714427 -17.5736320  -2.8376508  14.9335098 -18.7202823  -1.5943119
  16.0416639 -18.9266932  -3.4366900  15.2743793 -19.4280481  -4.0303090
  16.6223693 -19.7160971  -2.9549381  16.9770682 -18.1367469  -4.3727961
  17.8771019 -17.8465116  -3.8267496  16.4766216 -17.2163904  -4.6809533
  17.3743260 -18.9551091  -5.6177533  16.4691842 -19.2340541  -6.1612362
  17.8438306 -19.8871541  -5.2963167  18.3351409 -18.2344079  -6.5864986
  18.3345437 -18.7808585  -7.5319380  19.3483460 -18.3007514  -6.1846578
  18.0055881 -16.7477739  -6.8447536  18.1779671 -16.1912537  -5.9211552
  16.9492853 -16.6318154  -7.0962298  18.8711739 -16.1100137  -7.9499948
  19.9190819 -16.3445282  -7.7516121  18.7813818 -15.0235319  -7.8870809
  18.5272503 -16.5702641  -9.3835258  18.6210608 -17.6565182  -9.4444770
  19.2750537 -16.1571324 -10.0636554  17.1301198 -16.1538851  -9.8926651
  16.3596904 -16.5172803  -9.2094040  16.9573569 -16.6430056 -10.8535910
  16.9795287 -14.6293545 -10.0799406  17.6923239 -14.2865133 -10.8328342
  17.2271597 -14.1228163  -9.1447610  15.5576456 -14.1954732 -10.4877257
  14.8479795 -14.4814408  -9.7085845  15.5192769 -13.1082284 -10.5820048
  15.1210392 -14.7962618 -11.8000889  15.5282044 -14.4133365 -12.8798139
  14.2423069 -15.7978952 -11.6280675  13.5603869 -16.3317120 -12.8024721
  13.1691003 -15.5053079 -13.4013009  12.7160168 -16.9302714 -12.4511695
  14.4845390 -17.2176504 -13.6692989  15.3427303 -16.6302407 -14.0056121
  13.7538373 -17.8127337 -14.8857915  12.8628802 -18.3485866 -14.5485985
  14.4171870 -18.5317612 -15.3732479  13.3612657 -16.8058515 -15.8494473
  13.0684590 -17.1982419 -17.3778868  14.4659162 -16.8620515 -18.0690336
  14.9085367 -15.5009961 -18.1664741  15.9888899 -15.4846013 -18.3314526
  14.6911061 -14.9918997 -17.2240341  14.1815925 -14.7828102 -19.3172741
  14.5375252 -13.7519562 -19.3478060  13.1106508 -14.7723424 -19.1092920
  14.3328345 -15.3031027 -20.7129860  13.5471940 -16.5607190 -20.8891940
  13.9986002 -17.3349476 -20.2670336  13.5482717 -16.8515086 -21.9407248
  12.5348938 -16.3766396 -20.5263615  13.7974942 -14.2679906 -21.6440988
  14.3823636 -13.3583951 -21.4997220  12.7510881 -14.0880978 -21.3931942
  13.8895106 -14.6294463 -22.6693630  15.7695568 -15.5360246 -21.0408926
  16.3115740 -14.6148694 -20.8218598  15.8590257 -15.8067715 -22.0939684
  16.1346436 -16.3369858 -20.3963375  12.9004478 -18.6539197 -17.4887550
  12.0498598 -16.2982059 -17.9484808  14.8928392 -18.3374274 -12.8545666
  16.1410046 -18.8051093 -12.9421115  17.0067573 -18.3012974 -13.6325586
  16.3549852 -20.0420666 -12.1079183  15.6339216 -20.8045793 -12.4097550
  17.3515034 -20.4216695 -12.3431146  16.2577569 -19.7973430 -10.5854857
  16.5848184 -20.7082367 -10.0797558  16.9569027 -19.0073466 -10.3034127
  14.8486066 -19.4571078 -10.0578165  14.4940877 -18.5265744 -10.5060196
  14.1516662 -20.2474618 -10.3443086  14.8224962 -19.2759359  -8.5315812
  15.1746321 -20.1875472  -8.0443150  15.5083787 -18.4687304  -8.2661635
  13.3993053 -18.9463603  -8.0430639  13.0042672 -18.1051993  -8.6165249
  12.7632833 -19.8098576  -8.2487541  13.2857203 -18.6296988  -6.5426028
  12.2313750 -18.4886336  -6.2957835  13.6399233 -19.4914889  -5.9731108
  14.0582812 -17.3820519  -6.0900438  14.0169644 -17.3218977  -5.0004864
  15.1077008 -17.5089645  -6.3640362  13.5577834 -16.1063159  -6.7285168
  13.5532618 -16.1015666  -7.8154975  13.2086551 -15.0062191  -6.0710472
  12.9055679 -14.1295266  -6.6377199  13.1271636 -14.8562467  -4.5655775
  12.3735332 -14.1074872  -4.3128669  12.8017211 -15.7916200  -4.1055465
  14.4858348 -14.4407308  -3.9742070  14.4207215 -14.4593525  -2.8843096
  15.2325487 -15.1811385  -4.2686203  14.9314344 -13.0340075  -4.4195899
  14.8614478 -12.9449308  -5.5056983  14.2423344 -12.3016453  -3.9938560
  16.3658452 -12.6813817  -3.9844629  16.5326917 -11.6192997  -4.1757932
  16.4707041 -12.8322887  -2.9080358  17.4294448 -13.5001969  -4.7438383
  17.3594093 -14.5523298  -4.4599810  17.2144878 -13.4480834  -5.8132035
  18.8687384 -12.9969215  -4.5164111  19.5429766 -13.5625303  -5.1629043
  18.9285433 -11.9537723  -4.8337868  19.3690240 -13.1030786  -3.0619845
  20.3782964 -12.6893270  -3.0105647  18.7414682 -12.4949169  -2.4071738
  19.4027913 -14.5502353  -2.5412527  19.8448992 -14.5854759  -1.5433741
  19.9991488 -15.1794183  -3.2052937  18.3948112 -14.9659157  -2.4808440
  -9.4977534  21.5121603   2.2450683  -9.4930333  21.8523788   3.2827064
  -8.4652346  21.3341188   1.9373831 -10.0465322  20.5695224   2.1927331
 -10.1563549  22.5661826   1.3405636  -9.6416438  23.5198760   1.4747514
 -11.1948776  22.7029848   1.6491401 -10.1046145  22.1709895  -0.1462051
 -10.6044817  21.2093711  -0.2799402  -9.0614963  22.0366454  -0.4400059
 -10.7525146  23.2264924  -1.0652547 -10.3826892  24.2147326  -0.7840505
 -11.8340302  23.2316756  -0.9143872 -10.4345310  22.9989100  -2.5574005
  -9.3504387  23.0020595  -2.6885450 -10.8285975  23.8405728  -3.1307912
 -11.0121751  21.6868353  -3.1256020 -12.1020055  21.7516851  -3.1485733
 -10.7529211  20.8561730  -2.4658655 -10.4795980  21.3478017  -4.5318115
 -10.8561456  20.3631687  -4.8167190  -9.3917447  21.2658548  -4.4836208
 -10.8638906  22.3631787  -5.6263131 -10.4899931  23.3546495  -5.3623986
 -11.9518363  22.4277210  -5.6946748 -10.2841139  21.9563222  -6.9947594
 -10.6069982  20.9422779  -7.2395521  -9.1944116  21.9413090  -6.9255757
 -10.6956768  22.9101205  -8.1304711 -10.4283822  23.9323592  -7.8547043
 -11.7799926  22.8755212  -8.2550734 -10.0133765  22.5518942  -9.4658577
 -10.2792358  21.5331292  -9.7555166  -8.9304882  22.5843191  -9.3288720
 -10.4017091  23.5252714 -10.5932736 -10.2155340  24.5446968 -10.2489269
 -11.4706719  23.4358025 -10.7976747  -9.6042907  23.2915878 -11.8921006
  -9.7927123  22.2824264 -12.2643256  -8.5386741  23.3609772 -11.6638243
  -9.9712276  24.3211389 -12.9843223  -9.9318510  25.3278184 -12.5630057
 -11.0045588  24.1464853 -13.2912230  -9.0637320  24.2724538 -14.2361569
  -9.0018845  23.2495117 -14.6132886  -9.5071876  24.8841286 -15.0246143
  -7.6610589  24.7810054 -13.9835358  -7.2747672  25.2235103 -12.9205906
  -6.8895787  24.7188616 -15.0926709  -5.4442459  24.6782255 -14.8782110
  -5.1599318  25.3261495 -14.0451384  -4.9481481  25.0576854 -15.7751751
  -4.9384141  23.2318759 -14.6144581  -3.9025947  23.3071399 -14.2737770
  -4.9871460  22.3250151 -15.8711684  -4.5900223  21.3459659 -15.5911577
  -4.3576679  22.7252388 -16.6700590  -6.3457632  22.1429658 -16.3497758
  -6.7634380  20.8548832 -17.2108233  -7.4748671  21.5505385 -18.4547007
  -6.6914004  22.1067619 -19.5145726  -6.6522056  21.3820386 -20.3318167
  -5.6716692  22.3010874 -19.1724658  -7.3693085  23.4188175 -19.9648118
  -8.3872712  23.1894183 -20.2832580  -6.8194818  23.8187647 -20.8180499
  -7.4784207  24.5458055 -18.9608133  -6.1610764  24.8403192 -18.3277488
  -5.8690131  23.9549637 -17.7610695  -6.2852317  25.6832910 -17.6463795
  -5.4276925  25.0650692 -19.1035819  -7.9447287  25.7764411 -19.6662867
  -8.9192355  25.5735636 -20.1128936  -7.2188544  26.0354590 -20.4384899
  -8.0233818  26.5855622 -18.9386761  -8.4609145  24.2399788 -17.8778958
  -9.4179600  23.9722395 -18.3280718  -8.5528570  25.1094770 -17.2253644
  -8.0770999  23.3972692 -17.3009956  -5.5258280  20.2197075 -17.7078044
  -7.7688521  20.0902176 -16.4563668  -5.7403553  22.6384234 -13.5597658
  -5.2462870  21.5796351 -12.9035354  -4.1586342  21.0867286 -13.1265652
  -6.1601585  21.0856915 -11.8192387  -7.2015381  21.2058091 -12.1251225
  -5.9703761  20.0174713 -11.6953504  -5.8974981  21.8329978 -10.4976463
  -4.8267502  22.0173717 -10.3882408  -6.3946217  22.8048730 -10.5257988
  -6.3797748  21.0230494  -9.2817414  -7.4198753  20.7241702  -9.4277799
  -5.7826531  20.1113343  -9.2132843  -6.2574339  21.7983365  -7.9589349
  -5.2556098  22.2261071  -7.8826249  -6.9697767  22.6259995  -7.9573739
  -6.5182382  20.8805823  -6.7491239  -7.4508852  20.3347707  -6.9063640
  -5.7196248  20.1383638  -6.6875225  -6.6129285  21.6320586  -5.4083973
  -7.4673176  22.3115945  -5.4351747  -6.8038440  20.9049201  -4.6163854
  -5.3526181  22.4394512  -5.0570261  -4.4905579  21.7695236  -5.0796694
  -5.1970267  23.2179260  -5.8068448  -5.4926449  23.0307531  -3.6720982
  -5.8767349  22.3437262  -2.9224062  -5.2325618  24.2831492  -3.3158639
  -5.4014707  24.5679617  -2.2805285  -4.6690819  25.3829098  -4.1947767
  -4.2549103  24.9786639  -5.1207954  -5.4701489  26.0704350  -4.4741750
  -3.5625711  26.1743855  -3.4668395  -2.7363110  25.4925108  -3.2551673
  -3.1722993  26.9367814  -4.1442654  -3.9994335  26.8444705  -2.1437198
  -4.3345070  26.0767794  -1.4431195  -3.1275299  27.3096132  -1.6790812
  -5.1175666  27.8974056  -2.2944589  -5.9865999  27.4427795  -2.7746263
  -5.4474711  28.1965566  -1.2973957  -4.7031337  29.1560149  -3.0887598
  -4.4637620  28.8725948  -4.1158128  -5.5598897  29.8307824  -3.1446296
  -3.5042885  29.9249101  -2.4917220  -2.6073435  29.3048525  -2.5507346
  -3.3162042  30.8088398  -3.1047118  -3.7245533  30.3664017  -1.0305294
  -4.5961922  31.0222626  -0.9799524  -3.9259449  29.4972086  -0.4009208
  -2.5070643  31.1011004  -0.4537710  -2.6882792  31.3867068   0.5845225
  -2.3004864  32.0042682  -1.0317653  -1.6271497  30.4550290  -0.4821134
 -23.7649131  -1.9974482   0.0302007 -23.8301420  -2.6769933   0.8825076
 -24.6790433  -2.1007079  -0.5581598 -23.7110782  -0.9741333   0.4075500
 -22.5247145  -2.3288429  -0.8189137 -22.6206732  -3.3400127  -1.2199020
 -21.6464925  -2.3312028  -0.1699282 -22.2788882  -1.3245675  -1.9647196
 -21.3690805  -1.6105887  -2.4966061 -22.0893502  -0.3423172  -1.5268582
 -23.4364414  -1.2033293  -2.9787484 -23.2197666  -0.3802354  -3.6628777
 -24.3587780  -0.9417514  -2.4559332 -23.6498094  -2.4894053  -3.8007319
 -23.7317944  -3.3430734  -3.1247208 -22.7791929  -2.6590303  -4.4376928
 -24.9205589  -2.4324915  -4.6657622 -24.8761392  -1.5640062  -5.3262341
 -25.7838106  -2.2989371  -4.0104583 -25.1166487  -3.7072361  -5.5072612
 -25.1594162  -4.5761561  -4.8472512 -24.2497492  -3.8309148  -6.1596823
 -26.4051557  -3.6486402  -6.3530076 -26.3819599  -2.7593592  -6.9863367
 -27.2612429  -3.5363224  -5.6844521 -26.6346836  -4.8983181  -7.2298998
 -27.5554109  -4.7592902  -7.8003353 -26.7899227  -5.7620621  -6.5800458
 -25.4891157  -5.2306771  -8.2067776 -25.7907605  -6.0848016  -8.8166505
 -24.6128273  -5.5414569  -7.6340669 -25.1193905  -4.0641406  -9.1426963
 -24.7756290  -3.2147622  -8.5486853 -26.0133815  -3.7456977  -9.6829158
 -24.0226173  -4.4183204 -10.1636624 -23.9417362  -3.5853812 -10.8651853
 -24.3283081  -5.2958035 -10.7372832 -22.6468897  -4.6746579  -9.5103908
 -22.7334857  -5.4794574  -8.7774098 -22.3374486  -3.7799644  -8.9661175
 -21.5432048  -5.0591683 -10.5149853 -21.8192625  -5.9877515 -11.0189569
 -20.6213093  -5.2485359  -9.9611670 -21.2858796  -3.9619356 -11.5638089
 -21.0383296  -3.0207244 -11.0685277 -22.1947861  -3.7958097 -12.1458340
 -20.1753712  -4.3076402 -12.5255644 -19.1153800  -4.8144177 -12.2170532
 -20.4860377  -3.8982201 -13.7682867 -19.5949244  -4.2268026 -14.8670685
 -18.5511267  -4.1193220 -14.5611560 -19.7880960  -3.4945309 -15.6551731
 -19.8506427  -5.6571198 -15.4220295 -19.4551742  -6.3849294 -14.7089040
 -19.1185534  -5.9030670 -16.7608678 -19.6643651  -6.6371322 -17.3591065
 -18.1334031  -6.3123411 -16.5229142 -18.9093292  -4.6735340 -17.5127208
 -19.7658169  -4.2571980 -18.8060296 -21.1903882  -3.8039732 -18.2251084
 -21.4261627  -2.4437957 -17.8220963 -21.0735750  -1.7742130 -18.6107600
 -20.8715439  -2.2173928 -16.9078815 -22.9368210  -2.2020742 -17.6168430
 -23.4790063  -2.4119316 -18.5400307 -23.0625534  -1.1491793 -17.3601651
 -23.6523461  -2.9504374 -16.5274501 -23.8272572  -4.3860266 -16.8869162
 -24.4273210  -4.4397062 -17.7964878 -24.3482280  -4.8906744 -16.0719311
 -22.8419614  -4.8238444 -17.0536244 -22.9199553  -2.8389615 -15.2385783
 -22.6917553  -1.7867978 -15.0620592 -22.0006609  -3.4181142 -15.3373635
 -23.5397983  -3.2506424 -14.4407105 -25.0007510  -2.3484486 -16.3337159
 -24.8914123  -1.3016418 -16.0464549 -25.5336738  -2.9108891 -15.5656445
 -25.5499935  -2.4178320 -17.2738230 -19.0828443  -3.0765295 -19.3777466
 -19.9327922  -5.4561734 -19.6399760 -21.2582111  -5.9286666 -15.6641746
 -21.8515253  -6.7632663 -14.7883356 -21.5690780  -6.7853785 -13.6054313
 -22.9378676  -7.5987709 -15.4329312 -23.8517284  -7.0076895 -15.5220711
 -22.6094484  -7.8434777 -16.4452159 -23.2115865  -8.9193749 -14.6792388
 -23.7774754  -9.5939922 -15.3250909 -22.2529626  -9.4027066 -14.4795001
 -23.9972329  -8.7441242 -13.3623374 -23.6528373  -7.8408843 -12.8543890
 -25.0581121  -8.6075824 -13.5822368 -23.8112831  -9.9540895 -12.4301660
 -24.3587804 -10.8090818 -12.8322828 -22.7524662 -10.2212322 -12.4309111
 -24.2180657  -9.7152716 -10.9633803 -25.2939796  -9.5408839 -10.8966088
 -24.0036106 -10.6249189 -10.3985655 -23.4601116  -8.5295671 -10.3307950
 -22.4541831  -8.4833777 -10.7532167 -23.9608455  -7.5966674 -10.5980563
 -23.3210993  -8.6109531  -8.8019073 -22.6937175  -9.4699872  -8.5550982
 -22.7906013  -7.7173299  -8.4665364 -24.6526814  -8.6870253  -8.0865705
 -25.4594207  -8.1119668  -8.5338390 -24.8815513  -9.3879271  -6.9816750
 -25.8747721  -9.3761784  -6.5401465 -23.8624239 -10.2633524  -6.2808436
 -24.3741775 -11.0093868  -5.6692851 -23.2856917 -10.8246672  -7.0189267
 -22.8984499  -9.4568861  -5.3910053 -22.1276045 -10.1315391  -5.0127137
 -22.3942661  -8.7018764  -5.9978175 -23.5936379  -8.7731057  -4.1991264
 -24.3608379  -8.0904901  -4.5704818 -24.0901804  -9.5317882  -3.5905951
 -22.5875878  -7.9998165  -3.3251688 -21.7887878  -8.6805576  -3.0235520
 -22.1278119  -7.2037911  -3.9145866 -23.2175517  -7.3986459  -2.0548418
 -23.6966181  -8.1994587  -1.4876921 -22.4202347  -6.9903219  -1.4303255
 -24.2520261  -6.2918377  -2.3284076 -23.7729383  -5.4871827  -2.8900734
 -25.0613451  -6.6824943  -2.9487729 -24.8437953  -5.7314098  -1.0214321
 -25.2436256  -6.5525401  -0.4228125 -24.0525603  -5.2583647  -0.4360783
 -25.9664106  -4.7139424  -1.2760596 -26.3744235  -4.3625027  -0.3260705
 -26.7751718  -5.1717657  -1.8494406 -25.5922270  -3.8534063  -1.8345647
  21.1814141  -1.3802911  -3.4127748  21.6814232  -1.9461350  -2.6239297
  20.1215863  -1.2961322  -3.1634849  21.6165733  -0.3791746  -3.4421846
  21.3666463  -2.0697230  -4.7716379  20.9877300  -3.0923495  -4.7157645
  22.4344516  -2.1282203  -4.9926153  20.6630421  -1.3172424  -5.9135747
  21.0377574  -0.2925294  -5.9584630  19.5941150  -1.2703398  -5.6952626
  20.8950090  -2.0061116  -7.2735566  20.5243015  -3.0318946  -7.2205472
  21.9681597  -2.0631644  -7.4673569  20.2170801  -1.2910359  -8.4596431
  20.4082990  -1.8708873  -9.3650007  20.6708431  -0.3078911  -8.6010331
  18.6962175  -1.1348227  -8.2666522  18.4965229  -0.3696935  -7.5135499
  18.2989156  -2.0774478  -7.8844583  17.9352474  -0.7853338  -9.5584017
  16.8672037  -0.7589210  -9.3324631  18.0947149  -1.5900812 -10.2791071
  18.3231914   0.5658859 -10.1865315  19.3874800   0.5732962 -10.4308677
  18.1619883   1.3561979  -9.4504035  17.4970090   0.8886639 -11.4517319
  17.8285933   1.8485221 -11.8532121  16.4495111   1.0121045 -11.1689365
  17.5821412  -0.1692593 -12.5720048  17.0339191   0.1961013 -13.4428835
  17.0765078  -1.0783995 -12.2399461  19.0314817  -0.4961688 -12.9885817
  19.5859957  -0.8700322 -12.1253300  19.5275903   0.4196354 -13.3166730
  19.1352832  -1.5490250 -14.1069329  20.1946402  -1.7414722 -14.2891121
  18.7209618  -1.1483522 -15.0344372  18.4310019  -2.8763565 -13.7643945
  17.4174428  -2.8557333 -14.1702712  18.3457160  -2.9826796 -12.6809347
  19.2010891  -4.0964335 -14.3005824  20.1358700  -4.1834077 -13.7428343
  19.4645596  -3.9466229 -15.3496790  18.4144258  -5.4083019 -14.1472113
  17.8935647  -5.4150099 -13.1874597  19.1048074  -6.2542534 -14.1613960
  17.4174631  -5.5979681 -15.2580452  17.7200019  -6.0911345 -16.3256109
  16.1845601  -5.1950109 -14.9069118  15.0833225  -5.2502191 -15.8646417
  14.1946137  -5.5844057 -15.3231943  15.2769375  -5.9764904 -16.6581726
  14.7869515  -3.8490057 -16.4705217  13.8241792  -3.8698420 -16.9875169
  15.8438277  -3.4092051 -17.5012314  16.8223250  -3.3034158 -17.0258367
  15.5491161  -2.4450727 -17.9234207  15.9297669  -4.3939182 -18.5678256
  16.6969264  -4.0826699 -19.9423921  15.5578053  -4.0929070 -21.0569286
  14.7588289  -2.9247108 -21.3255501  14.5209479  -2.4291237 -20.3808522
  13.8262188  -3.2515478 -21.7925239  15.5033994  -1.9505154 -22.2711754
  16.4861727  -1.7445664 -21.8445349  14.9420178  -1.0164551 -22.3227715
  15.7293475  -2.3694268 -23.7050557  16.5002596  -3.6420178 -23.7790918
  17.4285507  -3.5283288 -23.2172847  16.6866529  -3.8727009 -24.8290086
  15.8845747  -4.4269013 -23.3373117  14.4363105  -2.5230092 -24.4293237
  13.8536751  -1.6037422 -24.3533993  13.8826656  -3.3522016 -23.9863849
  14.6388805  -2.7515036 -25.4767203  16.5079939  -1.3192639 -24.4242620
  15.9433711  -0.3860990 -24.3981194  16.6322374  -1.6394939 -25.4597807
  17.4790406  -1.2046224 -23.9403105  17.2332585  -2.7128297 -19.8553026
  17.6439631  -5.1784384 -20.2082562  14.7270942  -2.8669000 -15.3974819
  13.6553442  -2.9208142 -14.5821440  12.6560223  -3.5662025 -14.8264968
  13.8446951  -2.1139368 -13.3181608  14.8861670  -2.2081576 -13.0036426
  13.6641610  -1.0613593 -13.5460889  12.9034364  -2.5882107 -12.1845043
  11.8718112  -2.5132075 -12.5346327  13.0901265  -3.6426094 -11.9703686
  13.0260766  -1.7647734 -10.8856666  12.9089022  -0.7079419 -11.1343467
  12.1996570  -2.0232761 -10.2203310  14.3542039  -1.9500999 -10.1233113
  15.1933384  -1.8421353 -10.8137190  14.4397819  -1.1401096  -9.3959492
  14.4745743  -3.2900274  -9.3640208  13.6746788  -3.3550826  -8.6234796
  14.3566334  -4.1271952 -10.0551820  15.8440197  -3.3957583  -8.6621946
  16.6207850  -3.4567416  -9.4272971  16.0189819  -2.4784981  -8.0960798
  16.0097408  -4.5875028  -7.7006882  15.7384765  -5.5120128  -8.2146537
  17.0623219  -4.6787289  -7.4246192  15.1682591  -4.4391879  -6.4520228
  14.2513287  -5.0229555  -6.4472425  15.4782212  -3.7059954  -5.3862244
  14.7994292  -3.7001285  -4.5372388  16.7006671  -2.8223115  -5.2223718
  17.4737453  -3.0491912  -5.9594870  16.3984990  -1.7839099  -5.3736371
  17.2820222  -2.9396126  -3.8004482  17.9237628  -2.0777203  -3.6060932
  16.4617670  -2.8979018  -3.0807903  18.1003630  -4.2282611  -3.5855275
  17.6028085  -5.0572199  -4.0931985  19.0812171  -4.1149554  -4.0519515
  18.2720017  -4.6120495  -2.1038997  17.2915947  -4.8935586  -1.7140087
  18.9084041  -5.4973865  -2.0436144  18.8618922  -3.4970790  -1.2188695
  19.8375690  -3.2100561  -1.6165318  18.2245040  -2.6116475  -1.2658930
  19.0379965  -3.9086649   0.2579344  19.7768378  -4.7104505   0.3188960
  19.4505978  -3.0545422   0.7989487  17.7566874  -4.3641979   0.9865624
  17.3840332  -5.2868736   0.5368272  18.0138099  -4.6023098   2.0208035
  16.6356730  -3.3093724   0.9896483  15.7777786  -3.6732906   1.5588965
  16.3007760  -3.0919167  -0.0267279  16.9851589  -2.3823687   1.4489822
  17.6377046   8.0534738   1.5730293  18.6013579   7.8476298   2.0436299
  17.5903606   9.1208774   1.3474809  17.6030874   7.4977517   0.6336481
  16.4893949   7.6496178   2.5163221  16.6880417   8.1073779   3.4876403
  16.4945793   6.5683979   2.6692960  15.0867653   8.1073380   2.0637015
  15.1415539   9.1323733   1.6911924  14.4531262   8.1427622   2.9523590
  14.3678772   7.2090769   1.0317026  13.3609772   7.6059526   0.8864263
  14.2480004   6.2125510   1.4618540  15.0267613   7.0631522  -0.3558392
  14.3657565   6.4494026  -0.9713448  15.9610832   6.5062141  -0.2592580
  15.2885926   8.4045619  -1.0762545  15.9245944   9.0330416  -0.4493757
  14.3446350   8.9366865  -1.2113521  15.9873390   8.2465619  -2.4422057
  16.9184279   7.6925254  -2.3058869  16.2543631   9.2400819  -2.8083757
  15.1164877   7.5364459  -3.4983683  14.2146134   8.1256497  -3.6770427
  14.7953379   6.5663826  -3.1132674  15.8375049   7.2929704  -4.8385066
  15.1626885   6.7315406  -5.4880327  16.7120957   6.6620463  -4.6667770
  16.2748659   8.5775566  -5.5708724  17.0439863   9.0939665  -4.9927393
  15.4200518   9.2505968  -5.6645501  16.8199301   8.2511747  -6.9739205
  16.0491180   7.7173471  -7.5336897  17.6775110   7.5816387  -6.8804216
  17.2401273   9.5000297  -7.7707088  18.0956852   9.9750537  -7.2861093
  16.4179158  10.2186573  -7.7733237  17.5945902   9.1380608  -9.2256528
  16.7222202   8.6688191  -9.6852702  18.4005547   8.4013015  -9.2340904
  18.0190432  10.3634727 -10.0608456  18.9778244  10.7297587  -9.6879679
  17.2958648  11.1705410  -9.9262464  18.1502557  10.0465071 -11.5678537
  18.8391876   9.2111272 -11.7091858  18.5737717  10.9063816 -12.0910311
  16.8259633   9.7109574 -12.2174454  15.7540846  10.1028657 -11.7997658
  16.9787765   8.9029545 -13.2856441  15.8126831   8.5800999 -14.1014731
  14.9241316   8.4789497 -13.4730673  15.9973311   7.6160938 -14.5823538
  15.5800581   9.6366268 -15.2166867  14.7255921   9.3317080 -15.8262455
  16.8084168   9.7413683 -16.1580920  16.8295586   8.9011091 -16.8567824
  17.7250862   9.7231156 -15.5630863  16.8045700  10.9818769 -16.9062674
  15.8057904  11.2294066 -18.1245732  16.1900783  12.7172768 -18.5767734
  16.1398137  13.8137412 -17.6424742  16.6022706  14.6901357 -18.1036854
  16.7207074  13.5490978 -16.7552447  14.6812093  14.1230500 -17.2421920
  14.6728289  14.9154079 -16.4922726  14.2475665  13.2269979 -16.7957330
  13.7151265  14.5587683 -18.3094966  12.3685169  14.6415961 -17.6943254
  12.0401764  13.6338484 -17.4356461  11.6893494  15.1118469 -18.4069788
  12.4269223  15.2796233 -16.8112671  14.1004503  15.8949792 -18.8317335
  15.0995088  15.8183372 -19.2633438  14.0869427  16.6014552 -18.0004752
  13.3564973  16.1859858 -19.5747876  13.6015987  13.6101484 -19.4546521
  14.5799148  13.5209775 -19.9292338  12.8525853  13.9878953 -20.1521945
  13.3141315  12.6374221 -19.0528476  16.1255693  10.3070486 -19.2168128
  14.4105017  11.2535274 -17.6292682  15.2979958  10.9404290 -14.6373928
  14.0490818  11.1592650 -14.1938496  13.1936491  10.2999341 -14.0802240
  13.8181162  12.6183784 -13.8721967  14.7688174  13.0822349 -13.6011457
  13.4794962  13.1122732 -14.7853601  12.7710128  12.8363287 -12.7581692
  12.5299489  13.9005303 -12.7154326  11.8484879  12.3146045 -13.0212593
  13.2254505  12.3893464 -11.3539326  12.3847711  12.5015068 -10.6660795
  13.4890079  11.3297141 -11.3673639  14.4121742  13.2223976 -10.8325970
  15.2809298  13.0748415 -11.4775431  14.1425133  14.2794347 -10.8818007
  14.8104823  12.8773630  -9.3869478  13.9359570  12.9712033  -8.7397504
  15.1503396  11.8408680  -9.3355739  15.9188342  13.8222325  -8.8855630
  16.7951882  13.7328780  -9.5309186  15.5598998  14.8506606  -8.9628083
  16.3324213  13.5573506  -7.4287516  15.4330218  13.5615599  -6.8094558
  16.7950535  12.5715125  -7.3477691  17.2817552  14.6363521  -6.9531173
  17.2976553  15.5369830  -7.5615412  18.1037879  14.5514798  -5.9122229
  18.7582123  15.3911853  -5.6926954  18.2093191  13.3944607  -4.9366575
  18.5691857  12.5022590  -5.4533166  18.9705718  13.6432624  -4.1943258
  16.8933749  13.0728102  -4.1921747  16.2373376  12.5129771  -4.8619992
  17.1195364  12.4064028  -3.3571795  16.1134827  14.2958939  -3.6635244
  15.8057117  14.9169135  -4.5073691  15.1985347  13.9291430  -3.1936020
  16.8923485  15.1713419  -2.6601925  17.1346855  14.5833135  -1.7725228
  17.8390014  15.4795790  -3.1088588  16.1203182  16.4412105  -2.2430308
  16.7344308  17.0051682  -1.5378499  15.9774232  17.0737207  -3.1216526
  14.7479582  16.1530447  -1.6008867  14.1162705  15.6213367  -2.3155347
  14.8841071  15.5045784  -0.7328895  14.0104640  17.4309468  -1.1622454
  14.5798612  17.9352272  -0.3786947  13.9345610  18.1171882  -2.0082802
  12.5962353  17.1212935  -0.6458299  12.0095646  16.6190886  -1.4178857
  12.0834720  18.0462790  -0.3739121  12.6417017  16.4758348   0.2338179
 -41.7827654  -9.0306997  -1.4618321 -41.7491961 -10.0678527  -1.1217567
 -42.4374580  -8.9912331  -2.3349191 -42.2200727  -8.4261370  -0.6645065
 -40.3713560  -8.5285819  -1.7928952 -39.8950171  -9.2369211  -2.4739388
 -39.7853374  -8.5120076  -0.8716076 -40.3336668  -7.1284354  -2.4275915
 -39.2908978  -6.8088311  -2.4819313 -40.8606100  -6.4186168  -1.7865366
 -40.9341574  -7.0985347  -3.8445559 -42.0041609  -7.3127913  -3.8038653
 -40.4672670  -7.8821671  -4.4448858 -40.7090378  -5.7433194  -4.5357642
 -39.6361041  -5.5489796  -4.5950496 -41.1583090  -4.9439156  -3.9428303
 -41.3078308  -5.7302666  -5.9515762 -42.3973465  -5.7621592  -5.8851773
 -40.9819221  -6.6307569  -6.4763296 -40.8683443  -4.4902974  -6.7514682
 -39.7839451  -4.5185959  -6.8769383 -41.1040115  -3.5887530  -6.1821318
 -41.5337372  -4.3895617  -8.1368977 -41.1026049  -3.5370532  -8.6658728
 -42.5976944  -4.1816536  -8.0056065 -41.3749647  -5.6570667  -9.0009838
 -41.9056129  -6.4869338  -8.5296035 -40.3210306  -5.9347570  -9.0685958
 -41.9419575  -5.4477423 -10.4138553 -41.3433266  -4.6985444 -10.9361660
 -42.9529572  -5.0473386 -10.3137720 -41.9827604  -6.7517728 -11.2377119
 -42.6109886  -7.4759138 -10.7148254 -40.9806871  -7.1824831 -11.2906957
 -42.5255585  -6.5741235 -12.6717687 -42.7817822  -7.5582850 -13.0695641
 -41.7422342  -6.1649132 -13.3131862 -43.7544870  -5.6490719 -12.7468491
 -43.4299517  -4.6218097 -12.5683165 -44.4566202  -5.9188944 -11.9552279
 -44.4882870  -5.7229155 -14.0962636 -45.0234890  -6.6732514 -14.1499817
 -43.7619877  -5.7229972 -14.9117112 -45.4924536  -4.5646960 -14.2927945
 -46.1396885  -4.4700110 -13.4183872 -46.1254740  -4.7884437 -15.1540089
 -44.7945595  -3.2519281 -14.5535505 -44.8827171  -2.2766173 -13.8203812
 -44.1118622  -3.2967904 -15.7136559 -43.1831169  -2.2471566 -16.0912287
 -43.3217525  -1.3569407 -15.4724026 -43.3930635  -1.9780448 -17.1295679
 -41.7112875  -2.7315113 -15.9988427 -41.0984802  -1.9719502 -16.4909625
 -41.4729691  -4.1007677 -16.6928542 -41.5922213  -4.0145448 -17.7759027
 -42.1889448  -4.8383728 -16.3214147 -40.1336098  -4.5791322 -16.3889134
 -39.6078563  -6.0032111 -16.8912053 -38.7305355  -5.6166780 -18.1808543
 -37.3036742  -5.8575559 -18.2336617 -37.1121478  -6.5240842 -19.0784729
 -36.9407248  -6.3607162 -17.3338032 -36.5265942  -4.5395005 -18.4448504
 -36.8018031  -4.1071671 -19.4079840 -35.4625702  -4.7792697 -18.4702981
 -36.6673779  -3.4404048 -17.4216104 -37.9172850  -2.6643202 -17.6518202
 -37.8715467  -2.1983978 -18.6372650 -38.0097365  -1.9177783 -16.8616235
 -38.7538767  -3.3624107 -17.5964725 -36.6561437  -3.9633283 -16.0267234
 -35.7045674  -4.4686455 -15.8551550 -37.4788499  -4.6706429 -15.9120870
 -36.7811465  -3.1277975 -15.3364015 -35.5211735  -2.4997793 -17.5578785
 -34.6112323  -3.0709541 -17.3680115 -35.6322193  -1.7108446 -16.8125391
 -35.5111384  -2.0973431 -18.5718918 -38.7044477  -6.5276134 -15.8519113
 -40.7555342  -6.8138880 -17.3189938 -41.3327360  -2.8583989 -14.6021092
 -40.0445938  -2.5988224 -14.2989504 -39.2947197  -1.9298747 -14.9861908
 -39.6171904  -3.2182357 -12.9998243 -38.8576937  -2.5741509 -12.5517416
 -40.4697466  -3.2753420 -12.3198605 -39.0048718  -4.6092072 -13.2295799
 -39.7682166  -5.3070349 -13.5800123 -38.2467628  -4.5358816 -14.0121126
 -38.3353543  -5.1491708 -11.9591248 -37.6520491  -4.3847477 -11.5833378
 -39.0941596  -5.3230572 -11.1933303 -37.5527215  -6.4494181 -12.2158694
 -38.2423282  -7.2149521 -12.5776196 -36.8202376  -6.2778538 -13.0073857
 -36.8228626  -6.9857669 -10.9675479 -37.5589848  -7.2619748 -10.2097225
 -36.3113403  -7.9063588 -11.2561953 -35.7718134  -6.0207421 -10.3652704
 -34.8219538  -6.5548861 -10.2950931 -35.5990934  -5.1846606 -11.0461521
 -36.1070299  -5.4743159  -8.9594543 -36.1274314  -6.3066000  -8.2528073
 -35.2989435  -4.8152342  -8.6353076 -37.4442434  -4.7656581  -8.9047778
 -38.3008862  -5.3966719  -9.1273862 -37.6497054  -3.4948158  -8.5758841
 -38.6687565  -3.1181511  -8.5408455 -36.5814543  -2.4817987  -8.2221520
 -35.6610179  -2.6867288  -8.7728459 -36.9078636  -1.4826208  -8.5180670
 -36.2897921  -2.5020978  -6.7106062 -36.0016084  -3.5161138  -6.4256746
 -35.4360056  -1.8542585  -6.5012819 -37.4878645  -2.0486209  -5.8501828
 -37.6330638  -0.9729332  -5.9696716 -38.4007907  -2.5420326  -6.1901432
 -37.2753310  -2.3880114  -4.3650299 -37.1970081  -3.4726337  -4.2654076
 -36.3298559  -1.9596225  -4.0258804 -38.4085870  -1.8620752  -3.4640136
 -38.3623052  -0.7712279  -3.4446660 -39.3792367  -2.1371542  -3.8819104
 -38.3009577  -2.3968627  -2.0226566 -37.2630572  -2.3346232  -1.6889609
 -38.8893890  -1.7575948  -1.3611817 -38.8068414  -3.8472286  -1.8938543
 -39.8565555  -3.8882166  -2.1919964 -38.2475805  -4.4984734  -2.5688130
 -38.6752152  -4.3889093  -0.4632048 -39.0730309  -5.4039913  -0.4014392
 -39.2326450  -3.7620074   0.2358871 -37.6259971  -4.4110870  -0.1613587
  34.7882271 -25.1127481  -1.7561999  35.5073214 -25.5367780  -1.0522344
  35.0848150 -25.4041839  -2.7659357  33.8098574 -25.5471945  -1.5405367
  34.7437596 -23.5822892  -1.6148947  35.7356644 -23.1715679  -1.8146235
  34.4960785 -23.3317184  -0.5812930  33.7311220 -22.8949857  -2.5471467
  33.7507868 -21.8240285  -2.3347110  32.7257037 -23.2509875  -2.3129256
  34.0035367 -23.1022739  -4.0485162  33.8984466 -24.1606498  -4.2960203
  35.0290275 -22.8089142  -4.2825523  33.0248451 -22.2819757  -4.9106959
  33.1478739 -21.2175250  -4.7002846  32.0019531 -22.5506186  -4.6386880
  33.2349420 -22.5330281  -6.4138830  33.2934904 -23.6097908  -6.5859717
  34.1912961 -22.1073675  -6.7247880  32.1005082 -21.9452214  -7.2761446
  32.1207380 -20.8552480  -7.2128016  31.1369634 -22.2820640  -6.8880939
  32.2290778 -22.3853397  -8.7454700  32.1898818 -23.4756589  -8.7916648
  33.2079840 -22.0762420  -9.1178459  31.1250401 -21.8042135  -9.6526909
  31.2652111 -20.7254791  -9.7483444  30.1534486 -21.9634581  -9.1803402
  31.0992265 -22.4491692 -11.0546672  30.2923775 -22.0008469 -11.6381621
  30.8656359 -23.5104752 -10.9472930  32.4254560 -22.2996545 -11.8274856
  33.2502413 -22.6748991 -11.2180722  32.6160169 -21.2418389 -12.0202959
  32.4278975 -23.0758691 -13.1568050  31.6666651 -22.6692462 -13.8258696
  32.1708083 -24.1188025 -12.9601765  33.8077497 -23.0177069 -13.8401020
  34.5752859 -23.3216929 -13.1252968  34.0246415 -21.9891047 -14.1357422
  33.8826561 -23.9367294 -15.0712788  33.1368446 -23.6219764 -15.8041918
  33.6356878 -24.9568868 -14.7700357  35.2791142 -23.9355850 -15.7221305
  36.0321546 -24.2596221 -15.0007474  35.5388331 -22.9291058 -16.0568106
  35.2977347 -24.8746490 -16.8983114  35.6171060 -26.0415363 -16.8187463
  34.9090767 -24.2638898 -18.0364370  34.4613814 -25.1043320 -19.1377127
  35.0108409 -26.0488296 -19.1635370  34.6561408 -24.5693016 -20.0706983
  32.9370451 -25.3659463 -19.0313256  32.6330042 -25.9322429 -19.9153602
  32.1554804 -24.0328526 -18.9773452  32.1975017 -23.5491276 -19.9565780
  32.5955510 -23.3651781 -18.2322288  30.7711625 -24.2598748 -18.6167479
  29.7005248 -23.0807233 -18.7109077  30.0175357 -22.1762133 -17.4310791
  30.7125783 -20.9266758 -17.5727737  31.5786123 -21.0687876 -18.2242632
  31.0606766 -20.5974197 -16.5903962  29.7588921 -19.8807096 -18.1869841
  29.3628860 -20.2783680 -19.1225731  30.3265285 -18.9780450 -18.4177792
  28.5722399 -19.4234729 -17.3813176  27.8783226 -18.3603632 -18.1544840
  28.6007285 -17.5614023 -18.3279026  27.0399165 -18.0057120 -17.5531697
  27.5258350 -18.7932813 -19.0918279  27.5942802 -20.5224180 -17.1204507
  28.0671310 -21.2838101 -16.4983737  27.3059154 -20.9738135 -18.0709088
  26.7265797 -20.1055574 -16.6070247  29.0103889 -18.8216531 -16.0917997
  29.4515562 -19.6083343 -15.4779744  28.1279922 -18.3988345 -15.6092203
  29.7323227 -18.0377328 -16.3253856  30.0164437 -22.3079586 -19.9253488
  28.3593678 -23.6630845 -18.5580134  32.6654077 -26.1164975 -17.8190875
  31.7072558 -27.0619535 -17.8547895  31.1694670 -27.4591327 -18.8716435
  31.3643551 -27.5866628 -16.4851522  30.6517243 -28.4071207 -16.5922415
  32.2740507 -27.9823637 -16.0287094  30.7633233 -26.4774442 -15.5961943
  31.5298676 -25.7280564 -15.3881252  29.9655747 -25.9716439 -16.1441267
  30.1869154 -26.9918966 -14.2623472  29.8564577 -26.1261082 -13.6847031
  29.3046212 -27.6000214 -14.4726074  31.1757755 -27.8192067 -13.4134603
  31.5243793 -28.6717796 -14.0000272  32.0536447 -27.2151279 -13.1749237
  30.5452871 -28.3740807 -12.1179998  29.6516609 -28.9432335 -12.3825037
  31.2406468 -29.0845060 -11.6660738  30.1584697 -27.3110414 -11.0667157
  29.4572711 -26.6007423 -11.5097237  29.6242023 -27.8088117 -10.2547741
  31.3486791 -26.5370989 -10.4630506  31.8659282 -25.9850502 -11.2505519
  30.9660029 -25.7903194  -9.7642338  32.3286748 -27.4602175  -9.7634375
  33.0933261 -27.8935361 -10.4030561  32.3327541 -27.7476525  -8.4649980
  33.0961585 -28.4131980  -8.0702376  31.3014483 -27.2826695  -7.4583238
  30.3846192 -26.9623375  -7.9575974  31.0384798 -28.1191325  -6.8074471
  31.8604517 -26.1268353  -6.6120541  32.6959944 -26.4931917  -6.0119551
  32.2588944 -25.3711629  -7.2922480  30.8246231 -25.4530954  -5.6894940
  31.3305068 -24.6595788  -5.1355296  30.0566006 -24.9777126  -6.3031888
  30.1499200 -26.4146662  -4.6920499  29.6000671 -27.1740246  -5.2519614
  30.9111452 -26.9355631  -4.1075292  29.1518879 -25.7117152  -3.7495285
  28.4108329 -25.1872277  -4.3563336  28.6096692 -26.4744210  -3.1867307
  29.7654223 -24.6982026  -2.7613202  30.2211595 -23.8760781  -3.3170894
  28.9585233 -24.2624211  -2.1684682  30.8112288 -25.2952290  -1.7999217
  31.6890574 -25.6125426  -2.3666616  31.1384201 -24.5117354  -1.1132308
  30.2831888 -26.4836812  -0.9781160  31.0083961 -26.7633748  -0.2111032
  30.1168847 -27.3518491  -1.6192804  29.3414593 -26.2245440  -0.4897919
  42.2546434  -7.7057314  -0.3408660  42.7749443  -8.2768869   0.4308420
  42.9615879  -7.0104098  -0.7982730  41.9069958  -8.4023166  -1.1066160
  41.0721016  -6.9470078   0.2801353  41.4441204  -6.2442702   1.0286180
  40.4285765  -7.6603103   0.7993093  40.2542496  -6.1828423  -0.7752705
  40.0657225  -6.8387610  -1.6277333  40.8447409  -5.3392100  -1.1386798
  38.9023757  -5.6946248  -0.2181413  39.0615916  -5.1054066   0.6873618
  38.3138824  -6.5696329   0.0655843  38.0984950  -4.8673186  -1.2398762
  37.0557141  -4.8221368  -0.9188974  38.1163430  -5.3803116  -2.2037140
  38.6280608  -3.4290332  -1.3980091  39.7143745  -3.4645459  -1.5034766
  38.4090376  -2.8621694  -0.4907281  38.0654263  -2.6805714  -2.6210332
  38.4149265  -3.1940314  -3.5191813  38.4916401  -1.6754723  -2.6451355
  36.5286708  -2.5768751  -2.6534125  36.1879444  -2.0058611  -1.7872068
  36.1000156  -3.5777456  -2.5698954  35.9749961  -1.9273701  -3.9388239
  36.2956667  -0.8848977  -3.9925447  34.8847008  -1.9269136  -3.8778287
  36.4080548  -2.6625207  -5.2247995  36.2848878  -3.7380716  -5.0816762
  37.4677825  -2.4763210  -5.4112774  35.5972862  -2.2351830  -6.4626688
  35.6715608  -1.1542718  -6.5989727  34.5452237  -2.4764948  -6.2971538
  36.0906601  -2.9467377  -7.7371299  36.1753821  -4.0179324  -7.5426352
  37.0857120  -2.5717786  -7.9856086  35.1571918  -2.7299008  -8.9399314
  35.1171327  -1.6654499  -9.1803557  34.1459656  -3.0370775  -8.6651140
  35.5840182  -3.5224253 -10.1911950  34.8092437  -3.3918345 -10.9495735
  35.6160760  -4.5887977  -9.9582005  36.9460034  -3.0860734 -10.7777953
  37.7708125  -3.4747359 -10.1768839  37.0141006  -1.9962600 -10.7662666
  37.1107006  -3.5483494 -12.2070539  36.5511680  -4.5280841 -12.6642084
  37.8801417  -2.7016816 -12.9225194  37.9333138  -2.8650367 -14.3691254
  37.8308392  -1.8775390 -14.8262870  37.1077728  -3.4969547 -14.7064817
  39.2524505  -3.4991780 -14.8497927  40.0724316  -2.8903297 -14.4604552
  39.3378139  -3.5445806 -16.4022374  40.1590872  -4.2072159 -16.6869688
  39.5799947  -2.5485584 -16.7816281  38.1206608  -4.0321776 -17.0514858
  36.9876623  -3.0453432 -17.6274526  35.7548141  -3.2785323 -16.6421807
  35.0823569  -4.5495719 -16.6246259  35.2429700  -5.0034726 -15.6433880
  35.5089331  -5.2117658 -17.3823738  33.5702825  -4.3619445 -16.8705738
  33.1539631  -3.6639971 -16.1426818  33.0796146  -5.3273433 -16.7381692
  33.1086969  -3.8841656 -18.2229340  33.6544299  -4.7354791 -19.3199635
  34.7389078  -4.6171483 -19.3336642  33.2284522  -4.4049060 -20.2684069
  33.3828592  -5.7723153 -19.1162443  31.6252565  -3.9864713 -18.2372677
  31.2459016  -3.3711457 -17.4201107  31.3716245  -5.0366729 -18.0855060
  31.2589478  -3.6288676 -19.2007077  33.4713626  -2.4640951 -18.4910131
  33.0363750  -1.8229274 -17.7229166  33.0885410  -2.1688497 -19.4690490
  34.5585179  -2.3740797 -18.4744895  37.4300814  -1.6516086 -17.4487042
  36.5588236  -3.4930745 -18.9628875  39.3560362  -4.8479646 -14.3131602
  40.5900526  -5.3733391 -14.1980851  41.5959883  -4.8196608 -14.5893919
  40.5844212  -6.7471987 -13.5737658  39.5555139  -7.0811927 -13.4245694
  41.0546064  -7.4379766 -14.2767704  41.3477373  -6.7854571 -12.2334683
  41.4682770  -7.8289300 -11.9349754  42.3505068  -6.3749081 -12.3690021
  40.6279993  -6.0288030 -11.0998690  40.5572128  -4.9701482 -11.3581395
  39.6111631  -6.4143658 -11.0006440  41.3644934  -6.1915106  -9.7550452
  41.5050602  -7.2559690  -9.5559639  42.3589993  -5.7468092  -9.8303074
  40.6102753  -5.5716711  -8.5629898  39.5975304  -5.9788436  -8.5310757
  41.1076355  -5.8809525  -7.6413387  40.5429077  -4.0313208  -8.6019796
  41.5529728  -3.6168534  -8.5808235  40.0836992  -3.7127155  -9.5401067
  39.7233510  -3.4425730  -7.4387795  39.5800829  -2.3757555  -7.6227331
  38.7316608  -3.8997456  -7.4367952  40.4067850  -3.6132136  -6.0985172
  41.2280226  -2.9212639  -5.9301674  40.0864553  -4.4843614  -5.1455319
  40.6582499  -4.4736642  -4.2211354  38.9998746  -5.5389142  -5.2077395
  38.2829142  -5.3488767  -4.4062960  38.4522104  -5.5122197  -6.1520982
  39.6181130  -6.9337296  -5.0222319  40.3107977  -7.0989227  -5.8500981
  40.2079010  -6.9496316  -4.1033414  38.6244798  -8.1108958  -4.9975997
  37.9510951  -8.0600166  -5.8557540  39.2113352  -9.0243125  -5.1147997
  37.8188872  -8.2471263  -3.6903319  37.6499200  -9.3121284  -3.5180399
  38.4126306  -7.8874856  -2.8473660  36.4473963  -7.5454676  -3.7061399
  36.5795064  -6.4692283  -3.8354361  35.8679390  -7.9108560  -4.5565414
  35.6671762  -7.8173012  -2.4061039  35.5572796  -8.8968265  -2.2835819
  36.2431884  -7.4515665  -1.5535133  34.2617631  -7.1907723  -2.3858482
  33.6983609  -7.5705254  -3.2407320  33.7398982  -7.5237292  -1.4862594
  34.2470288  -5.6551486  -2.4238048  33.2201982  -5.2884644  -2.3636037
  34.6862674  -5.2854484  -3.3527055  34.8075461  -5.2472568  -1.5800585
 -19.4113052   1.9508708  -0.4105184 -20.3847861   1.4589535  -0.4635874
 -19.1916656   2.3773973  -1.3914859 -19.4752276   2.7622586   0.3175117
 -18.3300757   0.9366076   0.0021942 -18.2790184   0.1393643  -0.7422923
 -18.6319149   0.4715572   0.9429839 -16.9335783   1.5638803   0.1935832
 -16.2490475   0.7846652   0.5352045 -16.9898391   2.3107372   0.9882552
 -16.3277090   2.2271791  -1.0575640 -15.3657961   2.6668406  -0.7857483
 -16.9767046   3.0453381  -1.3767561 -16.1196840   1.2492637  -2.2301205
 -17.0931888   0.9208295  -2.6000983 -15.5929446   0.3607083  -1.8758902
 -15.3241670   1.8582797  -3.4011436 -15.3127670   1.1362512  -4.2202950
 -14.2877150   2.0157053  -3.0954531 -15.9067130   3.1935737  -3.9006507
 -15.6635106   3.9861923  -3.1899658 -16.9948626   3.1132931  -3.9448276
 -15.3878832   3.5792592  -5.2974635 -15.6658828   2.7898917  -5.9989476
 -14.2978942   3.6452168  -5.2913594 -15.9858429   4.9170357  -5.7715154
 -15.4464054   5.7434756  -5.3041089 -17.0231462   4.9726573  -5.4348052
 -15.9504819   5.0609607  -7.3061854 -16.5264738   4.2471454  -7.7516091
 -14.9218404   4.9486339  -7.6551062 -16.5022969   6.4059138  -7.8220999
 -16.5719092   6.3573927  -8.9107972 -15.7749748   7.1877998  -7.5937992
 -17.8642786   6.8397385  -7.2358209 -18.1575799   7.7822787  -7.7027833
 -17.7170897   7.0611453  -6.1766803 -19.0356636   5.8376449  -7.3518068
 -19.7216773   6.0451585  -6.5279210 -18.6822248   4.8154289  -7.2014105
 -19.8642612   5.9136826  -8.6510342 -20.2650094   6.9231367  -8.7644660
 -20.7228613   5.2508700  -8.5247439 -19.1015208   5.5126369  -9.9335027
 -18.6121917   4.5479634  -9.7837543 -18.3358181   6.2588537 -10.1555860
 -20.0151849   5.3998983 -11.1318743 -19.8321140   5.9775698 -12.1847582
 -21.0388732   4.5517090 -10.9122062 -22.0490098   4.3917522 -11.9437170
 -22.2353530   5.3461206 -12.4428248 -22.9714012   4.0805170 -11.4467514
 -21.6567373   3.3046246 -12.9753995 -20.7770061   3.6398098 -13.5307157
 -22.8433871   3.0669320 -13.9382982 -22.9629564   3.9182794 -14.6132517
 -23.7541366   2.9547733 -13.3444905 -22.6755691   1.8435383 -14.7039127
 -22.0518351   1.8736474 -16.1660242 -23.2973146   2.3121002 -17.0559251
 -24.2177916   1.3281056 -17.5536203 -25.1914835   1.7886619 -17.7392471
 -24.3473768   0.5393975 -16.8081033 -23.6355281   0.7560240 -18.8597810
 -24.1464663  -0.1805710 -19.0878439 -22.5750232   0.5514132 -18.7056839
 -23.7504530   1.5927680 -20.0994921 -25.1786065   1.6817184 -20.5174208
 -25.5765843   0.6687762 -20.5938673 -25.2458501   2.2157800 -21.4663863
 -25.7275081   2.2168127 -19.7411072 -23.1953669   2.9648182 -19.9005699
 -22.1734333   2.8729066 -19.5297790 -23.8080788   3.4650886 -19.1491735
 -23.2259345   3.5117114 -20.8441019 -22.9902959   0.9170841 -21.1881876
 -21.9497848   0.8338845 -20.8708715 -23.0649304   1.5200084 -22.0943856
 -23.4213972  -0.0732604 -21.3419819 -21.0391998   2.9409811 -16.2236059
 -21.6536665   0.5003063 -16.5330732 -21.4171767   2.0513946 -12.2778726
 -20.3918076   1.2816130 -12.6800513 -19.4675899   1.6552089 -13.3820915
 -20.4932308  -0.1305312 -12.1607387 -21.5303588  -0.3582966 -11.9058740
 -20.2115965  -0.8100227 -12.9678547 -19.5625389  -0.3620387 -10.9538817
 -19.4523883  -1.4364959 -10.7930326 -18.5672891   0.0203326 -11.1899650
 -20.0480866   0.2817522  -9.6403950 -19.2874110   0.1066424  -8.8767368
 -20.1316738   1.3631745  -9.7668993 -21.3945007  -0.2830398  -9.1421765
 -22.1951413   0.0377087  -9.8119199 -21.3614750  -1.3743505  -9.1625315
 -21.6985393   0.1811291  -7.7064466 -20.8800197  -0.1480826  -7.0629340
 -21.7099142   1.2724388  -7.6693237 -23.0154300  -0.3635022  -7.1159059
 -23.0897474  -1.4407130  -7.2788733 -22.9679465  -0.2117061  -6.0355508
 -24.2873979   0.3439792  -7.6226920 -25.0591779   0.2317496  -6.8583465
 -24.0904808   1.4143844  -7.7116722 -24.8318601  -0.2319420  -8.9125276
 -25.2094126  -1.2481924  -8.8334316 -24.9849892   0.4163735 -10.0629675
 -25.4485178  -0.1041815 -10.8970726 -24.4871068   1.8103947 -10.3883982
 -23.6343646   2.0848417  -9.7639209 -24.1180372   1.7977738 -11.4160609
 -25.6038380   2.8731084 -10.2865899 -25.3039551   3.7600169 -10.8486640
 -26.5017486   2.4817118 -10.7693243 -25.9677839   3.3002743  -8.8495368
 -26.8728971   3.9101636  -8.8851666 -26.2058449   2.4100208  -8.2636702
 -24.8502445   4.1186818  -8.1657350 -23.9168525   3.5519087  -8.1620908
 -24.6670675   5.0188380  -8.7561840 -25.1714158   4.5380527  -6.7175651
 -24.3290949   5.1153761  -6.3307118 -26.0404897   5.1992422  -6.7192179
 -25.4326892   3.3524370  -5.7688802 -26.3504744   2.8440174  -6.0716063
 -24.6136093   2.6344058  -5.8463401 -25.5627608   3.7925807  -4.3006179
 -24.6041393   4.1805610  -3.9499301 -26.2869477   4.6066189  -4.2274323
 -26.0159588   2.6388231  -3.3911920 -26.1235523   2.9885679  -2.3623256
 -25.2886057   1.8245313  -3.4099171 -26.9812155   2.2504331  -3.7226963
  16.4601934  33.3642364  -2.3343986  15.8458281  32.6609421  -2.9004338
  15.8624959  33.7755871  -1.5183014  17.3071885  32.8243065  -1.9059877
  16.9597554  34.4861698  -3.2510605  16.1031556  35.0507760  -3.6251184
  17.4609816  34.0363121  -4.1106325  17.9296303  35.4347324  -2.5213835
  18.8471675  34.8945856  -2.2788334  17.4813581  35.7522273  -1.5776065
  18.2757461  36.6899705  -3.3432475  18.9852107  37.2979522  -2.7780202
  17.3701310  37.2867703  -3.4703535  18.8689291  36.3777781  -4.7299680
  18.1615579  35.7778287  -5.3062940  19.7853446  35.7946777  -4.6175402
  19.1666102  37.6637912  -5.5165571  19.9455619  38.2337809  -5.0058585
  18.2634616  38.2774425  -5.5313253  19.6073091  37.3582673  -6.9599229
  18.8364720  36.7661047  -7.4575365  20.5118656  36.7470169  -6.9350886
  19.8903346  38.6275697  -7.7837116  20.2192521  38.3310366  -8.7818825
  20.7287073  39.1568804  -7.3260832  18.6961579  39.6002102  -7.9058492
  19.0098572  40.4517841  -8.5132033  18.4436166  40.0011826  -6.9220251
  17.4156189  39.0051603  -8.5185379  16.6712868  39.7995210  -8.6046994
  17.0032370  38.2524419  -7.8433937  17.6467085  38.3755136  -9.9022204
  18.3188283  37.5206876  -9.8022628  18.1348622  39.1053367 -10.5514717
  16.3313401  37.9015136 -10.5488086  15.7285416  38.7656283 -10.8358669
  15.7565904  37.3317981  -9.8156285  16.5753663  37.0028496 -11.7737865
  15.6158972  36.6449237 -12.1529603  17.1380103  36.1269808 -11.4440095
  17.3371303  37.7006269 -12.9178524  18.2527459  38.1561494 -12.5349557
  16.7176795  38.5045743 -13.3208561  17.7060723  36.7297649 -14.0547311
  16.8073380  36.2283087 -14.4198108  18.1345797  37.2766829 -14.8971832
  18.7060356  35.6908727 -13.6060286  19.8878884  35.9381604 -13.4255326
  18.1279337  34.5128727 -13.3203483  18.9439881  33.3581901 -12.9791260
  19.1378713  33.3665800 -11.9034922  19.8978817  33.4038043 -13.5107803
  18.1989050  32.0490003 -13.3857274  18.5542631  31.2331748 -12.7510619
  18.4475422  31.6380715 -14.8615539  17.6061141  31.0505247 -15.2376378
  19.3411243  31.0095668 -14.8953450  18.6894500  32.7891350 -15.7200742
  17.5425327  33.4637499 -16.6331065  18.0487609  33.1107426 -18.1077528
  18.0167532  31.7647028 -18.5965836  17.8942251  31.7967916 -19.6822190
  17.1686029  31.2243390 -18.1684518  19.3455577  31.0716581 -18.2353830
  19.3673062  30.0796700 -18.6890018  19.3926954  30.9134412 -17.1569455
  20.6412983  31.7448235 -18.6079466  20.5994534  32.2924066 -19.9938369
  20.3602958  31.4742613 -20.6748080  21.5751123  32.7222157 -20.2254200
  19.8231101  33.0586386 -20.0153589  20.9757185  32.8420258 -17.6548576
  21.0163140  32.4122834 -16.6528821  20.1791573  33.5867143 -17.6896679
  21.9315171  33.2847881 -17.9389119  21.7365265  30.7454395 -18.5255897
  21.7355537  30.3290844 -17.5171578  22.6967359  31.2135887 -18.7472045
  21.5367842  29.9277472 -19.2196810  16.2617838  32.7567029 -16.4443672
  17.6479113  34.9233246 -16.4834547  16.7694664  32.1886635 -13.1829202
  16.3133919  32.4225354 -11.9451368  16.9416237  32.1563888 -10.9367394
  14.9484456  33.0754495 -11.9584906  14.8656380  33.6479759 -12.8846765
  14.1712570  32.3087692 -11.9838655  14.7213662  34.0330219 -10.7716858
  15.6307030  34.6100092 -10.5909753  13.9365804  34.7429466 -11.0411000
  14.3032312  33.3128023  -9.4780803  13.3484662  32.8101611  -9.6461284
  15.0412357  32.5446391  -9.2377883  14.1639185  34.2934561  -8.2973713
  15.1193631  34.7865677  -8.1065065  13.4612405  35.0768018  -8.5890460
  13.6448741  33.6387849  -6.9999266  13.0634975  34.3882394  -6.4588332
  12.9540932  32.8280163  -7.2406387  14.7425997  33.1364059  -6.0386139
  15.3462839  33.9932632  -5.7323056  14.2604876  32.7597904  -5.1340747
  15.6924629  32.0478773  -6.5769583  16.2810802  32.4535203  -7.4024564
  16.4100432  31.8040872  -5.7907599  14.9720788  30.7931566  -7.0375466
  14.7575927  30.7582474  -8.1026036  14.6943331  29.7339749  -6.2824368
  14.2252386  28.8633728  -6.7336285  14.8882651  29.6688485  -4.7841641
  14.6717620  30.6463218  -4.3481204  14.1782093  28.9619994  -4.3498254
  16.3216031  29.2524791  -4.4096872  16.5003896  28.2159948  -4.7032863
  17.0234990  29.8676300  -4.9766043  16.5947211  29.4251299  -2.9018474
  15.8681023  30.1197529  -2.4752459  16.4654493  28.4690714  -2.3902793
  18.0036306  29.9883008  -2.6449639  18.7541878  29.3006754  -3.0403131
  18.1088150  30.9274697  -3.1921008  18.2734597  30.2521753  -1.1534597
  17.4645066  30.8634281  -0.7479642  18.2693017  29.3066549  -0.6071647
  19.6204054  30.9731507  -0.9479269  20.4171276  30.3743219  -1.3941340
  19.6047080  31.9262242  -1.4807199  19.9612331  31.2337255   0.5305262
  19.9823105  30.2846766   1.0702707  20.9643793  31.6609836   0.5906444
  18.9734793  32.1931887   1.2165224  19.2970896  32.3872590   2.2412543
  17.9692745  31.7657280   1.2527786  18.9293373  33.1454730   0.6839138
 -33.8808632 -21.7057300  -2.0877522 -33.6466908 -21.2815547  -1.1091298
 -33.0138087 -22.2730947  -2.4323916 -34.7279644 -22.3842382  -1.9672704
 -34.2183256 -20.5814886  -3.0807841 -33.3971119 -19.8617148  -3.0821785
 -35.1088262 -20.0564051  -2.7289936 -34.4522953 -21.0638928  -4.5251009
 -33.5886312 -21.6482711  -4.8492143 -34.5000219 -20.1853132  -5.1718497
 -35.7383347 -21.8933392  -4.7233257 -36.6063190 -21.2387419  -4.6205074
 -35.8186984 -22.6519871  -3.9420074 -35.7883859 -22.6014781  -6.0932678
 -36.7344189 -23.1408405  -6.1743635 -34.9873924 -23.3426309  -6.1328834
 -35.6499410 -21.6387367  -7.2901618 -34.6672463 -21.1630726  -7.2674674
 -36.3941050 -20.8455729  -7.1923065 -35.8332205 -22.3174429  -8.6627227
 -35.8089042 -21.5370083  -9.4261307 -36.8213820 -22.7800751  -8.7071407
 -34.7674680 -23.3861995  -8.9852715 -34.8482370 -24.1997576  -8.2613498
 -33.7697887 -22.9554296  -8.8778633 -34.9164128 -23.9808750 -10.4020667
 -35.9387732 -24.3402433 -10.5365980 -34.2577720 -24.8478842 -10.4854441
 -34.5647073 -22.9849911 -11.5269649 -33.5299635 -22.6622176 -11.3943541
 -35.1957989 -22.0975709 -11.4452600 -34.7239184 -23.6000276 -12.9339898
 -35.7557893 -23.9221263 -13.0887890 -34.1063595 -24.4994450 -12.9801977
 -34.2908764 -22.6558518 -14.0801167 -33.8422704 -23.2634878 -14.8687828
 -33.5066509 -21.9819880 -13.7288892 -35.4217911 -21.8304729 -14.7273350
 -36.1041522 -22.5126576 -15.2386773 -34.9817061 -21.1903954 -15.4948568
 -36.2291145 -20.9585476 -13.7474847 -35.5574799 -20.3096461 -13.1815350
 -36.7333603 -21.6123366 -13.0328095 -37.3044896 -20.1091051 -14.4534791
 -38.0515480 -19.7971034 -13.7206614 -37.8189397 -20.7049942 -15.2102625
 -36.7364502 -18.8627195 -15.0857091 -36.5532303 -17.8375733 -14.4562662
 -36.5484309 -18.9808452 -16.4153111 -36.0002613 -17.8414190 -17.1367526
 -36.3702774 -16.9080389 -16.7048526 -36.3645577 -17.8955400 -18.1658340
 -34.4479966 -17.8277326 -17.1717095 -34.1529322 -16.8669391 -17.6012027
 -33.8682628 -18.9569438 -18.0632365 -32.9671049 -18.5672176 -18.5435247
 -34.5703912 -19.2466724 -18.8491881 -33.5066175 -20.1382351 -17.3037910
 -32.3740792 -21.1373210 -17.8351378 -31.0490894 -20.5885434 -17.1269858
 -30.2712512 -19.5294440 -17.7070618 -30.1695466 -18.7415552 -16.9563711
 -30.7628798 -19.1006303 -18.5840273 -28.8653803 -20.0601482 -18.0471230
 -28.4823465 -20.5800819 -17.1677852 -28.2187819 -19.2108512 -18.2726991
 -28.6946726 -21.0241461 -19.1940403 -29.2729998 -22.3639464 -18.8908041
 -29.0222168 -22.6252723 -17.8616798 -28.8519764 -23.0938697 -19.5837951
 -30.3569150 -22.3077011 -19.0014553 -29.3038583 -20.5190897 -20.4579401
 -28.8857865 -19.5397830 -20.6955409 -30.3821516 -20.4556608 -20.3044963
 -29.0941834 -21.2461352 -21.2438917 -27.2320104 -21.1907411 -19.4287348
 -26.7749596 -20.2265358 -19.6560991 -27.1047807 -21.8911433 -20.2554941
 -26.7889166 -21.6383457 -18.5378933 -32.6125002 -22.4971318 -17.3320925
 -32.1882510 -20.9109211 -19.2837262 -33.9268231 -17.9113400 -15.8191276
 -32.6420307 -17.5904405 -15.6106031 -31.9136691 -17.1003234 -16.4533746
 -32.2067547 -17.8720546 -14.1942847 -31.6368222 -17.0127869 -13.8347054
 -33.0932379 -17.9747939 -13.5649550 -31.3428187 -19.1474819 -14.1143262
 -31.9073367 -19.9993896 -14.4990826 -30.4700661 -19.0209281 -14.7583389
 -30.8437991 -19.4615257 -12.6902819 -30.0970984 -20.2555609 -12.7566755
 -30.3422451 -18.5800004 -12.2855330 -31.9609118 -19.9260020 -11.7343986
 -32.7629495 -19.1858721 -11.6968870 -32.3977137 -20.8404732 -12.1411073
 -31.4570904 -20.2234435 -10.3063631 -32.2393751 -20.7572746  -9.7627491
 -30.6020284 -20.8998561 -10.3679848 -31.0407901 -18.9778757  -9.4935584
 -30.6486273 -19.3077815  -8.5292792 -30.2232862 -18.4683311 -10.0078678
 -32.1698046 -17.9582369  -9.2425603 -31.7576480 -17.1024156  -8.7038940
 -32.5295210 -17.5747240 -10.1996315 -33.3313894 -18.5662568  -8.4819615
 -33.9102769 -19.3000793  -9.0369064 -33.7179041 -18.2310176  -7.2548002
 -34.5957875 -18.7096250  -6.8283904 -33.0137992 -17.2504461  -6.3405663
 -33.1588960 -17.5673103  -5.3056711 -31.9375300 -17.2546542  -6.5252095
 -33.5694480 -15.8263588  -6.5349638 -33.4414959 -15.5386460  -7.5805807
 -34.6442533 -15.8335733  -6.3420844 -32.8869081 -14.7615325  -5.6499511
 -31.8300319 -14.7099602  -5.9197986 -33.3060646 -13.7801123  -5.8814383
 -32.9869795 -15.0141764  -4.1307533 -32.3665118 -15.8792412  -3.8875553
 -32.5421715 -14.1646194  -3.6083904 -34.3987060 -15.2656388  -3.5526779
 -34.8609757 -16.1251152  -4.0426487 -34.2598391 -15.5527020  -2.5082764
 -35.3758073 -14.0684354  -3.5702026 -36.1352324 -14.2539513  -2.8077582
 -34.8482418 -13.1592286  -3.2744262 -36.1064029 -13.8377976  -4.9091309
 -35.3974175 -13.5213912  -5.6770426 -36.5590405 -14.7731531  -5.2448308
 -37.2028375 -12.7676916  -4.7927260 -37.6689386 -12.5955486  -5.7651365
 -36.7777491 -11.8248332  -4.4423258 -37.9765916 -13.0847156  -4.0903980
  40.7327700   5.1306367  -3.8786843  40.6721354   5.4483968  -2.8357011
  40.9122658   4.0535021  -3.8734862  39.7741771   5.3286606  -4.3627825
  41.8750000   5.8731353  -4.5971671  42.8165770   5.6442648  -4.0936652
  41.7175579   6.9494730  -4.5013911  42.0086575   5.5196196  -6.0920346
  42.9191923   5.9836167  -6.4768589  41.1700058   5.9532517  -6.6407561
  42.0512676   4.0012372  -6.3458806  41.1287975   3.5444349  -5.9813994
  42.8706932   3.5733548  -5.7645708  42.2205305   3.5899800  -7.8163630
  41.3667727   3.9651588  -8.3845228  42.1907759   2.4995658  -7.8671122
  43.5330009   4.0779045  -8.4614110  44.3678331   3.8604417  -7.7919078
  43.4951258   5.1611423  -8.5941708  43.8077450   3.4058475  -9.8221242
  43.9716434   2.3379491  -9.6633947  44.7298574   3.8148355 -10.2403426
  42.6594496   3.5955089 -10.8316946  42.4968767   4.6633589 -10.9921002
  41.7395592   3.1856954 -10.4094195  42.9360676   2.9140985 -12.1864986
  43.1567240   1.8546081 -12.0407045  43.8292122   3.3699077 -12.6189351
  41.7713785   3.0751812 -13.1867158  42.1933889   3.1398103 -14.1918004
  41.2666988   4.0257871 -13.0020237  40.7281828   1.9354029 -13.1945729
  41.1932278   1.0291654 -13.5881853  39.9464583   2.2221535 -13.9010751
  40.0971842   1.6115616 -11.8222749  39.8157239   2.5408757 -11.3226581
  40.8519173   1.1357524 -11.1926329  38.8685799   0.6759155 -11.8971813
  38.5331798   0.4555196 -10.8816040  39.1769505  -0.2737675 -12.3393047
  37.6770282   1.2341035 -12.7060544  36.8726897   0.4955571 -12.6988113
  37.9798317   1.3490850 -13.7489128  37.1311307   2.5758341 -12.1648979
  37.9534006   3.2617781 -11.9508517  36.5842271   2.4157938 -11.2333691
  36.2434101   3.2791129 -13.1577587  35.0762558   3.5519308 -12.9549563
  36.9379282   3.6448932 -14.2458975  36.2939191   4.4962627 -15.2245641
  35.8869910   5.3737044 -14.7154915  35.4755759   3.9549810 -15.7062042
  37.3378992   4.9546537 -16.2744761  36.9409704   5.8048892 -16.8350041
  37.6582575   3.8313547 -17.2780633  36.7534184   3.2590708 -17.4980831
  38.4040451   3.1651986 -16.8368316  38.1768298   4.3905112 -18.5171354
  37.2013831   4.9855551 -19.6531689  36.6349053   3.6451569 -20.2977276
  37.4319935   2.9544237 -21.2618613  38.4847713   3.0088678 -20.9731722
  37.3129082   3.4537727 -22.2268081  36.9659925   1.4864156 -21.3369894
  37.5221324   0.9900269 -22.1335983  35.9027028   1.4664669 -21.5805078
  37.1274662   0.6185179 -20.1120090  37.0515728  -0.8069493 -20.5348301
  36.0586667  -1.0066407 -20.9404659  37.2060204  -1.4220704 -19.6471071
  37.8348184  -1.0148463 -21.2652993  38.4288120   0.8299317 -19.4133306
  38.4537959   1.8594071 -19.0530002  39.2482638   0.6327994 -20.1060891
  38.4562850   0.1369926 -18.5710931  36.0442424   0.8560324 -19.1245043
  36.0184693   1.9154213 -18.8650560  36.2504911   0.2577398 -18.2358027
  35.0751114   0.5716841 -19.5370686  36.0929799   5.7300574 -19.0209460
  38.0303693   5.6471467 -20.6733847  38.5587072   5.3722382 -15.6001806
  38.5790229   6.5890706 -15.0376689  37.7322292   7.4461538 -15.2225447
  39.7530699   6.7833197 -14.1134608  40.3859472   5.8935744 -14.1302395
  40.3546810   7.6208359 -14.4727552  39.2602372   7.0488685 -12.6781452
  38.5317373   7.8622836 -12.6886344  38.7467337   6.1563480 -12.3145711
  40.4069853   7.4252570 -11.7220080  41.1354542   6.6125786 -11.6852736
  40.9217787   8.3033353 -12.1175230  39.9191046   7.7434462 -10.2948225
  40.7619953   8.1291813  -9.7175765  39.1686654   8.5356653 -10.3359854
  39.3365312   6.5175027  -9.5644879  38.4873557   6.1166102 -10.1218474
  40.0989294   5.7369977  -9.5194936  38.8792872   6.8642873  -8.1356245
  39.6986699   7.3600215  -7.6109117  38.0498552   7.5733536  -8.1772220
  38.4546447   5.6240827  -7.3290366  39.2685890   4.8961776  -7.3395854
  38.3103442   5.9278160  -6.2901014  37.1632171   5.0181806  -7.8399312
  36.2946939   5.6681937  -7.7712214  37.0068955   3.7745401  -8.2840371
  36.0154247   3.4454185  -8.5844243  38.1053948   2.7518523  -8.4976918
  37.7362084   1.9733372  -9.1685712  38.9633846   3.2142809  -8.9901084
  38.5556769   2.1034802  -7.1762431  39.0803289   2.8573939  -6.5856349
  37.6784039   1.7893378  -6.6068864  39.4826293   0.8909101  -7.3915493
  38.8842392   0.0604284  -7.7719378  40.2153492   1.1312373  -8.1647444
  40.2492762   0.4244190  -6.1330545  40.7297182  -0.5262821  -6.3734818
  41.0580397   1.1258776  -5.9178376  39.3938184   0.2290731  -4.8616496
  38.3832169  -0.0819848  -5.1344007  39.8323727  -0.5848113  -4.2805076
  39.3492961   1.4861856  -3.9664254  40.3711271   1.7666884  -3.7025237
  38.9196801   2.3239005  -4.5197120  38.5360050   1.2969583  -2.6744214
  37.5119805   1.0140058  -2.9269591  38.9672780   0.4876731  -2.0815259
  38.5151434   2.5847611  -1.8329200  37.8996038   2.4479756  -0.9413681
  38.1023002   3.4132171  -2.4123037  39.5262909   2.8527060  -1.5194747
  14.5940125  -5.8703315  -1.2159996  13.9741755  -4.9763146  -1.3108687
  15.5284405  -5.5909157  -0.7248453  14.0786111  -6.5901530  -0.5767186
  14.8600805  -6.4837700  -2.5984928  15.3016233  -5.7179111  -3.2395568
  13.9084244  -6.7780793  -3.0459264  15.7961988  -7.7072632  -2.5209311
  15.3952742  -8.4191728  -1.7964254  16.7728019  -7.3913610  -2.1482161
  15.9797084  -8.4247029  -3.8737127  15.0023222  -8.6962181  -4.2780161
  16.5324605  -9.3508267  -3.7027669  16.7439079  -7.5630689  -4.8958442
  17.7466059  -7.3640084  -4.5118704  16.2408614  -6.5999228  -5.0042683
  16.8608499  -8.1788051  -6.2997252  17.4327064  -7.4829149  -6.9171226
  15.8674765  -8.2608557  -6.7457533  17.5480580  -9.5559132  -6.3343793
  16.8776703 -10.3122699  -5.9208965  18.4503353  -9.5319647  -5.7197368
  17.9254735  -9.9346626  -7.7757919  18.5975730  -9.1630381  -8.1570292
  17.0286310  -9.9283224  -8.3987677  18.6144507 -11.3070536  -7.8914750
  17.9405785 -12.0749843  -7.5059342  19.5146835 -11.3224816  -7.2735691
  18.9840293 -11.6612065  -9.3453497  18.0802882 -11.6318500  -9.9576032
  19.3566549 -12.6873195  -9.3719149  20.0492764 -10.7317889  -9.9626398
  20.9796453 -10.8226490  -9.3981737  19.7261035  -9.6904725  -9.9019474
  20.3032613 -11.0736704 -11.4394987  19.3647087 -10.9488595 -11.9835639
  20.5932689 -12.1233952 -11.5197265  21.3892031 -10.1843345 -12.0786119
  22.2531247 -10.1558292 -11.4113104  21.0129523  -9.1619200 -12.1532249
  21.8799281 -10.6511688 -13.4691274  22.3538113 -11.6306067 -13.3763862
  22.6619506  -9.9609637 -13.7924242  20.8044553 -10.7065749 -14.5780778
  20.2428150  -9.7702104 -14.5937669  21.2883067 -10.8110917 -15.5514359
  19.8549962 -11.8682063 -14.4123244  20.2253366 -13.0126226 -14.2426658
  18.5734522 -11.4656985 -14.4422758  17.5272584 -12.4436092 -14.1552007
  17.3390639 -12.4536085 -13.0785716  17.8427839 -13.4460807 -14.4554436
  16.2204182 -12.0973039 -14.9260521  15.3678977 -12.5526834 -14.4156730
  16.2465036 -12.6531398 -16.3656175  15.4120374 -12.2484684 -16.9440269
  16.1510479 -13.7404704 -16.3086152  17.5004935 -12.3520041 -17.0265830
  17.8458321 -12.9337633 -18.4690380  18.6829388 -11.7304361 -19.1116440
  18.0901933 -10.8840156 -20.1163745  17.6843894 -11.5225422 -20.9052086
  18.8664865 -10.2537310 -20.5576897  16.9601345 -10.0169504 -19.5123911
  16.2859607 -10.6706595 -18.9570224  16.3954842  -9.5632499 -20.3282356
  17.3212302  -8.8849014 -18.5878277  16.0785007  -8.1660241 -18.1982672
  15.5733931  -7.8156555 -19.0995944  16.3737929  -7.3070377 -17.5939298
  15.4396987  -8.8464057 -17.6332068  17.9908240  -9.3597430 -17.3442352
  18.8911867  -9.9063754 -17.6285255  17.3136556 -10.0355005 -16.8197572
  18.2271028  -8.4911335 -16.7278183  18.2078981  -7.8984809 -19.2604768
  19.1433752  -8.3846581 -19.5411777  18.3770788  -7.0652527 -18.5768163
  17.6914489  -7.5096607 -20.1393270  18.7033856 -14.1199589 -18.3078384
  16.5748072 -13.0504894 -19.2100203  15.9948385 -10.6596673 -14.9772274
  15.7559454 -10.0327182 -13.8113546  15.5820012 -10.5945539 -12.7478456
  15.7570779  -8.5356212 -13.9957273  16.6800940  -8.2492363 -14.5041466
  14.9354017  -8.2797265 -14.6679091  15.6193113  -7.7497739 -12.6735675
  15.3938735  -6.7082268 -12.9119384  14.7725570  -8.1332552 -12.1004939
  16.8983305  -7.7949041 -11.8123317  17.0895100  -8.8190114 -11.4850414
  17.7525544  -7.4932700 -12.4220705  16.7937899  -6.8835944 -10.5744648
  16.4251316  -5.8977348 -10.8653867  16.0583794  -7.3135984  -9.8912883
  18.1345868  -6.7244416  -9.8315966  17.9357064  -6.3831085  -8.8135588
  18.6197627  -7.6998407  -9.7563446  19.0943325  -5.7194942 -10.4989076
  19.3248904  -6.0478848 -11.5145195  18.6010277  -4.7479728 -10.5714345
  20.4136205  -5.5509961  -9.7240418  20.9737086  -4.7337636 -10.1832783
  20.2031946  -5.2512300  -8.6952925  21.2508607  -6.8133104  -9.7906041
  21.5172768  -7.1314377 -10.7952869  21.7156911  -7.5071973  -8.7564349
  22.3349214  -8.3802140  -8.9460820  21.4328504  -7.2325814  -7.2943521
  22.2133589  -6.5817904  -6.8946743  20.4724407  -6.7296839  -7.1633053
  21.4324713  -8.5442525  -6.4886177  20.6402159  -9.1975820  -6.8600386
  22.3815084  -9.0604061  -6.6479319  21.2385297  -8.3043146  -4.9797484
  22.0340228  -7.6455390  -4.6252519  20.2870679  -7.7946067  -4.8142725
  21.2761235  -9.6186191  -4.1743314  20.4304218 -10.2465880  -4.4622630
  22.1847582 -10.1647663  -4.4361895  21.2639284  -9.4089383  -2.6468965
  21.4209247 -10.3756166  -2.1638343  22.1081495  -8.7746376  -2.3686534
  19.9579453  -8.7937611  -2.1050966  19.7630131  -7.8362930  -2.5926614
  19.1246378  -9.4594133  -2.3395531  20.0298524  -8.5759246  -0.5816478
  20.3187633  -9.5117015  -0.0986206  20.8091831  -7.8460002  -0.3529193
  18.6982489  -8.0882877   0.0122263  18.7988997  -7.9281271   1.0877179
  17.9105663  -8.8254046  -0.1571254  18.3990633  -7.1449989  -0.4494632
  33.0775285  29.0818548  -1.7964032  33.9550018  29.6881866  -1.5621737
  33.0565095  28.2216620  -1.1240273  32.1902347  29.6925426  -1.6168636
  33.1134415  28.6172771  -3.2603347  34.0169072  28.0301309  -3.4377447
  33.1617045  29.4917631  -3.9125660  31.8687439  27.7863741  -3.6186874
  30.9733081  28.3642721  -3.3805829  31.8312550  26.8856359  -3.0024645
  31.8375826  27.4025440  -5.1081783  32.6953721  26.7688680  -5.3429425
  31.9219470  28.3088517  -5.7114643  30.5360079  26.6714501  -5.4775155
  29.6853209  27.2828650  -5.1693505  30.4775476  25.7330441  -4.9221450
  30.4296398  26.3866901  -6.9863153  31.2018085  25.6708026  -7.2756737
  30.6133819  27.3074770  -7.5438583  29.0412116  25.8400679  -7.3653287
  28.2857251  26.5968204  -7.1438974  28.8176084  24.9669886  -6.7487270
  28.9556670  25.4545879  -8.8524693  29.7006941  24.6846461  -9.0636253
  29.2103148  26.3334608  -9.4484556  27.5576830  24.9357200  -9.2496121
  26.8179512  25.6976581  -8.9952344  27.3174262  24.0484762  -8.6600864
  27.4035692  24.5764017 -10.7391882  26.4060450  24.1623759 -10.9004104
  28.1239343  23.8004255 -11.0063982  27.5940251  25.8001995 -11.6488314
  28.6000466  26.1982727 -11.5007699  26.8829155  26.5735102 -11.3508797
  27.3976684  25.4850745 -13.1404090  26.3993096  25.0705290 -13.2950020
  28.1183290  24.7241879 -13.4472668  27.5611806  26.7334247 -14.0274811
  26.7773652  27.4496365 -13.7722588  27.4120426  26.4398003 -15.0686383
  28.9327002  27.4202490 -13.8825715  29.6982312  26.6518760 -14.0091693
  29.0560675  27.8298926 -12.8778636  29.1510510  28.5516644 -14.9102318
  28.4705186  29.3828058 -14.7139060  28.9378738  28.1645513 -15.9088111
  30.5689478  29.0627003 -14.9109292  30.8727121  30.2371645 -14.9012399
  31.4590383  28.0649281 -14.9968779  32.8161430  28.2950950 -14.5358312
  32.7807736  28.6668062 -13.5085881  33.2971811  29.0528631 -15.1595604
  33.6356831  26.9666409 -14.5692301  34.4020033  27.0224428 -13.7918687
  34.3422127  26.7531490 -15.9275758  34.7515774  25.7411838 -15.9823132
  35.1701903  27.4617910 -16.0108054  33.4376669  26.9978809 -17.0366621
  32.9262328  25.8449817 -18.0285227  31.6849613  25.1708412 -17.2747195
  30.4861116  25.9310579 -17.0452094  30.5245948  26.8789911 -17.5879729
  30.4433250  26.1500502 -15.9752285  29.2076492  25.1605988 -17.4277353
  28.3768868  25.8640122 -17.3547351  29.0469790  24.3588233 -16.7055035
  29.0864158  24.5418525 -18.7957919  29.9121809  23.3022428 -18.8906980
  30.9548521  23.5932517 -18.7549365  29.7706580  22.8583860 -19.8772287
  29.6077514  22.6146126 -18.1002772  27.6513815  24.2088914 -19.0301621
  27.1011591  25.1503873 -19.0637004  27.2946405  23.5743356 -18.2175410
  27.5610352  23.7033534 -19.9927366  29.4923258  25.4703546 -19.8810816
  28.9092135  26.3845730 -19.7608185  29.2725205  25.0103784 -20.8456469
  30.5599618  25.6729650 -19.7842062  32.3981452  26.5156841 -19.2299891
  33.9675188  24.8115087 -18.1464243  32.8326511  25.7752800 -14.3212843
  32.1009922  25.6830692 -13.1977916  32.0528984  26.5333223 -12.3350930
  31.3672423  24.3655109 -13.1254327  30.4150462  24.4430137 -13.6543727
  31.9646549  23.6091328 -13.6387086  31.1494017  23.9321041 -11.6664994
  32.0862699  24.0985012 -11.1307263  30.3927255  24.5708632 -11.2061799
  30.7411242  22.4507332 -11.5449107  29.7835231  22.2926617 -12.0453882
  31.4769053  21.8437147 -12.0765269  30.6425595  21.9450593 -10.0892806
  29.7103453  22.3025370  -9.6469605  30.5971956  20.8541131 -10.1048934
  31.8170381  22.4040866  -9.2013770  32.7364349  22.4198794  -9.7903818
  31.6318464  23.4308815  -8.8791031  32.0687103  21.5184307  -7.9677135
  31.1448026  21.3669443  -7.4056554  32.4104357  20.5364680  -8.3015299
  33.1369519  22.1505165  -7.0555669  33.5828948  21.3796711  -6.4235908
  33.9353037  22.5643539  -7.6751119  32.5320578  23.2416964  -6.1996365
  31.5585017  23.6031532  -6.5207416  33.0545115  23.6973500  -5.0677508
  32.5148463  24.4489956  -4.4973475  34.4360185  23.3534908  -4.5521671
  34.3633604  22.6167130  -3.7494564  35.0425720  22.9078388  -5.3433371
  35.1587701  24.6105337  -4.0321216  36.2013173  24.3598485  -3.8254502
  35.1645517  25.3612733  -4.8251039  34.5531178  25.2390671  -2.7637118
  35.1764107  26.0848260  -2.4659474  33.5627866  25.6341362  -2.9995582
  34.4249058  24.2637348  -1.5807320  33.6818576  23.4997725  -1.8188648
  35.3816891  23.7612200  -1.4241794  34.0058017  24.9881029  -0.2884971
  34.8143315  25.6478381   0.0332037  33.1447744  25.6252074  -0.5010863
  33.6314821  24.0258741   0.8571814  33.4115958  24.6192050   1.7471649
  32.7115393  23.5001373   0.5930430  34.7025728  22.9752135   1.2059280
  34.3237448  22.3534656   2.0197976  34.8682761  22.3141098   0.3527293
  36.0382652  23.6025572   1.6332558  36.7595935  22.8296375   1.9066498
  35.8912945  24.2584515   2.4938743  36.4685082  24.1821933   0.8138798
 -36.7395234   9.9590588  -4.0396875 -36.4041901  10.9267616  -3.6607862
 -37.1520567  10.1029205  -5.0404793 -35.8725262   9.2989528  -4.1106692
 -37.8026080   9.3647641  -3.1021103 -38.6136580  10.0859642  -2.9815757
 -37.3626900   9.2136467  -2.1141319 -38.3925295   8.0338252  -3.6064601
 -38.8743734   8.1883562  -4.5741424 -39.1689849   7.7215964  -2.9049677
 -37.3318887   6.9221473  -3.7200767 -36.7255902   6.9306505  -2.8118959
 -36.6625452   7.1445894  -4.5537212 -37.9068375   5.5014586  -3.8853943
 -38.5117292   5.2671480  -3.0069473 -37.0786262   4.7897646  -3.8899016
 -38.7565899   5.2767527  -5.1517427 -39.6126866   5.9545702  -5.1405150
 -39.1517138   4.2591366  -5.1234639 -37.9547858   5.4628402  -6.4550108
 -37.0333004   4.8800689  -6.3941407 -37.6686001   6.5117890  -6.5563411
 -38.7203169   5.0289541  -7.7200902 -38.9085412   3.9539427  -7.6828641
 -38.0815005   5.2162910  -8.5857010 -40.0534821   5.7779634  -7.9011303
 -39.8905587   6.8389779  -7.7007121 -40.7806444   5.4231763  -7.1677655
 -40.6367064   5.6393671  -9.3198013 -39.8551536   5.8671641 -10.0476408
 -41.4211750   6.3879991  -9.4487315 -41.2312222   4.2529655  -9.6174902
 -42.0274305   4.0548947  -8.8968736 -40.4704618   3.4810400  -9.4839460
 -41.8148947   4.1627666 -11.0417187 -42.4877691   5.0061810 -11.2101007
 -42.4184370   3.2556835 -11.1151791 -40.7340813   4.1345805 -12.1424842
 -40.0565434   3.2988870 -11.9553316 -40.1417732   5.0513226 -12.1075678
 -41.3479900   3.9801052 -13.5472107 -41.9418907   4.8649254 -13.7856185
 -42.0302010   3.1274670 -13.5396934 -40.2980137   3.7468323 -14.6525335
 -40.8037615   3.5355195 -15.5970073 -39.6939588   2.8708139 -14.4072282
 -39.3934345   4.9349207 -14.8671043 -39.7877097   6.0335976 -15.2124810
 -38.0985308   4.6341085 -14.6639967 -37.1218801   5.6722802 -14.9399459
 -37.1209574   6.3885599 -14.1143608 -37.4008489   6.1923116 -15.8599412
 -35.6966877   5.1070690 -15.1328230 -35.0446653   5.9706491 -15.2869225
 -35.5717230   4.2351520 -16.4098072 -36.2135744   3.3535719 -16.3356996
 -34.5367885   3.9109308 -16.5455914 -36.0364723   4.9926668 -17.5646102
 -35.1094842   5.3890783 -18.8143826 -35.2181268   6.9905758 -18.9025903
 -36.4608884   7.6849991 -18.6470449 -36.2572718   8.7571329 -18.5860598
 -36.8463635   7.3675734 -17.6747811 -37.5425768   7.4165362 -19.7158277
 -38.4489155   7.9354173 -19.4002414 -37.7463913   6.3454652 -19.7551680
 -37.3188639   7.8611183 -21.1379290 -38.6485171   7.9271787 -21.8080854
 -39.1164780   6.9435817 -21.7461967 -38.5134435   8.2348114 -22.8460622
 -39.2467093   8.6636835 -21.2695599 -36.6901922   9.2084682 -21.2255120
 -35.7322717   9.1774815 -20.7042575 -37.3565674   9.9135786 -20.7264662
 -36.5718603   9.4815171 -22.2751403 -36.4686155   6.8900275 -21.8753290
 -35.5063391   6.8334961 -21.3643408 -36.3621283   7.2008848 -22.9156685
 -36.9310069   5.9049046 -21.7978144 -33.6963463   5.0981498 -18.5113597
 -35.7104874   4.8672563 -20.0497389 -35.2510428   4.4861856 -13.8847911
 -35.6183934   3.2459050 -13.4937429 -36.0482430   2.3772426 -14.2216265
 -35.3959489   3.0408257 -12.0100856 -34.6948743   2.2154550 -11.8696558
 -34.9215555   3.9326090 -11.5951920 -36.7017841   2.7677530 -11.2257946
 -36.4765549   2.8259671 -10.1588607 -37.4372292   3.5454541 -11.4420569
 -37.3011494   1.3793762 -11.5254116 -37.6933742   1.3674885 -12.5444710
 -36.4986444   0.6401189 -11.4812791 -38.4209251   0.9399454 -10.5596173
 -38.0482078   0.9534982  -9.5332831 -39.2626238   1.6328494 -10.6219816
 -38.8731170  -0.4856179 -10.9276283 -39.2770886  -0.4769773 -11.9421220
 -37.9828525  -1.1176775 -10.9475708 -39.8884559  -1.1602061  -9.9823749
 -39.7933769  -2.2389498 -10.1228583 -39.6249628  -0.9544033  -8.9428174
 -41.3647461  -0.8024196 -10.2368760 -41.5912056  -0.9240652 -11.2981880
 -41.9981861  -1.5140453  -9.7032070 -41.6923237   0.6062115  -9.8008251
 -41.5659332   1.3685839 -10.5652750 -42.1195698   0.9559957  -8.5920382
 -42.3329210   2.0031534  -8.3932626 -42.2889376   0.0306269  -7.3985839
 -43.3506250  -0.1505313  -7.2183955 -41.8206835  -0.9394059  -7.5781357
 -41.6921043   0.6345171  -6.1139899 -41.8330193  -0.0767754  -5.2974910
 -40.6157827   0.7622221  -6.2469953 -42.3181581   1.9868958  -5.7144529
 -42.1080494   2.7292299  -6.4872772 -43.4027195   1.8856965  -5.6373304
 -41.7596579   2.4959058  -4.3758929 -42.0924473   1.8397743  -3.5689187
 -40.6690454   2.4498340  -4.4060731 -42.1871948   3.9440379  -4.0767077
 -41.8647194   4.5871553  -4.8982152 -43.2754040   4.0090737  -4.0131786
 -41.5592527   4.4429830  -2.7641824 -42.0034218   3.9078066  -1.9222996
 -40.4929161   4.2077032  -2.7696791 -41.7323494   5.9576261  -2.5613987
 -41.3515329   6.4918649  -3.4343433 -42.7936077   6.1963087  -2.4653365
 -40.9777164   6.4372754  -1.3123514 -41.0813093   7.5181085  -1.1960261
 -39.9144220   6.1995035  -1.3854004 -41.3741875   5.9455270  -0.4215898
  -0.5342956 -22.3089361  -0.5408467  -1.4035881 -22.5512838   0.0740209
  -0.7560676 -21.4052868  -1.1124224   0.3100991 -22.0971513   0.1184009
  -0.2020587 -23.4821463  -1.4792213  -1.0612082 -23.6829519  -2.1226519
  -0.0296388 -24.3797112  -0.8816310   1.0321421 -23.2001257  -2.3554577
   1.8768656 -22.9333925  -1.7168963   0.8232875 -22.3416519  -2.9972252
   1.4189872 -24.4035530  -3.2341942   0.5648242 -24.7046876  -3.8442668
   1.6581537 -25.2482295  -2.5847453   2.6261169 -24.1191816  -4.1515845
   2.9980993 -25.0705719  -4.5375192   3.4368670 -23.6787796  -3.5674661
   2.2823872 -23.2018924  -5.3435683   2.0232151 -22.2064781  -4.9768984
   1.4061694 -23.6033583  -5.8569211   3.4509909 -23.0897880  -6.3442904
   3.6820620 -24.0796423  -6.7433602   4.3405765 -22.7492332  -5.8103204
   3.1857213 -22.1187854  -7.5147676   4.0696198 -22.1024060  -8.1557977
   3.0714539 -21.1095905  -7.1136039   1.9508174 -22.4430013  -8.3843470
   1.8869823 -21.7054319  -9.1870779   1.0446624 -22.3240423  -7.7866888
   1.9657576 -23.8488603  -9.0159053   1.8235089 -24.5904875  -8.2270962
   2.9390371 -24.0380430  -9.4735098   0.8655845 -24.0167284 -10.0863206
   1.1398846 -23.4532499 -10.9805882  -0.0671575 -23.5919762  -9.7094411
   0.6225968 -25.4954958 -10.4434419   0.4359072 -26.0395527  -9.5152104
   1.5238963 -25.9119415 -10.8980799  -0.5766011 -25.7519293 -11.3738418
  -1.4685315 -25.2888823 -10.9466290  -0.7643186 -26.8272805 -11.4028704
  -0.3650983 -25.2579403 -12.8164864   0.4694644 -25.8033347 -13.2620382
  -0.0976462 -24.1991997 -12.8156567  -1.6313872 -25.4733896 -13.6690187
  -2.4517222 -24.8535299 -13.3012044  -1.9384275 -26.5195084 -13.6072040
  -1.3852918 -25.1588535 -15.1171219  -1.3492230 -26.0208344 -15.9699917
  -1.1885125 -23.8468671 -15.3327394  -0.7491142 -23.4012771 -16.6519380
  -1.0383002 -22.3534989 -16.7667484  -1.2534004 -23.9674067 -17.4392390
   0.7970689 -23.5050178 -16.8071938   1.1001354 -22.8916121 -17.6595640
   1.2677586 -24.9596238 -17.0398235   0.5236727 -25.5134869 -17.6179421
   1.4089189 -25.4581237 -16.0774207   2.5177169 -24.9850965 -17.7710521
   2.4947813 -24.9636102 -19.3727994   3.8748783 -24.2465520 -19.7062385
   5.0921059 -24.9960232 -19.6102130   5.0983065 -25.7552052 -20.3965044
   5.1372939 -25.4978251 -18.6402631   6.2775570 -24.0252876 -19.7851944
   6.2016743 -23.5462070 -20.7624364   7.2079891 -24.5933723 -19.7420800
   6.4410615 -22.9202008 -18.7724578   5.3225064 -21.9301677 -18.8074255
   5.2159858 -21.5630341 -19.8292613   5.5496001 -21.1195374 -18.1134617
   4.4070089 -22.4448490 -18.5120475   6.5410531 -23.4810948 -17.3964596
   7.3796082 -24.1789269 -17.3846841   5.6048650 -23.9903283 -17.1629775
   6.7269003 -22.6535940 -16.7101777   7.7012491 -22.1904707 -19.0830231
   8.5135692 -22.9185414 -19.0649009   7.8673053 -21.4388013 -18.3099115
   7.6181585 -21.7385721 -20.0725508   2.5696704 -26.3536787 -19.8468900
   1.3889265 -24.0798807 -19.7830594   1.4721836 -23.0236673 -15.6083786
   1.4644204 -21.7074227 -15.3458703   0.9080908 -20.8653617 -16.0189736
   2.2371086 -21.3854337 -14.0923822   1.8055871 -20.4897785 -13.6406600
   2.1272697 -22.2131157 -13.3885765   3.7271854 -21.1569238 -14.4143605
   4.0687770 -21.9618630 -15.0684655   3.8323835 -20.2274919 -14.9778795
   4.6672031 -21.1187840 -13.1898320   4.6478242 -22.0841265 -12.6797330
   5.6808257 -20.9908605 -13.5754073   4.4130021 -19.9868560 -12.1711612
   5.3568763 -19.7733128 -11.6652310   4.1243154 -19.0793228 -12.7054906
   3.3726150 -20.3352141 -11.0874104   2.4005745 -20.5263090 -11.5468478
   3.6774608 -21.2626243 -10.5980814   3.2009822 -19.2458391 -10.0064719
   2.4017054 -19.5495224  -9.3272108   4.1073987 -19.1898465  -9.4000602
   2.8857955 -17.8339434 -10.5305684   2.6707774 -17.1849322  -9.6790892
   3.7695324 -17.4212754 -11.0216677   1.7302084 -17.8357625 -11.5054262
   2.0197868 -17.8335571 -12.5531435   0.4399653 -17.8625548 -11.1942446
  -0.2826353 -17.8896463 -12.0058382  -0.1604032 -17.8889608  -9.8032737
   0.5520618 -17.5437558  -9.0511495  -1.0146900 -17.2092640  -9.7773832
  -0.6299113 -19.3133605  -9.4571984  -1.0794712 -19.7566855 -10.3481650
   0.2368780 -19.9276221  -9.2045689  -1.6603337 -19.4006467  -8.3164310
  -2.6006040 -18.9643586  -8.6599541  -1.8560903 -20.4565668  -8.1184971
  -1.2509699 -18.7308919  -6.9952691  -0.2762049 -19.1169059  -6.6898340
  -1.1537356 -17.6526093  -7.1378058  -2.3036350 -19.0244508  -5.9041566
  -3.2870701 -18.7134373  -6.2627500  -2.3577657 -20.1034760  -5.7452816
  -2.0361048 -18.3287191  -4.5552158  -2.1774316 -17.2517502  -4.6675864
  -2.7767453 -18.6704051  -3.8291535  -0.6276504 -18.5680521  -3.9905539
   0.1050017 -18.0962384  -4.6486387  -0.5539602 -18.0761540  -3.0184069
  -0.2698834 -20.0508952  -3.8232592   0.7208848 -20.1438737  -3.3735967
  -0.2546518 -20.5668974  -4.7855341  -0.9962707 -20.5456829  -3.1751782
  -8.0153090  43.5318613  -2.8174889  -7.4454468  44.3911362  -2.4578057
  -8.8877642  43.4019327  -2.1737477  -8.3609730  43.7484932  -3.8304311
  -7.1320850  42.2746754  -2.7941108  -6.6773587  42.1816349  -1.8056618
  -6.3156533  42.3984432  -3.5086626  -7.9079700  40.9781456  -3.1008413
  -8.6136121  40.7899523  -2.2889817  -7.2056955  40.1419258  -3.1045449
  -8.6878425  40.9889984  -4.4313318  -9.5121253  41.7016411  -4.3594813
  -9.1406083  40.0056267  -4.5743132  -7.8454292  41.3333178  -5.6763589
  -7.4936146  42.3651552  -5.6130606  -8.4980565  41.2721443  -6.5497434
  -6.6365063  40.4050970  -5.8922648  -6.9640505  39.3666482  -5.8097541
  -5.8887225  40.5771399  -5.1152945  -5.9957343  40.6267214  -7.2722328
  -5.5679566  41.6303492  -7.3191327  -6.7762256  40.5706453  -8.0339104
  -4.9098769  39.5859122  -7.6019663  -5.3224063  38.5819364  -7.4823284
  -4.0708989  39.6837831  -6.9098675  -4.4186175  39.7587895  -9.0471941
  -3.9260948  40.7283497  -9.1464031  -5.2983236  39.7577167  -9.6941710
  -3.4663093  38.6435771  -9.5143622  -4.0043637  37.6934624  -9.4986624
  -2.6444909  38.5569334  -8.8005197  -2.8682220  38.8581991 -10.9244728
  -2.2669141  37.9774523 -11.1593771  -2.1770023  39.7033262 -10.9035122
  -3.8897800  39.0551996 -12.0693636  -4.7540390  38.4101295 -11.8978858
  -3.4261310  38.7225771 -13.0004156  -4.3529448  40.5155993 -12.2685158
  -3.4854552  41.1443281 -12.4797559  -4.8106846  40.8994913 -11.3544261
  -5.3553993  40.6827927 -13.4224999  -6.0238475  39.8199058 -13.4551656
  -4.8088112  40.6999636 -14.3677032  -6.2240744  41.9504833 -13.2883978
  -6.8309563  42.0681810 -14.1885674  -6.9100791  41.8321753 -12.4470520
  -5.4260039  43.2136345 -13.0683982  -5.4649192  43.8436508 -12.0288980
  -4.6660566  43.5655546 -14.1165686  -4.0390489  44.8703337 -14.0868759
  -3.2053375  44.8471594 -13.3804500  -4.7652724  45.6140661 -13.7490809
  -3.5338944  45.2753019 -15.4940081  -3.0851188  46.2677240 -15.4026258
  -4.6794131  45.4235125 -16.5357745  -4.4496042  46.3031292 -17.1424985
  -5.6313157  45.6105566 -16.0322404  -4.8200870  44.3117714 -17.4674630
  -5.8450598  43.0992651 -17.2328973  -4.9545422  41.9195604 -16.6242135
  -3.6959758  41.5497160 -17.2226989  -3.1771055  40.8594704 -16.5526378
  -3.0773300  42.4441719 -17.3316824  -3.8935557  40.9120893 -18.6134398
  -2.9156300  40.7827282 -19.0794945  -4.4792280  41.5999222 -19.2251253
  -4.5863727  39.5800257 -18.7109566  -5.9870893  39.6322346 -18.2119155
  -5.9630448  39.8665571 -17.1466482  -6.4424413  38.6588597 -18.4002745
  -6.5067548  40.4267788 -18.7494349  -4.6369746  39.1943336 -20.1489353
  -3.6182946  39.1302156 -20.5342412  -5.2160609  39.9508142 -20.6806111
  -5.1318157  38.2243705 -20.2166557  -3.8505149  38.5244632 -17.9577065
  -2.8211081  38.4853601 -18.3169734  -4.3612102  37.5777411 -18.1398940
  -3.8861778  38.7733674 -16.8960786  -6.8413532  43.5102987 -16.2261999
  -6.3549834  42.6437187 -18.5439312  -2.5317863  44.3182421 -15.9320569
  -1.2415139  44.5661688 -15.6583691  -0.8264524  45.6469631 -15.2884161
  -0.3883481  43.3316565 -15.8048928  -1.0206375  42.4465322 -15.7087874
   0.0330336  43.3083487 -16.8120468   0.7469007  43.2593060 -14.7611928
   1.2466308  42.2956610 -14.8800468   1.4866397  44.0304613 -14.9860644
   0.3233310  43.3982611 -13.2828319   1.2133264  43.2549191 -12.6665330
  -0.0232894  44.4173193 -13.0988741  -0.7710061  42.4060774 -12.8387225
  -1.6555928  42.5351048 -13.4658766  -0.4163118  41.3835287 -12.9838049
  -1.1925376  42.5995827 -11.3681591  -1.5819192  43.6121368 -11.2433505
  -2.0122935  41.9157505 -11.1383021  -0.0532707  42.3533821 -10.3579664
   0.4258876  41.3976240 -10.5802119   0.7055928  43.1305122 -10.4704773
  -0.5315725  42.3338270  -8.8932556  -1.1812352  41.4694118  -8.7409824
   0.3434186  42.2121334  -8.2513487  -1.2515539  43.6143637  -8.5269558
  -1.0584673  44.4549799  -9.1885108  -2.0890296  43.7648010  -7.5078630
  -2.5692737  44.7276926  -7.3536867  -2.4273993  42.7085972  -6.4810431
  -3.4324098  42.8954649  -6.0969853  -2.4428146  41.7178917  -6.9400936
  -1.4108974  42.7340746  -5.3205180  -0.4524682  42.3495960  -5.6755573
  -1.2439492  43.7682343  -5.0121212  -1.8640509  41.9273996  -4.0880051
  -1.0924044  41.9931650  -3.3181342  -2.7631006  42.3973274  -3.6838469
  -2.1509957  40.4441118  -4.3932962  -2.9203457  40.3743362  -5.1651090
  -1.2477528  39.9785852  -4.7931716  -2.6292092  39.6404529  -3.1695887
  -2.7917495  38.6090684  -3.4894156  -1.8382975  39.6252441  -2.4167998
  -3.9238277  40.2036190  -2.5442946  -3.7023997  41.1602497  -2.0664923
  -4.6516970  40.4023981  -3.3336973  -4.5714000  39.2782950  -1.4974675
  -3.8332322  39.0090322  -0.7391343  -5.3671724  39.8291183  -0.9916953
  -5.1760912  37.9997563  -2.1025699  -5.6086153  37.3828411  -1.3121277
  -4.4164371  37.4058366  -2.6150593  -5.9619486  38.2451081  -2.8199926
   9.4853109  40.7271338   1.2932387  10.0893521  39.8710656   1.6010468
   8.4785342  40.3737020   1.0609660   9.4147545  41.4260006   2.1293403
  10.1199114  41.4169884   0.0737758  10.3173721  40.6802940  -0.7077296
  11.0817909  41.8409348   0.3696193   9.2319238  42.5396585  -0.4893352
   9.8266190  43.1511641  -1.1711434   8.9090502  43.1865931   0.3290103
   8.0020767  42.0193386  -1.2559618   7.4357629  41.3192225  -0.6382322
   8.3382493  41.4830112  -2.1457949   7.0777899  43.1768560  -1.6621430
   7.6538622  43.9318180  -2.2012527   6.6960144  43.6592007  -0.7598922
   5.8877468  42.7359152  -2.5315294   5.2222544  43.5966587  -2.6248524
   5.3255993  41.9473886  -2.0268740   6.2961054  42.2533464  -3.9383027
   6.5113753  41.1828423  -3.9260292   7.2166055  42.7590513  -4.2373055
   5.1950276  42.5722027  -4.9687919   4.8355791  43.5879564  -4.7912845
   4.3394667  41.9093513  -4.8235071   5.6874967  42.4920750  -6.4237696
   5.8817577  41.4531898  -6.6984296   6.6267622  43.0420923  -6.5116870
   4.6543738  43.1201839  -7.3760670   4.3627754  44.0925646  -6.9736814
   3.7562919  42.4998999  -7.4100924   5.1905835  43.3494902  -8.7984198
   6.1125726  43.9310312  -8.7335110   4.4697922  43.9576054  -9.3489856
   5.4380423  42.0472336  -9.5827699   4.5307675  41.4401245  -9.5556831
   6.2337708  41.4684868  -9.1091335   5.7998937  42.3208332 -11.0547066
   5.0237238  42.9457378 -11.5013766   5.7985836  41.3727427 -11.5965497
   7.1735698  43.0003119 -11.2316620   7.9605412  42.3161507 -10.9075224
   7.2356552  43.8845634 -10.5939245   7.4396145  43.4467840 -12.6821744
   8.4162092  43.9325428 -12.7347291   6.6922969  44.1858482 -12.9784286
   7.4238342  42.2982311 -13.6599278   8.0651873  41.2776804 -13.5044467
   6.6446710  42.5470877 -14.7335517   6.4456916  41.4831829 -15.7105780
   7.3443478  40.8676815 -15.8012784   6.2563819  41.9472361 -16.6819012
   5.2249503  40.5976534 -15.3536880   5.1758987  39.7788000 -16.0759902
   3.8997549  41.3905764 -15.4055405   3.8841718  42.0507193 -16.2765288
   3.8123259  41.9993496 -14.5019913   2.7569094  40.4910755 -15.4832411
   2.3330253  39.8141456 -16.8736672   2.1374421  38.2677436 -16.4906251
   3.2156718  37.4732065 -15.9732187   2.7939019  36.5561962 -15.5538714
   3.7040916  38.0218291 -15.1638317   4.2315292  37.1237326 -17.0824039
   4.9868414  36.4587164 -16.6610527   4.7263756  38.0423760 -17.4010038
   3.7285808  36.4652896 -18.3438587   3.0570135  37.4379230 -19.2543292
   2.1496738  37.7912736 -18.7622309   2.8234279  36.9625711 -20.2081418
   3.7156352  38.2979441 -19.3841887   4.9046293  35.9044838 -19.0623915
   5.3637439  35.1671481 -18.4022176   5.5934644  36.7254972 -19.2666638
   4.5527074  35.4358816 -19.9826312   2.7722386  35.3619766 -18.0509400
   3.2880232  34.6371531 -17.4193728   2.4689287  34.8967934 -18.9900279
   1.9138561  35.7945323 -17.5348413   1.0231858  40.3265142 -17.3028386
   3.4926677  39.8895502 -17.7885747   5.3689891  40.0778008 -14.0084803
   5.9589964  38.8873601 -13.8259494   6.2827516  38.1354332 -14.7281444
   6.0863531  38.5769200 -12.3560679   6.9568849  39.1025972 -11.9581950
   5.2072257  38.9900661 -11.8571615   6.1984712  37.0673060 -12.0663428
   5.4781765  36.5174866 -12.6757181   7.1944952  36.7258573 -12.3558450
   5.9523839  36.7357588 -10.5818987   6.2574184  35.7035685 -10.3975058
   6.5761447  37.3757911  -9.9544078   4.4690520  36.8812633 -10.1878786
   4.1294801  37.9091072 -10.3317237   3.8756362  36.2579966 -10.8600843
   4.1884869  36.4393163  -8.7410271   3.1194374  36.2411618  -8.6393881
   4.6990448  35.4916263  -8.5575092   4.6186504  37.4621153  -7.6669079
   4.5631921  36.9823551  -6.6875118   5.6646729  37.7340722  -7.8229249
   3.7630999  38.7450433  -7.6156598   4.2057234  39.4187427  -6.8789935
   3.8195956  39.2562938  -8.5789323   2.3093121  38.4399748  -7.2903764
   1.7940675  37.8365827  -8.0333495   1.6439195  38.8250399  -6.2039191
   0.6032711  38.5335565  -6.0870504   2.1938317  39.6947575  -5.0938570
   2.9800040  40.3475952  -5.4788274   1.4056820  40.3500700  -4.7172230
   2.7449286  38.8432407  -3.9348528   1.9172932  38.3348155  -3.4358665
   3.4092125  38.0753446  -4.3367556   3.5297358  39.6997833  -2.9232755
   4.3697858  40.1571274  -3.4501666   2.9006511  40.5099344  -2.5486165
   4.1002417  38.8974333  -1.7413165   4.5790124  37.9922223  -2.1205765
   4.8789307  39.4943738  -1.2619747   3.0494958  38.5254121  -0.6788786
   2.6408157  39.4429445  -0.2504190   2.2245990  37.9777145  -1.1393528
   3.6813167  37.6593471   0.4265373   3.9690205  36.6986084  -0.0055173
   4.5957777  38.1426597   0.7767296   2.7636608  37.4036050   1.6360086
   1.8034154  37.0090771   1.2972759   3.2237622  36.6398430   2.2664338
   2.5424862  38.6672163   2.4841489   1.9903909  39.4235921   1.9224136
   3.5038543  39.0917087   2.7808627   1.9813503  38.4276628   3.3898005
 -37.0040035 -14.9772990   1.4682245 -37.8729868 -14.7708511   2.0964850
 -36.8815780 -14.1571736   0.7576816 -36.1188412 -15.0172436   2.1064693
 -37.1917367 -16.3051736   0.7193022 -38.1177974 -16.2677693   0.1418280
 -37.2938538 -17.1099257   1.4503349 -36.0063410 -16.6014683  -0.2184702
 -35.0750256 -16.3713622   0.3032238 -36.0608125 -15.9400892  -1.0856923
 -35.9418893 -18.0702376  -0.6780002 -35.8343554 -18.7024760   0.2058398
 -35.0364590 -18.2140088  -1.2712875 -37.1603441 -18.5598302  -1.4859812
 -38.0883431 -18.2889616  -0.9781321 -37.1260786 -19.6507943  -1.5189371
 -37.1800447 -18.0298197  -2.9331964 -36.2361956 -18.2881963  -3.4178141
 -37.2465158 -16.9398451  -2.9322109 -38.3329082 -18.6413014  -3.7559101
 -38.6490989 -19.5829678  -3.3023101 -37.9643703 -18.8875771  -4.7539037
 -39.5505214 -17.7081692  -3.8917562 -39.7977257 -17.2753680  -2.9201400
 -40.4111433 -18.3011281  -4.2082870 -39.3069911 -16.5922236  -4.9286303
 -39.0445924 -17.0559394  -5.8818239 -38.4605861 -15.9758091  -4.6186396
 -40.5432844 -15.6940639  -5.1124430 -40.7310867 -15.1707518  -4.1725820
 -41.4117765 -16.3203907  -5.3266829 -40.4173565 -14.6395147  -6.2241685
 -39.5663834 -13.9891112  -6.0113746 -41.3126802 -14.0145969  -6.2057096
 -40.2621698 -15.2475512  -7.6299709 -41.0816622 -15.9428191  -7.8236020
 -39.3290448 -15.8124685  -7.6810956 -40.2469397 -14.1586733  -8.7161767
 -39.4963789 -13.4098458  -8.4546769 -41.2160444 -13.6562765  -8.7460333
 -39.9162674 -14.7350526 -10.1040792 -40.6946468 -15.4356277 -10.4135740
 -38.9818144 -15.2952409 -10.0302517 -39.7677135 -13.6194599 -11.1581302
 -39.1068244 -12.8411305 -10.7709718 -40.7387590 -13.1633937 -11.3619423
 -39.1742420 -14.1256893 -12.4487579 -39.7262239 -14.0226901 -13.5270786
 -37.9583526 -14.6784306 -12.2664332 -37.1649671 -15.0332940 -13.4343755
 -37.7814937 -15.5674803 -14.1618299 -36.3551712 -15.6899846 -13.1062961
 -36.5501356 -13.7622046 -14.0682936 -37.3539019 -13.1394088 -14.4692075
 -35.5888176 -14.0900373 -15.2321148 -36.1429954 -14.5402992 -16.0596430
 -34.8303509 -14.7960567 -14.8843884 -34.9140406 -12.8868222 -15.7038033
 -35.6990194 -11.7413497 -16.5077400 -36.2769914 -10.7927966 -15.3582430
 -36.7673230  -9.4749314 -15.6770742 -36.0145903  -8.9521235 -16.2726557
 -36.9199634  -8.9169264 -14.7497225 -38.0921793  -9.5599872 -16.4690578
 -37.9427981 -10.2083099 -17.3337221 -38.3540082  -8.5599053 -16.8177164
 -39.3267202 -10.0692272 -15.7717633 -39.6362901  -9.2573750 -14.5604014
 -38.8288951  -9.4064540 -13.8419533 -40.5875063  -9.5946890 -14.1460490
 -39.6920848  -8.2111317 -14.8646116 -40.4716682  -9.9781030 -16.7195272
 -40.2401543 -10.5953979 -17.5887966 -40.5887365  -8.9343488 -17.0147443
 -41.3727522 -10.3337455 -16.2176907 -39.1830683 -11.4918220 -15.3705835
 -38.8604069 -12.0665717 -16.2399709 -40.1217937 -11.8758917 -14.9686313
 -38.4047294 -11.5313387 -14.6071005 -34.7196555 -10.9530246 -17.2773063
 -36.8615246 -12.3430490 -17.1829736 -35.7887483 -13.0482984 -13.0609643
 -36.3579082 -12.0044184 -12.4378693 -37.5045490 -11.6222990 -12.5906789
 -35.3851748 -11.3503969 -11.4953661 -34.6563363 -12.0935547 -11.1652517
 -34.8414230 -10.5844605 -12.0522690 -36.0779643 -10.7312572 -10.2669454
 -36.8513703 -10.0312114 -10.5898070 -36.5600991 -11.5135109  -9.6769553
 -35.0361538  -9.9921519  -9.4168514 -34.3194890 -10.7167196  -9.0246081
 -34.4854188  -9.3084079 -10.0661945 -35.6156492  -9.1726255  -8.2559490
 -34.7919250  -8.6077130  -7.8145707 -36.3257217  -8.4434438  -8.6516172
 -36.3304210 -10.0018311  -7.1727973 -37.2981644 -10.3320324  -7.5560790
 -35.7490158 -10.8961916  -6.9392318 -36.5429831  -9.1792911  -5.8862394
 -36.9428062  -8.1950986  -6.1391658 -37.2833920  -9.6776521  -5.2570373
 -35.2306032  -9.0299058  -5.0940222 -34.8855829 -10.0224721  -4.7969782
 -34.4533205  -8.6071700  -5.7340127 -35.3871465  -8.1255853  -3.8938558
 -35.3003120  -7.0631748  -4.1067258 -35.5728316  -8.5165250  -2.6384184
 -35.6472540  -7.7592999  -1.8621190 -35.7593346  -9.9397016  -2.1520430
 -35.3560162 -10.6728852  -2.8536400 -35.2243972 -10.0694108  -1.2089206
 -37.2553039 -10.2043819  -1.9260269 -37.6631260  -9.3829608  -1.3332261
 -37.7725053 -10.1919305  -2.8876987 -37.5622630 -11.5234911  -1.1981781
 -37.2851491 -12.3747087  -1.8235581 -36.9726396 -11.5734458  -0.2804025
 -39.0545583 -11.5941441  -0.8337283 -39.3010235 -10.7047403  -0.2500511
 -39.6568894 -11.5708387  -1.7442872 -39.4188237 -12.8425360  -0.0159031
 -39.2540097 -13.7324989  -0.6268593 -38.7532997 -12.9126668   0.8470108
 -40.8792067 -12.8309381   0.4750740 -41.5440655 -12.7789974  -0.3896404
 -41.0803604 -13.7777019   0.9806833 -41.2327337 -11.6764700   1.4348371
 -41.1891699 -10.7203364   0.9091246 -42.2675753 -11.8038476   1.7594011
 -40.3178692 -11.6041148   2.6691335 -40.7057619 -10.8671391   3.3754402
 -39.3071365 -11.3062620   2.3824817 -40.2675819 -12.5721359   3.1719944
  34.0524793  19.1065574  -0.7842369  34.3708873  18.3197558  -0.0971987
  33.1208777  19.5350194  -0.4087321  34.8128963  19.8901844  -0.7968703
  33.8539243  18.5292661  -2.1934392  33.0584764  17.7818251  -2.1609314
  34.7660756  18.0142224  -2.5019392  33.4907603  19.6164894  -3.2209182
  34.3382287  20.2925539  -3.3520749  32.6630449  20.2095056  -2.8263542
  33.0659795  19.0474224  -4.5871630  32.6858068  19.8645544  -5.2037883
  32.2341418  18.3547175  -4.4433984  34.2110515  18.3350360  -5.3332335
  34.5802522  17.5019360  -4.7314888  35.0392699  19.0332496  -5.4711187
  33.7636948  17.8022587  -6.7062563  33.5117507  18.6457670  -7.3523855
  32.8583694  17.2036791  -6.5856129  34.8481584  16.9448614  -7.3853344
  35.0927019  16.0913420  -6.7495924  35.7529902  17.5459230  -7.4969822
  34.3886566  16.4425278  -8.7668258  34.1479373  17.3064506  -9.3898475
  33.4672117  15.8678496  -8.6521715  35.4253960  15.5707300  -9.5042229
  35.0181675  15.3274822 -10.4878175  35.5570984  14.6286261  -8.9679778
  36.7962742  16.2555540  -9.6776229  37.3538971  16.1763573  -8.7420762
  36.6337562  17.3188603  -9.8658484  37.6348186  15.6503034 -10.8239150
  37.0065856  15.5456376 -11.7109513  37.9523873  14.6461582 -10.5352902
  38.8810015  16.4709270 -11.2198484  39.4422507  15.8986902 -11.9614720
  39.5341253  16.5996766 -10.3542185  38.5300875  17.8453946 -11.8248844
  38.0434966  18.4721589 -11.0746455  37.8179765  17.6846063 -12.6369846
  39.7515130  18.5951400 -12.3883474  40.2383852  17.9719579 -13.1413841
  40.4764366  18.7466025 -11.5858459  39.4007730  19.9711692 -13.0072892
  40.3169060  20.4258561 -13.3899403  39.0026331  20.6293678 -12.2322273
  38.4031153  19.8983729 -14.1439843  37.4840212  20.6898355 -14.2703652
  38.6697435  18.9016843 -15.0063908  37.7012491  18.5147798 -16.0215724
  38.2557344  18.0082083 -16.8156648  37.2201538  19.3983495 -16.4487684
  36.6517997  17.5171149 -15.4634285  37.1882844  16.6370547 -15.0996637
  35.6468773  17.0871520 -16.5625536  35.2097964  16.1214018 -16.2962186
  36.1981988  16.9680023 -17.4987674  34.5612144  18.0361867 -16.7581213
  34.0811968  18.4756196 -18.2209241  35.0688052  19.7060883 -18.5008454
  34.5644307  20.9966373 -18.9002502  33.8890910  20.8564830 -19.7481430
  35.4053855  21.6112614 -19.2314327  33.8133883  21.7105389 -17.7511537
  32.9424214  21.1135840 -17.4766695  33.4699321  22.6775813 -18.1214857
  34.5442510  22.0090818 -16.4697564  35.8499217  22.6773453 -16.7290282
  36.4611125  21.9987011 -17.3258233  36.3353825  22.8752923 -15.7722497
  35.6465816  23.5989022 -17.2764504  33.7019491  22.9105425 -15.6387734
  32.7539372  22.4074817 -15.4426110  33.5325861  23.8272500 -16.2055588
  34.2345643  23.1275392 -14.7116733  34.7756624  20.7780743 -15.6752896
  33.8254857  20.2692509 -15.5063462  35.2742577  21.0333586 -14.7390676
  35.4240060  20.1195693 -16.2552047  34.3985510  17.3967338 -19.1799819
  32.7064753  19.0032136 -18.1108999  35.9500623  18.1246662 -14.3476844
  35.2466607  17.3106825 -13.5446489  34.9742103  16.1560273 -13.7919152
  34.8452282  17.9743659 -12.2530687  34.1290569  17.3305166 -11.7382669
  35.7407618  18.0560648 -11.6335487  34.2469931  19.3773901 -12.4452245
  34.9724078  20.0238252 -12.9435825  33.3708668  19.3075407 -13.0932868
  33.8361835  20.0230813 -11.1101532  33.3241749  20.9599566 -11.3394392
  33.1112790  19.3785691 -10.6085765  34.9924469  20.3358006 -10.1345992
  34.5565343  20.7741427  -9.2344332  35.4893613  19.4150352  -9.8219764
  36.0343432  21.3186836 -10.7094705  36.7885208  20.7653475 -11.2729394
  35.5391431  21.9916487 -11.4125776  36.7089963  22.1905327  -9.6285653
  37.3668480  22.9127932 -10.1164532  35.9344649  22.7704573  -9.1223514
  37.5150347  21.4226842  -8.5623854  37.7358365  22.1226168  -7.7538031
  36.9027042  20.6293559  -8.1286275  38.8325953  20.9093785  -9.1127276
  39.3771529  21.6245890  -9.7238731  39.3753743  19.7205949  -8.8697195
  40.3435850  19.4772542  -9.2997473  38.7293768  18.6194229  -8.0623907
  37.6422858  18.6779428  -8.1476361  39.0265441  17.6496267  -8.4669268
  39.1391563  18.6787844  -6.5834594  40.1622200  18.3116615  -6.4784527
  39.1222191  19.7158527  -6.2418908  38.1835914  17.8495622  -5.7067585
  37.1905541  18.2981980  -5.7779461  38.1082559  16.8284059  -6.0862732
  38.6210561  17.8173780  -4.2330638  39.2875957  16.9662547  -4.0788642
  39.1773415  18.7277830  -4.0003127  37.4327397  17.7135813  -3.2670233
  36.7399573  18.5281813  -3.4882587  36.8929267  16.7789042  -3.4326875
  37.8715968  17.8343034  -1.7954697  38.5090280  18.7138021  -1.6830896
  36.9841599  18.0066621  -1.1829256  38.6233950  16.6091204  -1.2482150
  39.4753098  16.3699341  -1.8881348  39.0232205  16.8568540  -0.2627043
  37.7166486  15.3775382  -1.1199338  38.2365870  14.5916295  -0.5681422
  37.4424911  14.9921250  -2.1041888  36.8044519  15.6297398  -0.5751836
  39.2677712   7.4725366  -1.5277316  39.0949726   6.4010054  -1.4076294
  39.0821743   7.7367824  -2.5708959  38.5480094   7.9999340  -0.8982407
  40.7148647   7.8230190  -1.1314124  41.4098501   7.2205234  -1.7200199
  40.8681726   7.5529665  -0.0844967  41.0678911   9.3104041  -1.3257881
  41.0424519   9.5564282  -2.3894085  42.0906448   9.4700211  -0.9780049
  40.1114225  10.2347708  -0.5505834  39.9749875   9.8164779   0.4488559
  39.1281724  10.2277756  -1.0255872  40.6011105  11.6883349  -0.3931745
  41.6918325  11.7234039  -0.3536672  40.2463293  12.0541704   0.5726210
  40.0693607  12.6556456  -1.4663760  40.2337694  13.6762428  -1.1145039
  38.9883327  12.5293374  -1.5552188  40.7084179  12.5086701  -2.8570536
  40.4325247  11.5395522  -3.2779557  41.7963552  12.5405025  -2.7685025
  40.2337885  13.6404228  -3.7898171  40.4899025  14.6021521  -3.3404315
  39.1449308  13.6076820  -3.8658652  40.8362150  13.5891867  -5.2060622
  41.9248915  13.6452782  -5.1420259  40.4959059  14.4773531  -5.7425469
  40.4297733  12.3231184  -5.9889811  39.3421531  12.2268176  -5.9727108
  40.8347797  11.4433885  -5.4844904  40.9134483  12.2997832  -7.4531353
  40.6255960  11.3410830  -7.8895956  42.0043993  12.3449206  -7.4690121
  40.3443575  13.4441900  -8.3187324  40.6715536  14.4018555  -7.9085070
  39.2531872  13.4302175  -8.2785577  40.8032513  13.3797240  -9.7887027
  41.8917274  13.2996643  -9.8243994  40.5381536  14.3215191 -10.2736843
  40.1739025  12.2216845 -10.5879486  39.0863228  12.2984946 -10.5268490
  40.4622746  11.2637293 -10.1501930  40.6106949  12.2552323 -12.0676291
  41.6934061  12.1290863 -12.1331429  40.3687143  13.2252991 -12.5068080
  39.9507928  11.1892688 -12.9094720  38.9709258  10.5546188 -12.5701928
  40.5969858  11.0101044 -14.0794516  39.8995519  10.3303146 -15.1603281
  39.1944599   9.5924008 -14.7692025  40.6428194   9.8114026 -15.7710075
  39.1520333  11.3540089 -16.0489368  38.6912560  10.8140063 -16.8800402
  40.1260710  12.4293506 -16.5917039  40.8994389  11.9527936 -17.1995246
  40.6109810  12.9402006 -15.7559121  39.4312906  13.4060729 -17.4131668
  39.3194079  14.9348474 -16.9367301  38.1265569  15.4613292 -17.8345668
  38.3802390  15.7998741 -19.1968429  39.0499425  15.0565732 -19.6368980
  38.8671994  16.7776370 -19.2355800  37.0274758  15.8164251 -19.9311435
  37.2070718  16.0087633 -20.9899306  36.4130282  16.6287553 -19.5401800
  36.1681080  14.5763290 -19.8547649  36.9707036  13.3312023 -20.0547671
  37.5186753  13.4034824 -20.9953976  36.2964082  12.4735451 -20.0494576
  37.6619387  13.2518721 -19.2144191  35.4568815  14.4647706 -18.5498393
  34.8416853  15.3573501 -18.4268832  36.2058687  14.4014335 -17.7590895
  34.8435473  13.5624957 -18.5493171  35.1170516  14.6907830 -20.9031010
  34.5582533  15.6021440 -20.6852698  34.4634056  13.8195884 -20.8395219
  35.5981302  14.7582185 -21.8799829  38.8417602  14.9805832 -15.5486369
  40.5221033  15.6604636 -17.3656964  38.1453896  11.9915700 -15.2318811
  36.9974160  12.3883796 -15.7937074  36.5877509  12.0164502 -16.8849337
  36.2006998  13.2921755 -14.8959374  36.8654299  13.8093770 -14.2008841
  35.7421708  14.0607047 -15.5216968  35.0955415  12.5233424 -14.1490710
  34.3455672  13.2477283 -13.8246274  34.5923567  11.8577945 -14.8535657
  35.5485010  11.7144716 -12.9152095  34.6655822  11.2554181 -12.4655592
  36.2136483  10.9041572 -13.2208753  36.2550020  12.5992060 -11.8696058
  37.3157310  12.6646030 -12.1206903  35.8512092  13.6114049 -11.9393802
  36.0995078  12.1504629 -10.4031944  36.7586660  12.7665722  -9.7880661
  35.0777817  12.3650455 -10.0830483  36.3986468  10.6671536 -10.1129568
  35.6220126  10.0429893 -10.5598569  37.3491192  10.3875601 -10.5721879
  36.4803529  10.3779876  -8.5996252  36.6055012   9.3020201  -8.4614366
  37.3820758  10.8519697  -8.2063043  35.2336264  10.8309376  -7.8552663
  34.3279409  10.2938509  -8.1251621  35.1581097  11.8118536  -6.9574749
  34.1939139  12.0424294  -6.5116829  36.3139105  12.6533628  -6.4488816
  37.2714901  12.1573603  -6.6205919  36.3324380  13.5983896  -6.9957334
  36.1829734  12.9806304  -4.9475402  37.0146537  13.6262083  -4.6577138
  35.2687883  13.5578036  -4.7939232  36.1683226  11.7347801  -4.0355128
  35.3326774  11.0912216  -4.3183467  37.0863509  11.1646867  -4.1926110
  36.0432196  12.0892465  -2.5390422  36.9010806  12.6971591  -2.2441155
  35.1485085  12.6960278  -2.3848692  35.9667039  10.8286321  -1.6510110
  35.1535988  10.1950788  -2.0114775  36.8885255  10.2543032  -1.7643879
  35.7264853  11.1117482  -0.1519496  34.7738624  11.6317129  -0.0310768
  35.6384969  10.1558876   0.3686775  36.8406343  11.9407475   0.5138761
  37.8048730  11.4636409   0.3265916  36.8701410  12.9360402   0.0655647
  36.6591430  12.0845139   2.0332472  37.4777555  12.6709366   2.4556768
  36.6572142  11.1028552   2.5115860  35.7181978  12.5888956   2.2627738
 -28.6967039  23.6313272   1.7789832 -28.7581587  23.0531836   2.7033406
 -28.5274482  24.6782374   2.0393614 -27.8418350  23.2730937   1.2016341
 -29.9961257  23.4820151   0.9685300 -30.8380246  23.8215375   1.5754832
 -30.1607418  22.4279094   0.7356670 -29.9511385  24.2936945  -0.3352424
 -29.1105247  23.9465380  -0.9396563 -29.7728825  25.3421831  -0.0875364
 -31.2568212  24.1934085  -1.1453102 -32.0947313  24.4814873  -0.5070482
 -31.4256740  23.1552815  -1.4389825 -31.2588954  25.0995064  -2.3940794
 -31.2045670  26.1424661  -2.0751025 -32.2127652  24.9825716  -2.9126546
 -30.1160026  24.8302841  -3.3919257 -29.1539526  25.0359607  -2.9179841
 -30.2128410  25.5288625  -4.2256370 -30.1185608  23.3918166  -3.9415148
 -31.0701489  23.2009292  -4.4420239 -30.0232291  22.6752710  -3.1230158
 -28.9677310  23.1677222  -4.9334580 -28.0166197  23.3198309  -4.4189540
 -29.0419030  23.9162493  -5.7250828 -28.9991260  21.7548370  -5.5457413
 -29.9404597  21.6192818  -6.0823756 -28.9740658  21.0132337  -4.7445798
 -27.8289485  21.4812851  -6.5086269 -27.9636669  20.4857802  -6.9367456
 -26.8912601  21.4713860  -5.9490675 -27.7323008  22.5145316  -7.6466209
 -27.4698210  23.4917068  -7.2358912 -28.7113428  22.6031780  -8.1221026
 -26.6823459  22.1228337  -8.6997765 -26.9943261  21.1882472  -9.1706038
 -25.7261968  21.9421291  -8.2042062 -26.4831734  23.1886578  -9.7924715
 -25.7255793  22.8392673 -10.4970586 -26.1004162  24.1046667  -9.3376249
 -27.7861261  23.5005641 -10.5462337 -28.4837556  23.9989901  -9.8699576
 -28.2492018  22.5617027 -10.8569860 -27.5818872  24.3919921 -11.7840159
 -26.9591379  23.8837028 -12.5231290 -27.0850539  25.3258920 -11.5130019
 -28.9167809  24.7119403 -12.3948860 -29.4448400  25.8052516 -12.3232520
 -29.5022774  23.6202264 -12.9377246 -30.8170223  23.7659550 -13.5430050
 -31.4087939  24.5233107 -13.0225539 -31.3406634  22.8105378 -13.4556592
 -30.6892657  24.1080022 -15.0451326 -31.6944337  24.1463327 -15.4727042
 -29.8783851  23.0317426 -15.7911909 -30.0359368  22.0659995 -15.3041947
 -28.8133550  23.2753730 -15.7594860 -30.3562570  22.9151154 -17.1573806
 -29.4974470  23.3790016 -18.4164453 -29.7258210  24.9567246 -18.4787011
 -30.1007271  25.5925393 -19.7103941 -29.5014381  25.1753378 -20.5236864
 -29.8758984  26.6591883 -19.6306288 -31.6069674  25.3792572 -19.9910259
 -31.7758894  24.3124247 -20.1446962 -31.8640590  25.9028125 -20.9130192
 -32.6047730  25.8228803 -18.9470887 -32.2382641  27.1393681 -18.3450222
 -31.2534761  27.0273018 -17.8890431 -32.9643869  27.3800325 -17.5671351
 -32.2232747  27.9032207 -19.1238558 -33.9524770  25.9385681 -19.5753229
 -34.2212105  24.9650621 -19.9880600 -33.9096189  26.6917253 -20.3634858
 -34.6665430  26.2324381 -18.8045883 -32.7060962  24.8215079 -17.8521109
 -32.9666638  23.8473892 -18.2686222 -33.4440780  25.1547885 -17.1209550
 -31.7265654  24.7608781 -17.3755360 -28.0781555  23.1040096 -18.1412482
 -30.1434946  22.7542686 -19.5842171 -30.0059056  25.3759170 -15.2080798
 -30.7234859  26.5069366 -15.1411343 -31.9353342  26.5393853 -15.2633667
 -29.8508596  27.7320933 -15.0072181 -28.9412904  27.4588656 -14.4682431
 -29.5467520  28.0333114 -16.0118330 -30.5439115  28.9190102 -14.2975175
 -29.9981523  29.8282361 -14.5581377 -31.5573740  29.0414023 -14.6853030
 -30.5828667  28.8157630 -12.7560031 -31.1012435  27.9021406 -12.4575937
 -29.5591140  28.7519884 -12.3813999 -31.2891197  30.0362492 -12.1245265
 -30.9628057  30.9376526 -12.6474559 -32.3647952  29.9479485 -12.2906327
 -31.0207701  30.2513719 -10.6185997 -29.9575663  30.4590774 -10.4810369
 -31.5591264  31.1478233 -10.3039420 -31.4283133  29.0755415  -9.7051889
 -32.4829769  28.8403344  -9.8627371 -30.8571005  28.1893158  -9.9894184
 -31.1903477  29.3562865  -8.2027763 -31.3616872  28.4312391  -7.6483434
 -30.1492524  29.6476865  -8.0489272 -32.1064210  30.4326344  -7.6608890
 -32.8599119  30.7918382  -8.3571631 -32.1458101  30.8429766  -6.3967073
 -32.9247499  31.5373611  -6.0923207 -31.1958241  30.4436350  -5.2880085
 -30.2701139  30.0392985  -5.7027787 -30.9410930  31.3376045  -4.7149512
 -31.8030596  29.4082332  -4.3267033 -32.8378892  29.6793056  -4.1073608
 -31.8162179  28.4311175  -4.8140803 -31.0370159  29.3093991  -2.9928431
 -31.2312698  30.2207398  -2.4234694 -31.4405107  28.4746385  -2.4159299
 -29.5132875  29.1546297  -3.1379974 -29.2968488  28.2414770  -3.6963609
 -29.1206193  29.9962258  -3.7124458 -28.7675714  29.1307330  -1.7903690
 -27.7118969  29.3412662  -1.9739100 -29.1407275  29.9337912  -1.1513726
 -28.8983083  27.7821064  -1.0602302 -29.9508381  27.6084352  -0.8268196
 -28.5781765  26.9737363  -1.7209247 -28.0896783  27.7167368   0.2476580
 -28.2910514  28.6126518   0.8386283 -28.4287620  26.8623257   0.8371227
 -26.5764761  27.5761414   0.0107626 -26.0525489  27.4935389   0.9653003
 -26.1845016  28.4445524  -0.5227911 -26.3660359  26.6797233  -0.5762762
 -35.0937343  24.2432737  -2.3932929 -35.5265737  25.2454925  -2.3673785
 -34.2207932  24.2282629  -1.7373861 -35.8313012  23.5387349  -2.0033157
 -34.7048426  23.8640547  -3.8317087 -34.0009212  24.6003437  -4.2252016
 -35.5984712  23.9085698  -4.4577336 -34.0523219  22.4704504  -3.9040914
 -34.7300506  21.7203259  -3.4912238 -33.1660533  22.4867415  -3.2663426
 -33.6067438  22.0517540  -5.3208363 -32.6951933  21.4583540  -5.2237976
 -33.3396029  22.9358888  -5.9034199 -34.6363115  21.2032914  -6.0947835
 -34.8567748  20.2994132  -5.5230618 -34.1743135  20.8873963  -7.0324576
 -35.9516573  21.9446516  -6.4035094 -35.7331657  22.8443217  -6.9825763
 -36.4158511  22.2595739  -5.4665935 -36.9904041  21.0944009  -7.1548182
 -37.8778839  21.7088151  -7.3201662 -37.2948194  20.2652001  -6.5127742
 -36.5083456  20.5336332  -8.5074103 -35.6854987  19.8350024  -8.3421725
 -36.1410284  21.3449001  -9.1393811 -37.6606703  19.8005879  -9.2143142
 -38.4322286  20.5209827  -9.4939476 -38.1197858  19.1201282  -8.4941411
 -37.2368646  18.9958525 -10.4589236 -38.0773687  18.3626533 -10.7506037
 -36.4070916  18.3318436 -10.2078569 -36.8501854  19.8841035 -11.6563463
 -35.9084225  20.3967381 -11.4495862 -37.6193237  20.6483102 -11.7862618
 -36.7338371  19.0702474 -12.9613221 -37.6196933  18.4392798 -13.0593169
 -35.8691597  18.4049702 -12.9143965 -36.6486311  19.9615395 -14.2145932
 -37.4301243  20.7228017 -14.1675627 -36.8567204  19.3450618 -15.0915861
 -35.2782178  20.6341124 -14.4126296 -34.5461679  19.8531640 -14.6286952
 -34.9583578  21.1378765 -13.4980941 -35.3133845  21.6545582 -15.5697441
 -35.6371951  22.6334763 -15.2101231 -36.0365129  21.3239384 -16.3182366
 -33.9703131  21.7759490 -16.2393475 -32.9198813  21.9256544 -15.6484354
 -34.0734816  21.6968298 -17.5814497 -33.0763721  20.9026647 -18.2862830
 -32.0716095  21.1372304 -17.9256165 -33.1278682  21.1541295 -19.3487155
 -33.3787513  19.3831384 -18.1158280 -32.7702689  18.8210678 -18.8289011
 -34.8684573  19.0305269 -18.4090984 -34.9461007  18.5111487 -19.3676734
 -35.4650021  19.9432302 -18.4849584 -35.4685187  18.2185757 -17.3592877
 -35.6654811  16.6349089 -17.4954081 -34.2269111  15.9894884 -17.1716321
 -33.3168435  15.5355573 -18.2053447 -32.3414493  15.9910619 -18.0162096
 -33.6546659  15.8596265 -19.1930211 -33.1348205  13.9958501 -18.1589770
 -32.7548480  13.7102175 -17.1769798 -32.3810053  13.6951804 -18.8881159
 -34.3343043  13.1225693 -18.4159684 -35.0032067  13.4564710 -19.7054672
 -35.3771901  14.4798958 -19.6505499 -35.8304310  12.7583599 -19.8419297
 -34.2694592  13.3578777 -20.5068231 -33.9407468  11.6996658 -18.5168803
 -33.4924173  11.4164305 -17.5634348 -33.2007718  11.6116750 -19.3137336
 -34.8388934  11.1138558 -18.7179756 -35.2744985  13.1940472 -17.2725332
 -34.6995020  13.0566800 -16.3555884 -36.0195136  12.4077892 -17.4030471
 -35.7467628  14.1775060 -17.2799838 -36.5986562  16.1577344 -16.4567959
 -35.9911036  16.3203347 -18.8975155 -33.0482531  18.9959443 -16.7570865
 -31.9145799  18.3194315 -16.5227449 -31.0770345  18.0783141 -17.3741233
 -31.7498302  17.9706895 -15.0706708 -32.7051115  17.5988185 -14.6943521
 -31.0079479  17.1749651 -14.9763608 -31.3079381  19.2000699 -14.2590392
 -30.3720570  19.5909035 -14.6638083 -32.0634627  19.9817228 -14.3622947
 -31.1289001  18.8892448 -12.7642369 -32.0500326  18.4426355 -12.3840809
 -30.3266335  18.1598485 -12.6345587 -30.8012557  20.1695442 -11.9715345
 -29.8934841  20.6191206 -12.3793268 -31.6072512  20.8921432 -12.1153533
 -30.6074953  19.9416888 -10.4605198 -29.7512770  19.2834473 -10.2990663
 -30.3705120  20.9009409  -9.9956113 -31.8523169  19.3384409  -9.7781652
 -32.7382541  19.8807991 -10.1149535 -31.9729829  18.2979786 -10.0869429
 -31.8032050  19.4079459  -8.2407582 -31.7179918  20.4548216  -7.9420048
 -32.7518463  19.0289068  -7.8549159 -30.6535482  18.6167753  -7.6480311
 -29.9142313  18.2477891  -8.3543086 -30.5126047  18.3507681  -6.3529718
 -29.6598673  17.7688324  -6.0127354 -31.4657998  18.8006878  -5.2639985
 -31.0057092  19.6188903  -4.7060329 -32.4000621  19.1753268  -5.6873930
 -31.7818618  17.6566982  -4.2848808 -32.0669270  16.7712879  -4.8569378
 -30.8828282  17.4017751  -3.7198895 -32.9295826  17.9960430  -3.3126247
 -33.8329268  18.1910944  -3.8943344 -33.1325746  17.1222436  -2.6899415
 -32.6558065  19.2056656  -2.3975466 -31.7942381  18.9940691  -1.7608449
 -32.4127746  20.0815225  -3.0027500 -33.8806939  19.5339382  -1.5227468
 -34.7340584  19.7415602  -2.1716902 -34.1350794  18.6599863  -0.9194563
 -33.6391640  20.7451725  -0.5999532 -32.8888202  20.4839754   0.1491946
 -33.2310963  21.5704226  -1.1872382 -34.9181247  21.2398934   0.1041484
 -34.6656156  22.1003723   0.7272690 -35.6342196  21.5835357  -0.6452412
 -35.5888104  20.1687717   0.9795639 -36.4211607  20.6040573   1.5365061
 -34.8737931  19.7547185   1.6935481 -35.9804273  19.3544602   0.3663778
 -16.3855839  32.8073049  -2.3681679 -15.3179908  32.6205349  -2.5016817
 -16.5792215  32.9787970  -1.3072446 -16.6410565  33.7159491  -2.9173157
 -17.1851063  31.6023445  -2.8907824 -16.8400848  30.7027125  -2.3768862
 -16.9585478  31.4649749  -3.9501524 -18.7112164  31.7243862  -2.6952425
 -18.9359617  31.6847801  -1.6273546 -19.1911709  30.8521819  -3.1439790
 -19.3530750  32.9993820  -3.2793635 -19.0348172  33.8621879  -2.6905140
 -20.4361343  32.9306364  -3.1580451 -19.0300405  33.2710004  -4.7612077
 -17.9781866  33.5559082  -4.8311788 -19.6118701  34.1348910  -5.0892788
 -19.3042517  32.0787978  -5.7051647 -20.3386641  31.7476487  -5.5920565
 -18.6694527  31.2398767  -5.4124123 -19.0413094  32.3857117  -7.1942490
 -19.8853981  32.9455400  -7.6023763 -18.9927280  31.4429832  -7.7432179
 -17.7496397  33.1927848  -7.4261522 -16.9518054  32.7834725  -6.8029463
 -17.9160452  34.2234540  -7.1060061 -17.2685528  33.1980562  -8.8870335
 -18.0843961  33.4946299  -9.5495337 -16.9640958  32.1863484  -9.1631085
 -16.0822272  34.1675758  -9.0583265 -15.4062510  34.0561557  -8.2079709
 -16.4497113  35.1957273  -9.0402937 -15.2634883  33.9339399 -10.3385735
 -14.8244739  32.9352570 -10.2899420 -14.4380307  34.6487927 -10.3467035
 -16.0484183  34.0757012 -11.6559267 -16.4788473  35.0776148 -11.7139530
 -16.8691730  33.3557773 -11.6790700 -15.1185834  33.8273358 -12.8603542
 -14.6716154  32.8366804 -12.7541316 -14.2947602  34.5437860 -12.8385043
 -15.8154035  33.9071298 -14.2312503 -16.6490352  33.2024598 -14.2623389
 -15.1005256  33.5976171 -14.9965048 -16.3205850  35.3258848 -14.5555675
 -15.5128515  36.0469675 -14.4138980 -17.1422696  35.5908060 -13.8869011
 -16.8069530  35.4369211 -15.9743059 -17.9822195  35.5315828 -16.2693393
 -15.7888710  35.4233074 -16.8604219 -16.1099517  35.4684281 -18.2791102
 -15.2714646  35.9441805 -18.7941325 -16.9959927  36.0874486 -18.4415662
 -16.3046455  34.0436745 -18.8719141 -15.4121816  33.4621167 -18.6270738
 -16.4193118  34.0425158 -20.4190469 -17.2490621  33.4082794 -20.7413960
 -15.4997694  33.6249113 -20.8370161 -16.5684414  35.3782248 -20.9711504
 -17.9877496  35.9529066 -21.4639330 -18.6349654  36.4915276 -20.1128364
 -19.8719752  37.2102118 -20.1706100 -19.8642254  37.8789687 -21.0351062
 -19.9680507  37.8149390 -19.2652237 -21.0358286  36.1994958 -20.2757668
 -20.9327483  35.6644630 -21.2209630 -21.9791055  36.7475843 -20.2860951
 -21.1512876  35.1353788 -19.2091560 -20.8370423  35.6694412 -17.8499401
 -19.7813582  35.9444857 -17.8371906 -21.0115504  34.8841691 -17.1129370
 -21.4627790  36.5406489 -17.6506102 -22.5365639  34.5864797 -19.2081845
 -22.7325463  34.1764617 -20.2000308 -23.2350302  35.3911400 -18.9737833
 -22.5897050  33.7946415 -18.4595525 -20.2382898  33.9988017 -19.4997489
 -20.3773069  33.6899114 -20.5368328 -20.4264021  33.1751752 -18.8094366
 -19.2153132  34.3647909 -19.4004869 -17.7816272  37.1231985 -22.3234987
 -18.8437629  34.8343825 -21.9011641 -17.4864519  33.3871698 -18.3284020
 -17.3489571  32.3627448 -17.4633539 -16.2857544  31.9720721 -17.0225811
 -18.6684108  31.7348528 -17.0889235 -19.2694414  31.6066766 -17.9915845
 -18.4846830  30.7384229 -16.6816986 -19.4286823  32.5976062 -16.0626054
 -18.8276863  32.7020955 -15.1568735 -19.5669317  33.5960698 -16.4826262
 -20.8109784  32.0215869 -15.7037020 -21.3411403  31.7666459 -16.6237009
 -20.6816125  31.0965419 -15.1380014 -21.6932917  32.9839587 -14.8848295
 -21.8655562  33.8948894 -15.4618835 -22.6686573  32.5150609 -14.7390199
 -21.1051416  33.3596635 -13.5098517 -20.8388209  32.4511576 -12.9656482
 -20.1915884  33.9408207 -13.6517644 -22.1069384  34.1774297 -12.6699686
 -22.4507332  35.0328445 -13.2552326 -22.9795456  33.5581613 -12.4519575
 -21.5013099  34.6885371 -11.3494146 -21.1270022  33.8399458 -10.7730007
 -20.6534958  35.3340244 -11.5881968 -22.5217199  35.4789543 -10.5509257
 -23.2968688  35.9620166 -11.1403000 -22.5682449  35.5616927  -9.2240047
 -23.3653140  36.1307335  -8.7523663 -21.5234828  34.9986577  -8.2827425
 -21.8760276  34.0485191  -7.8760344 -20.5965972  34.7978544  -8.8240612
 -21.2008286  35.9508300  -7.1136189 -20.3081846  35.5809116  -6.6048855
 -20.9410024  36.9307113  -7.5195563 -22.3241305  36.1244655  -6.0677165
 -21.9721007  36.8210840  -5.3039992 -23.1922150  36.5866280  -6.5423733
 -22.7608895  34.8123455  -5.3801817 -23.2335210  34.1606617  -6.1180103
 -21.8827558  34.2959857  -4.9868402 -23.7554550  35.0745201  -4.2338195
 -23.2533669  35.6341815  -3.4418920 -24.5486045  35.7194543  -4.6177989
 -24.4125462  33.8142014  -3.6270484 -25.2002239  34.1590714  -2.9539278
 -24.9079108  33.2389665  -4.4120222 -23.4746933  32.8967834  -2.8117582
 -22.6878428  33.4949970  -2.3475699 -24.0515947  32.4487233  -2.0000371
 -22.8389215  31.7524171  -3.6192656 -22.1690512  31.1713743  -2.9819855
 -22.2589278  32.1422768  -4.4583607 -23.6069536  31.0801196  -4.0073431
 -18.1664753  36.6335416  -1.1957437 -18.2262564  36.4848995  -0.1155604
 -18.1684089  35.6530261  -1.6764213 -19.0522659  37.1849656  -1.5178806
 -16.8905890  37.4137902  -1.5550141 -16.0151410  36.8218517  -1.2799515
 -16.8603468  38.3290458  -0.9601551 -16.7958701  37.7948904  -3.0442178
 -15.8883417  38.3882141  -3.1739116 -17.6392889  38.4374428  -3.3054391
 -16.7522836  36.5890098  -4.0063074 -17.6736403  36.0127044  -3.8993543
 -15.9277189  35.9296727  -3.7273249 -16.6134214  37.0022535  -5.4878795
 -17.4589849  37.6421285  -5.7487422 -16.6906059  36.1099720  -6.1126518
 -15.3071249  37.7462482  -5.8426195 -15.1842618  38.6174393  -5.1957846
 -15.4048014  38.1263399  -6.8616652 -14.0492511  36.8547463  -5.7635880
 -14.1205060  36.0730290  -6.5227377 -14.0152764  36.3531876  -4.7941816
 -12.7240181  37.6255393  -5.9439629 -11.9084275  36.9013786  -5.9975314
 -12.5414193  38.2296252  -5.0527841 -12.6601720  38.5561275  -7.1720636
 -11.7003477  39.0768242  -7.1632898 -13.4339261  39.3230033  -7.0967543
 -12.8055596  37.8044081  -8.5054725 -13.7540019  37.2635937  -8.5264677
 -12.0027566  37.0681071  -8.5818386 -12.7302051  38.7495208  -9.7169423
 -11.8192959  39.3485641  -9.6548522 -13.5669160  39.4504666  -9.6844769
 -12.7318215  37.9713821 -11.0474443 -12.0905983  37.0926404 -10.9519851
 -12.2946858  38.5929275 -11.8317008 -14.1464198  37.5379610 -11.4765871
 -14.7118318  37.1756697 -10.6154728 -14.0665209  36.7147899 -12.1896565
 -14.8868811  38.7017393 -12.1539986 -14.3723226  38.9175892 -13.0926692
 -14.8178208  39.6002269 -11.5372193 -16.3716853  38.4203553 -12.4396825
 -16.9578350  38.4941721 -11.5212905 -16.4970183  37.4122667 -12.8403139
 -16.8767095  39.4222355 -13.4421909 -17.1943152  40.5553055 -13.1480277
 -16.8862581  38.9271164 -14.6989477 -16.8331110  39.8919606 -15.7913172
 -17.3302352  40.8280706 -15.5244493 -17.3522985  39.4639921 -16.6526747
 -15.3573215  40.1590776 -16.1837471 -15.3160059  40.9118366 -16.9751370
 -14.6813858  38.8643003 -16.6953743 -15.4165304  38.2689309 -17.2428644
 -14.3144751  38.2743049 -15.8516133 -13.5924554  39.1587782 -17.6136875
 -12.1459997  39.6287823 -17.1038914 -12.3103738  41.1868048 -16.8564975
 -12.4422419  42.0853424 -17.9663444 -13.4574389  42.4902153 -17.9562330
 -12.2869015  41.5625525 -18.9135551 -11.4196849  43.2250404 -17.7999377
 -11.5635431  43.6811686 -16.8193591 -11.6112387  43.9778280 -18.5660279
  -9.9487436  42.8995180 -17.8988731  -9.6084273  42.1510220 -19.1429889
 -10.0673544  41.1631680 -19.0812385  -8.5217935  42.0593596 -19.1762841
  -9.9732596  42.7053690 -20.0089431  -9.1975403  44.1850710 -17.9233575
  -9.2598027  44.6455860 -16.9362760  -9.5955330  44.8330259 -18.7056816
  -8.1524652  43.9461803 -18.1259191  -9.4688672  42.1019840 -16.7349398
  -9.7140247  42.6323843 -15.8136082  -8.3856750  42.0057058 -16.8227232
  -9.9453813  41.1209345 -16.7623973 -11.8706548  38.9580989 -15.8259308
 -11.1902964  39.4509816 -18.2115877 -14.6272039  40.5893803 -15.0088847
 -14.3352568  41.8900251 -14.8416328 -14.7699082  42.7846336 -15.5416942
 -13.3685660  42.0983028 -13.7020826 -12.8011894  41.1747026 -13.5697663
 -12.6554739  42.8781223 -13.9774907 -14.0734375  42.4681425 -12.3800528
 -14.4065809  43.5073805 -12.4183190 -14.9587297  41.8413734 -12.2540402
 -13.1214416  42.2546959 -11.1840034 -12.8461909  41.1984158 -11.1528194
 -12.1986246  42.8114986 -11.3596344 -13.6720026  42.6565456  -9.7987980
 -12.9739976  42.2829103  -9.0467006 -13.6802816  43.7455750  -9.7187155
 -15.0857210  42.1232939  -9.4863039 -15.8165884  42.7380037 -10.0158596
 -15.1831198  41.1093330  -9.8798287 -15.4574883  42.0793247  -7.9855216
 -16.5113592  41.8021345  -7.9149210 -14.8957932  41.2781286  -7.5007027
 -15.2502990  43.3851671  -7.1872914 -15.5766118  44.2393875  -7.7841920
 -15.8947837  43.3633089  -6.3060272 -13.8075709  43.5686922  -6.7551398
 -13.1863940  44.1369295  -7.4427587 -13.2807314  43.1261349  -5.6163716
 -12.2364283  43.3351135  -5.3988236 -14.0046751  42.3130369  -4.5571798
 -14.2401063  42.9477262  -3.7003210 -14.9505067  41.9138527  -4.9293604
 -13.1340909  41.1569834  -4.0399978 -13.0030191  40.4219437  -4.8368666
 -12.1485591  41.5412712  -3.7688640 -13.7915909  40.5007982  -2.8105178
 -13.8253558  41.2346506  -2.0025678 -14.8262429  40.2551985  -3.0587915
 -13.1064129  39.2268324  -2.2870608 -13.6455846  38.8986802  -1.3959526
 -13.2111728  38.4316540  -3.0281281 -11.6162574  39.4196653  -1.9454952
 -11.0876441  39.7790790  -2.8308499 -11.5111005  40.1858616  -1.1745580
 -10.9370744  38.1143546  -1.4903182 -11.0445654  37.3733640  -2.2852036
  -9.8674721  38.3025765  -1.3763620 -11.4819527  37.5134993  -0.1770910
 -12.5608957  37.3624039  -0.2513382 -11.0361493  36.5275455  -0.0300705
 -11.1731446  38.3736897   1.0578665 -11.5503311  37.8876162   1.9600447
 -11.6470051  39.3538880   0.9734065 -10.0954676  38.5141039   1.1644440
  24.7661042   5.7270509  -1.4514011  24.2642736   5.8384687  -0.4879610
  25.1324439   6.7064631  -1.7660636  25.6216240   5.0611109  -1.3207309
  23.7928915   5.1574981  -2.4971524  22.9407859   5.8346707  -2.5855544
  23.4138989   4.1954765  -2.1459496  24.4614220   4.9724090  -3.8745505
  25.3324771   4.3238038  -3.7603554  24.8263478   5.9370095  -4.2334938
  23.5267162   4.3560144  -4.9354357  23.1578255   3.3941564  -4.5732036
  24.1082454   4.1607487  -5.8388513  22.3279452   5.2540195  -5.2971601
  22.7014637   6.2276554  -5.6211668  21.7080975   5.4173124  -4.4130859
  21.4535308   4.6509469  -6.4134187  21.0437608   3.6961663  -6.0773426
  22.0784354   4.4522077  -7.2866082  20.2999020   5.5966043  -6.8039161
  20.7170224   6.5392584  -7.1643007  19.7148168   5.8273900  -5.9112352
  19.3483818   5.0282788  -7.8766781  18.5533345   5.7569218  -8.0482703
  18.8745022   4.1204751  -7.4974746  20.0347686   4.7198862  -9.2218941
  20.7075167   3.8680172  -9.1027629  20.6360197   5.5821508  -9.5176309
  19.0075457   4.4113588 -10.3301704  18.3998966   5.3016579 -10.5050862
  18.3305371   3.6279300  -9.9832368  19.6340334   3.9645293 -11.6674900
  18.8328183   3.8246879 -12.3961627  20.1245570   2.9981077 -11.5337694
  20.6493139   4.9716967 -12.2335517  21.5199399   5.0095975 -11.5754962
  20.1942182   5.9643346 -12.2381222  21.1136436   4.6173057 -13.6608386
  20.2840519   4.7618225 -14.3560803  21.3908243   3.5619035 -13.7028003
  22.3207164   5.4557818 -14.1241086  22.5373888   5.2210963 -15.1683497
  23.1938291   5.1565784 -13.5404885  22.1148419   6.9759983 -13.9744186
  21.8900251   7.2387755 -12.9386258  21.2742925   7.2954994 -14.5939827
  23.3515954   7.7360117 -14.3736660  24.3694901   7.7484953 -13.7046885
  23.1620526   8.4582859 -15.4923868  24.3219590   9.0409243 -16.1400914
  25.0221872   9.4001782 -15.3816307  23.9821792   9.9038774 -16.7184591
  25.0104761   8.0484945 -17.1161544  25.8144140   8.5793751 -17.6323915
  23.9850545   7.5330704 -18.1564617  24.5184779   7.3417705 -19.0910816
  23.2025862   8.2714808 -18.3491886  23.3689451   6.2974703 -17.7188683
  22.5699854   5.4103547 -18.7640035  23.7057352   5.0590432 -19.8378062
  23.9749980   3.7108967 -20.2393079  23.2665443   3.0275062 -19.7642148
  24.9904633   3.4383237 -19.9406731  23.8006234   3.5868564 -21.7607141
  23.9454007   2.5368845 -22.0193291  24.5635295   4.1824916 -22.2641730
  22.4662423   3.9768738 -22.3514247  22.3585939   5.4577798 -22.5047851
  22.3753023   5.8935499 -21.5047312  21.4091921   5.6965721 -22.9863405
  23.2104635   5.8179694 -23.0834579  22.3647118   3.3534959 -23.7013125
  22.4209690   2.2734629 -23.5576224  23.2035518   3.6966804 -24.3086410
  21.4070272   3.6289358 -24.1454482  21.3100863   3.4989002 -21.5342045
  21.4032841   2.4181773 -21.4174438  20.3789353   3.7626073 -22.0378852
  21.3545084   3.9797458 -20.5558920  22.1388412   4.1659185 -18.0978453
  21.5883517   6.2402779 -19.4835901  25.5866289   6.9408822 -16.3657606
  26.3206530   6.0197490 -17.0257127  26.6664100   6.1353517 -18.1833708
  26.7586517   4.8489860 -16.1709189  26.7666698   3.9513984 -16.7928004
  27.7842188   5.0334650 -15.8443618  25.8714890   4.6010375 -14.9328613
  25.7944155   5.5230540 -14.3528545  24.8641229   4.3346301 -15.2595210
  26.4425945   3.4913880 -14.0272343  26.5861535   2.5861344 -14.6208429
  27.4261212   3.7964433 -13.6638105  25.5385685   3.1533805 -12.8247809
  24.5644355   2.8377521 -13.2041359  25.9650183   2.3006961 -12.2923017
  25.3427911   4.3169993 -11.8286145  26.2926388   4.5602971 -11.3479316
  25.0160956   5.2119827 -12.3622227  24.2896032   3.9723542 -10.7578087
  23.4157729   3.5432529 -11.2525392  24.6849489   3.2090110 -10.0844038
  23.8234615   5.1961625  -9.9472207  23.4773493   5.9737271 -10.6313717
  22.9617071   4.8944852  -9.3481922  24.8936772   5.7158446  -9.0128225
  25.1887441   5.0302500  -8.2225919  25.4413605   6.9257677  -9.0528601
  26.1882067   7.1911705  -8.3089834  25.1912546   7.9793936 -10.1121008
  26.0661817   8.6301726 -10.1708519  25.0919819   7.5110149 -11.0935438
  23.9424610   8.8453335  -9.8344010  23.9314365   9.6526647 -10.5696273
  23.0400920   8.2555330 -10.0085568  23.8881159   9.4687814  -8.4213918
  24.9049926   9.6202445  -8.0533063  23.4245968  10.4549611  -8.4925467
  23.0650401   8.6218011  -7.4256271  22.0321536   8.5793340  -7.7774894
  23.4371209   7.5952017  -7.4149698  23.0700803   9.1649806  -5.9825921
  22.7298522  10.2026224  -5.9851462  22.3518181   8.5901672  -5.3942454
  24.4553828   9.0665454  -5.3123146  24.8403382   8.0528212  -5.4413003
  25.1515460   9.7412097  -5.8149588  24.4411039   9.3935245  -3.8058460
  23.7737846   8.7005705  -3.2891598  25.4439259   9.2301935  -3.4056783
  24.0156722  10.8391285  -3.4946039  24.1254401  11.0426462  -2.4273665
  22.9723382  11.0054123  -3.7707731  24.6393323  11.5466297  -4.0450153
  -9.1989088  26.4214587  -2.6111960  -8.5754186  25.5422449  -2.4359611
 -10.2082098  26.2018704  -2.2568576  -8.7968177  27.2518229  -2.0270020
  -9.2047280  26.7697072  -4.1091481  -9.6138287  25.9294581  -4.6740225
  -8.1722999  26.9052601  -4.4380578  -9.9992901  28.0480647  -4.4410598
  -9.8486602  28.2825351  -5.4969001  -9.5877886  28.8749886  -3.8585392
 -11.5098941  27.9258943  -4.1536072 -11.6563618  27.7688098  -3.0829367
 -11.8951714  27.0409799  -4.6644413 -12.3523259  29.1485834  -4.5788127
 -11.9501710  30.0486827  -4.1091767 -13.3614969  29.0130758  -4.1842553
 -12.4344993  29.3563414  -6.1079329 -12.7454960  28.4272599  -6.5901715
 -11.4380002  29.5942831  -6.4858699 -13.3927763  30.4964972  -6.5185374
 -13.2608879  30.7047963  -7.5823426 -13.1046557  31.4029431  -5.9820616
 -14.8880029  30.2333975  -6.2465477 -15.4276025  31.1699820  -6.4018071
 -15.0337195  29.9622321  -5.1988363 -15.5196965  29.1570973  -7.1525985
 -14.9882472  28.2108617  -7.0315027 -15.4231882  29.4648242  -8.1958884
 -17.0057881  28.9564729  -6.8009424 -17.5068533  29.9264240  -6.8252313
 -17.0731652  28.5917830  -5.7738471 -17.7788973  27.9866123  -7.7175939
 -18.7789273  27.8608274  -7.2973758 -17.2995186  27.0056558  -7.6980871
 -17.9227102  28.4756494  -9.1750491 -16.9725442  28.3672762  -9.7022134
 -18.1680059  29.5397115  -9.1668749 -19.0425718  27.7372003  -9.9403661
 -19.2222154  28.2478547 -10.8887458 -19.9645221  27.8244591  -9.3616974
 -18.7808740  26.2376618 -10.1900446 -19.7312450  25.7427049 -10.4004610
 -18.3977664  25.7958698  -9.2678136 -17.8034842  25.9318447 -11.3466132
 -17.3080432  24.9787831 -11.1499512 -17.0310163  26.7011881 -11.4088094
 -18.5026181  25.8074379 -12.6802838 -18.3383584  24.8595881 -13.4232175
 -19.2498684  26.8782997 -12.9889452 -20.1243329  26.8354487 -14.1573346
 -21.0948968  26.4261603 -13.8655519 -19.6922731  26.1856079 -14.9226308
 -20.2711105  28.2619166 -14.7420871 -20.8305526  28.8907385 -14.0447664
 -21.0416079  28.3066750 -16.0801530 -20.9272647  29.3069863 -16.5055370
 -22.1075845  28.1396174 -15.9056950 -20.5499554  27.3212218 -17.0284855
 -20.7064700  27.5532675 -18.6133635 -19.4049263  26.8220425 -19.1838467
 -18.1168401  27.4491906 -19.1150093 -18.2083035  28.4992290 -19.4043219
 -17.4520791  26.9499040 -19.8245549 -17.5627184  27.3244023 -17.6787257
 -18.2992089  27.7402020 -16.9895422 -16.6489553  27.9144907 -17.5943816
 -17.2318745  25.9453797 -17.1615100 -16.1624396  25.3129077 -17.9789138
 -16.5753722  25.1118517 -18.9685333 -15.9147370  24.3588567 -17.5112498
 -15.2937555  25.9715748 -18.0216324 -16.7421746  26.0706758 -15.7624233
 -17.5319839  26.5394092 -15.1735508 -15.8321702  26.6724586 -15.7570922
 -16.5429485  25.0662899 -15.3858554 -18.4070313  25.0299048 -17.1555221
 -19.2575204  25.5360484 -16.6964293 -18.1557262  24.1146517 -16.6175234
 -18.6456847  24.7813892 -18.1906879 -21.8838429  26.8005514 -19.0788579
 -20.5582118  28.9973044 -18.8783300 -18.9257562  28.7890983 -14.9559224
 -18.4232926  29.6178555 -14.0179038 -19.0555167  30.1346159 -13.1207025
 -16.9381642  29.8174953 -14.1895294 -16.5406251  29.0354490 -14.8397827
 -16.7688334  30.7767749 -14.6830595 -16.2114012  29.7825551 -12.8312469
 -16.5935194  30.5894303 -12.2024345 -16.4362454  28.8407207 -12.3264170
 -14.6874511  29.9411011 -12.9785156 -14.2819107  29.1092730 -13.5582256
 -14.4837260  30.8486652 -13.5506070 -13.9759505  30.0420237 -11.6133571
 -12.9771340  30.4560757 -11.7662966 -14.5185149  30.7478929 -10.9810317
 -13.8413119  28.6986899 -10.8714020 -13.5977554  28.8970327  -9.8255509
 -14.7955191  28.1678677 -10.8848119 -12.7272534  27.8206253 -11.4745891
 -12.8880370  27.6946449 -12.5473154 -11.7716682  28.3349776 -11.3530862
 -12.6260221  26.4321423 -10.8247745 -11.7108607  25.9648561 -11.1943495
 -12.5309813  26.5397811  -9.7422564 -13.8045621  25.5641747 -11.2090659
 -14.1363978  25.6708932 -12.2386599 -14.4728279  24.7493052 -10.4018998
 -15.3250885  24.2055011 -10.8012748 -14.1478813  24.4442868  -8.9553672
 -14.2086720  23.3650184  -8.8006085 -13.1307817  24.7503400  -8.7017852
 -15.1512480  25.1420450  -8.0247068 -15.0143576  26.2228751  -8.0990475
 -16.1613941  24.9278450  -8.3799338 -15.0544071  24.7095656  -6.5489328
 -15.9072316  25.1445007  -6.0235912 -15.1540017  23.6242223  -6.4812815
 -13.7544703  25.1374507  -5.8432996 -12.8982222  24.6994114  -6.3604307
 -13.6489868  26.2218165  -5.9173667 -13.7041295  24.7102571  -4.3591923
 -13.6637819  23.6201906  -4.3082952 -12.7749836  25.0772142  -3.9181784
 -14.8904073  25.1945114  -3.4970629 -15.8078551  24.7075319  -3.8341141
 -14.7252297  24.8709393  -2.4672669 -15.0885236  26.7230082  -3.5083812
 -14.1988599  27.2028613  -3.0952206 -15.2130210  27.0779848  -4.5335427
 -16.3151395  27.1596670  -2.6938498 -17.2195494  26.6998649  -3.0976924
 -16.2085497  26.8613410  -1.6488117 -16.4319229  28.2446241  -2.7349678
 -24.4064474 -22.4177980   0.7154033 -24.5736885 -21.3542032   0.8977740
 -24.6543908 -22.9660153   1.6266906 -25.0804925 -22.7376080  -0.0819973
 -22.9380202 -22.6649308   0.3316163 -22.3061252 -22.2730494   1.1313662
 -22.6974106 -22.0931005  -0.5670375 -22.5842929 -24.1514683   0.1207535
 -22.8132129 -24.7027183   1.0351853 -21.5071988 -24.2334461  -0.0392807
 -23.3129406 -24.8212886  -1.0610184 -24.3908334 -24.7410297  -0.9055434
 -23.0711460 -25.8861685  -1.0665078 -22.9233050 -24.2150640  -2.4255981
 -21.8467307 -24.3279386  -2.5695154 -23.1309628 -23.1429935  -2.4263239
 -23.6497140 -24.8580480  -3.6231411 -23.3563280 -25.9074092  -3.6954615
 -23.3090234 -24.3744206  -4.5410195 -25.1886415 -24.7799587  -3.5496113
 -25.5337548 -25.4024744  -2.7214608 -25.6071901 -25.2209377  -4.4567055
 -25.7686543 -23.3650160  -3.3534545 -25.4469872 -22.9746246  -2.3856798
 -26.8571424 -23.4419870  -3.3118582 -25.3949428 -22.3571515  -4.4560719
 -24.3221188 -22.1553779  -4.4278592 -25.9120750 -21.4159226  -4.2582709
 -25.7699275 -22.8691435  -5.8519673 -26.7751551 -23.2928395  -5.8023489
 -25.0896311 -23.6776710  -6.1275464 -25.7305074 -21.8007588  -6.9572997
 -25.7732224 -22.3218131  -7.9160190 -24.7804880 -21.2632966  -6.9247711
 -26.9023752 -20.8014274  -6.8578911 -26.7972541 -20.2134275  -5.9437424
 -27.8468752 -21.3438725  -6.7795390 -26.9815493 -19.8343444  -8.0520022
 -26.0513330 -19.2645288  -8.1017113 -27.7905035 -19.1250992  -7.8648436
 -27.2357535 -20.5087996  -9.4139510 -28.1893420 -21.0403562  -9.3898922
 -26.4509845 -21.2389588  -9.6224481 -27.2491145 -19.4643581 -10.5451870
 -26.3161850 -18.8974190 -10.5189896 -28.0658913 -18.7542653 -10.3999197
 -27.3652911 -20.0699067 -11.9200706 -27.4145865 -21.2633872 -12.1514142
 -27.3773050 -19.1109598 -12.8650582 -27.2058749 -19.4801843 -14.2596745
 -27.6327562 -18.6742330 -14.8620570 -27.7506399 -20.4016304 -14.4806170
 -25.6999040 -19.6236968 -14.6141982 -25.1528883 -18.7614977 -14.2242801
 -25.4808331 -19.6356869 -16.1386192 -25.7990527 -18.6755073 -16.5526748
 -26.0493922 -20.4451227 -16.6035950 -24.0715575 -19.8284960 -16.4084315
 -23.3850312 -19.2775404 -17.7308512 -23.9783597 -20.2370262 -18.8547492
 -23.1318593 -21.0454893 -19.6956408 -22.1350789 -20.6092501 -19.7994375
 -23.5978484 -21.0507393 -20.6843138 -23.0793476 -22.5060225 -19.2106032
 -22.8207374 -23.1433272 -20.0575066 -24.0868974 -22.7988887 -18.9116788
 -22.1736455 -22.9494047 -18.0886924 -22.7024341 -22.5395751 -16.7620051
 -22.4739838 -21.4862323 -16.5930128 -22.2471428 -23.1474018 -15.9787190
 -23.7829733 -22.6898360 -16.7735517 -22.1183395 -24.4392252 -18.0975330
 -21.7564583 -24.7763681 -19.0699816 -23.1358624 -24.8082256 -17.9605448
 -21.4853215 -24.7830248 -17.2781610 -20.7848525 -22.4405098 -18.2619977
 -20.4444456 -22.6748753 -19.2716885 -20.1400876 -22.9166341 -17.5218201
 -20.8080292 -21.3638234 -18.0873823 -23.8400698 -17.9034746 -17.9938197
 -21.9364429 -19.5464778 -17.6291931 -25.1606655 -20.8622575 -14.0742588
 -24.4708109 -20.8122182 -12.9170132 -24.2810893 -19.7886860 -12.2842753
 -24.0618730 -22.1932483 -12.4542677 -24.9463367 -22.8319502 -12.5016415
 -23.3283091 -22.6094818 -13.1478763 -23.5214710 -22.2284436 -11.0101438
 -24.2105198 -21.6927147 -10.3538907 -23.5102558 -23.2694316 -10.6804729
 -22.1016812 -21.6440415 -10.8613157 -21.3976932 -22.2623229 -11.4222026
 -22.0666146 -20.6429982 -11.2962246 -21.6462135 -21.5512586  -9.3923932
 -20.6697941 -21.0633039  -9.3612367 -22.3440909 -20.9127998  -8.8466805
 -21.5408826 -22.9246068  -8.6990851 -22.5225401 -23.4019232  -8.6677474
 -20.8871078 -23.5680676  -9.2915404 -20.9829021 -22.8481436  -7.2651678
 -20.8371520 -23.8667440  -6.8995529 -19.9992740 -22.3743343  -7.2863412
 -21.9031596 -22.0988178  -6.2815964 -22.0469522 -21.0670853  -6.6091865
 -22.8748083 -22.5971723  -6.2842232 -21.3264298 -22.1382689  -4.8837793
 -20.6580114 -22.9733157  -4.6901655 -21.5160489 -21.2333298  -3.9291874
 -21.0125256 -21.3705802  -2.9756701 -22.4425459 -20.0387073  -3.9733946
 -21.8517423 -19.1227305  -4.0397471 -23.1030774 -20.0778818  -4.8420867
 -23.2793093 -19.9982417  -2.6800698 -23.8582444 -20.9212875  -2.6073673
 -22.6100683 -19.9771810  -1.8174361 -24.2276716 -18.7884164  -2.6008445
 -23.6311007 -17.8862274  -2.4504405 -24.7544312 -18.6713839  -3.5502073
 -25.2585316 -18.9162409  -1.4590891 -24.7642994 -19.2626357  -0.5490294
 -25.6716466 -17.9276693  -1.2480779 -26.4180160 -19.8616910  -1.8266053
 -26.8973637 -19.4843221  -2.7322990 -26.0219741 -20.8529091  -2.0570444
 -27.4772191 -20.0132680  -0.7200223 -27.0682621 -20.6111121   0.0971672
 -27.7303767 -19.0318751  -0.3135231 -28.7580061 -20.6708694  -1.2648171
 -29.1469741 -20.0631475  -2.0844768 -28.5166645 -21.6543102  -1.6735514
 -29.8578930 -20.8156705  -0.2019218 -30.7462382 -21.2710857  -0.6445327
 -30.1350045 -19.8396432   0.2018625 -29.5186543 -21.4489269   0.6204937
 -15.9715128 -29.3237162   2.2778510 -15.5543554 -28.8118505   3.1475851
 -16.6376162 -30.1123977   2.6338714 -16.5580523 -28.6059570   1.7005660
 -14.8427534 -29.9139404   1.4162427 -14.3015683 -30.6560302   2.0069067
 -14.1316414 -29.1231966   1.1682343 -15.3344047 -30.5622530   0.1077491
 -14.4731331 -30.9719539  -0.4240599 -15.7675374 -29.7889566  -0.5301183
 -16.3706148 -31.6812038   0.3324771 -17.3055875 -31.2354684   0.6783240
 -16.0195625 -32.3410010   1.1286517 -16.6459167 -32.5400925  -0.9191466
 -17.4633169 -33.2298994  -0.6989516 -15.7676911 -33.1566548  -1.1217158
 -16.9932055 -31.7482328  -2.1954150 -17.1186900 -32.4651051  -3.0095467
 -16.1569130 -31.1007905  -2.4672510 -18.2770491 -30.9064078  -2.0590191
 -18.1820095 -30.2311087  -1.2061404 -19.1159499 -31.5728760  -1.8480037
 -18.6156368 -30.0611234  -3.3023268 -17.8646088 -29.2796040  -3.4351659
 -19.5608449 -29.5511317  -3.1049591 -18.7662065 -30.8771944  -4.6024582
 -19.5783257 -30.4421997  -5.1887226 -19.0721655 -31.8967271  -4.3587202
 -17.5174046 -30.9150219  -5.5052382 -17.6887143 -31.6881323  -6.2571782
 -16.6364086 -31.2105727  -4.9316895 -17.2588813 -29.5602131  -6.2004942
 -16.9558430 -28.8233519  -5.4537237 -18.1952417 -29.2056847  -6.6363889
 -16.1962247 -29.5980573  -7.3175973 -15.2090609 -29.7764492  -6.8861490
 -16.1668372 -28.6135793  -7.7891946 -16.4991319 -30.6776094  -8.3770800
 -17.5686038 -30.6765270  -8.5977483 -16.2598753 -31.6588402  -7.9618615
 -15.7335007 -30.5163813  -9.7010016 -15.9508109 -31.3930726 -10.3147221
 -14.6572185 -30.5109453  -9.5164710 -16.1381054 -29.2507076 -10.4827154
 -15.6369913 -28.3713412 -10.0727654 -17.2158170 -29.0921831 -10.4060829
 -15.7953548 -29.4024992 -11.9404459 -16.6025686 -29.7956085 -12.7576375
 -14.5228863 -29.0529251 -12.2127068 -13.9841926 -29.3695307 -13.5281765
 -14.2538202 -30.3962064 -13.7887251 -12.8947413 -29.3072104 -13.4660423
 -14.4581306 -28.3812451 -14.6223795 -15.5505407 -28.4044671 -14.6497774
 -13.9019287 -28.8019323 -16.0141885 -14.7367537 -29.1128993 -16.6474462
 -13.2471204 -29.6701598 -15.9043837 -13.1625688 -27.7376580 -16.6825771
 -12.4795318 -27.9634309 -18.1112039 -13.5518789 -27.3632765 -19.1333199
 -14.8311210 -27.9841757 -19.3147075 -14.7840011 -29.0329266 -19.0104854
 -15.0907898 -27.9481292 -20.3758025 -15.8754408 -27.2142768 -18.4728920
 -15.5768669 -27.2503233 -17.4241614 -16.8392134 -27.7166343 -18.5680807
 -16.1245430 -25.7521629 -18.7740242 -14.9913538 -24.8846340 -18.3419681
 -14.8532069 -25.0202107 -17.2682774 -15.2485096 -23.8480401 -18.5647392
 -14.0928245 -25.1914477 -18.8793612 -16.3658142 -25.5026650 -20.2234960
 -17.2112381 -26.1081719 -20.5534887 -15.4552448 -25.7622361 -20.7654977
 -16.5815222 -24.4388461 -20.3332353 -17.3352790 -25.3144741 -18.0235362
 -18.1905186 -25.9061790 -18.3532739 -17.4876559 -24.2544675 -18.2319832
 -17.1436381 -25.4636788 -16.9599128 -11.2935674 -27.1029830 -18.1822181
 -12.3407829 -29.4065022 -18.3568966 -13.9867377 -27.0472860 -14.2751789
 -14.6152353 -26.0080719 -14.8434246 -15.6742895 -26.0835290 -15.4425907
 -13.8600218 -24.7094846 -14.6848869 -13.0563557 -24.8401785 -13.9572167
 -13.3887148 -24.4710350 -15.6406450 -14.7912395 -23.5542035 -14.2605996
 -14.2521024 -22.6061201 -14.3147540 -15.6218529 -23.4861970 -14.9662340
 -15.3486216 -23.7466407 -12.8380990 -16.2146628 -23.0940938 -12.7091885
 -15.7098973 -24.7709370 -12.7251303 -14.3169427 -23.4155250 -11.7407942
 -13.3331335 -23.8062143 -12.0090163 -14.2156613 -22.3298907 -11.6807473
 -14.7235417 -23.9580321 -10.3574395 -14.1383862 -23.4456539  -9.5909381
 -15.7711446 -23.7125516 -10.1710784 -14.5206928 -25.4805851 -10.1957667
 -14.9746299 -25.7870770  -9.2510617 -15.0518477 -26.0180044 -10.9841323
 -13.0351985 -25.9019470 -10.1994610 -12.6323044 -25.7852602 -11.2076902
 -12.4649060 -25.2402616  -9.5441729 -12.8905845 -27.3487425  -9.7772592
 -13.3885002 -28.0605054 -10.4307449 -12.2528565 -27.8071165  -8.7034559
 -12.2503245 -28.8792706  -8.5244423 -11.4523995 -27.0001221  -7.6981807
 -10.5937397 -27.6005292  -7.3904842 -11.0474479 -26.0889316  -8.1433862
 -12.2828758 -26.6574931  -6.4435685 -12.9245973 -27.5079441  -6.2040043
 -11.6072941 -26.5198302  -5.5967498 -13.1219959 -25.3724837  -6.6085404
 -12.4473250 -24.5138478  -6.6140503 -13.6269283 -25.3846383  -7.5767124
 -14.1901708 -25.1654887  -5.5190033 -13.7264597 -25.2551675  -4.5344251
 -14.5808458 -24.1493988  -5.6050235 -15.3619981 -26.1608243  -5.6539977
 -15.7362306 -26.1283398  -6.6793549 -15.0050116 -27.1783710  -5.4818887
 -16.5400636 -25.8645749  -4.7045946 -16.9656730 -24.8924351  -4.9620134
 -17.3238981 -26.6049790  -4.8774177 -16.1786258 -25.8649683  -3.2070217
 -15.5090213 -25.0294113  -2.9926848 -17.0916295 -25.6912732  -2.6336834
 -15.5291879 -27.1775126  -2.7298748 -15.3880262 -27.1578479  -1.6472159
 -14.5547128 -27.3256230  -3.1999043 -16.1615300 -28.0329800  -2.9764205
 -33.4969687  -4.7630572   0.4886768 -34.5512962  -4.8815367   0.2301742
 -33.3740282  -3.8117760   1.0106094 -33.2162213  -5.5702841   1.1684025
 -32.6295090  -4.8010769  -0.7797448 -32.9679537  -4.0196756  -1.4633591
 -32.7751732  -5.7591188  -1.2831353 -31.1340618  -4.5958722  -0.4703698
 -30.7587051  -5.4531884   0.0922854 -31.0181141  -3.7182406   0.1689917
 -30.2642202  -4.3969071  -1.7258495 -29.2205477  -4.3245342  -1.4128454
 -30.5305004  -3.4450421  -2.1900821 -30.3954101  -5.5119634  -2.7804413
 -31.4027786  -5.4951692  -3.2016212 -30.2559900  -6.4852935  -2.3054112
 -29.3538380  -5.3389859  -3.9045769 -28.3599830  -5.4579902  -3.4680513
 -29.4031382  -4.3245983  -4.3058887 -29.4981098  -6.3538295  -5.0550717
 -29.9442577  -7.2782469  -4.6824223 -28.4982467  -6.6143948  -5.4084045
 -30.2994657  -5.8276486  -6.2612158 -30.2579761  -6.5746951  -7.0566165
 -29.8016834  -4.9284571  -6.6301715 -31.7769194  -5.5167806  -5.9597260
 -31.8454313  -4.6528429  -5.2953601 -32.2030807  -6.3680524  -5.4247612
 -32.6448488  -5.2648044  -7.2113329 -33.6864328  -5.2957416  -6.8848211
 -32.5209069  -6.0845435  -7.9220581 -32.4307775  -3.9121711  -7.9271442
 -32.3624873  -3.1155545  -7.1833682 -33.3279705  -3.7092847  -8.5156548
 -31.2215877  -3.8327342  -8.8852280 -31.2323976  -4.6907365  -9.5606387
 -30.2868581  -3.8605312  -8.3213419 -31.2642479  -2.5275370  -9.7027618
 -31.3799787  -1.6901174  -9.0115327 -32.1523023  -2.5362980 -10.3381717
 -30.0233746  -2.2700046 -10.5831754 -29.1398621  -2.1431704  -9.9540645
 -30.1760411  -1.3279432 -11.1139083 -29.7638369  -3.3851311 -11.6113162
 -30.7156467  -3.7592050 -11.9941938 -29.2487073  -4.2221758 -11.1354387
 -28.9455652  -2.8916460 -12.7804375 -27.7383399  -2.7526456 -12.7639747
 -29.7220945  -2.6376969 -13.8477051 -29.1162133  -2.4958016 -15.1646173
 -28.0402327  -2.3118241 -15.1092231 -29.5805359  -1.6401754 -15.6615639
 -29.4078827  -3.7683490 -15.9960961 -29.0859532  -3.5992596 -17.0268321
 -30.9185457  -4.0788326 -15.9935486 -31.4865232  -3.1488916 -15.9083283
 -31.1674261  -4.7085211 -15.1355278 -31.3169932  -4.7373101 -17.2241867
 -32.8438044  -5.1616532 -17.4490809 -32.7814436  -6.7420602 -17.4507749
 -32.4837804  -7.4457562 -16.2352574 -33.2199407  -7.1750236 -15.4740596
 -31.4888453  -7.1574569 -15.8864951 -32.5451803  -8.9620280 -16.5033758
 -33.5825586  -9.2548031 -16.6719317 -32.1868277  -9.4976753 -15.6230664
 -31.7739105  -9.5141536 -17.6755726 -30.4625869  -8.8254929 -17.8601491
 -30.6509805  -7.7956599 -18.1671214 -29.8837566  -9.3660164 -18.6105311
 -29.9167466  -8.8467544 -16.9157505 -31.5336871 -10.9676838 -17.4539542
 -32.5053859 -11.4553154 -17.3628330 -30.9463120 -11.0903907 -16.5427947
 -30.9751201 -11.3621747 -18.3040476 -32.5764394  -9.3795079 -18.9248657
 -33.5022998  -9.9369138 -18.7753165 -32.0049715  -9.7984564 -19.7544360
 -32.7962518  -8.3219814 -19.0784907 -33.6219072  -4.7227958 -16.2823284
 -33.2380962  -4.6816152 -18.7860429 -28.7214112  -4.9137899 -15.4152954
 -27.4781919  -5.1906496 -15.8522308 -26.9192815  -4.5742384 -16.7388535
 -26.7874312  -6.2722957 -15.0670409 -27.5129986  -7.0392412 -14.7880948
 -26.0532260  -6.7455649 -15.7223451 -26.0859203  -5.6968731 -13.8192165
 -25.1631284  -6.2467664 -13.6229098 -25.7969451  -4.6611595 -14.0096247
 -26.9770122  -5.7548451 -12.5672984 -26.5767527  -5.0717556 -11.8152046
 -27.9787922  -5.4071540 -12.8280830 -27.0826578  -7.1601546 -11.9527316
 -27.4062753  -7.8797323 -12.7076769 -26.0971951  -7.4694759 -11.5982664
 -28.0769825  -7.1748489 -10.7817507 -27.7773094  -6.4265347 -10.0450790
 -29.0644264  -6.8913209 -11.1519313 -28.1563449  -8.5534406 -10.1014066
 -28.4844637  -9.3048728 -10.8226216 -27.1599269  -8.8435167  -9.7615927
 -29.1049147  -8.5525298  -8.8920814 -28.9884663  -9.4914359  -8.3467776
 -28.7909412  -7.7594233  -8.2102710 -30.5472517  -8.3283001  -9.3053710
 -30.7533574  -7.3515344  -9.7355092 -31.5515184  -9.1859269  -9.1458201
 -32.5481534  -8.8893050  -9.4625300 -31.4509869 -10.5911601  -8.5804045
 -32.0489049 -11.2690496  -9.1931224 -30.4257488 -10.9632647  -8.6341041
 -31.9423962 -10.6752968  -7.1201479 -33.0166554 -10.4822695  -7.0859045
 -31.7857027 -11.6954255  -6.7634261 -31.2249303  -9.6806717  -6.1850590
 -30.1441169  -9.8038322  -6.2806475 -31.4608359  -8.6631429  -6.5035683
 -31.6096592  -9.8165029  -4.7021154 -31.1359906  -8.9998633  -4.1532972
 -32.6878309  -9.6923292  -4.5813391 -31.1780787 -11.1497104  -4.0696183
 -31.8096733 -11.9643605  -4.4300324 -30.1505685 -11.3658786  -4.3695414
 -31.2485790 -11.0629714  -2.5361732 -30.7121062 -10.1663411  -2.2188176
 -32.2872210 -10.9436488  -2.2208151 -30.6319547 -12.2809720  -1.8265101
 -31.3323188 -13.1182015  -1.8581781 -29.7186327 -12.5941825  -2.3366134
 -30.2910256 -11.9354939  -0.3696662 -29.9684882 -12.8269124   0.1723737
 -31.1643434 -11.5084136   0.1277049 -29.4906831 -11.1935449  -0.3318462
  14.4392610  31.6370416   0.1862644  15.1429331  31.8630576   0.9901466
  14.9874616  31.6410422  -0.7581523  14.0396357  30.6333399   0.3454621
  13.2960808  32.6668882   0.1685655  13.7067974  33.6672688   0.0168723
  12.8060222  32.6659536   1.1444265  12.2383440  32.3756313  -0.9077423
  11.3710845  33.0154419  -0.7317623  11.9085443  31.3403201  -0.7990019
  12.7512968  32.6144290  -2.3394838  13.6357856  32.0016646  -2.5256592
  13.0531001  33.6590624  -2.4400876  11.6964197  32.2977328  -3.4129691
  12.0869923  32.6328421  -4.3760979  10.7873416  32.8697157  -3.2157946
  11.3610768  30.7940602  -3.4844226  10.9306884  30.4661417  -2.5358981
  12.2817266  30.2260208  -3.6334142  10.3708601  30.4394674  -4.6050367
   9.4142818  30.9278059  -4.4076851  10.1969349  29.3616128  -4.5840362
  10.8573520  30.8417201  -6.0070765  11.8671918  30.4590559  -6.1691105
  10.8926570  31.9301867  -6.0874498   9.9160266  30.2898884  -7.0867127
   8.8899863  30.5736947  -6.8434858   9.9606901  29.1989279  -7.0702529
  10.2404344  30.8175564  -8.4935445  10.1455474  31.9051003  -8.4670103
   9.4802046  30.4536438  -9.1878664  11.6391671  30.4726458  -9.0453464
  12.4000859  30.9642410  -8.4355932  11.7089069  30.9065747 -10.0449991
  11.9553351  28.9629221  -9.1109395  11.1411345  28.4366512  -9.6135139
  12.0213330  28.5685635  -8.0947751  13.2668197  28.6422276  -9.8544675
  13.5217750  27.5929451  -9.6917897  14.0786874  29.2392802  -9.4339168
  13.1688964  28.8949180 -11.3710296  12.8855753  29.9349856 -11.5455437
  12.3848522  28.2660747 -11.7979884  14.5011771  28.6156702 -12.0914781
  14.7525835  27.5543451 -12.0381165  15.2955472  29.1839838 -11.6031539
  14.4551003  29.0514326 -13.5320258  14.5313191  28.2864785 -14.4728696
  14.3344820  30.3841209 -13.6228430  14.3894792  31.0314560 -14.9253380
  15.1966453  30.6039429 -15.5256414  14.6123385  32.0880580 -14.7562873
  13.0411708  30.9400296 -15.6792223  12.8644693  29.9061418 -15.9866345
  13.0929232  31.8138862 -16.9563150  13.7023640  31.3284874 -17.7228796
  13.5631204  32.7690172 -16.7087460  11.7682552  32.0974016 -17.4877548
  10.9267807  31.0398293 -18.3387899   9.4473195  31.2703991 -17.7874780
   8.8614464  32.5815034 -17.8661382   9.5757264  33.3003139 -18.2757330
   8.6111218  32.8960752 -16.8497562   7.5737202  32.5383949 -18.7102747
   7.0369858  33.4775019 -18.5678911   6.9379061  31.7406058 -18.3235562
   7.6596802  32.3116589 -20.1971936   7.9754794  30.8879972 -20.5104327
   8.9528245  30.6600261 -20.0825214   8.0151331  30.7605124 -21.5932322
   7.2123528  30.2531624 -20.0577712   6.3276619  32.6106095 -20.7944942
   6.0737503  33.6467385 -20.5659127   5.5948442  31.9450474 -20.3359222
   6.3789940  32.4432969 -21.8713641   8.6614239  33.2142138 -20.8407521
   8.4193093  34.2505980 -20.6008172   8.6561769  33.0408478 -21.9178772
   9.6458060  32.9596734 -20.4451704  10.9163833  31.4409995 -19.7545564
  11.3086879  29.6667123 -17.9719925  11.9626701  31.4104462 -14.8182380
  11.2375724  30.4976439 -14.1526246  11.4130878  29.2927885 -14.1794038
  10.1432335  31.1124182 -13.3223355   9.7027028  30.3163028 -12.7185190
  10.5817747  31.8441463 -12.6406324   9.0619087  31.7868185 -14.1948938
   9.4116175  32.7808475 -14.4813788   8.9381361  31.2162542 -15.1177168
   7.6756018  31.8958902 -13.5209417   7.0698404  32.6229024 -14.0658903
   7.1719939  30.9322381 -13.6220348   7.7032518  32.2639608 -12.0226514
   6.6868722  32.2303963 -11.6247714   8.2576382  31.4925885 -11.4840388
   8.3022267  33.6452079 -11.6956675   9.0554231  33.9233494 -12.4357998
   7.5123924  34.3984747 -11.7304885   8.9656007  33.6141133 -10.3080177
   8.2796896  33.1707835  -9.5831388   9.8369819  32.9596210 -10.3772771
   9.4230896  34.9829721  -9.7801661   9.9399489  35.5262613 -10.5739903
   8.5561258  35.5812883  -9.4923222  10.3712142  34.7936654  -8.6147076
  11.4168561  34.7094584  -8.8995105  10.0539529  34.7386885  -7.3247176
  10.8510685  34.6080637  -6.5973151   8.6662060  34.8225451  -6.7247874
   7.8959244  34.9066615  -7.4942386   8.4711343  33.9061284  -6.1639023
   8.5861772  36.0291672  -5.7707447   9.4084674  35.9774470  -5.0540656
   8.7310183  36.9408154  -6.3541675   7.2573328  36.1460972  -4.9992025
   7.2363079  37.1168160  -4.4994751   6.4247340  36.1319327  -5.7056314
   7.0580691  35.0396276  -3.9436650   6.9323999  34.0776396  -4.4449151
   7.9531938  34.9686098  -3.3222365   5.8405602  35.3300166  -3.0415872
   5.9976268  36.2920952  -2.5494507   4.9411705  35.4310870  -3.6526090
   5.5992174  34.2680955  -1.9517146   6.5088171  34.1439581  -1.3603756
   4.8249400  34.6375775  -1.2761098   5.1585811  32.9022074  -2.5111821
   4.2609197  33.0325389  -3.1191969   5.9382963  32.4990702  -3.1607878
   4.8671818  31.8895912  -1.3905539   4.5607191  30.9321189  -1.8169218
   4.0672740  32.2521877  -0.7416046   5.7583171  31.7293215  -0.7800995
  18.2754135  19.8369229   1.0528067  18.0328393  19.3774343   2.0132709
  18.5427427  20.8813477   1.2265187  19.1443026  19.3294537   0.6285772
  17.0776129  19.7411919   0.0940716  16.2325561  20.2825737   0.5244772
  16.7774785  18.6963916  -0.0097311  17.4229157  20.3206468  -1.2892994
  18.1347764  19.6566331  -1.7840765  17.9176748  21.2844682  -1.1524594
  16.1934245  20.5159616  -2.1952061  15.4505169  21.1182714  -1.6681640
  15.7395411  19.5452905  -2.4055688  16.5527940  21.2105489  -3.5238618
  17.2442043  20.5772114  -4.0835920  17.0610929  22.1542430  -3.3152074
  15.2983510  21.4975357  -4.3690234  14.6172976  22.1181440  -3.7829551
  14.7834289  20.5556059  -4.5692471  15.5768216  22.2099042  -5.7080144
  16.1363816  23.1297517  -5.5257004  14.6131551  22.4938154  -6.1360383
  16.3339901  21.3307810  -6.7242551  15.7868755  20.3962302  -6.8647677
  17.3113024  21.0672927  -6.3145030  16.5458596  21.9896770  -8.1042016
  17.0958173  21.2813544  -8.7273288  17.1798480  22.8718925  -7.9936659
  15.2357805  22.3952675  -8.8150394  14.8074639  23.2560277  -8.2972562
  14.5128560  21.5804863  -8.7377095  15.4158461  22.7617598 -10.3048325
  16.1867571  23.5292625 -10.4002285  14.4823575  23.1912327 -10.6744492
  15.7755530  21.5386534 -11.1732900  15.0410354  20.7509518 -10.9930885
  16.7470336  21.1471367 -10.8644140  15.8270657  21.8121910 -12.6892245
  14.8408186  22.1196628 -13.0431175  16.0592234  20.8681870 -13.1866419
  16.8688285  22.8793812 -13.0922830  17.6975822  22.8759217 -12.3812127
  16.4021456  23.8645458 -13.0280650  17.4391341  22.6745415 -14.5164514
  17.9355848  23.5927010 -14.8373604  16.6379952  22.4714613 -15.2301729
  18.4525406  21.5518713 -14.5798790  18.5955310  20.7236290 -13.7004960
  19.2286992  21.6253376 -15.6815553  20.1693916  20.5312371 -15.9059000
  20.5772758  20.1771569 -14.9556863  21.0077834  20.9239244 -16.4868844
  19.5397091  19.3408179 -16.6836798  20.2489638  18.5116017 -16.6203666
  19.2945671  19.6429968 -18.1823814  18.9225018  18.7449968 -18.6821949
  20.2653384  19.8765159 -18.6270404  18.4151864  20.7774758 -18.4441531
  16.8285644  20.6608391 -18.6779797  16.6442621  19.2711830 -19.4543648
  17.1017897  19.0928900 -20.8056712  17.1828306  18.0193865 -20.9945488
  18.0938041  19.5386291 -20.9146404  16.1147213  19.7303939 -21.8100476
  16.4158702  19.4534135 -22.8214169  16.1837983  20.8147001 -21.7111087
  14.6470916  19.4021094 -21.6811919  14.4090390  17.9737866 -21.3253093
  14.8422742  17.3296988 -22.0919490  13.3352602  17.8053415 -21.2309170
  14.8844433  17.8064024 -20.3577065  14.0252864  20.2572870 -20.6349206
  14.3138433  21.2964201 -20.7999039  14.4246066  19.9389291 -19.6708286
  12.9441094  20.1114249 -20.6427336  13.9631677  19.6894705 -22.9740906
  14.0900147  20.7495594 -23.1985974  12.9075062  19.4386661 -22.8602648
  14.4173181  19.0723109 -23.7507129  16.0824072  20.5704832 -17.4121797
  16.4712167  21.7138577 -19.6509504  18.3109033  18.9347136 -16.0382116
  17.7946699  17.7260697 -16.2968075  18.2374382  16.9390500 -17.1132433
  16.6226149  17.4094236 -15.4115617  15.8878326  18.2129335 -15.4948092
  16.1663043  16.4804387 -15.7597446  17.0727801  17.2613728 -13.9476430
  17.9429066  16.6028309 -13.9068174  17.3898315  18.2377446 -13.5753000
  15.9735775  16.6827726 -13.0358362  15.0654542  17.2846961 -13.1097651
  15.7275558  15.6755817 -13.3786261  16.4394617  16.6149426 -11.5684330
  15.8111775  15.9058940 -11.0253203  17.4586153  16.2238395 -11.5396607
  16.3617754  17.9807973 -10.8556414  16.6194785  18.7805367 -11.5531158
  15.3247488  18.1540370 -10.5606365  17.2610855  18.0872285  -9.6044147
  16.9674170  18.9758968  -9.0418386  17.0751238  17.2283196  -8.9562190
  18.7742674  18.1815720  -9.9053830  19.3212378  18.2106471  -8.9606917
  19.0938580  17.2788692 -10.4302204  19.0964746  19.3937695 -10.7576060
  18.5735404  19.4432163 -11.7092705  19.9143219  20.3924084 -10.4415393
  20.0379658  21.2066936 -11.1509216  20.7893133  20.4777503  -9.2117196
  21.2055707  19.4951355  -8.9800727  21.6310716  21.1414790  -9.4199830
  20.0199270  21.0046554  -7.9905128  19.5550609  21.9623041  -8.2339686
  19.2210114  20.3012562  -7.7467352  20.9392786  21.1809134  -6.7681259
  21.5527868  20.2865005  -6.6412401  21.6143799  22.0213461  -6.9423985
  20.1335692  21.4160633  -5.4796821  19.4440961  22.2498846  -5.6274384
  19.5331848  20.5268788  -5.2763343  21.0335231  21.7105103  -4.2661285
  21.8333697  20.9686327  -4.2178926  21.4933133  22.6929998  -4.3917087
  20.2239442  21.6779280  -2.9583931  19.3601441  22.3383784  -3.0589747
  19.8389041  20.6662488  -2.8144744  21.0139632  22.0945692  -1.7046043
  21.3789916  23.1169701  -1.8225648  20.3312993  22.0883179  -0.8523164
  22.1967936  21.1660409  -1.3920005  22.6602197  21.4514852  -0.4453109
  22.9523730  21.2340260  -2.1774574  21.8628979  20.1294255  -1.3119726
 -24.9795747  20.0572634  -1.7596845 -23.9195919  20.3126073  -1.6988352
 -25.3236794  19.7385418  -0.7735446 -25.5317616  20.9532785  -2.0507385
 -25.1834512  18.9397144  -2.7923831 -24.6585321  18.0413198  -2.4610062
 -24.7309399  19.2591798  -3.7334669 -26.6744113  18.6164796  -3.0088541
 -27.1925378  19.5218289  -3.3318877 -27.1178317  18.3141887  -2.0578220
 -26.9201732  17.5033236  -4.0463129 -27.9975748  17.3577487  -4.1486761
 -26.5002179  16.5640545  -3.6804235 -26.3192391  17.8275383  -5.4273134
 -25.2292013  17.8327584  -5.3621101 -26.6412926  18.8293588  -5.7190335
 -26.7476535  16.8141603  -6.5034342 -27.8327775  16.8609369  -6.6164953
 -26.4969492  15.8092117  -6.1574715 -26.0944605  17.0380116  -7.8821814
 -26.5303755  16.3355064  -8.5955745 -25.0282240  16.8122900  -7.8139842
 -26.2714100  18.4767699  -8.4015393 -25.7452726  19.1571665  -7.7287072
 -27.3275447  18.7532616  -8.3770919 -25.7128000  18.7005782  -9.8177284
 -24.7757077  18.1516838  -9.9319142 -25.4678369  19.7604346  -9.9134350
 -26.6831374  18.2951272 -10.9437478 -27.6929688  18.6309648 -10.6989694
 -26.7130685  17.2056258 -11.0112309 -26.2830162  18.8830829 -12.3123956
 -26.8697810  18.3886421 -13.0893779 -25.2331638  18.6518955 -12.5042927
 -26.5240026  20.4081631 -12.4058878 -25.9835553  20.9249234 -11.6100609
 -27.5870252  20.6011653 -12.2471642 -26.1124921  21.0153818 -13.7608862
 -26.5656662  22.0026851 -13.8719213 -26.5199518  20.3892207 -14.5573545
 -24.5867443  21.1383581 -13.9430070 -24.3669772  21.1999750 -15.0108874
 -24.1024876  20.2296185 -13.5794842 -23.9633632  22.3609304 -13.2330525
 -24.2106795  22.3514366 -12.1694696 -24.3533015  23.2878852 -13.6586857
 -22.4629045  22.3388195 -13.3744514 -21.7127919  22.0881748 -12.4557936
 -22.0559549  22.5429559 -14.6433342 -20.7592106  21.9952989 -15.0310814
 -20.0847936  21.8909025 -14.1773188 -20.2980638  22.6885557 -15.7391691
 -20.9739375  20.6262112 -15.7304263 -19.9945652  20.2068639 -15.9746075
 -21.7920637  20.8463621 -17.0216608 -21.1579776  21.3409162 -17.7619290
 -22.6425028  21.4973545 -16.8034601 -22.3040509  19.6070218 -17.5773001
 -23.4238029  19.6433222 -18.7089622 -24.7710633  19.7772694 -17.8778291
 -25.5141449  18.6163354 -17.4868631 -25.0326180  18.1681693 -16.6139781
 -25.5473256  17.8872645 -18.3004999 -26.9339800  19.1031122 -17.1506977
 -26.8422818  19.9930215 -16.5262520 -27.4712348  18.3341420 -16.5936315
 -27.8365636  19.5023441 -18.2912755 -27.1987748  20.4524803 -19.2489851
 -26.8432188  21.3103127 -18.6762857 -27.9483199  20.7906866 -19.9659777
 -26.3574886  19.9618542 -19.7407222 -28.3263922  18.3067429 -19.0364337
 -28.8942552  17.6789153 -18.3482122 -27.4684477  17.7728117 -19.4476867
 -28.9811087  18.6564958 -19.8359966 -29.0058422  20.1921391 -17.7001572
 -29.4972777  19.5218873 -16.9933808 -29.6851635  20.4809880 -18.5035086
 -28.6446333  21.0912728 -17.1987927 -23.2712865  20.8857775 -19.4876719
 -23.4193087  18.3402812 -19.3950236 -21.7215323  19.7329295 -14.8490751
 -21.5002608  18.4112215 -14.9449849 -20.6145692  17.8922725 -15.5927324
 -22.4793410  17.5824916 -14.1494191 -23.2836771  18.2176340 -13.7724578
 -22.9410744  16.8588424 -14.8243988 -21.7875767  16.8336535 -12.9886878
 -22.5243926  16.2126327 -12.4749780 -21.0339642  16.1591113 -13.4004271
 -21.1118484  17.7635992 -11.9610941 -20.5500221  17.1588624 -11.2461758
 -20.3895330  18.4018993 -12.4742198 -22.1165919  18.6406279 -11.1908031
 -22.7966261  19.1309083 -11.8905485 -22.7133608  18.0080807 -10.5303371
 -21.4087296  19.7282231 -10.3709078 -20.7813644  19.2675197  -9.6049893
 -20.7359385  20.2668738 -11.0414827 -22.3888493  20.7437444  -9.7407210
 -21.8828368  21.7066956  -9.6451271 -23.2334352  20.9023786 -10.4144979
 -22.9111433  20.3355265  -8.3538598 -23.6962485  21.0339856  -8.0568278
 -23.3688927  19.3452823  -8.4022915 -21.7986369  20.3973317  -7.3318315
 -21.5020275  21.4065099  -7.0576948 -21.1786151  19.3637216  -6.7735028
 -20.3838587  19.5534241  -6.0566026 -21.4683700  17.9000616  -7.0248753
 -22.1467447  17.7627003  -7.8695077 -20.5432010  17.3764706  -7.2746330
 -22.0906186  17.2674453  -5.7708925 -22.9246950  17.8906775  -5.4417098
 -22.4989128  16.2910283  -6.0399050 -21.0828829  17.0976686  -4.6137699
 -20.3718781  16.3121235  -4.8780721 -20.5101061  18.0174327  -4.4780269
 -21.7520642  16.7477131  -3.2722265 -20.9778309  16.4640832  -2.5562775
 -22.2499990  17.6374424  -2.8811955 -22.7827477  15.6132281  -3.3925563
 -23.6205626  15.9520090  -4.0055484 -22.3191977  14.7644889  -3.8997328
 -23.3273005  15.1577461  -2.0286076 -22.5385618  14.6367526  -1.4818721
 -23.6045551  16.0322952  -1.4363584 -24.5592141  14.2431653  -2.1682972
 -24.8262358  13.8528037  -1.1840302 -25.4056215  14.8376453  -2.5185135
 -24.3564677  13.0685437  -3.1383988 -25.2633429  12.4607849  -3.1642917
 -23.5214734  12.4402678  -2.8213593 -24.1669917  13.4210742  -4.1544133
  21.0287571 -26.5063262  -3.3279434  21.8114066 -25.9567833  -2.8007567
  20.1696134 -26.5997028  -2.6603967  20.7268262 -25.9244394  -4.2012760
  21.5467668 -27.8890252  -3.7641361  21.9073820 -28.4427547  -2.8947663
  22.3984909 -27.7456951  -4.4323319  20.4723549 -28.7151051  -4.4965601
  20.9585094 -29.5526624  -5.0011539  20.0201321 -28.0956721  -5.2739024
  19.3842053 -29.2824960  -3.5590610  19.1340530 -28.5643172  -2.7754134
  19.7978818 -30.1582837  -3.0547449  18.0938852 -29.6940613  -4.3001339
  17.7092063 -30.6079674  -3.8426843  18.3189261 -29.9337888  -5.3414559
  16.9770348 -28.6312032  -4.2288777  16.6953444 -28.4931207  -3.1829107
  16.0962951 -29.0133882  -4.7491631  17.3557997 -27.2611141  -4.8239097
  17.5867999 -27.3815298  -5.8843827  18.2525015 -26.8832612  -4.3283138
  16.2229764 -26.2303758  -4.6544939  16.0532629 -26.0469818  -3.5914662
  15.3028333 -26.6506958  -5.0657511  16.4970982 -24.8926544  -5.3645015
  15.6062126 -24.2665362  -5.2822691  16.6388667 -25.1042795  -6.4263773
  17.7071750 -24.1089058  -4.8039860  18.6059880 -24.7281432  -4.8378259
  17.5171161 -23.8710141  -3.7552965  17.9779768 -22.7981234  -5.5726910
  18.7096095 -22.2012782  -5.0240982  17.0542836 -22.2179151  -5.6238121
  18.5091770 -23.0593777  -6.9951415  17.8699183 -23.8081527  -7.4675232
  19.5112860 -23.4875798  -6.9252682  18.5418034 -21.8027830  -7.8893673
  19.2432058 -21.0777044  -7.4713218  17.5527418 -21.3400984  -7.8773218
  18.9276326 -22.0961571  -9.3575495  19.9889958 -22.3461914  -9.4163150
  18.7885523 -21.1845613  -9.9424559  18.0930924 -23.2472658  -9.9653530
  17.0364428 -23.1048203  -9.7294211  18.4004724 -24.1951442  -9.5186943
  18.2068217 -23.3949614 -11.4613450  18.6067843 -22.5301313 -12.2121835
  17.7573395 -24.6017146 -11.8466544  17.5215709 -24.8503733 -13.2623518
  16.9083118 -24.0356636 -13.6558068  16.9439316 -25.7734704 -13.3565342
  18.8330555 -24.9836564 -14.0813899  19.2420316 -23.9812255 -14.2314506
  18.5912228 -25.6517601 -15.4581034  17.7656078 -26.3657141 -15.4008329
  19.4966531 -26.1916280 -15.7468724  18.3228922 -24.6753407 -16.5010583
  16.9753909 -23.8203621 -16.5467846  17.3026526 -22.6168156 -15.5662918
  18.4305894 -21.7653060 -15.8214843  18.9188361 -22.0363760 -16.7610514
  19.1493881 -21.8946862 -15.0083184  17.9569292 -20.3052020 -15.8486080
  18.8364697 -19.6604455 -15.8798659  17.4279714 -20.1018143 -14.9163437
  17.0517588 -19.8465288 -16.9607174  17.5930011 -20.2092719 -18.3027565
  18.6104405 -19.8261356 -18.3938706  16.9320595 -19.7933543 -19.0646279
  17.5881028 -21.2979627 -18.3735454  15.6796038 -20.4113245 -16.8340516
  15.3619277 -20.3047180 -15.7957852  15.7206035 -21.4696074 -17.0960462
  14.9928892 -19.8797107 -17.4944234  16.9485772 -18.3649015 -16.8697619
  16.5525532 -18.1160760 -15.8840990  16.2660432 -18.0252540 -17.6501894
  17.9421234 -17.9316151 -16.9938874  16.7843568 -23.2587075 -17.8946435
  15.9056795 -24.6270990 -15.9386301  19.7712195 -25.8204818 -13.3535016
  21.0425949 -25.3890538 -13.2282245  21.4664316 -24.3598008 -13.7167239
  21.8654346 -26.3020635 -12.3548162  21.2471795 -27.1344733 -12.0122993
  22.6711774 -26.7269492 -12.9570723  22.4612761 -25.5647326 -11.1413050
  23.0544162 -26.2706208 -10.5561817  23.1372023 -24.7799158 -11.4872158
  21.3672471 -24.9601030 -10.2437162  20.8264565 -24.1918397 -10.8002973
  20.6459069 -25.7389092  -9.9876058  21.9049072 -24.3460822  -8.9421475
  21.0489631 -24.0605736  -8.3270824  22.4635291 -25.1037788  -8.3887011
  22.7934217 -23.1091666  -9.1738987  23.7524986 -23.4295535  -9.5861882
  22.3291850 -22.4685478  -9.9265987  23.0402589 -22.2587180  -7.9091913
  23.7799525 -21.4964747  -8.1627738  22.1232295 -21.7263460  -7.6482320
  23.5389495 -23.0335116  -6.6708559  24.2545676 -23.7985468  -6.9792008
  24.0871382 -22.3436642  -6.0258245  22.4028468 -23.6744928  -5.8932471
  22.1127081 -24.6651864  -6.2337160  21.8002582 -23.1489491  -4.8309562
  21.0127044 -23.7080264  -4.3321985  22.0940971 -21.7819667  -4.2517477
  22.5229096 -21.1333513  -5.0184822  21.1645460 -21.3071799  -3.9308503
  23.0798888 -21.8763757  -3.0707249  23.9637041 -22.4270296  -3.3995339
  23.4187889 -20.8729792  -2.8046265  22.5104427 -22.5550175  -1.8096884
  22.0920491 -23.5288024  -2.0726587  23.3362103 -22.7330089  -1.1176676
  21.4480233 -21.6934967  -1.0991709  21.8612814 -20.6971431  -0.9289909
  20.5768800 -21.5755534  -1.7469862  20.9969711 -22.2627568   0.2591872
  21.8736696 -22.4353576   0.8869398  20.3867126 -21.5111828   0.7643461
  20.1823974 -23.5644388   0.1380961  19.3223667 -23.3919930  -0.5123436
  20.7944942 -24.3411088  -0.3251378  19.6890581 -24.0585399   1.5104136
  20.5484462 -24.2654204   2.1515951  19.1031373 -23.2740784   1.9939229
  18.8300812 -25.3262901   1.3951847  18.5223269 -25.6690812   2.3852575
  19.3925416 -26.1294937   0.9145956  17.9360795 -25.1277924   0.8003540
 -27.2017598  -8.6038834   2.4031749 -27.5433278  -8.0444103   3.2765505
 -26.1130333  -8.5371929   2.3512957 -27.4849057  -9.6505028   2.5330964
 -27.8419375  -8.0421287   1.1249482 -27.6153135  -6.9765526   1.0497625
 -28.9270568  -8.1407225   1.1974593 -27.3432899  -8.7607187  -0.1431720
 -27.5373030  -9.8317909  -0.0558373 -26.2629724  -8.6282194  -0.2316088
 -28.0350184  -8.2112610  -1.4037287 -27.9653668  -7.1214998  -1.3979216
 -29.0971446  -8.4623861  -1.3678154 -27.4360037  -8.7238806  -2.7266121
 -26.3914561  -8.4131080  -2.7959159 -27.9689169  -8.2406014  -3.5481399
 -27.5112152 -10.2497089  -2.9137927 -28.5209084 -10.5931175  -2.6791680
 -26.8237209 -10.7405078  -2.2217454 -27.1684241 -10.6436300  -4.3606800
 -26.1584234 -10.2963376  -4.5881572 -27.8550434 -10.1096082  -5.0208616
 -27.2615504 -12.1599793  -4.6338308 -28.2542086 -12.5129020  -4.3465364
 -26.5426660 -12.6841509  -4.0006533 -27.0051098 -12.5584507  -6.1046654
 -27.2004580 -13.6272466  -6.2141162 -25.9525132 -12.4038327  -6.3508224
 -27.8767347 -11.7727423  -7.1032965 -27.5717449 -10.7242835  -7.0900166
 -28.9195728 -11.8122447  -6.7817503 -27.7846098 -12.2684169  -8.5571277
 -26.7442489 -12.2517133  -8.8885409 -28.3229971 -11.5623713  -9.1928184
 -28.3659625 -13.6805058  -8.7628061 -28.9568615 -13.9780664  -7.8940368
 -27.5365973 -14.3846416  -8.8566589 -29.2537045 -13.7701309 -10.0140357
 -28.7102175 -13.3494675 -10.8626378 -30.1456189 -13.1586719  -9.8621458
 -29.6726227 -15.2135801 -10.3547871 -30.0847268 -15.6875646  -9.4614941
 -28.7894440 -15.7863641 -10.6452620 -30.7225919 -15.2834368 -11.4837396
 -31.6599965 -14.8383474 -11.1436927 -30.9264612 -16.3271976 -11.7316592
 -30.2623439 -14.5677733 -12.7298701 -29.5361304 -15.0748694 -13.5574710
 -30.7395577 -13.3073711 -12.7864218 -30.2877212 -12.4149120 -13.8425601
 -31.0977244 -11.7084408 -14.0411556 -30.0815845 -12.9684067 -14.7622347
 -29.0369201 -11.6196799 -13.3852220 -29.1955256 -11.3030207 -12.3511910
 -28.7972999 -10.3824389 -14.2753136 -27.8195262  -9.9544364 -14.0398943
 -29.5619178  -9.6235049 -14.0908527 -28.8479209 -10.7738817 -15.6698108
 -27.7001595 -10.3340828 -16.6889703 -26.4224124 -11.1503410 -16.1913300
 -26.2834883 -12.5473154 -16.4947987 -26.9829226 -12.8469050 -17.2794545
 -26.5183163 -13.1276178 -15.5988336 -24.8294282 -12.8069174 -16.9471288
 -24.7152877 -13.8725948 -17.1510541 -24.1457748 -12.5301874 -16.1431861
 -24.3314266 -12.0863950 -18.1783748 -23.9436436 -10.6800306 -17.8611267
 -24.8000693 -10.1670206 -17.4210811 -23.6237931 -10.1838040 -18.7785864
 -23.1058025 -10.7052660 -17.1627951 -23.1144857 -12.7845633 -18.6831594
 -23.3574128 -13.8223732 -18.9160073 -22.3474097 -12.7268720 -17.9095006
 -22.7495217 -12.2508371 -19.5619178 -25.3501415 -12.0792770 -19.2712343
 -25.6472611 -13.1071818 -19.4843340 -24.9160576 -11.6030872 -20.1516294
 -26.2117887 -11.5049076 -18.9278042 -28.0765724 -10.8234894 -18.0272710
 -27.4620771  -8.8985616 -16.4888728 -27.8758907 -12.4819303 -13.4822810
 -26.8832803 -12.3500228 -12.5877285 -26.8787122 -11.5170538 -11.7058969
 -25.7845283 -13.3719742 -12.7746713 -25.1669526 -13.0815673 -13.6271560
 -25.1541567 -13.3628035 -11.8830371 -26.3702393 -14.7830188 -13.0078602
 -27.1211123 -14.9879384 -12.2419214 -26.8961859 -14.7945690 -13.9647877
 -25.3462672 -15.9328759 -13.0242932 -25.8933043 -16.8583214 -13.2160342
 -24.6541858 -15.7957590 -13.8577735 -24.5425272 -16.1103177 -11.7223108
 -24.0341902 -17.0759475 -11.7625105 -23.7679863 -15.3428113 -11.6632533
 -25.4109764 -16.0420573 -10.4512870 -25.7118511 -15.0054371 -10.2858865
 -26.3218713 -16.6281474 -10.5899584 -24.6605754 -16.5526617  -9.2081779
 -24.6270561 -17.6440275  -9.2243421 -23.6270142 -16.2031639  -9.2536569
 -25.2756834 -16.0649276  -7.8828996 -24.6451092 -16.4170480  -7.0638454
 -25.2492952 -14.9732566  -7.8779852 -26.7044711 -16.5285301  -7.6834655
 -27.2649670 -16.7268741  -8.5934520 -27.2771144 -16.7516696  -6.5054041
 -28.3010888 -17.1147978  -6.4710379 -26.6277289 -16.4911938  -5.1629549
 -26.2443829 -17.4327016  -4.7641152 -25.7805252 -15.8099890  -5.2662492
 -27.6075244 -15.8953738  -4.1359994 -27.0240760 -15.6365001  -3.2499772
 -28.0337787 -14.9671435  -4.5222107 -28.7520909 -16.8582797  -3.7544966
 -29.4611597 -16.9272423  -4.5821011 -28.3401895 -17.8584552  -3.6046571
 -29.5088673 -16.4510357  -2.4739718 -30.0315833 -15.5047774  -2.6283351
 -30.2648234 -17.2123456  -2.2704898 -28.5639000 -16.3293421  -1.2625219
 -27.7740049 -17.0767343  -1.3621846 -28.0814958 -15.3497565  -1.2751940
 -29.2614675 -16.5433276   0.0914554 -29.9907351 -15.7496846   0.2668519
 -29.8034477 -17.4909306   0.0637320 -28.2406521 -16.5824890   1.2442628
 -27.4129581 -17.2445178   0.9813887 -27.8192186 -15.5867159   1.3968800
 -28.8584805 -17.0778131   2.5575116 -28.0856299 -17.1226597   3.3276775
 -29.2796755 -18.0773044   2.4307223 -29.6524930 -16.4071560   2.8925064
   9.9985439  25.4859734  -0.0304019  10.0697064  24.9649429   0.9266389
  10.0707734  24.7436500  -0.8280259   9.0227723  25.9729314  -0.0870054
  11.1272991  26.5201592  -0.1539447  12.0869112  26.0023594  -0.0948764
  11.0726023  27.1849680   0.7106371  11.0727811  27.3745465  -1.4387241
  11.8779957  28.1114244  -1.4055224  10.1342869  27.9327941  -1.4458917
  11.1740100  26.5847611  -2.7595764  11.0389614  27.2874594  -3.5844657
  10.3528988  25.8672500  -2.8180158  12.5160134  25.8460903  -2.9422560
  12.7149045  25.2319956  -2.0614636  13.3238566  26.5767241  -3.0198908
  12.5440848  24.9196100  -4.1724929  11.7702770  24.1580629  -4.0553081
  13.5031557  24.3979597  -4.1954648  12.3396719  25.6458569  -5.5164558
  13.1542063  26.3543820  -5.6807429  11.4058149  26.2114882  -5.4955429
  12.2781169  24.6415639  -6.6799498  11.4789391  23.9248157  -6.4798224
  13.2141936  24.0815234  -6.7307180  12.0203698  25.3165841  -8.0372989
  12.9008532  25.8906269  -8.3334231  11.1875093  26.0153317  -7.9345429
  11.6784811  24.2795038  -9.1213399  10.8540571  23.6638761  -8.7555635
  12.5317585  23.6143422  -9.2694658  11.2920237  24.9198794 -10.4699862
  12.1607339  25.4482651 -10.8682537  10.5092204  25.6662822 -10.3197622
  10.8177018  23.8860130 -11.5109873  11.5995669  23.1316566 -11.6209769
  10.7208180  24.3790531 -12.4805176   9.4880319  23.1701183 -11.1744833
   9.4680363  22.8656268 -10.1259851   9.4564486  22.2505260 -11.7625463
   8.2212639  23.9876723 -11.5037584   8.2091004  24.1873336 -12.5772822
   8.2554388  24.9518418 -10.9922194   6.9222212  23.2520747 -11.1035264
   6.7387336  23.3702135 -10.0335550   7.0172673  22.1831870 -11.3057745
   5.7298452  23.7627792 -11.8725669   5.0880522  24.7380114 -11.5469396
   5.4750514  23.0051684 -12.9597437   4.5479846  23.5093069 -13.9716184
   3.7482691  24.1009188 -13.5187376   4.0867260  22.6521873 -14.4688463
   5.3287685  24.3309140 -15.0383103   4.6748081  24.5922232 -15.8741951
   6.5507030  23.5262823 -15.5401957   6.2925899  22.4646091 -15.5106485
   7.3930717  23.6987305 -14.8654163   6.9640636  23.8201404 -16.9038045
   7.3817503  25.2813554 -17.4392784   8.4719181  25.8265185 -16.4186418
   8.8606280  27.2121358 -16.5211570   8.2314342  27.8092313 -15.8561444
   8.7077993  27.5644469 -17.5444710  10.3425980  27.3953819 -16.1488557
  10.5018222  27.1817207 -15.0908971  10.6037295  28.4424639 -16.3091981
  11.3742411  26.6146159 -16.9152975  11.0859179  26.5898943 -18.3796155
  10.1266742  26.0947919 -18.5377491  11.8929386  26.0608602 -18.8886523
  11.0395253  27.6272678 -18.7142622  12.7077866  27.2415423 -16.7123067
  12.8756750  27.3744988 -15.6425321  12.6882958  28.2188606 -17.1968162
  13.4843314  26.6156268 -17.1544456  11.4446974  25.2274823 -16.3942111
  11.6871035  25.2786136 -15.3317118  12.2128975  24.6823502 -16.9446468
  10.4692805  24.7649527 -16.5520346   8.0974072  25.0574183 -18.7070787
   6.2119132  26.1778593 -17.4124050   5.8877146  25.5162692 -14.4305944
   5.0796992  26.5471792 -14.1457474   3.8767996  26.5598893 -14.3198740
   5.8570397  27.7321434 -13.6528158   6.6049844  27.9901576 -14.4054580
   5.1809430  28.5824609 -13.5418403   6.5556717  27.4187231 -12.3243034
   5.8040255  27.2884822 -11.5429389   7.0985425  26.4763045 -12.4223042
   7.5587505  28.5087681 -11.9265282   8.1824273  28.7399578 -12.7925777
   7.0333695  29.4238114 -11.6452265   8.4724295  28.0491209 -10.7821488
   9.0035987  27.1531057 -11.1099899   9.2279071  28.8193274 -10.6133318
   7.7365804  27.7545381  -9.4583809   7.3975641  28.6927342  -9.0141737
   6.8565601  27.1341562  -9.6404594   8.6591589  27.0137739  -8.4777355
   8.9255118  26.0503888  -8.9175159   9.5871061  27.5783086  -8.3651465
   8.0641073  26.7682910  -7.0815665   8.8279998  26.3146806  -6.4466113
   7.8023493  27.7248192  -6.6243958   6.8425274  25.8780146  -7.1330196
   5.8892792  26.3985395  -7.0889509   6.8609762  24.5496559  -7.1532136
   5.9175467  24.0099430  -7.1384102   8.0905479  23.6726165  -7.2718507
   7.8439754  22.7882099  -7.8630286   8.8862604  24.1972899  -7.8047866
   8.6238891  23.2335520  -5.8984095   9.4955754  22.5919390  -6.0431790
   8.9640331  24.1257119  -5.3684855   7.5770211  22.4822211  -5.0498629
   6.6796821  23.0951452  -4.9422950   7.2756410  21.5740299  -5.5760020
   8.0886406  22.1008348  -3.6474082   7.2719371  21.6262031  -3.0995184
   8.8799787  21.3551855  -3.7486812   8.6300230  23.2845736  -2.8179953
   8.8808602  22.9217052  -1.8190601   9.5644015  23.6330938  -3.2628930
   7.6637238  24.4826031  -2.6894715   8.1724900  25.2900815  -2.1588124
   7.4173403  24.8727632  -3.6791852   6.3668841  24.1391134  -1.9354276
   5.8156866  23.3708286  -2.4816732   6.6150141  23.7322950  -0.9528826
   5.4668564  25.3719544  -1.7561680   4.5632428  25.1045036  -1.2044289
   5.1736081  25.7734251  -2.7284288   5.9896475  26.1517286  -1.1984000
  22.1289659  -5.7939684  -1.8440823  21.2010598  -5.4044318  -1.4201555
  22.5401258  -6.5378278  -1.1584562  21.8974900  -6.2831247  -2.7925593
  23.1334972  -4.6556777  -2.0622069  23.2675362  -4.1109750  -1.1252993
  22.7180433  -3.9589784  -2.7932820  24.4982481  -5.1745683  -2.5506324
  24.3689656  -5.7005930  -3.4988132  24.8779655  -5.9123600  -1.8407439
  25.5460668  -4.0529338  -2.7072895  26.4997673  -4.4948652  -3.0032933
  25.7123327  -3.5798818  -1.7372164  25.1633143  -2.9655677  -3.7306210
  26.0131192  -2.2920565  -3.8597712  24.3473935  -2.3651074  -3.3229625
  24.7383165  -3.5060689  -5.1112843  24.5060778  -2.6524988  -5.7515550
  23.8157582  -4.0812472  -5.0087094  25.8017683  -4.3801117  -5.8020139
  26.0929871  -5.1930606  -5.1336062  26.6936731  -3.7811685  -5.9975570
  25.3034806  -5.0078338  -7.1169466  24.4619656  -5.6701559  -6.9033009
  26.0992360  -5.6267655  -7.5366628  24.8773503  -3.9668104  -8.1648552
  25.6941152  -3.2604909  -8.3275503  24.0195704  -3.4024933  -7.7930695
  24.4997644  -4.6192986  -9.5038921  23.7287736  -5.3736657  -9.3337011
  25.3715658  -5.1236349  -9.9258775  23.9759612  -3.5705265 -10.4970694
  24.7528100  -2.8218639 -10.6658173  23.1177926  -3.0609822 -10.0539255
  23.5550952  -4.1959754 -11.8388629  22.8905797  -5.0412214 -11.6479671
  24.4353628  -4.5850813 -12.3548007  22.8211117  -3.1928897 -12.7457750
  21.9461870  -2.8082162 -12.2175729  22.4585724  -3.7215027 -13.6298549
  23.7037444  -2.0160684 -13.2003987  24.5328474  -2.4028924 -13.7965691
  24.1280794  -1.4977227 -12.3380065  22.8875232  -1.0115279 -14.0327120
  22.1242809  -0.5443962 -13.4068418  22.3787379  -1.5344232 -14.8452282
  23.7266397   0.0751252 -14.6516538  24.9350858   0.1335602 -14.5697248
  22.9396200   0.9358480 -15.3220749  23.5679412   1.8613166 -16.2584698
  24.5615911   2.1568434 -15.9121001  22.9492092   2.7602255 -16.3199747
  23.6643505   1.2140093 -17.6644719  24.1474819   1.9172351 -18.3476293
  22.2730589   0.8123473 -18.2165396  21.5315342   1.4797957 -17.7701008
  22.0473528  -0.2135232 -17.9143918  22.1223259   0.9438448 -19.6650112
  22.9868937   0.1622110 -20.7782483  22.4540162  -1.3305993 -20.6500888
  21.1201739  -1.6471042 -21.0640383  21.1505270  -2.4715944 -21.7809367
  20.6550574  -0.7848864 -21.5487003  20.3264618  -2.0189461 -19.8003805
  19.2800891  -2.1590804 -20.0756001  20.3841043  -1.1896500 -19.0938222
  20.7340240  -3.2658130 -19.0573764  20.7146597  -4.4473696 -19.9671948
  19.7152472  -4.5176697 -20.3990674  20.9345675  -5.3448820 -19.3872023
  21.4624214  -4.2919689 -20.7462883  22.0899487  -3.1431171 -18.4357977
  22.1006417  -2.2694436 -17.7824521  22.8172302  -2.9906785 -19.2346132
  22.3189664  -4.0541968 -17.8810322  19.7445440  -3.5047206 -17.9728794
  19.7634065  -2.6524222 -17.2920620  19.9901712  -4.4378701 -17.4637830
  18.7636900  -3.5864374 -18.4435487  22.5398278   0.6709931 -22.0887041
  24.4100022   0.2064647 -20.4280615  24.4465637  -0.0011749 -17.5769758
  25.7811856   0.1348714 -17.7179205  26.3817382   1.1934968 -17.6606202
  26.4376307  -1.2102875 -17.8978431  25.7572699  -1.9690163 -17.5055397
  26.5553498  -1.3978592 -18.9671516  27.7988648  -1.3050334 -17.1813321
  28.5012531  -0.6148605 -17.6533258  27.6907802  -0.9837557 -16.1432755
  28.3913398  -2.7288398 -17.2254610  28.5645390  -3.0074477 -18.2670188
  29.3701410  -2.7126041 -16.7415726  27.5211024  -3.8189149 -16.5600169
  26.6147542  -3.9686760 -17.1504140  28.0671382  -4.7641677 -16.5884423
  27.1197510  -3.5192224 -15.1003742  26.5366554  -2.5967479 -15.0615895
  26.4697194  -4.3214545 -14.7449207  28.3359122  -3.4127912 -14.1605055
  28.8947916  -4.3494666 -14.2129898  29.0072298  -2.6239672 -14.5062685
  27.9674268  -3.1340995 -12.6924860  27.2138572  -3.8561395 -12.3711514
  28.8586688  -3.2992253 -12.0834839  27.4372244  -1.7245398 -12.5127661
  26.6723776  -1.4158040 -13.2207644  27.8903937  -0.8366663 -11.6337514
  27.4665928   0.1643061 -11.6297305  28.9424491  -1.0979423 -10.5735481
  28.9594364  -2.1526821 -10.2912378  29.9298477  -0.8488659 -10.9678447
  28.7095666  -0.2546951  -9.3073183  29.4735050  -0.5206060  -8.5737288
  28.8454342   0.8029047  -9.5428741  27.3133850  -0.4596577  -8.6881655
  26.5587902  -0.0024738  -9.3316203  27.0963454  -1.5282156  -8.6286503
  27.2290969   0.1472140  -7.2788817  27.9064870  -0.4047108  -6.6239130
  27.5747108   1.1825365  -7.3123676  25.8074141   0.1085142  -6.6919029
  25.1511955   0.7426795  -7.2916323  25.4220653  -0.9116115  -6.7494583
  25.7874417   0.5823950  -5.2266735  26.4304471  -0.0701780  -4.6324047
  26.2010670   1.5911804  -5.1656067  24.3739963   0.5818859  -4.6201915
  23.7333465   1.2599225  -5.1879042  23.9434361  -0.4182297  -4.7029534
  24.3900943   1.0040542  -3.1411934  23.3752990   1.0216476  -2.7382737
  24.8222637   2.0008363  -3.0311003  24.9840164   0.3018394  -2.5524530
 -23.2092166  29.3912315   0.4146732 -24.2620158  29.5414424   0.6626933
 -22.7011132  30.3566360   0.4625483 -22.7738833  28.7251711   1.1625431
 -23.0764461  28.7745595  -0.9855685 -23.5665774  29.4266748  -1.7115031
 -23.5976815  27.8151512  -1.0033048 -21.6052508  28.5658956  -1.3906892
 -21.1137795  27.9258323  -0.6549995 -21.0879612  29.5275998  -1.3899210
 -21.4900112  27.9200816  -2.7822673 -21.9999743  28.5518217  -3.5125464
 -22.0075774  26.9587398  -2.7620310 -20.0280762  27.7122235  -3.2259008
 -19.5213127  27.0444632  -2.5260794 -19.5072246  28.6713767  -3.1912023
 -19.9168622  27.1466327  -4.6550393 -18.8787174  27.2196627  -4.9857742
 -20.5122852  27.7740860  -5.3215504 -20.3619409  25.6735492  -4.7605413
 -21.3084936  25.5335975  -4.2343158 -19.6245682  25.0463104  -4.2552519
 -20.5424929  25.1695085  -6.2049687 -20.7728601  24.1028810  -6.1637133
 -19.6090198  25.2849936  -6.7597252 -21.6812968  25.8881497  -6.9523966
 -21.3789368  26.9114399  -7.1845949 -22.5496006  25.9414148  -6.2923390
 -22.0799708  25.1681972  -8.2558471 -22.4704313  24.1771650  -8.0153006
 -21.1914206  25.0219870  -8.8735557 -23.1294084  25.9413576  -9.0784496
 -23.3634162  25.3724885  -9.9807209 -22.6978374  26.8938279  -9.3931049
 -24.4241548  26.2132812  -8.2927346 -24.2007160  26.8735862  -7.4521768
 -24.7952461  25.2724648  -7.8808880 -25.5312872  26.8712091  -9.1353160
 -25.7555795  26.2513590 -10.0059140 -25.1797676  27.8373814  -9.5032966
 -26.7977643  27.0600080  -8.2773620 -26.5303850  27.6672745  -7.4100697
 -27.1121645  26.0864401  -7.8955460 -27.9998803  27.7089643  -8.9911205
 -28.3295822  27.0619965  -9.8067147 -28.8309550  27.7930903  -8.2877725
 -27.6829195  29.0755606  -9.5474952 -27.7968597  30.1247597  -8.9297223
 -27.2833371  28.9779878 -10.8217776 -26.7969608  30.1303458 -11.5536201
 -26.3150430  30.8350611 -10.8711398 -27.6384640  30.6212211 -12.0491612
 -25.7508016  29.6633744 -12.5958776 -25.5443883  30.4969144 -13.2720828
 -26.2819195  28.4559298 -13.4059143 -27.2165322  28.7380433 -13.8973975
 -26.4769030  27.6104045 -12.7412927 -25.3389740  28.0572128 -14.4283187
 -24.5207357  26.6877103 -14.3017089 -23.9545250  26.4816546 -15.7634890
 -23.1480956  25.3327274 -16.0463977 -23.3096242  24.5731330 -15.2772605
 -22.0941281  25.6218505 -16.0319281 -23.5352111  24.7802830 -17.4285197
 -22.8832769  23.9395857 -17.6703715 -23.3717656  25.5619383 -18.1718779
 -24.9484015  24.3018079 -17.6252389 -25.0246143  23.5736775 -18.9220154
 -24.6776891  24.2450881 -19.7088659 -26.0658121  23.2893682 -19.0812564
 -24.3900132  22.6878285 -18.8688135 -25.3764415  23.3812237 -16.5369725
 -25.3813481  23.9496422 -15.6057584 -24.6741033  22.5474167 -16.4949834
 -26.3868117  23.0429673 -16.7715251 -25.9097314  25.4389048 -17.6795602
 -25.9297824  25.9002662 -16.6911149 -26.8930435  25.0392222 -17.9318213
 -25.5526567  26.1530542 -18.4230447 -23.3630133  26.8738985 -13.4117711
 -25.4713368  25.5796504 -14.0753067 -24.5618033  29.2771888 -11.8639064
 -23.3538818  29.6660972 -12.3227799 -23.1880116  30.4417920 -13.2449794
 -22.2263169  29.1574001 -11.4599442 -22.4937820  28.1686234 -11.0814643
 -21.3304853  29.0330553 -12.0718968 -21.9068623  30.1185179 -10.2974451
 -21.0527825  29.7282004  -9.7400749 -21.6097045  31.0897970 -10.6984162
 -23.0907893  30.3024578  -9.3325907 -23.8833809  30.8563948  -9.8399532
 -23.4873581  29.3197775  -9.0688980 -22.6997566  31.0477781  -8.0463713
 -22.0538831  30.4083443  -7.4410313 -22.1218395  31.9363737  -8.3088070
 -23.9255404  31.4749646  -7.2176760 -23.5780382  31.9373298  -6.2914354
 -24.4811773  32.2368264  -7.7684015 -24.8720241  30.3084755  -6.8801677
 -25.2949858  29.9049807  -7.8025335 -24.3063807  29.5067096  -6.4009166
 -26.0243273  30.7410288  -5.9583402 -25.6351089  31.0560536  -4.9879107
 -26.5254116  31.6059542  -6.3979799 -27.0229888  29.6200132  -5.7920313
 -27.8804088  29.6571445  -6.4591289 -26.9007516  28.5881877  -4.9638107
 -27.6736426  27.8238606  -4.9600470 -25.7615542  28.3346725  -3.9966395
 -25.0649714  29.1751719  -3.9684045 -26.1653852  28.2214069  -2.9883960
 -24.9832010  27.0506120  -4.3385908 -24.4476318  27.1940732  -5.2793598
 -24.2310214  26.9068694  -3.5601142 -25.8707857  25.7894754  -4.4418159
 -26.5086102  25.7205439  -3.5581356 -26.5380740  25.8902860  -5.3003192
 -25.0724196  24.4776678  -4.6031365 -25.7765102  23.6465931  -4.6807978
 -24.5206571  24.5103598  -5.5449188 -24.0803885  24.1785812  -3.4596792
 -23.6240983  23.2028937  -3.6393932 -23.2728362  24.9133086  -3.4819627
 -24.7227454  24.1839409  -2.0585051 -25.1837254  25.1554084  -1.8682101
 -25.5116391  23.4300804  -2.0160057 -23.6891580  23.9141345  -0.9514393
 -23.2232714  22.9411077  -1.1206604 -22.9015684  24.6689939  -0.9999359
 -24.3235564  23.9419341   0.4489731 -23.5574484  23.7945366   1.2130503
 -25.0700665  23.1510425   0.5473436 -24.8085403  24.9032497   0.6309877
   9.1440862 -32.3501801  -2.8340456   9.6271616 -31.5937471  -2.2120236
   9.9224728 -32.9695320  -3.2845801   8.5191208 -32.9767919  -2.1943301
   8.3050823 -31.6779351  -3.9304841   8.9748603 -31.0897112  -4.5612407
   7.5988752 -30.9860110  -3.4668306   7.5295806 -32.6480556  -4.8367870
   8.2279748 -33.3348370  -5.3195304   7.0660961 -32.0500970  -5.6242448
   6.4381868 -33.4516525  -4.1011402   5.7848281 -32.7630424  -3.5613218
   6.9045734 -34.0961385  -3.3530852   5.5885839 -34.3340826  -5.0415951
   4.8074725 -34.8177576  -4.4513521   6.2192935 -35.1305771  -5.4419273
   4.9303278 -33.5913610  -6.2251812   4.3205729 -34.3110991  -6.7753088
   5.7030505 -33.2438302  -6.9140822   4.0509799 -32.3962259  -5.7995331
   4.6299544 -31.7252445  -5.1615399   3.2148078 -32.7673674  -5.2032661
   3.5060030 -31.5613055  -6.9758618   4.3395844 -31.0761619  -7.4879569
   2.8646514 -30.7769656  -6.5685010   2.6953849 -32.3927784  -7.9822803
   1.8944454 -32.9041791  -7.4442941   3.3460850 -33.1595373  -8.4078777
   2.0622616 -31.6018820  -9.1419047   1.3678269 -30.8600593  -8.7419993
   1.4713915 -32.2982979  -9.7405213   3.0857283 -30.9048724 -10.0599992
   3.8922033 -31.5982699 -10.3075063   3.5322848 -30.0610757  -9.5298505
   2.4218316 -30.4109120 -11.3609970   1.4876233 -29.9030566 -11.1124015
   2.1625124 -31.2728047 -11.9793522   3.2887560 -29.4373298 -12.1814990
   3.4345016 -28.5251498 -11.5991330   2.7345195 -29.1533685 -13.0785227
   4.6667492 -29.9858427 -12.6007259   4.5371956 -30.8702326 -13.2280517
   5.2295238 -30.2832913 -11.7134416   5.4577267 -28.9068055 -13.3737111
   5.5747670 -28.0218339 -12.7447510   4.8876470 -28.6104465 -14.2566848
   6.8322593 -29.3332410 -13.8346696   7.4397963 -28.7148809 -14.6842539
   7.3302394 -30.4108334 -13.2037270   8.6083949 -30.9470344 -13.6589408
   9.4155568 -30.4667521 -13.0999541   8.7550557 -30.7388592 -14.7218633
   8.6590856 -32.4887657 -13.4604239   9.7073054 -32.7922940 -13.3991444
   8.0302757 -33.2599425 -14.6456444   7.7246743 -34.2634225 -14.3385863
   8.7946057 -33.3597708 -15.4205537   6.8879324 -32.5676537 -15.2177131
   6.6399300 -32.5710964 -16.7994142   7.5919706 -31.3955951 -17.2907603
   7.0441574 -30.0864577 -17.5145018   6.3727522 -29.8324752 -16.6902697
   6.4589345 -30.0942159 -18.4375966   8.1964982 -29.0614963 -17.5769305
   8.6925095 -29.0233517 -16.6059518   7.7813077 -28.0717087 -17.7724242
   9.2815197 -29.2753768 -18.5975826  10.1936102 -30.3901839 -18.2057369
  10.6334865 -30.1454806 -17.2377956  10.9967816 -30.4576039 -18.9410269
   9.6264058 -31.3207936 -18.1554890   8.7171757 -29.5531678 -19.9487889
   8.0727112 -28.7177420 -20.2262950   8.1495333 -30.4828453 -19.8874617
   9.5513642 -29.6507835 -20.6451225  10.0973749 -28.0386233 -18.6831427
   9.4755805 -27.1971011 -18.9921594  10.9151316 -28.2085514 -19.3850541
  10.5258763 -27.8348327 -17.7007294   7.1790123 -33.8305092 -17.3461080
   5.2539712 -32.1769166 -17.0832455   8.0088961 -32.8877878 -12.2201514
   8.5305369 -32.4193859 -11.0734320   9.6227074 -31.8923903 -10.9915197
   7.5983655 -32.6377583  -9.9023777   6.6344053 -32.1763301 -10.1267159
   7.4111754 -33.7097979  -9.8120892   8.1459224 -32.1111822  -8.5565633
   7.7684563 -32.7621150  -7.7651906   9.2345816 -32.1892071  -8.5219514
   7.7022731 -30.6710863  -8.2337582   6.6110539 -30.6557226  -8.1954420
   8.0565512 -30.4128146  -7.2336346   8.2079273 -29.6021485  -9.2264026
   9.2957485 -29.5409203  -9.1531873   7.9687589 -29.8890901 -10.2525246
   7.5986087 -28.2144570  -8.9551771   7.6498955 -27.9954886  -7.8865862
   8.1872553 -27.4551439  -9.4742143   6.1408842 -28.1377339  -9.4474143
   6.1330807 -28.2021117 -10.5374873   5.5786377 -28.9955282  -9.0725374
   5.4142874 -26.8572378  -9.0096313   5.4102743 -26.7984176  -7.9192245
   5.9472144 -25.9816432  -9.3861777   3.9967656 -26.8537760  -9.5312893
   3.8591817 -26.3797021 -10.4997385   2.9463267 -27.3655176  -8.8986921
   1.9694509 -27.3330307  -9.3743241   2.9776490 -28.1047726  -7.5829005
   2.2564991 -28.9236379  -7.6260954   3.9632544 -28.5463500  -7.4214917
   2.6140290 -27.1825123  -6.4082825   3.3407664 -26.3689685  -6.3586628
   1.6356756 -26.7347455  -6.5948093   2.5769332 -27.9212666  -5.0554639
   2.2344160 -27.2291088  -4.2834127   1.8405192 -28.7253022  -5.1161724
   3.9475751 -28.4986663  -4.6435642   4.2511141 -29.2690682  -5.3554684
   4.6966469 -27.7055883  -4.6923760   3.9698634 -29.1064215  -3.2282537
   4.9480811 -29.5633864  -3.0647439   3.8620341 -28.3018112  -2.4978849
   2.8724736 -30.1604366  -2.9837132   1.8921092 -29.6804595  -3.0149153
   2.8974289 -30.8998060  -3.7869385   3.0230317 -30.8922601  -1.6380863
   2.2790813 -31.6898894  -1.5852699   4.0062401 -31.3648796  -1.5891290
   2.8405860 -29.9643135  -0.4258919   2.9405668 -30.5398440   0.4967300
   1.8507233 -29.5034599  -0.4417415   3.5924584 -29.1724157  -0.4187996
  30.7171702   3.9191535   0.9876463  30.2072930   3.5318121   1.8722115
  30.0243974   3.8861769   0.1441747  30.9893465   4.9602512   1.1733861
  31.9698095   3.0824891   0.6875998  31.6726446   2.0508491   0.4879114
  32.6174450   3.0752614   1.5667914  32.7521658   3.6199743  -0.5211296
  33.0693316   4.6460471  -0.3235327  32.0906973   3.6391443  -1.3897823
  33.9846897   2.7502608  -0.8278345  33.6502481   1.7438942  -1.0882936
  34.5910740   2.6618129   0.0760124  34.8785520   3.2874689  -1.9637085
  35.6532431   2.5409555  -2.1508828  35.3900051   4.1947630  -1.6355377
  34.1390038   3.5564476  -3.2909867  33.2683229   2.9020548  -3.3694038
  34.8114991   3.2890949  -4.1087508  33.7196159   5.0327986  -3.4694648
  34.6200275   5.6429827  -3.5664105  33.1953835   5.3825128  -2.5776440
  32.8122115   5.2799934  -4.6913457  32.6462054   6.3546985  -4.7909227
  31.8385053   4.8189530  -4.5130181  33.3979225   4.7309256  -6.0057580
  33.4532976   3.6424205  -5.9382778  34.4157767   5.1054651  -6.1328834
  32.5594163   5.1256013  -7.2369033  32.5445366   6.2146157  -7.3162150
  31.5267897   4.7958565  -7.1049505  33.1160808   4.5437345  -8.5501897
  34.1594839   4.8461971  -8.6610508  32.5685525   4.9816814  -9.3873751
  33.0131841   3.0065578  -8.6356765  31.9669127   2.7027518  -8.5616291
  33.5467005   2.5456139  -7.8017974  33.6116290   2.4766795  -9.9475151
  34.6826959   2.6893345  -9.9549437  33.1735468   3.0115402 -10.7927787
  33.3917856   0.9660888 -10.1453125  32.3358727   0.7838763 -10.3558135
  33.6490393   0.4214828  -9.2344403  34.2656040   0.4605579 -11.3065362
  35.3051996   0.4008041 -10.9777021  34.2250013   1.1723711 -12.1336627
  33.8555717  -0.8751313 -11.8650734  32.8086805  -1.4476673 -11.6273844
  34.8058724  -1.3494071 -12.6900649  34.3726230  -2.1082175 -13.8501394
  33.5380960  -2.7667025 -13.5959482  35.2051067  -2.7274054 -14.1939759
  33.9737678  -1.1308968 -14.9849486  33.7414193  -1.7021146 -15.8873737
  35.1184797  -0.1510190 -15.3695822  35.6099057  -0.5178425 -16.2743413
  35.8660984  -0.1181543 -14.5729423  34.6701908   1.2133253 -15.6115782
  33.7131429   1.5948983 -16.8384540  32.3743820   2.1152759 -16.1471951
  32.2480726   3.4812006 -15.7108140  33.1357241   4.0679127 -15.9607995
  32.1370912   3.4870154 -14.6234775  30.9974885   4.0973991 -16.3684571
  30.8842659   5.1121253 -15.9840202  30.1157403   3.5250664 -16.0765088
  30.9574533   4.2353624 -17.8697050  32.1546936   4.9664122 -18.3784974
  32.2026968   5.9229469 -17.8559864  32.0510936   5.1208210 -19.4535339
  33.0458713   4.3740723 -18.1658554  30.8527398   2.9127464 -18.5531402
  30.0145245   2.3649368 -18.1200349  31.7838168   2.3714092 -18.3789754
  30.7100010   3.0807716 -19.6216309  29.7463179   5.0239098 -18.2323790
  28.8538742   4.4875744 -17.9065418  29.7304463   5.1820779 -19.3117356
  29.8137379   5.9911716 -17.7322376  34.3104482   2.7304149 -17.5559366
  33.3619714   0.3792305 -17.6007473  32.8032565  -0.3963152 -14.5625222
  31.5887761  -0.8431894 -14.9209273  31.4016914  -1.9288896 -15.4486346
  30.4740214   0.1216525 -14.5649970  30.2885389   0.7694971 -15.4242742
  29.5611119  -0.4448983 -14.3698621  30.8188367   0.9866553 -13.3311212
  31.0187078   0.3234475 -12.4869239  31.7377448   1.5465891 -13.5169828
  29.7247386   1.9897166 -12.9303741  29.5498371   2.6940331 -13.7463474
  28.7892079   1.4584206 -12.7433717  30.1573920   2.7530518 -11.6652298
  30.5167842   2.0341571 -10.9259808  30.9959221   3.4069660 -11.9136810
  29.0343690   3.5792857 -11.0175598  28.6529565   4.3125555 -11.7312145
  28.2106209   2.9148778 -10.7483649  29.5544696   4.3058702  -9.7625452
  30.0550580   3.5885283  -9.1088676  30.3001642   5.0430948 -10.0673461
  28.4632874   5.0177073  -8.9507800  28.9450812   5.6955445  -8.2430553
  27.8667736   5.6343997  -9.6262974  27.5713301   4.0299132  -8.2259494
  26.9241118   3.4477377  -8.8769090  27.4833941   3.8648066  -6.9083756
  26.7733693   3.1377250  -6.5226477  28.3255792   4.5519418  -5.8490533
  29.1888070   5.0639004  -6.2793982  27.7134442   5.3061700  -5.3501594
  28.8171983   3.5547888  -4.7802693  29.2715764   4.1163602  -3.9613420
  27.9556298   3.0250803  -4.3684763  29.8511386   2.5427771  -5.3195900
  29.4239736   1.9883104  -6.1577791  30.7099986   3.0921680  -5.7107347
  30.3543139   1.5420718  -4.2579630  31.1810899   0.9734451  -4.6887428
  30.7514572   2.0868865  -3.3989403  29.2655730   0.5555050  -3.7898496
  28.4713912   1.0978906  -3.2725918  28.8223100   0.0822162  -4.6684724
  29.8118043  -0.5478046  -2.8632072  30.6386924  -1.0580969  -3.3615297
  30.2062082  -0.0955361  -1.9508669  28.7258744  -1.5813516  -2.5027964
  27.9087520  -1.0820070  -1.9779834  28.3145189  -2.0040475  -3.4218058
  29.2634630  -2.7283731  -1.6293676  28.4613848  -3.4299445  -1.3907611
  29.6750164  -2.3419805  -0.6946011  30.0505304  -3.2720834  -2.1560234
   7.8142929 -28.1581450  -4.7457287   7.0332688 -27.9188299  -4.0210265
   7.5443494 -29.0876889  -5.2512395   7.8531921 -27.3610377  -5.4910934
   9.1724354 -28.2987761  -4.0386748   9.1227341 -29.1363692  -3.3397982
   9.3663764 -27.4047089  -3.4424412  10.3371465 -28.5379481  -5.0178307
  10.0061560 -29.1951752  -5.8246523  11.1391890 -29.0580249  -4.4899011
  10.8992362 -27.2218513  -5.5864638  11.2759733 -26.6121769  -4.7625533
  10.0889277 -26.6564631  -6.0514361  12.0319629 -27.4267840  -6.6118729
  12.7749538 -28.1216908  -6.2149692  12.5348055 -26.4712453  -6.7748457
  11.4993215 -27.9425550  -7.9591984  10.7112706 -27.2654629  -8.2953292
  11.0463572 -28.9262247  -7.8189069  12.5933814 -28.0495954  -9.0405720
  13.3181310 -28.8071489  -8.7351048  13.1300128 -27.1022081  -9.1239345
  12.0179141 -28.4321952 -10.4191279  11.3800943 -29.3118453 -10.3101921
  12.8387916 -28.7116933 -11.0828352  11.2213659 -27.2852302 -11.0747194
  11.9129789 -26.4814067 -11.3354957  10.4991138 -26.8741179 -10.3663397
  10.4532158 -27.7438927 -12.3268127   9.7522241 -28.5277176 -12.0323753
  11.1445868 -28.1784582 -13.0518115   9.6569622 -26.6029382 -12.9875278
   9.0363050 -26.1171556 -12.2317064   8.9814013 -27.0331359 -13.7298262
  10.5456340 -25.5644345 -13.6980999  11.1577022 -26.0789418 -14.4418180
  11.2278557 -25.0994873 -12.9833531   9.7299600 -24.4684696 -14.4095004
   8.9802265 -24.9284148 -15.0566578  10.4143369 -23.9095354 -15.0511265
   9.0578616 -23.4818459 -13.4349072   9.8333651 -22.9887557 -12.8450584
   8.4322900 -24.0369940 -12.7328122   8.1717241 -22.4128985 -14.1156137
   7.7780527 -21.7512679 -13.3411920   7.3235953 -22.9004335 -14.6008444
   8.8849384 -21.5519857 -15.1343632   8.3571178 -21.1759567 -16.1634099
  10.1098430 -21.1767530 -14.7333515  10.9823096 -20.4733276 -15.6653357
  11.5885699 -19.7775614 -15.0796723  10.4140627 -19.8808599 -16.3869500
  11.9668543 -21.4261174 -16.3870764  12.8265691 -20.8405232 -16.7226577
  11.3710654 -22.0732474 -17.6602530  12.2157943 -22.4034262 -18.2702219
  10.8267331 -21.3253212 -18.2424569  10.4856026 -23.2042146 -17.4023747
  10.4777324 -24.4897175 -18.3733642  11.3709795 -25.5884576 -17.6240993
  12.6672256 -25.3021884 -17.0598269  13.0603158 -26.2166190 -16.6082239
  12.5333083 -24.5788741 -16.2514162  13.6590600 -24.7571683 -18.1106377
  14.4933045 -24.2754340 -17.5985324  13.1645763 -24.0134430 -18.7372446
  14.2779779 -25.7360220 -19.0574181  15.1333308 -26.6890717 -18.3042479
  15.8117950 -26.1141753 -17.6722193  15.6729770 -27.3037100 -19.0262473
  14.4756186 -27.3198342 -17.7043855  13.2469463 -26.4789200 -19.8287773
  12.6284468 -25.7593369 -20.3672361  12.6352584 -27.0247889 -19.1089523
  13.7455511 -27.1899772 -20.4891348  15.1332498 -24.9984622 -20.0246811
  14.4936538 -24.3067741 -20.5749226  15.5965173 -25.7276106 -20.6910205
  15.8905160 -24.4551468 -19.4575489   9.0925282 -24.9989414 -18.4381032
  11.1538780 -24.1208291 -19.6308076  12.4704671 -22.4389338 -15.4763532
  13.3758938 -22.0953465 -14.5462513  13.8284588 -20.9746647 -14.4083595
  13.7888706 -23.2536364 -13.6770022  13.3196306 -24.1750503 -14.0281045
  14.8684084 -23.3754015 -13.7876070  13.4339631 -23.0052710 -12.1991837
  13.7424660 -21.9951391 -11.9218290  12.3509264 -23.0641270 -12.0725703
  14.1280901 -24.0100980 -11.2609935  13.7127459 -25.0084877 -11.4132071
  15.1861978 -24.0610957 -11.5260768  14.0295196 -23.6187053  -9.7739094
  14.6697021 -24.2907763  -9.1986245  14.4299829 -22.6110268  -9.6447772
  12.6023078 -23.6800170  -9.1940212  11.9319749 -23.0415845  -9.7732633
  12.2312641 -24.7043085  -9.2689550  12.5858223 -23.2328939  -7.7182907
  13.3769441 -23.7621474  -7.1830505  12.8171718 -22.1673346  -7.6589423
  11.2557292 -23.5119987  -6.9946605  11.0681725 -24.5875192  -7.0178437
  11.3873124 -23.2317328  -5.9474725  10.0913966 -22.7207851  -7.5630742
  10.2892232 -21.6599059  -7.6933503   8.8875991 -23.1897354  -7.8881919
   8.1451488 -22.5026107  -8.2859290   8.4037650 -24.6212554  -7.7568090
   8.1391525 -24.9943423  -8.7483984   9.1889590 -25.2815652  -7.3827481
   7.1592772 -24.7464323  -6.8489289   6.2991214 -24.3358684  -7.3818767
   6.9530195 -25.8070970  -6.6910976   7.2466737 -24.0482926  -5.4745871
   7.2230399 -22.9715395  -5.6548798   6.3512027 -24.2894959  -4.8980314
   8.4980035 -24.3920612  -4.6388200   8.4541476 -25.4335165  -4.3133825
   9.3862581 -24.2999005  -5.2672875   8.6992419 -23.4602737  -3.4259203
   9.7329974 -23.5460711  -3.0846697   8.5707778 -22.4255633  -3.7504715
   7.7515429 -23.7081885  -2.2380356   7.9232019 -22.9278207  -1.4937097
   6.7170298 -23.6086798  -2.5732136   7.9300165 -25.0762796  -1.5559004
   7.2374290 -25.1372743  -0.7138398   7.6566410 -25.8683705  -2.2561294
   9.3533987 -25.3294492  -1.0323032   9.3786263 -26.2654567  -0.4704178
   9.6716559 -24.5210981  -0.3706796  10.0631964 -25.4102015  -1.8582144
 -33.9931250   6.2225461  -3.6926392 -34.6492815   5.6388521  -3.0436215
 -34.3711996   7.2464556  -3.7262863 -32.9955983   6.2370151  -3.2485738
 -33.9631104   5.6003881  -5.0990301 -34.9692297   5.6166917  -5.5232024
 -33.6756635   4.5507810  -5.0086790 -32.9797482   6.2973279  -6.0600442
 -32.9812789   5.7646137  -7.0132899 -31.9724393   6.2118673  -5.6471443
 -33.2511759   7.7906561  -6.3158572 -32.4228954   8.1828690  -6.9096428
 -33.2439041   8.3296263  -5.3661615 -34.5761800   8.0649829  -7.0533592
 -35.4027748   7.6088470  -6.5045911 -34.5458865   7.5994396  -8.0406868
 -34.8705316   9.5689088  -7.2034609 -34.9459767  10.0161195  -6.2100959
 -35.8439422   9.6909463  -7.6830876 -33.8063455  10.3359175  -8.0101764
 -33.6905956   9.8810184  -8.9961445 -32.8417277  10.2731228  -7.5022078
 -34.1862774  11.8177557  -8.1618786 -34.3392611  12.2447991  -7.1685541
 -35.1312280  11.8994343  -8.7030458 -33.1026959  12.6252830  -8.8964015
 -32.9986930  12.2451115  -9.9147910 -32.1458483  12.4864590  -8.3888233
 -33.4463096  14.1254103  -8.9207548 -33.5582924  14.4697618  -7.8905386
 -34.4105053  14.2714202  -9.4121534 -32.3776150  15.0013888  -9.6016037
 -31.4425302  14.9189222  -9.0436774 -32.6941299  16.0441887  -9.5319557
 -32.1032357  14.6660638 -11.0815060 -31.6271758  13.6856961 -11.1501455
 -31.3844943  15.3945339 -11.4625645 -33.3673716  14.6924722 -11.9683659
 -33.9615631  15.5716908 -11.7107320 -33.9832354  13.8133466 -11.7675817
 -33.0348754  14.7626126 -13.4714758 -32.4097276  15.6444752 -13.6262989
 -33.9531851  14.9260437 -14.0393341 -32.3177099  13.5141981 -14.0325570
 -33.0141306  12.9197526 -14.6276164 -31.9621253  12.8755724 -13.2212734
 -31.1416984  13.8844407 -14.9040866 -31.1715579  14.7697520 -15.7400179
 -30.0392795  13.1810260 -14.5913553 -28.8331079  13.4404922 -15.3589618
 -28.3054757  14.2902255 -14.9182737 -29.0911484  13.7057865 -16.3873994
 -27.9237366  12.1794975 -15.3900349 -26.9352221  12.4517143 -15.7687020
 -28.5238004  11.0533714 -16.2523580 -29.2744732  10.5411482 -15.6450951
 -27.7464747  10.3305387 -16.5129888 -29.1555309  11.5332389 -17.4694002
 -30.6563520  11.0919666 -17.7899122 -30.5358362   9.5119226 -17.7360284
 -31.6684055   8.6965060 -17.4204397 -32.5951266   9.2710286 -17.4963415
 -31.5636492   8.3265167 -16.3973153 -31.6760302   7.5282294 -18.4209156
 -32.5410700   6.8986249 -18.2074130 -30.7775402   6.9308436 -18.2592821
 -31.7255116   7.8401178 -19.8951149 -32.7975202   8.8280314 -20.1949215
 -33.7182236   8.4692609 -19.7324598 -32.8941727   8.9240319 -21.2773824
 -32.4825621   9.7765452 -19.7574222 -30.4235005   8.3754152 -20.3971434
 -29.6214533   7.7164459 -20.0613451 -30.2819347   9.3680620 -19.9671483
 -30.4558015   8.4484458 -21.4852142 -32.0151782   6.5810138 -20.6353521
 -31.2213302   5.8662170 -20.4136562 -32.0697498   6.7942137 -21.7039251
 -32.9636073   6.1846572 -20.2697444 -31.5548229  11.5133166 -16.6997826
 -31.0174227  11.4153659 -19.1843832 -27.7900219  11.5661538 -14.0827167
 -27.4539566  12.2818351 -13.0030012 -26.9960666  13.4077203 -13.0295908
 -27.7370882  11.5006864 -11.7473781 -27.4087167  10.4698181 -11.8955278
 -27.1638083  11.9242787 -10.9201038 -29.2494988  11.5327716 -11.4408875
 -29.5279479  12.5411189 -11.1275721 -29.8058724  11.3268352 -12.3576772
 -29.7046614  10.5106091 -10.3800261 -30.7719111  10.6561852 -10.2004457
 -29.5880532   9.5033365 -10.7853281 -28.9603662  10.5875945  -9.0328103
 -29.4704413   9.9365616  -8.3197576 -27.9455924  10.2020526  -9.1513622
 -28.8954258  12.0151758  -8.4622920 -28.2297206  12.6236236  -9.0779954
 -29.8880482  12.4676621  -8.5114580 -28.3976841  12.0502687  -7.0057130
 -29.1596365  11.6153359  -6.3555396 -27.5017405  11.4331961  -6.9109958
 -28.0642509  13.4769249  -6.5294617 -27.8432941  13.4619594  -5.4601544
 -27.1489167  13.8002539  -7.0295465 -29.1659474  14.4715679  -6.8435609
 -29.0364718  15.0194979  -7.7733874 -30.2284908  14.7303963  -6.0896868
 -30.9443927  15.4782951  -6.4208984 -30.5670381  14.0535271  -4.7804326
 -29.6840477  13.5887110  -4.3368807 -30.9271908  14.7976816  -4.0669987
 -31.6513443  12.9842448  -4.9914792 -32.5451493  13.4523726  -5.4091328
 -31.2986708  12.2494256  -5.7182020 -32.0039511  12.2720015  -3.6751893
 -31.0902619  11.8601978  -3.2415357 -32.4007440  13.0047882  -2.9694682
 -33.0188894  11.1308670  -3.8726911 -33.9710832  11.5395081  -4.2173675
 -32.6505923  10.4650915  -4.6559942 -33.2389855  10.3038597  -2.5901714
 -33.8860559   9.4561231  -2.8249159 -32.2779846   9.8944783  -2.2718154
 -33.8715291  11.1104631  -1.4360864 -33.2328391  11.9578695  -1.1783258
 -34.8274732  11.5176594  -1.7719841 -34.1125631  10.2719522  -0.1653193
 -34.6606326  10.8810377   0.5565540 -34.7456431   9.4163990  -0.4096593
 -32.8131008   9.7758639   0.4961142 -33.0439997   9.2344630   1.4159155
 -32.1662807  10.6193924   0.7462128 -32.2667480   9.1023773  -0.1674956
   2.4776028  27.2443628   0.3972461   2.6731968  27.4624586   1.4492162
   3.0383426  26.3491130   0.1205474   1.4108495  27.0394087   0.2854676
   2.8986737  28.4393883  -0.4756434   3.9372849  28.6909723  -0.2510166
   2.2941515  29.3069553  -0.2029808   2.7689362  28.1841898  -1.9907854
   3.4569192  27.3888540  -2.2850396   3.0787879  29.0885353  -2.5186253
   1.3433599  27.8071308  -2.4368912   0.6385597  28.5421228  -2.0425481
   1.0722395  26.8357944  -2.0180075   1.2127610  27.7444506  -3.9711350
   1.8334107  26.9317579  -4.3542653   1.5903084  28.6736655  -4.4029728
  -0.2481873  27.5279927  -4.4100073  -0.8737981  28.3255005  -4.0037364
  -0.6049623  26.5893602  -3.9808881  -0.4331747  27.4703360  -5.9388900
  -1.4503892  27.1336269  -6.1495239   0.2432210  26.7196774  -6.3529742
  -0.2048284  28.8208008  -6.6523457   0.8099546  29.1766524  -6.4624816
  -0.8976195  29.5637608  -6.2517041  -0.4123332  28.6808968  -8.1729150
  -1.4179398  28.3021975  -8.3673555   0.2859831  27.9303622  -8.5491014
  -0.2015296  29.9797893  -8.9762062  -0.2146992  29.7192693 -10.0365925
   0.7881129  30.3857851  -8.7565738  -1.2777556  31.0567594  -8.7215793
  -1.1165141  31.5181875  -7.7450806  -2.2579794  30.5763125  -8.6933464
  -1.3114578  32.1433616  -9.8188668  -2.1631481  32.8023243  -9.6375978
  -1.4826539  31.6598654 -10.7829130  -0.0314837  32.9979682  -9.9031782
   0.8398887  32.3413134  -9.9476635   0.0543138  33.5968661  -8.9941007
  -0.0284260  33.9354134 -11.1302602  -0.9168169  34.5687127 -11.0838258
  -0.1073216  33.3405304 -12.0425951   1.2145229  34.8486257 -11.2275863
   1.3624837  35.3846097 -10.2877498   1.0466545  35.5983639 -12.0035863
   2.4753790  34.0858912 -11.5581942   3.0013701  33.3090544 -10.7894981
   2.9545638  34.3733644 -12.7882755   4.1255453  33.6411810 -13.2620788
   4.7747177  33.3539867 -12.4309683   4.6996385  34.3034363 -13.9151359
   3.7047854  32.3940992 -14.0858603   4.6136853  31.8788338 -14.4068766
   2.8760892  32.8072429 -15.3268552   3.1006175  33.8447022 -15.5874574
   1.8131343  32.7397060 -15.0814700   3.1500405  31.9608474 -16.4829731
   4.5365405  32.0524716 -17.2831321   5.4807127  31.0663819 -16.4725304
   5.8049327  29.7406578 -16.9333732   6.7133981  29.4514894 -16.3988435
   6.0487717  29.7471714 -17.9988062   4.7054845  28.7131381 -16.5720558
   4.1890278  29.0166068 -15.6602120   5.2238762  27.7749825 -16.3685548
   3.6505753  28.3127713 -17.5786221   2.4729009  29.2242122 -17.5600886
   2.1705729  29.3797588 -16.5234184   1.6677715  28.7735224 -18.1422591
   2.7688602  30.1748633 -18.0061293   4.2080674  28.2355332 -18.9580774
   5.0817949  27.5835514 -18.9155996   4.4780743  29.2482376 -19.2610765
   3.4475100  27.8220868 -19.6220767   3.1605384  26.9486713 -17.2269082
   4.0162149  26.2727451 -17.2618961   2.4020573  26.6334248 -17.9449654
   2.7524424  26.9706082 -16.2153471   4.3602440  31.4894629 -18.6348259
   5.0714648  33.4184933 -17.1493280   2.8923064  31.4968371 -13.2777202
   3.5352486  30.7236528 -12.3810661   4.7444969  30.6371498 -12.3356831
   2.5703147  29.9869323 -11.4772010   2.1064349  30.7198024 -10.8137417
   1.7685118  29.5817447 -12.0980060   3.1751445  28.8338900 -10.6370151
   2.3764031  28.4337378 -10.0090396   3.4751007  28.0276060 -11.3096201
   4.3730110  29.1795754  -9.7220397   4.5682511  28.3337593  -9.0595150
   5.2653253  29.2969918 -10.3404653   4.1950569  30.4538274  -8.8766253
   3.8589051  31.2702680  -9.5191908   3.4195346  30.2848768  -8.1266356
   5.5110985  30.8972764  -8.2040530   5.7937706  30.1827455  -7.4281633
   6.3068366  30.8982491  -8.9518934   5.4156482  32.3159719  -7.6098400
   6.4090651  32.6389098  -7.2915649   5.0904065  33.0044842  -8.3925498
   4.4517270  32.4105263  -6.4146560   3.5011882  31.9327307  -6.6609287
   4.8737079  31.8550611  -5.5745041   4.2369300  33.8526988  -6.0086161
   5.0736946  34.3130422  -5.4895055   3.1251365  34.5578289  -6.1963207
   3.0790523  35.5832219  -5.8385265   1.8990877  34.0918851  -6.9555700
   1.5643349  34.8937273  -7.6169717   2.1310872  33.2393813  -7.5973475
   0.7411157  33.7267542  -6.0092384   0.4161350  34.6274519  -5.4842669
  -0.1055099  33.3755016  -6.6027963   1.1222236  32.6511121  -4.9744034
   1.4983940  31.7625070  -5.4856211   1.9278426  33.0381680  -4.3470052
  -0.0707754  32.2551227  -4.0906176  -0.5573418  33.1580329  -3.7158266
  -0.8038468  31.7269158  -4.7038618   0.3239641  31.3599610  -2.9036912
  -0.5881194  31.0107994  -2.4151701   0.8329818  30.4758430  -3.2931784
   1.2347940  32.0293713  -1.8528393   1.4120725  31.3160205  -1.0452718
   2.2056694  32.2426319  -2.3049271   0.6631336  33.3299184  -1.2534180
   0.5447958  34.0774274  -2.0406218  -0.3246516  33.1342220  -0.8309880
   1.5643391  33.9198780  -0.1567914   1.1136349  34.8265052   0.2522981
   2.5438800  34.1773343  -0.5650554   1.7004572  33.2035565   0.6561180
  30.0595689  -7.0375139  -0.0732271  30.1991057  -6.3605487   0.7721795
  30.4496408  -6.5472764  -0.9676414  30.6436300  -7.9417825   0.1101689
  28.5674906  -7.3778129  -0.2386774  28.0115294  -6.4574510  -0.4292151
  28.1948543  -7.7800649   0.7056744  28.2754397  -8.3992195  -1.3593300
  27.1971607  -8.5650021  -1.4072555  28.7296247  -9.3554944  -1.0915290
  28.7803531  -7.9967099  -2.7611914  28.5173440  -8.7902451  -3.4637526
  29.8703527  -7.9321885  -2.7469024  28.2122135  -6.6579705  -3.2676622
  28.4533334  -5.8711672  -2.5498417  27.1237874  -6.7252642  -3.3247617
  28.7741232  -6.2310469  -4.6377638  29.8652601  -6.2242085  -4.5948505
  28.4604192  -5.2031541  -4.8313838  28.3108306  -7.1211904  -5.8086795
  27.2202730  -7.1770936  -5.8134818  28.6869264  -8.1377691  -5.6760770
  28.7963223  -6.5680468  -7.1620435  29.8859859  -6.4975190  -7.1509498
  28.4107471  -5.5549824  -7.2943163  28.3544827  -7.4391067  -8.3543891
  27.2694898  -7.5613302  -8.3366174  28.7939715  -8.4339809  -8.2567310
  28.7710094  -6.8185347  -9.7022265  29.8382020  -6.5886456  -9.6754760
  28.2360196  -5.8765894  -9.8400265  28.4822035  -7.7520889 -10.8945346
  27.4461961  -8.0924404 -10.8369374  29.1116786  -8.6411333 -10.8182275
  28.6980224  -7.0865047 -12.2697449  27.9411674  -6.3100749 -12.3993218
  28.5203838  -7.8302723 -13.0493081  30.0868535  -6.4502269 -12.4925387
  30.2458692  -5.6501818 -11.7665184  30.0918102  -5.9847736 -13.4803605
  31.2647653  -7.4403119 -12.4336803  31.1070228  -8.2289314 -13.1723690
  31.3071537  -7.9101878 -11.4488530  32.6047206  -6.7291206 -12.7202368
  32.8572893  -6.0446584 -11.9077194  32.5078440  -6.1324060 -13.6296380
  33.7451410  -7.6991701 -12.9140079  33.8333535  -8.7684780 -12.3415864
  34.6320081  -7.2407186 -13.8195360  35.6908703  -8.1252509 -14.2836821
  36.0321164  -8.7795573 -13.4774041  36.5320706  -7.5017571 -14.5971942
  35.2014494  -8.9553785 -15.5018270  36.0305619  -9.5477182 -15.8972466
  34.6972609  -8.0176800 -16.6197264  35.5295062  -7.4162102 -16.9942296
  33.9400792  -7.3506862 -16.1996734  34.1304803  -8.7563342 -17.7340710
  32.6362562  -8.4816051 -18.2459342  31.7588019  -9.5108426 -17.4148214
  30.3558874  -9.6160400 -17.6853037  30.0839043  -8.9729446 -18.5261989
  29.8201609  -9.2668641 -16.7988944  29.9927688 -11.0909224 -17.9806983
  28.9076781 -11.1730659 -18.0588818  30.3235865 -11.7138076 -17.1483207
  30.5481982 -11.7491686 -19.2207575  32.0144248 -11.9875729 -19.1128111
  32.5128794 -11.0214472 -19.0210176  32.3525572 -12.5023055 -20.0133634
  32.1904182 -12.5966811 -18.2249510  29.8904085 -13.0802488 -19.3760037
  28.8114643 -12.9449427 -19.4646132  30.1281261 -13.6784911 -18.4951639
  30.2968121 -13.5740209 -20.2599192  30.2787805 -10.9389019 -20.4456449
  29.2087150 -10.7396507 -20.5200386  30.6414890 -11.4897943 -21.3146901
  30.8375621 -10.0062191 -20.3553557  32.2062016  -7.1238452 -17.8586888
  32.5240207  -8.9089257 -19.6505451  34.1058755  -9.8037571 -15.0728023
  34.3047357 -11.1222696 -14.9308252  35.2912378 -11.7296326 -15.3094482
  33.1431198 -11.8049407 -14.2609298  33.5052443 -12.7104867 -13.7696922
  32.7277374 -11.1433780 -13.4978724  32.0739079 -12.1625316 -15.3004014
  31.6325998 -11.2303019 -15.6590855  32.5649309 -12.6367664 -16.1527288
  30.9405589 -13.0844867 -14.8087692  30.2990508 -13.3046544 -15.6646061
  31.3466692 -14.0404737 -14.4716835  30.0656438 -12.4693692 -13.7030542
  30.0312352 -11.3852382 -13.8293099  29.0443635 -12.8349233 -13.8288438
  30.5239081 -12.8213894 -12.2746336  30.3920960 -13.8916171 -12.1022904
  31.5856647 -12.5967956 -12.1534181  29.7128630 -12.0196426 -11.2413859
  29.8943639 -10.9567451 -11.4139199  28.6484122 -12.1876562 -11.4179778
  30.0166869 -12.3616540  -9.7683722  29.4690657 -11.6716647  -9.1230124
  29.6304750 -13.3603668  -9.5541829  31.4903212 -12.3296094  -9.4184148
  31.9508696 -13.3072197  -9.3011916  32.2106028 -11.2417567  -9.1636002
  33.2492805 -11.3563335  -8.8642842  31.7663264  -9.8109537  -9.3793118
  32.4985790  -9.2997569 -10.0077605  30.8120155  -9.7764337  -9.9089921
  31.6123676  -9.0336210  -8.0645132  31.1776519  -8.0585325  -8.2940543
  30.9058499  -9.5673925  -7.4254620  32.9372907  -8.8045377  -7.3167330
  33.3933616  -9.7669715  -7.0755172  33.6315894  -8.2804686  -7.9768580
  32.7516580  -7.9695982  -6.0328627  33.7338376  -7.7949703  -5.5886877
  32.3496532  -6.9905931  -6.3019460  31.8293214  -8.6094487  -4.9728963
  31.7552757  -7.9294384  -4.1216817  30.8195710  -8.7178475  -5.3742898
  32.3347211  -9.9845761  -4.4976401  32.2775030 -10.6875074  -5.3313529
  33.3854342  -9.8990941  -4.2127538  31.5422630 -10.5747485  -3.3163428
  30.4713464 -10.4698503  -3.5023525  31.7537403 -11.6441929  -3.2528442
  31.9059467  -9.9314392  -1.9671342  31.3021684 -10.3695679  -1.1696641
  31.7275381  -8.8542360  -1.9835114  32.9592419 -10.1029170  -1.7355523
   0.0869010 -33.8673997  -5.0367963   0.1606916 -34.8585582  -4.5844445
   0.9866504 -33.6953831  -5.6312072  -0.7823379 -33.8567519  -5.6976855
  -0.0413056 -32.8117776  -3.9303035   0.8278132 -32.8849149  -3.2732287
  -0.9225546 -33.0450749  -3.3291072  -0.1489018 -31.3682985  -4.4576287
   0.7167333 -31.1411309  -5.0833565  -0.1210471 -30.6895924  -3.6026150
  -1.4425795 -31.1071920  -5.2508056  -2.2952782 -31.4123011  -4.6406603
  -1.4534886 -31.7142558  -6.1584491  -1.6068394 -29.6236324  -5.6296092
  -0.8021645 -29.3251133  -6.3047743  -1.5249172 -29.0128922  -4.7280839
  -2.9699343 -29.3586183  -6.2951779  -3.7594977 -29.7232771  -5.6348151
  -3.0300838 -29.9262691  -7.2261018  -3.2086003 -27.8624821  -6.5771794
  -2.4941365 -27.5093508  -7.3237073  -3.0158648 -27.3038054  -5.6589228
  -4.6499199 -27.5510430  -7.0334578  -4.7805980 -26.4683652  -7.0899642
  -5.3401250 -27.9100060  -6.2671494  -5.0543237 -28.1713510  -8.3855760
  -6.1330974 -28.0553198  -8.5090578  -4.8511410 -29.2442393  -8.3762515
  -4.3470362 -27.5379610  -9.5969933  -3.2679674 -27.6844096  -9.5155889
  -4.5304939 -26.4614892  -9.6009862  -4.8407495 -28.1416726 -10.9247804
  -5.9321463 -28.1258059 -10.9574294  -4.5226708 -29.1852045 -10.9730589
  -4.2885262 -27.3676586 -12.1344531  -3.2054052 -27.2805786 -12.0261562
  -4.6887386 -26.3518119 -12.1157289  -4.6241975 -28.0053782 -13.5003567
  -4.2317104 -27.3600841 -14.2890358  -5.7086653 -28.0300546 -13.6259973
  -4.0663406 -29.4306350 -13.7059009  -4.3008590 -29.7533321 -14.7224307
  -4.5704380 -30.1258445 -13.0313396  -2.5440145 -29.5254469 -13.4867775
  -2.2912578 -29.3076658 -12.4469948  -2.0339154 -28.7948847 -14.1180778
  -2.0233102 -30.9000587 -13.8160205  -2.0538099 -31.8303871 -13.0358613
  -1.4766717 -30.9359455 -15.0457537  -0.9599014 -32.1968627 -15.5510747
  -0.4505448 -32.7487397 -14.7569478  -0.2188383 -31.9601321 -16.3188207
  -2.0750035 -33.0552745 -16.2139845  -1.5944593 -33.8263297 -16.8216038
  -2.9697281 -32.1991539 -17.1508646  -3.1560782 -32.7843308 -18.0550158
  -2.4496077 -31.2857985 -17.4507046  -4.2457670 -31.8385768 -16.5401947
  -5.5940264 -31.7936039 -17.4048734  -5.4310393 -30.3862071 -18.1546080
  -5.6648159 -29.1497707 -17.4448669  -5.9728891 -29.3574786 -16.4169562
  -6.4776278 -28.6068892 -17.9340148  -4.3782976 -28.2936430 -17.4206233
  -3.5989079 -28.8103056 -16.8585813  -4.6073937 -27.3575759 -16.9091809
  -3.7677893 -27.8833914 -18.7375069  -2.9748264 -29.0023947 -19.3225491
  -2.1786547 -29.2545176 -18.6205339  -2.5535184 -28.6702108 -20.2725148
  -3.6446768 -29.8515701 -19.4656730  -4.8057577 -27.4475980 -19.7144246
  -5.3590339 -26.6270208 -19.2552710  -5.4589033 -28.2964158 -19.9222434
  -4.3102503 -27.0916843 -20.6189013  -2.8512472 -26.7315078 -18.5122180
  -3.4347591 -25.9255195 -18.0648041  -2.4319598 -26.4066434 -19.4656026
  -2.0577537 -27.0342946 -17.8274059  -5.5342489 -32.8767538 -18.4077942
  -6.7700422 -31.6858602 -16.5160263  -2.9053065 -33.7056875 -15.2180898
  -2.3760572 -34.6880984 -14.4709384  -1.2857077 -35.1817107 -14.6877480
  -3.3201426 -35.1145768 -13.3791208  -3.9153057 -34.2394996 -13.1098986
  -4.0103620 -35.8686399 -13.7631142  -2.5942901 -35.6380534 -12.1250725
  -2.3109265 -36.6835237 -12.2634912  -1.6832496 -35.0592327 -11.9594324
  -3.5100421 -35.4823804 -10.9013271  -3.7792212 -34.4267607 -10.8260155
  -4.4287756 -36.0493875 -11.0653329  -2.8755590 -35.9178925  -9.5700324
  -2.8984678 -37.0068240  -9.4915205  -1.8247052 -35.6209660  -9.5683163
  -3.5587388 -35.2779126  -8.3430058  -3.1730056 -35.7381892  -7.4309641
  -3.2702485 -34.2252040  -8.3107841  -5.1003975 -35.3489923  -8.3543003
  -5.4911298 -34.7032952  -7.5650829  -5.4841197 -34.9430108  -9.2925948
  -5.6922501 -36.7453980  -8.1458032  -6.6913491 -36.7679882  -8.5859770
  -5.0979125 -37.4823570  -8.6899698  -5.7472306 -37.0931911  -6.6740245
  -4.7878408 -37.3132062  -6.2127930  -6.8641514 -37.2049069  -5.9640956
  -6.8079621 -37.4975467  -4.9187371  -8.2511044 -36.8863940  -6.4825749
  -8.2172137 -36.0771918  -7.2150421  -8.6458492 -37.7725792  -6.9838899
  -9.2157823 -36.4900279  -5.3505248 -10.2040493 -36.2943053  -5.7718146
  -9.3155003 -37.3315716  -4.6618128  -8.7530994 -35.2515912  -4.5672408
  -7.7478272 -35.4314494  -4.1805366  -8.7000823 -34.3934679  -5.2404994
  -9.6860456 -34.9373221  -3.3858123 -10.6273842 -34.5297742  -3.7603125
  -9.9174756 -35.8647180  -2.8577596  -9.0498984 -33.9612222  -2.3822933
  -9.7076678 -33.8699460  -1.5154193  -8.1093585 -34.3891740  -2.0291579
  -8.7863421 -32.5582099  -2.9544124  -8.2375145 -32.6344752  -3.8953876
  -9.7408044 -32.0722270  -3.1672218  -7.9694337 -31.6969776  -1.9763444
  -8.4605652 -31.6858840  -1.0010856  -6.9825995 -32.1436954  -1.8382680
  -7.8048217 -30.2543712  -2.4757293  -7.1957272 -29.6826625  -1.7724390
  -8.7793052 -29.7703528  -2.5683182  -7.3154342 -30.2372050  -3.4517768
  24.8060608 -19.2106974  -0.3424897  24.4760156 -18.6768925   0.5511473
  25.4479599 -20.0380445  -0.0327700  23.9278388 -19.6274972  -0.8399514
  25.5589271 -18.2566464  -1.2868470  26.4089751 -17.8204083  -0.7580967
  24.8956251 -17.4326479  -1.5579914  26.0538387 -18.9432073  -2.5753546
  26.4061666 -18.1755853  -3.2675144  25.2164078 -19.4520903  -3.0572385
  27.2015667 -19.9380720  -2.3132437  26.8740082 -20.7165408  -1.6210313
  28.0192924 -19.3949628  -1.8348925  27.7568460 -20.6020880  -3.5847551
  28.6497498 -21.1712599  -3.3178648  28.0665493 -19.8226666  -4.2840776
  26.7497277 -21.5502834  -4.2619714  25.8712339 -20.9906149  -4.5898181
  26.4046597 -22.2811317  -3.5276327  27.3527360 -22.3079944  -5.4601192
  26.5848327 -22.9673004  -5.8701193  28.1625772 -22.9479170  -5.1035833
  27.8995991 -21.4055896  -6.5862542  28.2850313 -22.0450306  -7.3831356
  28.7473583 -20.8265352  -6.2141454  26.8434906 -20.4467273  -7.1725887
  26.4925480 -19.7646093  -6.3954026  25.9838486 -21.0260844  -7.5158405
  27.3954940 -19.6182179  -8.3469039  27.7316713 -20.3020811  -9.1290671
  28.2649970 -19.0488124  -8.0119354  26.3405466 -18.6478710  -8.9182180
  26.0123944 -17.9743814  -8.1237417  25.4605460 -19.2136300  -9.2312324
  26.8546534 -17.7968299 -10.1006258  27.6374960 -17.1270931  -9.7385848
  26.0389137 -17.1652281 -10.4585552  27.4124241 -18.6056352 -11.2908685
  28.3069658 -19.1464770 -10.9750402  27.7247262 -17.9097867 -12.0723593
  26.3970876 -19.5993793 -11.8861055  25.5395913 -19.0500450 -12.2803080
  26.0326648 -20.2623487 -11.0986221  27.0214272 -20.4581833 -13.0060077
  27.8763986 -21.0094833 -12.6090789  27.3826289 -19.8009038 -13.7997198
  26.0609245 -21.4488602 -13.6271667  26.3144708 -22.0222974 -14.6667302
  24.9365377 -21.6596627 -12.9113722  23.8129783 -22.3315477 -13.5554206
  23.2380939 -22.8245497 -12.7673185  24.1608214 -23.1039095 -14.2461514
  22.8577900 -21.3399792 -14.2807484  22.0159173 -21.9202614 -14.6669805
  23.5329795 -20.5869484 -15.4630566  22.7517247 -20.1445818 -16.0864353
  24.1044116 -21.2835383 -16.0818267  24.4210649 -19.5318055 -15.0013375
  24.6929526 -18.2189476 -15.8628368  23.6573315 -17.1730840 -15.2605557
  23.7167382 -15.7985139 -15.6565821  24.7603536 -15.4736900 -15.6591702
  23.1640172 -15.1971018 -14.9303234  23.0957103 -15.6468773 -17.0615947
  23.6354923 -16.3062143 -17.7429104  23.2200766 -14.6168423 -17.3989940
  21.6352844 -15.9798610 -17.2416437  20.7679653 -15.1847601 -16.3246286
  20.9386778 -15.5036247 -15.2953255  19.7270143 -15.3396273 -16.6122425
  21.0017300 -14.1252267 -16.4387393  21.2554693 -15.6419277 -18.6416233
  21.8318844 -16.2705123 -19.3219972  21.4540195 -14.5823121 -18.8091671
  20.1831150 -15.8089483 -18.7531686  21.3652658 -17.4332476 -17.0368195
  22.0777249 -17.9987848 -17.6391912  20.3341722 -17.6526511 -17.3178601
  21.5372849 -17.6732683 -15.9865427  26.0487628 -17.7221048 -15.5812275
  24.2810535 -18.4450829 -17.2617137  22.3568726 -20.3935647 -13.2932794
  21.3404131 -19.5779860 -13.6112130  20.7308006 -19.5923984 -14.6672511
  21.0613823 -18.5807621 -12.5131726  20.0025010 -18.3142352 -12.5272596
  21.2882805 -19.0352082 -11.5464985  21.9354939 -17.3333049 -12.7331543
  22.9797292 -17.6462042 -12.7974248  21.6627955 -16.8911135 -13.6936569
  21.8195415 -16.2508976 -11.6471016  20.7793999 -15.9264421 -11.5743184
  22.1129417 -16.6684365 -10.6816792  22.6998925 -15.0334036 -11.9994509
  23.7264061 -15.3547978 -12.1877015  22.3236489 -14.6142912 -12.9349995
  22.6934743 -13.9069676 -10.9467721  22.7475333 -12.9542327 -11.4776564
  21.7469025 -13.9115560 -10.4023051  23.8714242 -13.9344060  -9.9535269
  24.8106933 -13.8575602 -10.5051923  23.8020730 -13.0489540  -9.3182069
  23.9150238 -15.1815343  -9.0570754  22.9370570 -15.3238559  -8.5925466
  24.1098762 -16.0668540  -9.6659315  24.9997544 -15.0460839  -8.0083746
  25.9884548 -15.3676653  -8.3255953  24.8225951 -14.6207523  -6.7604631
  25.6750345 -14.5900261  -6.0866874  23.5176873 -14.1164219  -6.1747390
  23.7110353 -13.2067811  -5.6023461  22.8127837 -13.8448012  -6.9632787
  22.8662252 -15.1583803  -5.2451348  23.5323262 -15.3446829  -4.4001099
  21.9405842 -14.7412431  -4.8430824  22.5537848 -16.4857042  -5.9671140
  21.9415545 -16.2741065  -6.8462396  23.4810948 -16.9399333  -6.3224143
  21.8066168 -17.5065041  -5.0952983  20.8482695 -17.0753956  -4.7983450
  21.5853405 -18.3821166  -5.7091403  22.6056647 -17.9701591  -3.8605016
  22.6867175 -19.0586972  -3.8917556  23.6272597 -17.5876534  -3.9104730
  21.9802332 -17.5662851  -2.5133616  22.6413488 -17.8972268  -1.7097025
  21.9184518 -16.4778817  -2.4499080  20.5864859 -18.1789005  -2.2853954
  19.8714852 -17.7413988  -2.9852730  20.6174278 -19.2539418  -2.4745850
  20.0944161 -17.9307306  -0.8548703  19.0850997 -18.3258319  -0.7220531
  20.0780296 -16.8589330  -0.6464412  20.7542896 -18.4217167  -0.1365657
 -30.7640362   2.6699802  -0.4683405 -30.3977871   2.9705524   0.5155200
 -30.3163385   1.7078511  -0.7259026 -31.8471265   2.5439927  -0.4091357
 -30.4009748   3.7327656  -1.5189649 -29.3138385   3.8297635  -1.5534385
 -30.8103776   4.6959788  -1.2073973 -30.9419656   3.3774915  -2.9179421
 -32.0266914   3.2687706  -2.8545615 -30.5407715   2.4076551  -3.2194734
 -30.6202817   4.4218695  -4.0075770 -30.9926820   5.3944415  -3.6791176
 -31.1649752   4.1512319  -4.9145100 -29.1238856   4.5538571  -4.3500838
 -28.7576699   3.6118037  -4.7634658 -28.5640478   4.7345018  -3.4300777
 -28.8154221   5.7061249  -5.3315175 -27.7400541   5.8954442  -5.3171062
 -29.2983723   6.6202021  -4.9798253 -29.2391324   5.4269856  -6.7871571
 -30.3238106   5.3129309  -6.8412542 -28.7939930   4.4839811  -7.1112835
 -28.7787008   6.5429342  -7.7477849 -27.6869369   6.5526509  -7.7682894
 -29.0993595   7.5155455  -7.3687482 -29.2954254   6.3601840  -9.1893804
 -29.2122674   5.3091955  -9.4739366 -28.6535048   6.9286871  -9.8655504
 -30.7458663   6.8551964  -9.3649018 -30.7800245   7.9214573  -9.1316968
 -31.3989305   6.3522255  -8.6486685 -31.3044548   6.6477102 -10.7869196
 -30.5926752   7.0281619 -11.5225101 -32.2175503   7.2391617 -10.8812666
 -31.6370869   5.1714236 -11.0783970 -32.3236156   4.8147151 -10.3077471
 -30.7300568   4.5678639 -11.0044134 -32.2913313   4.9259827 -12.4518132
 -33.1744599   5.5595827 -12.5571656 -32.6457500   3.8933414 -12.4742174
 -31.3526773   5.1495206 -13.6529934 -30.4118872   4.6233436 -13.4783101
 -31.1221528   6.2125343 -13.7495589 -31.9842291   4.6286494 -14.9602616
 -32.8849173   5.2023351 -15.1885319 -32.2858429   3.5859987 -14.8403811
 -31.0586619   4.7360560 -16.1446583 -30.4109859   5.7348293 -16.3918638
 -31.0600781   3.6239210 -16.9104266 -30.4843283   3.7249586 -18.2431281
 -30.5154586   4.7588286 -18.5963881 -31.1135077   3.1348547 -18.9143634
 -29.0325952   3.1829843 -18.3173907 -28.6498237   3.4054449 -19.3167138
 -28.9891005   1.6605933 -18.0752242 -29.8991108   1.1952844 -18.4625459
 -28.9285588   1.4484993 -17.0047104 -27.8327465   1.0885988 -18.7442219
 -27.6209879  -0.4957974 -18.8178968 -27.9921675  -0.8435324 -20.3347564
 -29.3196392  -0.6601148 -20.8519936 -29.2436004   0.0184393 -21.7054749
 -29.9666429  -0.1933884 -20.1048660 -29.9051762  -2.0080118 -21.3316226
 -29.1617775  -2.5273979 -21.9381523 -30.7772565  -1.8001351 -21.9533515
 -30.3827596  -2.9975465 -20.2985740 -31.2276053  -4.0281126 -20.9680080
 -32.1075034  -3.5450459 -21.3954473 -31.5579915  -4.7325876 -20.2032566
 -30.6403375  -4.5410824 -21.7310667 -29.2498112  -3.7149683 -19.6462464
 -28.6342382  -2.9864687 -19.1164923 -28.6566401  -4.2281821 -20.4045606
 -29.6656513  -4.4281325 -18.9329755 -31.2236190  -2.3244536 -19.2665994
 -30.5793047  -1.7028238 -18.6431265 -31.6861224  -3.1009105 -18.6554670
 -32.0013213  -1.7377837 -19.7577941 -26.1868072  -0.7721819 -18.6377585
 -28.6239147  -1.1396822 -17.9521263 -28.2226324   3.8269266 -17.3054576
 -26.9256234   4.0844175 -17.5463748 -26.3999653   3.9748490 -18.6382639
 -26.1660314   4.4852030 -16.3022518 -25.1007032   4.4813761 -16.5420890
 -26.4399099   5.5037457 -16.0193658 -26.4238286   3.5145411 -15.1268280
 -26.5656614   2.5054279 -15.5193043 -25.5356479   3.4839156 -14.4922721
 -27.6187301   3.9333072 -14.2430890 -27.3049974   4.7619334 -13.6047995
 -28.4326935   4.3129271 -14.8642290 -28.1699657   2.7988899 -13.3581471
 -27.3566866   2.3502716 -12.7838826 -28.8659978   3.2350001 -12.6385546
 -28.8836455   1.6998237 -14.1735137 -29.4855690   2.1605484 -14.9595714
 -28.1319404   1.0770802 -14.6629941 -29.7972918   0.8009643 -13.3189905
 -30.0192642  -0.1095305 -13.8795173 -29.2767739   0.5088239 -12.4045622
 -31.1311722   1.4873324 -12.9798925 -30.9341836   2.4632247 -12.5312376
 -31.6795969   1.6689494 -13.9065588 -31.9911218   0.6488892 -12.0604408
 -32.6149392  -0.0899115 -12.5570261 -32.0790029   0.7966903 -10.7423985
 -32.7607489   0.1614343 -10.1827168 -31.2464118   1.7430282  -9.9016935
 -30.4606485   2.2219905 -10.4896021 -31.8881965   2.5288224  -9.4978338
 -30.5975342   0.9896247  -8.7317193 -31.3868475   0.5594644  -8.1117135
 -29.9943233   0.1679305  -9.1234070 -29.6945739   1.8981139  -7.8815347
 -28.9024329   2.3043777  -8.5139322 -30.2806449   2.7413896  -7.5102240
 -29.0534186   1.1617392  -6.6905451 -28.4868050   0.3011764  -7.0522690
 -28.3445287   1.8376434  -6.2077481 -30.0964475   0.7078718  -5.6518126
 -30.7363510   1.5578949  -5.4059488 -30.7394743  -0.0661696  -6.0758889
 -29.4678712   0.1816630  -4.3505630 -28.7540960   0.9142850  -3.9681321
 -30.2586842   0.0919976  -3.6028740 -28.7777424  -1.1845113  -4.4950175
 -29.4885707  -1.9093533  -4.8972502 -27.9422164  -1.1121155  -5.1943886
 -28.2666254  -1.6803634  -3.1337115 -27.8655362  -2.6923361  -3.2203311
 -29.0814996  -1.6935483  -2.4068916 -27.4800825  -1.0233199  -2.7567378
  -8.3186215  34.9268937   0.2591966  -8.9195752  35.4367685   1.0150719
  -7.3432708  34.6980500   0.6936885  -8.8156754  33.9872408   0.0092900
  -8.1641632  35.8218741  -0.9833516  -7.6794624  36.7542577  -0.6863879
  -9.1587400  36.0897470  -1.3460095  -7.3694086  35.1831436  -2.1419926
  -6.3349795  35.0304198  -1.8272007  -7.3414475  35.8865476  -2.9768017
  -7.9392332  33.8406134  -2.6404932  -7.9023081  33.1098413  -1.8298931
  -7.2918701  33.4656429  -3.4359691  -9.3841469  33.9510536  -3.1686813
  -9.3969548  34.5921516  -4.0525886 -10.0173378  34.4337583  -2.4213344
 -10.0225317  32.5913835  -3.5040456 -11.0393894  32.7620530  -3.8636801
 -10.1190197  32.0122910  -2.5832826  -9.2504561  31.7473245  -4.5374131
  -9.8248661  30.8376265  -4.7244012  -8.2899618  31.4367652  -4.1209182
  -9.0150130  32.4386263  -5.8910632  -8.5846364  31.7092848  -6.5804833
  -8.2843566  33.2413721  -5.7718837 -10.3149426  33.0060124  -6.4882219
 -10.6064665  33.9060664  -5.9428942 -11.1145365  32.2730207  -6.3623869
 -10.1935303  33.3345175  -7.9821217 -10.0087225  32.4092603  -8.5318577
  -9.3394476  33.9935589  -8.1514448 -11.4716721  34.0157437  -8.5037977
 -11.5443349  35.0080204  -8.0537212 -12.3536503  33.4539199  -8.1892598
 -11.4698005  34.1441560 -10.0360739 -10.5156910  34.5728087 -10.3497565
 -12.2463655  34.8495150 -10.3391850 -11.7204082  32.7900100 -10.7387114
 -12.7013004  32.8143358 -11.2180042 -11.7552888  31.9863915 -10.0001705
 -10.6571329  32.4360037 -11.7918515 -10.8387756  31.4256787 -12.1642935
  -9.6748751  32.4343133 -11.3147449 -10.6651735  33.4194970 -12.9760766
 -10.5583072  34.4435716 -12.6123261 -11.6148591  33.3552766 -13.5112739
  -9.5385814  33.1440997 -13.9374542  -9.7136593  32.7785444 -15.0835574
  -8.3237225  33.3422613 -13.3839071  -7.1593088  33.3551311 -14.2558920
  -7.1891826  32.4943709 -14.9288332  -6.2676591  33.2789326 -13.6283541
  -7.0784485  34.6703768 -15.0741780  -7.9382336  34.7376680 -15.7456613
  -5.7792795  34.7054219 -15.9072781  -5.6085581  33.7450528 -16.4004278
  -4.9360546  34.9135852 -15.2437341  -5.8414358  35.7557392 -16.9060266
  -6.4817196  35.4832578 -18.3505177  -8.0403256  35.5918193 -18.0597651
  -8.6824298  36.8728495 -17.9972970  -8.8970107  37.2386932 -19.0046513
  -8.0171615  37.5811005 -17.4968493  -9.9549836  36.7206120 -17.1496010
 -10.3744268  37.7113628 -16.9686115  -9.6836287  36.2921166 -16.1836624
 -11.0857356  35.8734536 -17.6629567 -11.5768254  36.3886547 -18.9745414
 -11.8335247  37.4412727 -18.8465500 -12.4521422  35.8159852 -19.2846239
 -10.7679820  36.2969279 -19.7009289 -10.6848168  34.4426060 -17.8073752
 -10.3159952  34.0939665 -16.8416095  -9.8779643  34.3897796 -18.5398233
 -11.5474319  33.8580394 -18.1305695 -12.1913123  35.9362841 -16.6643417
 -11.7992008  35.5856371 -15.7085299 -13.0309176  35.3276992 -17.0034087
 -12.4882865  36.9812107 -16.5632713  -6.0991299  36.6096640 -19.2190313
  -6.1858582  34.0923333 -18.7288427  -7.0240086  35.8143139 -14.1784847
  -8.1720138  36.4206767 -13.8272059  -9.2790610  36.0290599 -14.1378939
  -7.9390609  37.6376677 -12.9750240  -6.8655634  37.8209257 -12.8945041
  -8.3917379  38.5011792 -13.4668517  -8.5377371  37.4453664 -11.5719187
  -9.6061772  37.2369051 -11.6582060  -8.0683261  36.5777946 -11.1034775
  -8.3336478  38.6919737 -10.6927884  -7.2663909  38.9027691 -10.5979621
  -8.7900621  39.5520234 -11.1872208  -8.9534235  38.5438395  -9.2919183
  -8.8894689  39.5047498  -8.7771118 -10.0119579  38.2965088  -9.3958235
  -8.2838500  37.4626541  -8.4286433  -8.4147733  36.4815307  -8.8898605
  -7.2121876  37.6675987  -8.3839023  -8.8744599  37.4312544  -7.0051974
  -8.7908322  38.4233570  -6.5566444  -9.9401116  37.2024822  -7.0723766
  -8.2074630  36.3963628  -6.0800004  -8.6379641  36.4946175  -5.0812620
  -8.4612226  35.3949499  -6.4338928  -6.7062497  36.5924120  -5.9970760
  -6.3887095  37.4191904  -5.3668571  -5.7820100  35.8936906  -6.6506535
  -4.7373655  36.1682510  -6.5285718  -6.0234869  34.6885586  -7.5375527
  -7.0183933  34.2649198  -7.3853940  -5.9700853  35.0104141  -8.5796762
  -4.9725521  33.5748291  -7.3388278  -5.2005905  32.7819300  -8.0542111
  -3.9878067  33.9540935  -7.6197153  -4.9112046  32.9291606  -5.9315687
  -5.9049821  32.5602722  -5.6692857  -4.2633909  32.0524025  -5.9955829
  -4.3914637  33.8162947  -4.7769490  -5.1030743  34.6184587  -4.5705393
  -4.3516898  33.2036233  -3.8738900  -2.9917404  34.4115400  -5.0415695
  -2.2734264  33.5917854  -5.1085985  -2.9772171  34.9213266  -6.0071623
  -2.5187340  35.4281902  -3.9838177  -1.4776786  35.6838536  -4.1919136
  -3.0999747  36.3457823  -4.0962920  -2.6391608  34.9330616  -2.5306848
  -3.6954013  34.8328400  -2.2722761  -2.1841186  33.9446402  -2.4389221
  -1.9691189  35.8874631  -1.5273871  -2.0595154  35.4937720  -0.5128428
  -2.4393497  36.8725395  -1.5585724  -0.9082806  36.0049415  -1.7582223
  23.3001614  28.0782461   1.3456313  24.2838860  28.2920957   1.7687349
  22.9147458  27.1787000   1.8301220  22.6378250  28.9145041   1.5789796
  23.4086728  27.8897214  -0.1782562  24.0491962  27.0324373  -0.3956475
  23.8975978  28.7721586  -0.5962466  22.0433950  27.7191186  -0.8731081
  22.1847892  27.7267432  -1.9558883  21.4310479  28.5872817  -0.6205443
  21.2837911  26.4354467  -0.4903375  21.4417005  26.2259388   0.5696781
  21.6817236  25.5812883  -1.0421761  19.7670579  26.5643430  -0.7191449
  19.4193971  27.4661303  -0.2108363  19.2755902  25.7269955  -0.2193758
  19.3051267  26.6088796  -2.1917778  19.8777306  27.3536921  -2.7484146
  18.2610464  26.9286132  -2.2031648  19.4043982  25.2411461  -2.8926155
  19.1090405  24.4670987  -2.1812235  20.4430151  25.0413561  -3.1643197
  18.5038006  25.0959945  -4.1375712  17.4619639  25.2450061  -3.8463038
  18.5828304  24.0661335  -4.4919816  18.8294232  26.0415673  -5.3103578
  19.8790622  25.9231615  -5.5873102  18.6778390  27.0794225  -5.0064772
  17.9455113  25.7081580  -6.5310013  16.8944895  25.8504725  -6.2710708
  18.0740094  24.6489716  -6.7635417  18.2684958  26.5123296  -7.8064805
  17.7373528  26.0390568  -8.6349523  19.3372416  26.4417815  -8.0192441
  17.8480470  27.9932642  -7.7370989  18.2956195  28.4478521  -6.8508190
  16.7650557  28.0503583  -7.6092994  18.2543266  28.8387203  -8.9659011
  19.3429112  28.8593316  -9.0496844  17.9397678  29.8657513  -8.7691104
  17.6415741  28.4152699 -10.3192198  17.5386369  29.3086910 -10.9386301
  16.6315210  28.0425239 -10.1366913  18.4253085  27.3627448 -11.1391747
  17.7990389  27.0295620 -11.9693780  18.6489451  26.4793253 -10.5374944
  19.7225189  27.8916144 -11.7064619  20.7058764  28.1002069 -11.0287249
  19.6520305  28.0913281 -13.0374229  20.8909607  28.3036017 -13.7873316
  21.6642284  28.7487054 -13.1559908  20.6857848  29.0027952 -14.6019971
  21.4054394  26.9713163 -14.3961179  22.3051882  27.1971989 -14.9741101
  20.3575230  26.3001752 -15.3140926  19.3960154  26.8169522 -15.2584732
  20.2201128  25.2627897 -14.9985003  20.8408833  26.2968922 -16.6808391
  20.6605959  27.5634074 -17.6406312  19.6649635  27.0129681 -18.7640357
  20.1961064  26.3367867 -19.9201882  20.9404039  26.9809461 -20.3952980
  19.3860960  26.1515641 -20.6302762  20.8525205  25.0090718 -19.4876850
  21.5144563  25.2137375 -18.6449301  21.4699149  24.6191883 -20.2982974
  19.9573052  23.8774920 -19.0595579  18.8969398  24.2604518 -18.0837774
  19.3883526  24.6309972 -17.1829498  18.3031750  23.3729219 -17.8601360
  18.2812619  25.0463080 -18.5238338  19.3069816  23.2640743 -20.2514219
  20.0863147  22.8557348 -20.8965421  18.7183821  24.0292668 -20.7596660
  18.6460423  22.4706030 -19.8995113  20.8102345  22.8664589 -18.3943260
  21.5375733  22.4862337 -19.1131353  20.1656675  22.0605326 -18.0403578
  21.3186455  23.3344436 -17.5500572  19.9796605  28.6389375 -16.9074047
  21.9494176  27.8367376 -18.2926965  21.7189455  26.0428715 -13.3241975
  22.8099942  25.2603126 -13.4476697  23.4640431  25.1278496 -14.4660044
  23.1271052  24.4820881 -12.1904659  22.5303721  23.5676193 -12.2013450
  24.1787291  24.1892767 -12.2189426  22.8431249  25.2370620 -10.8729959
  21.7673969  25.3962159 -10.7732868  23.1433678  24.5937705 -10.0432408
  23.5641623  26.5944934 -10.7481861  24.6320415  26.4645720 -10.9358442
  23.1827235  27.2759080 -11.5114987  23.3487248  27.2363639  -9.3630171
  23.4697008  28.3187389  -9.4423324  22.3220801  27.0529413  -9.0392524
  24.3529916  26.7047048  -8.3237296  24.4845319  25.6281734  -8.4511656
  25.3194523  27.1739006  -8.5193670  23.9669895  26.9786477  -6.8605131
  24.8253322  26.7293954  -6.2331498  23.7616229  28.0425858  -6.7251498
  22.7586985  26.1430621  -6.3973051  21.8651485  26.4516592  -6.9439298
  22.9279470  25.0913978  -6.6377711  22.5146842  26.3055539  -4.9128494
  21.8062043  27.0852256  -4.6450087  23.0398846  25.5461669  -3.9567870
  22.7607322  25.7376385  -2.9238394  24.0726066  24.4522166  -4.1552931
  23.6039972  23.4751678  -4.0202296  24.4855046  24.4792581  -5.1658612
  25.2293420  24.5775104  -3.1459802  25.9984279  23.8457227  -3.4018302
  25.6830168  25.5659866  -3.2437307  24.7924137  24.3520927  -1.6841285
  24.0014791  25.0571108  -1.4198701  24.3768692  23.3468413  -1.5878983
  25.9669232  24.5295691  -0.7048039  26.7511797  23.8089943  -0.9460136
  26.3934684  25.5252719  -0.8430041  25.5741644  24.3706155   0.7763916
  26.4776921  24.4867587   1.3785630  24.8972702  25.1808357   1.0553592
  24.9121928  23.0168200   1.1069041  23.8984823  23.0091810   0.7009541
  25.4655457  22.2130060   0.6168523  24.8485994  22.7073574   2.6160306
  24.2863512  21.7823863   2.7601364  25.8588648  22.5246716   2.9881221
  24.2023230  23.8236284   3.4556159  24.1354418  23.5154653   4.5010954
  23.1953478  24.0434551   3.0948651  24.7967339  24.7385788   3.4108445
  30.8135772  21.8633318  -1.2927304  31.4385438  20.9954190  -1.0722641
  29.9627280  21.8658686  -0.6082499  31.4101410  22.7610445  -1.1175526
  30.3369737  21.8293691  -2.7519482  29.8921776  20.8550692  -2.9649305
  31.2001228  21.9512463  -3.4096581  29.3098116  22.9390264  -3.0358437
  29.6797013  23.8814545  -2.6266077  28.3753943  22.7094483  -2.5194883
  29.0355277  23.1443405  -4.5353383  29.9528050  23.5046244  -5.0057209
  28.2914639  23.9364815  -4.6418446  28.5517693  21.8942189  -5.2981037
  27.6255345  21.5259838  -4.8520595  29.2989969  21.1004162  -5.2349037
  28.3108830  22.2509670  -6.7748594  29.2344284  22.6571488  -7.1926451
  27.5621891  23.0449557  -6.8135870  27.8430533  21.0897326  -7.6694620
  28.5297489  20.2461672  -7.5729579  27.8806305  21.4220166  -8.7090003
  26.4061522  20.6385040  -7.3610103  25.7464242  21.5086699  -7.3552543
  26.3736510  20.1907682  -6.3655514  25.8925056  19.6261311  -8.3982527
  26.5554619  18.7584889  -8.4104711  25.9292412  20.0857830  -9.3881184
  24.4572926  19.1621947  -8.0920720  23.8027048  20.0336409  -8.0245262
  24.4440699  18.6746693  -7.1150321  23.8884187  18.1864536  -9.1409516
  22.9191685  17.8337264  -8.7823409  24.5372701  17.3117721  -9.2208850
  23.7044430  18.8241398 -10.5340922  24.6800900  19.0165997 -10.9852409
  23.2012081  19.7867239 -10.4216135  22.8695464  17.9288673 -11.4694238
  21.9658327  17.6178718 -10.9411740  23.4351587  17.0220041 -11.6933572
  22.4336362  18.5967493 -12.7910697  21.7718315  19.4397795 -12.5818336
  21.8322563  17.8685164 -13.3392346  23.5900259  19.0452111 -13.7136960
  23.2432914  18.9735377 -14.7467005  24.4466043  18.3751893 -13.6146414
  24.0402126  20.4742503 -13.5079968  23.6541605  21.2095833 -12.6225185
  24.9143338  20.8499742 -14.4585145  25.1587987  22.2811389 -14.6017659
  25.9141016  22.5945854 -13.8765633  24.2321944  22.8237271 -14.3976891
  25.6031203  22.6387954 -16.0479510  25.9921861  23.6602020 -16.0452545
  24.4283557  22.6038647 -17.0625186  24.8182797  22.6651502 -18.0817604
  23.7877059  23.4714937 -16.8852210  23.6123490  21.4098191 -16.9146240
  23.4295988  20.3529906 -18.0980730  24.8648524  19.6823120 -18.2630348
  25.3514814  18.7546635 -17.2840655  24.6283340  18.6240506 -16.4749622
  26.2654972  19.1777515 -16.8595433  25.6784368  17.4092805 -17.9680336
  26.1966014  16.7729449 -17.2491026  26.3528800  17.6042688 -18.8031304
  24.5459580  16.5751827 -18.5227787  23.9008760  17.2214901 -19.7043443
  23.3548665  18.0977416 -19.3517303  23.2057023  16.5178013 -20.1646018
  24.6749997  17.5334382 -20.4069853  25.1049399  15.2650273 -18.9724350
  25.5613351  14.7630286 -18.1180453  25.8527923  15.4523659 -19.7443819
  24.2918777  14.6582758 -19.3737626  23.5029387  16.3054121 -17.4875629
  23.9681125  15.8295321 -16.6230214  22.7351642  15.6621206 -17.9199731
  23.0560422  17.2598195 -17.2052991  22.5156379  19.2933226 -17.6262188
  23.1074381  21.0733247 -19.3386209  26.6584969  21.7318416 -16.4843762
  27.8558326  21.8355274 -15.8842468  28.2334542  22.8331351 -15.3069043
  28.6891985  20.5885768 -16.0156512  28.5063934  20.1331878 -16.9911849
  29.7469831  20.8543324 -15.9614944  28.3343792  19.5966911 -14.8903883
  28.5318542  20.0660706 -13.9243901  27.2649360  19.3791735 -14.9283481
  29.1218042  18.2756126 -14.9882853  29.1176677  17.9285944 -16.0236728
  30.1635194  18.4558475 -14.7147667  28.5400772  17.1559453 -14.1006517
  27.5542116  16.8811572 -14.4814730  29.1746712  16.2720478 -14.1927421
  28.4102058  17.5381064 -12.6124811  29.3818283  17.8579748 -12.2302508
  27.7225471  18.3805239 -12.5128722  27.8858018  16.3680017 -11.7581892
  26.9707274  15.9752500 -12.2063458  28.6217093  15.5612326 -11.7528498
  27.5899673  16.7936945 -10.3101397  28.4932041  17.2181606  -9.8669088
  26.8254757  17.5729585 -10.3378022  27.0805645  15.6209433  -9.4977683
  26.5427160  14.8668420 -10.0666451  27.2933030  15.4168212  -8.2010472
  26.9085646  14.5096886  -7.7420741  27.9917526  16.3650858  -7.2471148
  28.9344764  15.9208775  -6.9209015  28.2261729  17.3189580  -7.7242291
  27.1190453  16.6154468  -6.0054922  26.1681533  17.0420647  -6.3314736
  26.9031382  15.6618786  -5.5191225  27.7970719  17.5603843  -4.9935061
  28.7646270  17.1409893  -4.7099426  27.9926562  18.5224080  -5.4717523
  26.9703436  17.7900362  -3.7122875  26.8181968  16.8356597  -3.2038790
  27.5584459  18.4204102  -3.0420414  25.6021190  18.4535921  -3.9754683
  25.7557845  19.3922639  -4.5118877  25.0031352  17.8106546  -4.6237838
  24.7801304  18.7426329  -2.7052495  23.8502169  19.2293763  -3.0065879
  24.5019770  17.7954912  -2.2383255  25.4896927  19.6274018  -1.6595010
  24.7742319  19.8822665  -0.8748844  26.2913227  19.0580857  -1.1843885
  26.0733771  20.9283257  -2.2310124  26.4641643  21.5492725  -1.4222020
  25.3081775  21.4919329  -2.7688590  26.8965888  20.7129097  -2.9153961
  26.5430236  13.7082112  -2.4962421  26.3571072  14.7841597  -2.4809919
  25.9763241  13.2525039  -1.6815974  26.1751032  13.3108938  -3.4445232
  28.0468416  13.4250176  -2.3337984  28.4088516  13.9300275  -1.4358145
  28.5923576  13.8507307  -3.1785730  28.3643985  11.9236660  -2.2081323
  27.7109361  11.4797854  -1.4541955  29.3883920  11.8045413  -1.8479818
  28.2099104  11.1643934  -3.5376948  28.8570762  11.6206992  -4.2896420
  27.1805215  11.2571836  -3.8901284  28.5594606   9.6713108  -3.3910131
  27.9636049   9.2478937  -2.5797579  29.6094251   9.5569652  -3.1135899
  28.2648468   8.8682216  -4.6690857  27.2655559   9.1226220  -5.0284714
  28.2558036   7.8042835  -4.4232848  29.2879343   9.1028839  -5.7932562
  30.2464247   8.6744428  -5.4929286  29.4380069  10.1728284  -5.9518731
  28.8165426   8.4588683  -7.1091324  28.0237484   9.0691304  -7.5467664
  28.3828473   7.4806172  -6.8914229  29.9449897   8.2638592  -8.1359917
  29.5060849   7.8015834  -9.0226293  30.6705284   7.5574684  -7.7272516
  30.6781602   9.5567787  -8.5454828  31.0426044  10.0680614  -7.6520431
  29.9761796  10.2277029  -9.0450311  31.8833470   9.2869568  -9.4692892
  32.5928974   8.6433607  -8.9450878  32.3949480  10.2294004  -9.6755123
  31.4874458   8.6264068 -10.8031321  30.8601379   9.3140572 -11.3741708
  30.8966279   7.7297568 -10.6045985  32.7077603   8.2212138 -11.6473329
  33.3308983   7.5296164 -11.0764921  33.3119440   9.1070563 -11.8539917
  32.3157930   7.5617486 -12.9836893  33.2338262   7.3458523 -13.5342038
  31.7479992   8.2813764 -13.5771620  31.5176558   6.2452126 -12.8524423
  31.5094399   5.9080297 -11.8138361  32.0246363   5.4731220 -13.4349477
  30.0929856   6.3427615 -13.3540082  29.5941520   5.5123407 -14.0904474
  29.3904757   7.3682857 -12.8223586  27.9950881   7.5319481 -13.2166350
  27.4611568   7.9425883 -12.3558557  27.5462675   6.5596724 -13.4354699
  27.7634144   8.5028327 -14.4097996  26.7117286   8.3814913 -14.6816063
  28.6212277   8.2134104 -15.6674206  28.1567430   8.6589986 -16.5507984
  28.6727571   7.1337336 -15.8295667  29.9688601   8.7269080 -15.5646062
  31.0457492   8.2664949 -16.6424704  32.0451784   9.5029491 -16.7883587
  33.1442904   9.6824473 -15.8853710  33.1666160   8.8889253 -15.1340580
  32.9862309  10.6323874 -15.3683794  34.4755101   9.7044170 -16.6694605
  35.2839994   9.9057889 -15.9651339  34.4551349  10.5151212 -17.3992705
  34.9044919   8.4657460 -17.4170041  34.0874481   8.2141262 -18.6387825
  33.0551982   8.0314076 -18.3365285  34.5012975   7.3275119 -19.1214073
  34.1522408   9.0822148 -19.2964315  36.3203096   8.6464858 -17.8460610
  36.9477057   8.6732817 -16.9539070  36.4080620   9.5738631 -18.4139943
  36.5921092   7.7874279 -18.4612262  34.8470712   7.2579700 -16.5545511
  35.5571508   7.3829687 -15.7357478  35.1095104   6.4070451 -17.1848965
  33.8312531   7.1330816 -16.1766696  31.7830920   7.1342874 -16.0622895
  30.3879118   8.0765909 -17.9432404  27.9435802   9.8691154 -13.9525032
  27.4624515  10.8751535 -14.7032785  26.9262171  10.7574344 -15.7884872
  27.5450325  12.2063625 -14.0025437  27.1592307  12.9876971 -14.6606743
  26.8940353  12.1558690 -13.1272638  28.9668918  12.5620615 -13.5361052
  28.8648224  13.3949387 -12.8372777  29.3865657  11.7267740 -12.9716277
  29.9387312  12.9538035 -14.6714032  30.0223064  12.1208584 -15.3726041
  29.5401740  13.8079607 -15.2227938  31.3465047  13.2943606 -14.1363978
  31.7018986  12.4280131 -13.5746157  32.0321703  13.4236073 -14.9764109
  31.3819885  14.5728290 -13.2611775  31.5116096  15.4392242 -13.9131141
  30.4212618  14.7162235 -12.7622724  32.4670768  14.6064174 -12.1639705
  33.4487605  14.7219312 -12.6280999  32.3072124  15.4964852 -11.5518534
  32.5212240  13.3761156 -11.2386489  32.8938746  12.5204349 -11.8055749
  33.2577538  13.5696089 -10.4559970  31.1610818  13.0286467 -10.6702054
  30.3992105  12.8171051 -11.4161086  30.8349276  12.9332364  -9.3880320
  29.8160768  12.6589453  -9.1267353  31.7493057  13.1690216  -8.2089627
  31.8968201  12.2275364  -7.6757550  32.7358341  13.5322404  -8.5044187
  31.1022449  14.1789424  -7.2555804  30.9664202  15.1321745  -7.7707154
  30.1162767  13.8115060  -6.9634831  31.9596267  14.3867099  -6.0026228
  32.1746492  13.4049761  -5.5755091  32.9135418  14.8406672  -6.2790817
  31.2410927  15.2630925  -4.9607277  31.0029602  16.2326419  -5.4031426
  30.2903843  14.7969449  -4.6936595  32.0750499  15.4900622  -3.6866069
  32.8901720  16.1783564  -3.9196059  31.4411950  15.9769094  -2.9425174
  32.6936388  14.2156518  -3.0830365  33.4189081  13.8105536  -3.7917972
  33.2566142  14.4847560  -2.1868752  31.6708827  13.1196308  -2.7338403
  31.1419439  13.3966136  -1.8195269  30.9283257  13.0227733  -3.5286286
  32.3430014  11.7511523  -2.5573164  31.5985656  10.9941900  -2.3018044
  33.0922723  11.7927551  -1.7640179  32.8366232  11.4462602  -3.4824339
